Membrane in water
40155
    1TCq1    O1    1   0.346   4.218  11.478  0.1328 -0.1238 -0.0845
    1TCq1    C1    2   0.255   4.137  11.424 -0.0931 -0.2248  0.0091
    1TCq1    O2    3   0.135   4.145  11.440 -0.4333  0.2401 -0.3618
    1TCq1    C2    4   0.317   4.006  11.404  0.4664 -0.2640 -0.2685
    1TCq1    C3    5   0.448   4.002  11.358 -0.6326 -0.6904 -0.6211
    1TCq1    C4    6   0.510   3.880  11.351 -0.9733  0.0016  0.6593
    1TCq1    C5    7   0.455   3.763  11.392  0.5695 -0.2346 -0.3158
    1TCq1    C6    8   0.327   3.776  11.436 -0.3974  0.0459  0.5860
    1TCq1    C7    9   0.258   3.895  11.451 -0.2291 -0.0527 -0.4567
    1TCq1    C8   10   0.251   3.656  11.452 -0.1209  0.7451 -0.3314
    1TCq1    O4   11   0.130   3.676  11.451  0.3094  0.5393  0.3988
    1TCq1    C9   12   0.646   3.883  11.310 -0.2991 -0.9919 -0.3284
    1TCq1    O5   13   0.702   3.999  11.323 -0.2679  0.2996  0.2734
    1TCq1    O6   14   0.702   3.779  11.268 -0.3594  0.1420  0.2079
    1TCq1    H1   15   0.438   4.185  11.483 -0.2100 -1.0991 -0.2387
    1TCq1    H2   16   0.500   4.091  11.325 -0.3118 -1.3682 -1.9606
    1TCq1    H3   17   0.511   3.671  11.379  1.2524  0.1242  0.1090
    1TCq1    H4   18   0.156   3.899  11.488 -0.7192 -1.9251 -1.5948
    2MPD2     C   19   0.153   3.161  11.496  0.4840  0.5038 -0.0481
    2MPD2    C1   20   0.087   3.268  11.550 -0.5021  0.0724  0.2407
    2MPD2    C2   21   0.131   3.397  11.531 -0.7531  0.5647 -0.2153
    2MPD2    C3   22   0.257   3.411  11.477 -0.3897  0.5888  0.4047
    2MPD2    C4   23   0.328   3.303  11.433 -0.0693 -0.2315  0.1228
    2MPD2    C5   24   0.274   3.178  11.449  0.1838 -0.1453 -0.2321
    2MPD2     H   25   0.074   3.483  11.563  0.4307  1.1132  0.4007
    2MPD2    H1   26   0.427   3.308  11.390 -0.9400  0.3095 -1.8042
    2MPD2    H2   27   0.108   3.063  11.500  1.7335  0.0364  2.4988
    2MPD2    H3   28   0.319   3.092  11.402 -1.6428 -1.3479  0.2087
    2MPD2     N   29   0.319   3.535  11.455  0.1655  0.9068  0.4645
    2MPD2    H5   30   0.416   3.534  11.426 -0.2221  0.8569 -0.8703
    2MPD2    N1   31   4.702   3.259  11.629 -0.3963 -0.5034  0.2651
    2MPD2    H7   32   4.666   3.343  11.674 -1.9082 -0.9599 -0.0701
    3TCq1    O1   33   4.332   0.206  10.076  0.2546 -0.3370 -0.6427
    3TCq1    C1   34   4.209   0.205  10.015  0.3869  0.2639  0.6015
    3TCq1    O2   35   4.122   0.284  10.046 -0.5423  0.0327  0.3656
    3TCq1    C2   36   4.197   0.062  10.004  0.4767  0.2333 -0.5299
    3TCq1    C3   37   4.303   4.707   9.959 -0.3458  0.0422 -0.2718
    3TCq1    C4   38   4.275   4.578   9.949 -0.9127 -0.2745 -0.2988
    3TCq1    C5   39   4.158   4.525   9.985 -0.5254  0.3276 -0.2971
    3TCq1    C6   40   4.070   4.601  10.057  0.4011  0.1592 -0.3361
    3TCq1    C7   41   4.083   0.009  10.063  0.3660  0.1442  0.9618
    3TCq1    C8   42   3.967   4.537  10.130 -0.5428  0.2583  0.6587
    3TCq1    O4   43   3.934   4.425  10.094 -0.3573 -0.0580  0.2183
    3TCq1    C9   44   4.377   4.489   9.896  0.2633  0.0500 -0.2860
    3TCq1    O5   45   4.351   4.369   9.890 -0.7004 -0.4571  0.5009
    3TCq1    O6   46   4.485   4.542   9.857  0.0230 -0.2160 -0.2222
    3TCq1    H1   47   4.351   0.115  10.107  0.6078 -1.2715 -3.5136
    3TCq1    H2   48   4.393   0.014   9.909 -1.2162 -0.2573 -2.0559
    3TCq1    H3   49   4.151   4.417   9.986 -0.8531  0.3510  0.0828
    3TCq1    H4   50   4.006   0.073  10.106  1.7039  2.1746  0.3556
    4MPD2     C   51   3.585   4.529  10.467 -0.3663  0.2596 -0.2624
    4MPD2    C1   52   3.641   4.657  10.455  0.1517  0.0401  0.0631
    4MPD2    C2   53   3.761   4.673  10.400 -0.2337  0.3166  0.5030
    4MPD2    C3   54   3.816   4.576  10.325  0.0085  0.3076  0.1793
    4MPD2    C4   55   3.746   4.452  10.309  0.2475 -0.9375  0.4412
    4MPD2    C5   56   3.638   4.431  10.387 -0.4865 -0.4516 -0.5430
    4MPD2     H   57   3.819   0.039  10.399  0.4929 -0.1671 -2.3866
    4MPD2    H1   58   3.771   4.385  10.228 -0.4843 -0.1914 -0.3974
    4MPD2    H2   59   3.482   4.518  10.500 -0.9395  1.3569 -1.7064
    4MPD2    H3   60   3.587   4.336  10.378 -0.8224 -0.3041 -0.1977
    4MPD2     N   61   3.919   4.612  10.237 -0.1384  0.1461  0.6258
    4MPD2    H5   62   3.976   4.694  10.256 -0.2046  0.2815  0.2318
    4MPD2    N1   63   3.571   0.048  10.500  0.5753  0.7807  0.5589
    4MPD2    H7   64   3.627   0.133  10.496  2.1866 -0.3248 -0.2304
    5TCq1    O1   65   4.439   0.968  12.877  0.1595 -0.0657  0.1072
    5TCq1    C1   66   4.378   0.972  12.758 -0.4923  0.1412  0.5040
    5TCq1    O2   67   4.285   1.047  12.736  0.1427 -0.4408  0.6819
    5TCq1    C2   68   4.467   0.909  12.666 -0.1729 -0.0698  0.0467
    5TCq1    C3   69   4.529   0.788  12.679  0.1162  0.2630  0.2274
    5TCq1    C4   70   4.617   0.753  12.577  0.1789 -0.7752  0.6409
    5TCq1    C5   71   4.623   0.835  12.467  0.0535  0.4381  0.3608
    5TCq1    C6   72   4.548   0.944  12.453 -0.7613 -0.6937 -0.8544
    5TCq1    C7   73   4.469   0.987  12.550 -0.1577 -0.3161  0.8731
    5TCq1    C8   74   4.536   0.997  12.317 -0.1183  0.4473  0.3736
    5TCq1    O4   75   4.627   0.959  12.239 -0.4914  0.1780 -0.5658
    5TCq1    C9   76   4.696   0.631  12.579 -0.7424  0.2075  0.4231
    5TCq1    O5   77   4.721   0.579  12.691  0.2683 -0.6238  0.4392
    5TCq1    O6   78   0.025   0.605  12.471 -0.1257  0.1930  0.2691
    5TCq1    H1   79   4.514   0.905  12.886 -0.3796 -0.8129 -0.5186
    5TCq1    H2   80   4.519   0.728  12.768 -0.1743 -2.3785 -1.5973
    5TCq1    H3   81   4.684   0.807  12.382  0.2861 -0.6647  0.8894
    5TCq1    H4   82   4.418   1.082  12.541 -2.0766 -1.5163 -0.8659
    6MPD2     C   83   4.233   1.154  12.173 -0.7299  0.9024 -0.1019
    6MPD2    C1   84   4.362   1.100  12.171  0.4228  0.3404  0.2624
    6MPD2    C2   85   4.424   1.086  12.045 -0.0838  0.2939 -0.5606
    6MPD2    C3   86   4.356   1.134  11.931 -0.2931 -0.8910  0.3799
    6MPD2    C4   87   4.227   1.185  11.945 -0.5770  0.3830  0.3356
    6MPD2    C5   88   4.164   1.192  12.064 -0.9241  0.0006  0.0312
    6MPD2     H   89   4.522   1.040  12.039 -0.5108 -0.6657 -0.1140
    6MPD2    H1   90   4.175   1.219  11.856 -1.0396 -0.3392  0.3335
    6MPD2    H2   91   4.185   1.142  12.270 -0.5131 -0.4677 -0.1559
    6MPD2    H3   92   4.063   1.233  12.068 -1.7558 -2.0395  0.1786
    6MPD2     N   93   4.408   1.119  11.800  0.4196 -0.6836 -0.4058
    6MPD2    H5   94   4.493   1.065  11.786 -0.9903 -2.9059 -0.3851
    6MPD2    N1   95   4.426   1.067  12.295  0.4266 -0.1325 -1.0713
    6MPD2    H7   96   4.367   1.070  12.377  0.4337 -1.3304 -1.0193
    7TCq1    O1   97   2.064   1.554  13.850 -0.5721 -0.2070  0.2897
    7TCq1    C1   98   2.071   1.426  13.857 -0.2527  0.0822  0.1850
    7TCq1    O2   99   2.163   1.358  13.908 -0.5743 -0.3122 -0.6014
    7TCq1    C2  100   2.008   1.380  13.731  0.0564 -0.5031  0.0003
    7TCq1    C3  101   1.888   1.427  13.693 -0.3269  0.2808  0.6957
    7TCq1    C4  102   1.819   1.364  13.589  0.0631 -0.2824  0.3969
    7TCq1    C5  103   1.867   1.250  13.535 -0.1620 -0.5670 -0.7394
    7TCq1    C6  104   1.981   1.203  13.584 -0.7295  0.8486  0.3575
    7TCq1    C7  105   2.057   1.263  13.678  0.1889 -0.3707 -0.5518
    7TCq1    C8  106   2.026   1.085  13.519 -0.4924 -0.0680  0.1340
    7TCq1    O4  107   1.950   1.010  13.461 -0.9299  0.2821  0.0402
    7TCq1    C9  108   1.693   1.416  13.558 -0.6943 -0.2661  0.4734
    7TCq1    O5  109   1.613   1.335  13.517 -0.0799 -0.3185 -0.1522
    7TCq1    O6  110   1.682   1.542  13.565 -0.2996 -0.3474 -0.6556
    7TCq1    H1  111   1.998   1.589  13.787 -2.6807 -1.7997  1.5837
    7TCq1    H2  112   1.842   1.508  13.749 -0.2681 -0.2776  1.5562
    7TCq1    H3  113   1.805   1.188  13.471  0.9160  0.0064 -2.3160
    7TCq1    H4  114   2.131   1.205  13.732 -1.8207 -2.3227  0.0870
    8MPD2     C  115   2.433   0.793  13.386  0.0981 -0.2504 -0.0571
    8MPD2    C1  116   2.298   0.766  13.372 -1.2013 -0.2406 -0.6405
    8MPD2    C2  117   2.206   0.861  13.420  0.2639 -0.8421  0.0189
    8MPD2    C3  118   2.247   0.987  13.463 -0.0668  0.2323 -0.4971
    8MPD2    C4  119   2.382   1.000  13.470  0.0480 -0.1965  0.5305
    8MPD2    C5  120   2.479   0.911  13.432  0.3415  0.1340  0.3376
    8MPD2     H  121   2.101   0.839  13.404  0.1605 -0.2873 -0.0773
    8MPD2    H1  122   2.414   1.098  13.503 -0.0982 -0.0760  0.3172
    8MPD2    H2  123   2.502   0.717  13.352  2.2611  1.4219  0.5418
    8MPD2    H3  124   2.580   0.950  13.427  0.7917 -1.3140 -1.5269
    8MPD2     N  125   2.166   1.088  13.521  0.1084 -0.1380 -0.2516
    8MPD2    H5  126   2.214   1.174  13.547  0.3134 -0.2261 -0.3368
    8MPD2    N1  127   2.265   0.637  13.333 -0.5923  0.6102  0.3190
    8MPD2    H7  128   2.345   0.574  13.332 -0.4909  0.7246  1.5795
    9TCq1    O1  129   3.793   4.539  10.837  0.2741 -0.2278  0.3344
    9TCq1    C1  130   3.775   4.406  10.871  0.1483  0.0398  0.0282
    9TCq1    O2  131   3.734   4.377  10.983 -0.0977 -0.6038  0.5380
    9TCq1    C2  132   3.895   4.346  10.819 -0.2254  0.5740 -0.2190
    9TCq1    C3  133   3.886   4.308  10.691  0.4558 -0.3688  0.0990
    9TCq1    C4  134   4.004   4.271  10.631 -0.7289  0.0895  0.2420
    9TCq1    C5  135   4.126   4.268  10.702 -0.1952  0.8726  0.3656
    9TCq1    C6  136   4.126   4.314  10.828  0.1187 -0.3126 -0.3671
    9TCq1    C7  137   4.012   4.354  10.890 -0.3404 -0.0128 -0.6044
    9TCq1    C8  138   4.255   4.319  10.898  0.0869  0.1701 -0.3623
    9TCq1    O4  139   4.352   4.343  10.827 -0.5007  1.0089  0.3059
    9TCq1    C9  140   3.986   4.207  10.495  0.2048  0.7687 -0.5323
    9TCq1    O5  141   4.093   4.201  10.428  0.3651 -0.1361  0.1189
    9TCq1    O6  142   3.876   4.151  10.466 -0.1846 -0.6555  0.4968
    9TCq1    H1  143   3.849   4.542  10.756 -0.7615  0.6741 -0.3440
    9TCq1    H2  144   3.788   4.311  10.644 -0.4897 -0.1689  2.0801
    9TCq1    H3  145   4.221   4.238  10.658 -0.3929  0.8037 -0.0173
    9TCq1    H4  146   4.004   4.394  10.990  0.2623  1.3465 -1.1014
   10MPD2     C  147   4.473   4.293  11.099 -0.0235 -0.7969  0.6894
   10MPD2    C1  148   4.338   4.288  11.129 -0.5495 -0.8639 -0.2478
   10MPD2    C2  149   4.299   4.260  11.253 -0.0965 -0.2290  0.0900
   10MPD2    C3  150   4.396   4.252  11.352  0.9690 -0.1426 -0.0190
   10MPD2    C4  151   4.531   4.269  11.324  0.0664  0.2663 -0.1974
   10MPD2    C5  152   4.571   4.287  11.196  0.8857 -0.0301  0.3621
   10MPD2     H  153   4.194   4.259  11.282  0.7564 -1.0649  3.1381
   10MPD2    H1  154   4.606   4.252  11.401 -0.2742 -0.6655 -0.0802
   10MPD2    H2  155   4.510   4.301  10.998 -0.3754 -2.6536  0.4208
   10MPD2    H3  156   4.673   4.295  11.162  1.3366 -1.2641  1.4479
   10MPD2     N  157   4.367   4.253  11.491  0.1923 -0.1289  0.0659
   10MPD2    H5  158   4.449   4.251  11.550  1.4131 -2.6015 -1.7444
   10MPD2    N1  159   4.236   4.288  11.031 -0.2383 -0.3477 -0.1946
   10MPD2    H7  160   4.142   4.270  11.062 -0.2604  1.8933  1.0951
   11TCq1    O1  161   1.186   3.691  14.227 -0.1402  0.4391  0.0036
   11TCq1    C1  162   1.222   3.719  14.356  0.3595  0.4910 -0.0719
   11TCq1    O2  163   1.287   3.642  14.423  0.4618 -0.5602 -0.1802
   11TCq1    C2  164   1.230   3.869  14.369  0.2255 -0.2951 -0.9250
   11TCq1    C3  165   1.339   3.929  14.417 -0.0217  0.1233 -0.0671
   11TCq1    C4  166   1.359   4.064  14.413  0.7947 -0.1133 -0.2401
   11TCq1    C5  167   1.256   4.142  14.368 -0.2424 -0.3566  0.7993
   11TCq1    C6  168   1.142   4.078  14.330  0.4843 -0.0477  0.0079
   11TCq1    C7  169   1.127   3.943  14.325 -0.2127  0.1754 -0.2572
   11TCq1    C8  170   1.029   4.165  14.291  0.6853  0.1491  0.3736
   11TCq1    O4  171   1.036   4.284  14.295  0.6442  0.3187  0.0249
   11TCq1    C9  172   1.491   4.114  14.453 -0.6850  0.7719 -0.1619
   11TCq1    O5  173   1.566   4.025  14.492  0.1542 -0.0924 -0.0712
   11TCq1    O6  174   1.509   4.235  14.486  0.5745  0.3261 -0.0455
   11TCq1    H1  175   1.138   3.767  14.187  1.3737  1.6364  0.4236
   11TCq1    H2  176   1.409   3.861  14.465  0.0246 -0.8746 -1.5665
   11TCq1    H3  177   1.273   4.246  14.343 -4.5011  0.7156  2.3780
   11TCq1    H4  178   1.038   3.889  14.295 -0.4234  1.9422 -2.8224
   12MPD2     C  179   0.751   4.262  14.190 -0.3859  0.2709 -0.4343
   12MPD2    C1  180   0.795   4.133  14.190  0.2203 -1.1782  0.5430
   12MPD2    C2  181   0.711   4.030  14.149 -0.2245 -0.5886  0.0828
   12MPD2    C3  182   0.584   4.053  14.111  0.3982  0.6256  0.0955
   12MPD2    C4  183   0.550   4.179  14.089  0.6724  0.1677 -0.4285
   12MPD2    C5  184   0.628   4.288  14.135  1.2250  0.5413 -0.3152
   12MPD2     H  185   0.752   3.929  14.157  0.1148 -0.4420  0.2216
   12MPD2    H1  186   0.454   4.191  14.038  0.5724 -4.3107 -1.3030
   12MPD2    H2  187   0.813   4.344  14.225  1.0068 -0.3735 -1.4299
   12MPD2    H3  188   0.592   4.390  14.122 -0.7727 -0.1718 -0.3305
   12MPD2     N  189   0.501   3.949  14.058 -0.6006 -0.6482 -0.0592
   12MPD2    H5  190   0.406   3.981  14.042 -0.2986  1.6149  2.6551
   12MPD2    N1  191   0.921   4.090  14.242 -0.1056 -0.2426  0.0256
   12MPD2    H7  192   0.945   3.992  14.242  0.7848 -0.0253  0.6782
   13TCq1    O1  193   4.010   3.543  11.065  0.2827  0.5591  0.1143
   13TCq1    C1  194   4.037   3.523  10.935  0.0477  0.8446 -0.2188
   13TCq1    O2  195   4.099   3.425  10.897 -0.0108  0.4367  0.3565
   13TCq1    C2  196   3.991   3.636  10.846  0.3032  0.2315 -0.0869
   13TCq1    C3  197   4.037   3.626  10.712  0.0508 -0.5298  0.1426
   13TCq1    C4  198   4.014   3.734  10.633  0.2046 -0.2078  0.2066
   13TCq1    C5  199   3.975   3.852  10.681  0.1085 -0.6069 -0.2021
   13TCq1    C6  200   3.927   3.855  10.809  0.0076 -0.1435 -0.4031
   13TCq1    C7  201   3.931   3.744  10.893 -0.6932 -0.7003 -0.3679
   13TCq1    C8  202   3.819   3.954  10.843  0.4082  0.1700  0.6423
   13TCq1    O4  203   3.796   3.989  10.960 -0.3868 -0.0765  0.2368
   13TCq1    C9  204   4.056   3.728  10.490  0.6860 -0.0771  0.2674
   13TCq1    O5  205   4.057   3.613  10.437  0.4316  0.0731  0.3622
   13TCq1    O6  206   4.043   3.838  10.424 -0.2032  0.2040  0.1404
   13TCq1    H1  207   3.950   3.615  11.092 -2.2152 -0.9944 -1.2921
   13TCq1    H2  208   4.086   3.535  10.679 -1.6565 -1.6014  0.5513
   13TCq1    H3  209   3.977   3.943  10.622  0.8371 -0.8063 -0.4907
   13TCq1    H4  210   3.907   3.753  10.998 -0.6234  0.0919 -0.4175
   14MPD2     C  211   3.532   4.054  10.631  0.0500 -0.0517  0.5326
   14MPD2    C1  212   3.616   4.063  10.737 -0.2121 -0.5688 -0.1289
   14MPD2    C2  213   3.571   4.133  10.847  0.1713  0.7003  0.3045
   14MPD2    C3  214   3.456   4.208  10.847 -0.4762 -0.1817  0.4467
   14MPD2    C4  215   3.390   4.219  10.729 -0.3818 -0.3054  0.0473
   14MPD2    C5  216   3.410   4.129  10.627  0.3138 -0.2066 -0.5615
   14MPD2     H  217   3.637   4.130  10.933 -0.2686 -0.6265  0.5998
   14MPD2    H1  218   3.294   4.270  10.734 -0.2727 -0.0789 -0.1348
   14MPD2    H2  219   3.562   3.995  10.545  1.3661 -1.9236  2.2445
   14MPD2    H3  220   3.338   4.124  10.546  0.3427  1.3175 -0.6797
   14MPD2     N  221   3.423   4.270  10.971  0.2194 -0.1161  0.2723
   14MPD2    H5  222   3.500   4.278  11.037 -0.6424 -1.7038  1.4847
   14MPD2    N1  223   3.733   3.976  10.740  0.2154 -0.2661  0.6048
   14MPD2    H7  224   3.747   3.921  10.656 -2.5871  0.7147 -0.5048
   15TCq1    O1  225   2.061   0.268   1.791 -0.6064  0.0064  0.3904
   15TCq1    C1  226   2.072   0.133   1.762 -0.0281  0.2945 -0.1668
   15TCq1    O2  227   2.154   0.083   1.685 -0.3958 -0.3247 -0.9061
   15TCq1    C2  228   1.933   0.080   1.763 -1.1422  0.3311  0.5606
   15TCq1    C3  229   1.833   0.143   1.826  0.6352 -0.3161 -0.0450
   15TCq1    C4  230   1.705   0.090   1.809 -0.5436 -0.5694 -0.2036
   15TCq1    C5  231   1.685   4.692   1.747  0.1982  0.3460  0.4348
   15TCq1    C6  232   1.792   4.625   1.696  0.7902  0.1030 -0.5117
   15TCq1    C7  233   1.917   4.680   1.705  0.0994  0.3320 -0.8023
   15TCq1    C8  234   1.781   4.497   1.627  0.3830 -0.6051 -0.0634
   15TCq1    O4  235   1.878   4.437   1.588  0.1700  0.2215  0.0727
   15TCq1    C9  236   1.590   0.152   1.871  0.1643  0.7810 -0.7219
   15TCq1    O5  237   1.611   0.271   1.904 -0.2058  0.1939 -0.1797
   15TCq1    O6  238   1.496   0.079   1.920  0.3524  0.0148 -0.7921
   15TCq1    H1  239   2.014   0.282   1.875  0.2783 -0.1402  0.9098
   15TCq1    H2  240   1.844   0.239   1.874  0.3373  0.7095 -2.0293
   15TCq1    H3  241   1.584   4.652   1.748  0.5223 -0.5233 -1.0205
   15TCq1    H4  242   1.998   4.635   1.648 -0.4916 -0.9500 -0.6297
   16MPD2     C  243   1.464   4.311   1.527 -0.7766  0.4000 -0.0625
   16MPD2    C1  244   1.602   4.338   1.546 -0.9496 -0.0700 -0.6804
   16MPD2    C2  245   1.694   4.235   1.518  0.0432 -0.0510  0.2597
   16MPD2    C3  246   1.647   4.117   1.466  0.3307  0.3372  0.2845
   16MPD2    C4  247   1.512   4.102   1.435 -0.2885 -0.1562 -0.2005
   16MPD2    C5  248   1.420   4.191   1.475  0.1831 -0.5132  0.3071
   16MPD2     H  249   1.797   4.243   1.550  0.6373 -1.4279 -1.3457
   16MPD2    H1  250   1.465   4.017   1.388 -2.1661  1.1190 -0.6274
   16MPD2    H2  251   1.396   4.394   1.543 -2.0119 -0.6501  0.0932
   16MPD2    H3  252   1.319   4.174   1.440  0.1257 -2.8610  1.6681
   16MPD2     N  253   1.739   4.015   1.439  0.3116 -0.1626 -0.2923
   16MPD2    H5  254   1.836   4.034   1.461  0.2106  0.2642 -0.2128
   16MPD2    N1  255   1.647   4.460   1.606 -0.5905  0.7923  0.2122
   16MPD2    H7  256   1.579   4.527   1.640 -0.1719  1.9976 -1.2863
   17TCq1    O1  257   3.511   3.518  11.670 -0.0372 -0.5077 -0.5696
   17TCq1    C1  258   3.563   3.398  11.639 -0.4430 -0.2650  0.5844
   17TCq1    O2  259   3.593   3.319  11.731 -0.2173  0.1093  0.1242
   17TCq1    C2  260   3.657   3.423  11.535  0.3021  0.7215 -0.1342
   17TCq1    C3  261   3.651   3.536  11.454 -0.5412 -0.3464  0.0589
   17TCq1    C4  262   3.754   3.557  11.366 -0.4300 -0.5786 -0.2963
   17TCq1    C5  263   3.864   3.481  11.368 -0.5667 -0.2829  0.2664
   17TCq1    C6  264   3.875   3.386  11.459 -0.0804 -0.2131  0.1125
   17TCq1    C7  265   3.768   3.343  11.533  1.0044  0.0434  0.1322
   17TCq1    C8  266   3.991   3.297  11.464  0.0897 -0.2685  0.2505
   17TCq1    O4  267   3.971   3.187  11.521  0.3504 -0.2367 -0.0780
   17TCq1    C9  268   3.747   3.665  11.272  0.3045  0.6846  0.3550
   17TCq1    O5  269   3.854   3.678  11.207  0.1447  0.3215  0.8808
   17TCq1    O6  270   3.656   3.750  11.282  0.4024  0.1965 -0.0337
   17TCq1    H1  271   3.484   3.560  11.585  0.9227  2.0651  0.4006
   17TCq1    H2  272   3.568   3.605  11.445 -0.1236  0.0301 -0.9388
   17TCq1    H3  273   3.947   3.498  11.301 -0.8985 -0.0867 -0.0945
   17TCq1    H4  274   3.773   3.264  11.607 -1.0716  0.3091  0.5659
   18MPD2     C  275   4.264   3.177  11.457 -0.0036 -0.1561 -0.1896
   18MPD2    C1  276   4.241   3.302  11.421  0.1826  0.0491 -0.1368
   18MPD2    C2  277   4.347   3.375  11.358 -0.1285 -0.1712  0.8332
   18MPD2    C3  278   4.478   3.325  11.353  0.0409  0.5486  0.5919
   18MPD2    C4  279   4.504   3.193  11.383 -0.7288  0.9684 -0.4084
   18MPD2    C5  280   4.396   3.126  11.438 -0.1904 -0.0915  0.7334
   18MPD2     H  281   4.326   3.479  11.335 -1.6878 -1.1300 -2.1195
   18MPD2    H1  282   4.598   3.144  11.359 -0.3249  0.9140  1.2745
   18MPD2    H2  283   4.189   3.108  11.494  0.2715 -0.3786 -0.0431
   18MPD2    H3  284   4.409   3.020  11.451  1.3427  0.1638  1.2221
   18MPD2     N  285   4.584   3.394  11.304 -0.0304 -0.4597  0.1089
   18MPD2    H5  286   4.669   3.340  11.287 -1.7326 -2.8731 -0.7710
   18MPD2    N1  287   4.107   3.355  11.414 -0.1716 -0.0134  0.0248
   18MPD2    H7  288   4.097   3.451  11.383 -0.3759 -0.3644 -1.0225
   19TMC2    C1  289   1.722   3.755  13.614 -0.9132  0.0721 -0.1923
   19TMC2    C2  290   1.728   3.873  13.680  0.2951 -1.0769 -0.4957
   19TMC2    C3  291   1.641   3.970  13.637  0.3874 -0.3195  0.1703
   19TMC2    C4  292   1.642   3.732  13.507  0.1834  0.9879 -0.1165
   19TMC2    C5  293   1.560   3.834  13.461  0.3740  0.3081  0.1528
   19TMC2    C6  294   1.551   3.955  13.526 -0.2225  0.1791  0.0973
   19TMC2     C  295   1.809   3.644  13.655  0.1215 -0.3200  0.6377
   19TMC2     O  296   1.823   3.551  13.578  0.6228  0.1231  0.0470
   19TMC2     H  297   1.788   3.893  13.768  1.7098 -2.3687 -1.1741
   19TMC2    H1  298   1.634   3.627  13.483 -0.2484  0.7271  1.2155
   19TMC2    H2  299   1.483   4.029  13.486  0.0624 -0.7872 -2.1851
   19TMC2    C7  300   1.455   3.787  13.371 -0.0775  0.4025  0.1475
   19TMC2    C8  301   1.641   4.092  13.707  0.8102  0.6403 -0.0671
   19TMC2    O1  302   1.486   3.679  13.319  0.1234 -0.0388  0.5001
   19TMC2    O2  303   1.746   4.118  13.764  0.2588  0.2293 -0.1611
   19TMC2    O5  304   1.523   4.101  13.759  0.2979  0.5679 -0.1791
   19TMC2    H5  305   1.447   4.079  13.702 -1.0194 -1.2053  2.2638
   20MPD2     C  306   1.989   3.443  13.794  0.2528 -0.5702  0.4980
   20MPD2    C1  307   1.934   3.556  13.852  0.3392  0.4763  0.3983
   20MPD2    C2  308   1.970   3.584  13.980 -0.3920 -0.1221  0.1573
   20MPD2    C3  309   2.062   3.502  14.048  0.0935 -0.2815 -0.3414
   20MPD2    C4  310   2.090   3.381  13.997 -0.5346 -0.7444 -0.9085
   20MPD2    C5  311   2.058   3.357  13.873 -0.6330 -0.1805 -0.1613
   20MPD2     H  312   1.925   3.671  14.028 -1.4774 -0.8365  0.4336
   20MPD2    H1  313   2.137   3.299  14.051 -0.6099  0.6563  1.2797
   20MPD2    H2  314   1.981   3.417  13.689 -0.9098  0.3034  0.3659
   20MPD2    H3  315   2.088   3.261  13.833  2.5546  0.4969  0.6665
   20MPD2     N  316   2.113   3.530  14.178  0.6659 -0.5225 -0.2645
   20MPD2    H5  317   2.171   3.462  14.224  1.0825  1.6247  2.3827
   20MPD2    N1  318   1.854   3.650  13.780  0.5716  0.2146 -0.3206
   20MPD2    H7  319   1.814   3.727  13.832 -0.2558 -0.0824 -0.5034
   21MPD2     C  320   3.308   4.298  14.318 -0.8515  0.6126 -0.0296
   21MPD2    C1  321   3.373   4.186  14.368  0.2495 -0.2585  0.5155
   21MPD2    C2  322   3.332   4.122  14.482  0.3413  0.1108 -0.2484
   21MPD2    C3  323   3.251   4.194  14.569  0.0292  0.7029 -0.2028
   21MPD2    C4  324   3.200   4.309  14.522  0.2283 -0.1227 -0.7596
   21MPD2    C5  325   3.220   4.360  14.399 -0.0386  0.1327  0.2348
   21MPD2     H  326   3.382   4.029  14.509 -0.0664  0.8538  2.9919
   21MPD2    H1  327   3.142   4.366  14.593 -0.4599  0.2733 -1.6350
   21MPD2    H2  328   3.330   4.341  14.221  0.4668 -1.5224 -0.6744
   21MPD2    H3  329   3.163   4.450  14.379  0.9306  0.6558 -0.2026
   21MPD2     N  330   3.232   4.164  14.707  0.1033  0.4594  0.5391
   21MPD2    H5  331   3.165   4.225  14.753 -0.9888  0.5706 -1.2051
   21MPD2    N1  332   3.482   4.129  14.304 -0.1627 -0.2372 -0.0794
   21MPD2    H7  333   3.531   4.052  14.349  0.2431  0.0550 -0.0228
   22TCq2    C1  334   3.291   4.069  14.780 -0.1121  0.2516 -0.0665
   22TCq2    O2  335   3.362   3.978  14.744  0.3217 -0.4671 -0.6278
   22TCq2    C2  336   3.262   4.082  14.927 -0.6433  0.6898  0.2539
   22TCq2    C3  337   3.323   3.995  15.017 -0.3222  0.7876 -0.0823
   22TCq2    C4  338   3.308   4.022  15.150 -0.5293 -0.3089  0.4725
   22TCq2    C5  339   3.256   4.134  15.196  0.3765 -0.2893  0.2891
   22TCq2    C6  340   3.208   4.233  15.105 -0.1214  0.2437  0.5194
   22TCq2    C7  341   3.212   4.208  14.973 -0.3650 -0.9040  0.6135
   22TCq2    C8  342   3.147   4.355  15.149  0.3958  0.0224 -0.4008
   22TCq2    O4  343   3.172   4.402  15.259 -0.1139 -0.1881  0.0333
   22TCq2    C9  344   3.371   3.924  15.243  0.1679 -0.9583  0.1130
   22TCq2    O5  345   3.418   3.815  15.196 -0.8707  0.2787 -0.0283
   22TCq2    O6  346   3.407   3.981  15.348 -0.5987 -0.1089 -0.5172
   22TCq2    H2  347   3.382   3.912  14.980  2.9266  3.3311 -0.5911
   22TCq2    H3  348   3.253   4.148  15.303 -3.4951 -0.3218  0.1952
   22TCq2    H4  349   3.193   4.292  14.908  0.9232  0.3182  1.8344
   23MPD2     C  350   0.495   0.658  14.362 -0.0459  0.0601 -0.4236
   23MPD2    C1  351   0.410   0.557  14.406 -1.1550 -0.2883  0.8507
   23MPD2    C2  352   0.297   0.531  14.337 -0.5661 -0.2472  0.8601
   23MPD2    C3  353   0.250   0.623  14.236  0.1383  0.6639  0.0185
   23MPD2    C4  354   0.332   0.729  14.208  0.1320  0.2495  0.4610
   23MPD2    C5  355   0.454   0.743  14.266  0.1160  0.6388  0.4877
   23MPD2     H  356   0.230   0.464  14.388 -0.0658 -0.5929  1.0614
   23MPD2    H1  357   0.295   0.811  14.148 -0.5244 -0.0571  0.4517
   23MPD2    H2  358   0.583   0.688  14.418 -0.2972  1.6365 -0.8757
   23MPD2    H3  359   0.509   0.834  14.247  1.3576 -0.1230  0.4541
   23MPD2     N  360   0.123   0.619  14.174 -0.2676 -0.3491 -0.2324
   23MPD2    H5  361   0.103   0.702  14.119  0.2598 -1.6062 -2.2948
   23MPD2    N1  362   0.439   0.478  14.525 -0.1557 -0.3097  0.2349
   23MPD2    H7  363   0.358   0.427  14.557  1.5559 -1.9966  1.9017
   24TCq2    C1  364   0.030   0.524  14.199 -0.0614  0.1347 -0.4112
   24TCq2    O2  365   0.046   0.427  14.267 -0.1497 -0.1131  0.2381
   24TCq2    C2  366   4.619   0.564  14.181  0.4113  0.1957 -0.3275
   24TCq2    C3  367   4.588   0.696  14.183 -0.3567 -0.0852 -0.2939
   24TCq2    C4  368   4.455   0.724  14.220 -0.7604 -0.6045 -0.5409
   24TCq2    C5  369   4.366   0.627  14.255  0.1036  0.2862  0.1942
   24TCq2    C6  370   4.398   0.496  14.236 -0.0794 -0.2283 -0.1966
   24TCq2    C7  371   4.528   0.467  14.209 -0.2901  0.3074 -0.2093
   24TCq2    C8  372   4.309   0.434  14.141 -0.1143 -0.6218 -0.4270
   24TCq2    O4  373   4.360   0.355  14.059  0.2655  0.1055  0.2158
   24TCq2    C9  374   4.418   0.863  14.227 -0.0611  0.8049  0.3065
   24TCq2    O5  375   4.514   0.946  14.210  0.4878  0.1592 -0.1258
   24TCq2    O6  376   4.296   0.895  14.240 -0.8467 -0.1956  0.0722
   24TCq2    H2  377   4.666   0.770  14.173 -0.8687  0.4979  0.0650
   24TCq2    H3  378   4.271   0.674  14.275  0.5212  0.7435  1.0980
   24TCq2    H4  379   4.553   0.362  14.204 -0.9568  0.1287  0.3303
   25TMC2    C1  380   4.047   2.450  11.609 -0.2654  0.2728  0.3493
   25TMC2    C2  381   4.152   2.535  11.577  0.3937  0.0452  0.5981
   25TMC2    C3  382   4.167   2.660  11.625  0.1131  0.1177 -0.8367
   25TMC2    C4  383   3.956   2.491  11.704  0.1010  0.2518 -0.2028
   25TMC2    C5  384   3.972   2.621  11.750 -0.3865  0.1353 -0.5719
   25TMC2    C6  385   4.071   2.700  11.712  0.6578 -0.3212  0.2924
   25TMC2     C  386   4.037   2.322  11.535 -0.0207  0.5459 -0.3948
   25TMC2     O  387   4.134   2.284  11.470  0.4693  0.2615  0.3598
   25TMC2     H  388   4.213   2.507  11.492  0.2752 -0.4644  0.6819
   25TMC2    H1  389   3.874   2.431  11.741 -0.3783 -0.1034 -1.8133
   25TMC2    H2  390   4.084   2.798  11.757 -1.1121  1.0673 -2.1653
   25TMC2    C7  391   3.882   2.656  11.858 -0.0135  0.0827  0.1107
   25TMC2    C8  392   4.246   2.746  11.545  0.3058  0.1295 -1.2024
   25TMC2    O1  393   3.832   2.566  11.921 -0.1549  0.6850 -0.1481
   25TMC2    O2  394   4.296   2.707  11.441  0.1304  0.1917  0.4592
   25TMC2    O5  395   4.267   2.864  11.610 -0.5278 -0.5307 -0.5255
   25TMC2    H5  396   4.216   2.866  11.693  0.0556 -2.0609 -0.1275
   26MPD2     C  397   3.757   1.947  11.344 -0.1132 -0.1554 -0.0208
   26MPD2    C1  398   3.673   2.008  11.440 -0.4265 -0.0214 -0.3462
   26MPD2    C2  399   3.729   2.120  11.503 -0.3816 -0.5372  0.4717
   26MPD2    C3  400   3.861   2.162  11.480  0.2701 -0.0351  0.3121
   26MPD2    C4  401   3.936   2.091  11.391 -0.0684 -0.0846  0.4285
   26MPD2    C5  402   3.885   1.992  11.316  0.1092 -0.4341  0.8079
   26MPD2     H  403   3.672   2.172  11.579 -1.6555  0.7799 -1.3639
   26MPD2    H1  404   4.042   2.108  11.375 -0.5519  1.1890 -1.3433
   26MPD2    H2  405   3.714   1.875  11.275  1.6465 -2.1149  0.9337
   26MPD2    H3  406   3.939   1.948  11.233  1.3974 -0.8951  1.9005
   26MPD2     N  407   3.913   2.271  11.547 -0.1989 -0.0707 -0.0533
   26MPD2    H5  408   3.850   2.310  11.617 -0.3358 -2.8122  1.3378
   26MPD2    N1  409   3.537   1.977  11.453 -0.2489 -0.3861  0.3203
   26MPD2    H7  410   3.507   1.901  11.393 -0.6021  0.5874 -0.7496
   27TMC2    C1  411   2.751   4.459  12.167  0.0462 -0.3213  0.0372
   27TMC2    C2  412   2.682   4.508  12.056 -0.4591  0.7561  0.0174
   27TMC2    C3  413   2.697   4.637  12.027 -1.0053 -0.0417  0.4088
   27TMC2    C4  414   2.826   4.536  12.252 -0.6466  0.4884 -0.5086
   27TMC2    C5  415   2.810   4.675  12.231  0.1582  0.4035 -0.1623
   27TMC2    C6  416   2.755   4.720  12.118  0.8131  0.0857 -0.3072
   27TMC2     C  417   2.674   4.364  12.246  0.6845 -0.1763  0.1442
   27TMC2     O  418   2.727   4.252  12.259 -0.3263  0.1420  0.5641
   27TMC2     H  419   2.608   4.449  12.004 -0.1288  0.1926  0.1767
   27TMC2    H1  420   2.868   4.489  12.340 -1.2660  1.0765  0.1041
   27TMC2    H2  421   2.746   0.101  12.101  1.1772  0.1730  0.0585
   27TMC2    C7  422   2.768   0.022  12.350 -0.6087 -0.0248  0.7103
   27TMC2    C8  423   2.632   4.689  11.908 -0.7714 -0.2180  0.3623
   27TMC2    O1  424   2.706   0.123  12.336 -0.1554 -0.4373 -0.4941
   27TMC2    O2  425   2.598   0.077  11.898 -0.1638 -0.6278 -0.8134
   27TMC2    O5  426   2.686   4.621  11.811 -0.3150 -0.2618 -0.5200
   27TMC2    H5  427   2.727   4.536  11.838 -1.8279 -0.8980 -0.1956
   28MPD2     C  428   2.413   4.286  12.674 -0.1511  0.6344 -0.0036
   28MPD2    C1  429   2.372   4.408  12.625  0.0892  0.1988  0.1096
   28MPD2    C2  430   2.418   4.448  12.500  0.6451  0.2057  0.4709
   28MPD2    C3  431   2.507   4.361  12.433  0.0400 -0.0844 -0.5499
   28MPD2    C4  432   2.529   4.237  12.477 -0.2644 -0.4292  0.4782
   28MPD2    C5  433   2.489   4.200  12.597  0.6753  0.2454  0.5728
   28MPD2     H  434   2.386   4.540  12.453  2.7367  0.7103  0.0666
   28MPD2    H1  435   2.594   4.168  12.423  0.0184 -1.4875  2.1869
   28MPD2    H2  436   2.380   4.257  12.773 -0.4773  1.0273  0.0004
   28MPD2    H3  437   2.522   4.106  12.638  0.9390  0.2587  0.3886
   28MPD2     N  438   2.578   4.420  12.328  0.6800 -0.0066  0.5045
   28MPD2    H5  439   2.557   4.515  12.300  0.7837 -0.1751 -0.1278
   28MPD2    N1  440   2.278   4.483  12.702 -0.0953 -0.3391  0.1031
   28MPD2    H7  441   2.249   4.445  12.792 -0.1779  0.8251  0.5755
   29MPD2     C  442   2.373   2.253  14.438  0.4516  0.0692 -0.1983
   29MPD2    C1  443   2.434   2.250  14.563  0.7843 -0.4291  0.8083
   29MPD2    C2  444   2.442   2.373  14.638 -0.7115 -0.8903 -0.3699
   29MPD2    C3  445   2.403   2.487  14.571  1.1437 -0.4168 -0.1285
   29MPD2    C4  446   2.340   2.479  14.450 -0.4697 -0.1433 -0.5931
   29MPD2    C5  447   2.327   2.362  14.387  0.0197  0.0936 -0.2909
   29MPD2     H  448   2.500   2.377  14.729 -0.5740  1.1392 -0.5652
   29MPD2    H1  449   2.302   2.566  14.398 -0.9150 -1.4166 -2.3658
   29MPD2    H2  450   2.367   2.167  14.372 -2.4497 -0.0643  0.2218
   29MPD2    H3  451   2.279   2.361  14.289 -0.6325  2.0436  0.0028
   29MPD2     N  452   2.428   2.620  14.618  0.0972 -0.4064  0.1554
   29MPD2    H5  453   2.407   2.692  14.550 -0.4387 -1.2301 -0.5417
   29MPD2    N1  454   2.484   2.127  14.600 -0.6604  0.1917  0.5350
   29MPD2    H7  455   2.455   2.051  14.540  4.1767  0.9657 -2.7795
   30TCq2    C1  456   2.451   2.658  14.748  0.3341 -0.1859 -0.1108
   30TCq2    O2  457   2.426   2.595  14.851 -0.8051  0.5312 -0.0731
   30TCq2    C2  458   2.461   2.802  14.760 -0.6990 -0.0988  0.2640
   30TCq2    C3  459   2.433   2.851  14.885 -0.1637  0.2120 -0.4231
   30TCq2    C4  460   2.439   2.983  14.906  0.7394 -0.2038 -0.0350
   30TCq2    C5  461   2.477   3.067  14.809  0.0777  0.0420 -0.2117
   30TCq2    C6  462   2.504   3.015  14.685  0.1595  0.5127  0.1561
   30TCq2    C7  463   2.506   2.879  14.662  0.2959  0.5746 -0.3443
   30TCq2    C8  464   2.515   3.096  14.566  0.0199  0.7355  0.0172
   30TCq2    O4  465   2.484   3.048  14.457  0.0811 -0.0118 -0.7277
   30TCq2    C9  466   2.413   3.031  15.035  0.0266  0.8782  0.2007
   30TCq2    O5  467   2.465   3.143  15.061 -0.4055 -0.2400  0.3010
   30TCq2    O6  468   2.380   2.942  15.119 -0.0812 -0.1001 -0.2279
   30TCq2    H2  469   2.401   2.787  14.966  0.9170  0.3664  0.1136
   30TCq2    H3  470   2.466   3.171  14.838  2.2178  0.3180 -0.3847
   30TCq2    H4  471   2.539   2.830  14.571 -1.3850  0.4394 -0.8944
   31MPD2     C  472   0.550   1.089  14.433  0.1184  0.5381  0.3267
   31MPD2    C1  473   0.413   1.089  14.445  0.5881  0.3170  1.3932
   31MPD2    C2  474   0.358   1.007  14.536 -0.0286  0.1318 -0.2891
   31MPD2    C3  475   0.440   0.942  14.626 -0.1064  0.0270  0.4736
   31MPD2    C4  476   0.575   0.932  14.602  0.6486  0.0800  0.1040
   31MPD2    C5  477   0.634   1.009  14.505 -0.2479  0.8880  0.0737
   31MPD2     H  478   0.250   0.996  14.539  0.2089 -1.9698  0.6638
   31MPD2    H1  479   0.646   0.875  14.661 -0.4529  0.2024  1.5372
   31MPD2    H2  480   0.592   1.142  14.349 -0.0818 -1.2459 -0.8999
   31MPD2    H3  481   0.740   1.012  14.483 -0.1029  1.6959  0.9011
   31MPD2     N  482   0.390   0.852  14.722 -0.1127 -0.1293 -0.4925
   31MPD2    H5  483   0.291   0.833  14.716 -0.0405 -0.1667 -1.6646
   31MPD2    N1  484   0.342   1.185  14.365  0.4459  0.3009  0.0686
   31MPD2    H7  485   0.389   1.238  14.293  0.3058 -0.5719 -0.6657
   32TCq2    C1  486   0.461   0.798  14.825  0.1704 -0.8641  0.4365
   32TCq2    O2  487   0.562   0.846  14.878  0.1993 -0.2955  0.1239
   32TCq2    C2  488   0.374   0.709  14.902 -0.1658  0.1008  0.0326
   32TCq2    C3  489   0.306   0.607  14.835  0.1298 -0.0539 -0.5244
   32TCq2    C4  490   0.234   0.516  14.908 -0.5014 -0.1535  0.0421
   32TCq2    C5  491   0.227   0.529  15.048 -0.1492  0.0997 -0.0062
   32TCq2    C6  492   0.303   0.622  15.110  0.9739  0.0523  1.2086
   32TCq2    C7  493   0.386   0.709  15.044 -1.0269 -0.0278  0.0218
   32TCq2    C8  494   0.302   0.620  15.255  0.3516 -0.0732  0.0068
   32TCq2    O4  495   0.204   0.571  15.305  0.0417  0.2691  0.2690
   32TCq2    C9  496   0.165   0.408  14.840  0.3405 -0.0120  0.7153
   32TCq2    O5  497   0.206   0.391  14.722  0.0298  0.8105  0.1053
   32TCq2    O6  498   0.060   0.351  14.890  0.1216 -0.2893  0.4049
   32TCq2    H2  499   0.315   0.594  14.728 -0.8045 -0.2025 -0.5809
   32TCq2    H3  500   0.175   0.459  15.112 -2.2757  0.4951 -1.2887
   32TCq2    H4  501   0.450   0.778  15.098  2.3360 -1.1908 -2.4472
   33MPD2     C  502   4.401   3.890  10.805 -0.1349  0.2066  1.3649
   33MPD2    C1  503   4.536   3.865  10.783 -0.1652 -0.4612  0.4985
   33MPD2    C2  504   4.583   3.901  10.655 -0.2863  0.1749  0.5863
   33MPD2    C3  505   4.497   3.961  10.564 -0.4818  0.6040 -0.0802
   33MPD2    C4  506   4.368   3.991  10.600 -0.3240  0.2982  0.0036
   33MPD2    C5  507   4.319   3.964  10.725  0.7021  1.1906  0.6173
   33MPD2     H  508   4.685   3.872  10.632  0.2257  0.9097  1.9119
   33MPD2    H1  509   4.304   4.047  10.532  0.2318 -0.6275 -1.2870
   33MPD2    H2  510   4.370   3.859  10.905 -1.0768  0.5439  1.1818
   33MPD2    H3  511   4.216   3.980  10.756  0.5901 -1.7253  1.7092
   33MPD2     N  512   4.539   3.979  10.429 -0.1526  0.6900 -0.2892
   33MPD2    H5  513   4.462   4.004  10.368 -0.1888  0.3201 -0.3924
   33MPD2    N1  514   4.599   3.791  10.885  0.2266  0.3082 -0.0788
   33MPD2    H7  515   4.539   3.764  10.962 -2.0436  1.9902 -1.2402
   34TCq2    C1  516   4.671   3.989  10.384 -0.1449  0.2235 -0.8120
   34TCq2    O2  517   0.052   4.000  10.445 -0.3644  0.2821  0.2362
   34TCq2    C2  518   4.679   4.001  10.241 -1.3089 -0.5524 -0.0513
   34TCq2    C3  519   4.571   3.964  10.162  0.6395  0.3679 -1.3192
   34TCq2    C4  520   4.589   3.952  10.026  0.2899 -0.0823 -0.7063
   34TCq2    C5  521   4.718   3.978   9.973  0.3395  0.3236  1.1307
   34TCq2    C6  522   0.094   4.022  10.060  0.0205  0.4830  0.8164
   34TCq2    C7  523   0.079   4.032  10.200  0.4642  0.0937 -0.6570
   34TCq2    C8  524   0.217   4.076  10.005 -0.1904 -0.4829  0.2052
   34TCq2    O4  525   0.284   4.152  10.079  0.8896  0.5852 -0.0057
   34TCq2    C9  526   4.481   3.908   9.942  0.3175  0.2477  0.0661
   34TCq2    O5  527   4.367   3.890  10.001 -0.1713  0.1620 -0.0908
   34TCq2    O6  528   4.506   3.882   9.822 -0.1890 -0.0353 -0.3147
   34TCq2    H2  529   4.473   3.934  10.198  1.2659 -1.9127 -1.5189
   34TCq2    H3  530   0.004   3.974   9.865  2.5269  1.1566  1.3445
   34TCq2    H4  531   0.158   4.078  10.258  1.1414 -0.6483 -0.9981
   35MPD2     C  532   2.112   0.364  11.792  0.3816 -0.2898 -0.7493
   35MPD2    C1  533   2.067   0.245  11.841  0.2149 -0.2861  0.8674
   35MPD2    C2  534   1.934   0.227  11.849 -0.2832  0.4048 -0.5179
   35MPD2    C3  535   1.845   0.326  11.825  0.1592  0.4513 -0.1641
   35MPD2    C4  536   1.889   0.458  11.790 -0.3713 -0.1703 -0.3786
   35MPD2    C5  537   2.024   0.468  11.765 -0.0154  0.2466 -0.2483
   35MPD2     H  538   1.903   0.129  11.884 -0.2516  1.3637  2.1711
   35MPD2    H1  539   1.822   0.544  11.789  0.0714  0.1843  0.9372
   35MPD2    H2  540   2.218   0.386  11.790 -0.4833  3.7845 -1.5941
   35MPD2    H3  541   2.051   0.568  11.733  0.3610  0.6364  1.3082
   35MPD2     N  542   1.711   0.305  11.856 -0.1607 -0.5001 -0.0311
   35MPD2    H5  543   1.695   0.214  11.899 -0.4527 -1.6742 -2.6079
   35MPD2    N1  544   2.161   0.155  11.887 -0.1973  0.0784 -0.3711
   35MPD2    H7  545   2.256   0.166  11.852  0.6602 -1.8960  1.3233
   36TCq2    C1  546   1.605   0.395  11.845  0.2160  1.0111 -0.8470
   36TCq2    O2  547   1.617   0.517  11.843 -0.0706  0.0030  0.0503
   36TCq2    C2  548   1.478   0.336  11.896  1.2529 -0.4367 -0.3165
   36TCq2    C3  549   1.374   0.423  11.892 -0.6147  0.7549  0.1372
   36TCq2    C4  550   1.245   0.378  11.873  0.1830 -0.4960  0.9250
   36TCq2    C5  551   1.220   0.244  11.871  0.2649 -0.2128  0.1220
   36TCq2    C6  552   1.326   0.158  11.883  0.3462 -0.1771 -0.1915
   36TCq2    C7  553   1.459   0.204  11.884  0.2369  0.2028  0.0053
   36TCq2    C8  554   1.294   0.012  11.884  0.3361  0.7760 -0.5123
   36TCq2    O4  555   1.197   4.693  11.829 -0.3157  0.0687  0.4341
   36TCq2    C9  556   1.140   0.477  11.861  0.5581 -0.0983 -0.7238
   36TCq2    O5  557   1.170   0.590  11.818  0.1740  0.3471  0.0197
   36TCq2    O6  558   1.023   0.444  11.852 -0.5350  0.3614  0.6123
   36TCq2    H2  559   1.386   0.531  11.894 -0.2424  0.7482 -1.5374
   36TCq2    H3  560   1.118   0.207  11.876 -0.5901  2.0557 -0.5791
   36TCq2    H4  561   1.540   0.134  11.864  0.8087  0.7192  0.5097
   37TMC2    C1  562   3.732   0.175  11.940 -0.0916 -0.2402 -0.1832
   37TMC2    C2  563   3.687   0.258  11.847 -0.1939  0.4052  0.7625
   37TMC2    C3  564   3.774   0.287  11.751  0.4151 -0.3106  0.5826
   37TMC2    C4  565   3.863   0.132  11.941 -0.4120 -0.1253  0.2926
   37TMC2    C5  566   3.946   0.172  11.840  0.2991 -0.2146  0.1131
   37TMC2    C6  567   3.904   0.263  11.741 -0.4702 -0.3363  0.8882
   37TMC2     C  568   3.678   0.200  12.068 -0.2749  0.0422  0.1207
   37TMC2     O  569   3.570   0.254  12.077 -0.2583 -0.2765 -0.3098
   37TMC2     H  570   3.587   0.298  11.853 -0.3758 -0.1005  1.1364
   37TMC2    H1  571   3.902   0.052  12.003  1.6540  1.2139  0.7570
   37TMC2    H2  572   3.961   0.282  11.651 -0.5103 -1.2230  0.6717
   37TMC2    C7  573   4.089   0.168  11.881  0.4248 -0.5480 -0.3988
   37TMC2    C8  574   3.718   0.350  11.628  0.7305 -0.1580  0.3423
   37TMC2    O1  575   4.116   0.183  11.998 -0.4326  0.0524 -0.0052
   37TMC2    O2  576   3.626   0.429  11.620  0.1361 -0.5167  0.3451
   37TMC2    O5  577   3.760   0.283  11.523 -0.2222 -0.2271  0.0896
   37TMC2    H5  578   3.790   0.194  11.551 -1.0246  0.3750  2.9091
   38MPD2     C  579   3.776   0.138  12.568  0.6855  0.2606 -0.2386
   38MPD2    C1  580   3.900   0.132  12.504  0.1650 -0.4863  0.0653
   38MPD2    C2  581   3.893   0.160  12.371  0.3673  0.5267 -0.2411
   38MPD2    C3  582   3.772   0.183  12.298  0.6979  0.4346 -0.5812
   38MPD2    C4  583   3.645   0.187  12.366 -0.2425  0.2868  0.1994
   38MPD2    C5  584   3.656   0.156  12.500 -0.2753 -0.1310  0.0684
   38MPD2     H  585   3.988   0.182  12.323  1.9369 -0.5941  2.3638
   38MPD2    H1  586   3.551   0.204  12.314 -0.4332  1.3893  0.8982
   38MPD2    H2  587   3.762   0.117  12.674  0.7937 -0.9988 -0.4802
   38MPD2    H3  588   3.562   0.154  12.555 -1.2219  1.1797 -1.5123
   38MPD2     N  589   3.780   0.185  12.159 -0.0664  0.2079  0.1505
   38MPD2    H5  590   3.875   0.176  12.124  0.5781 -0.0038  1.9237
   38MPD2    N1  591   4.027   0.096  12.567 -0.2657 -0.7131  0.5175
   38MPD2    H7  592   4.104   0.084  12.502 -1.0424 -0.7221 -0.3928
   39MPD2     C  593   2.830   3.177   1.334 -0.2113 -0.2646  1.4504
   39MPD2    C1  594   2.770   3.224   1.451  0.6556  0.0833 -0.3423
   39MPD2    C2  595   2.631   3.226   1.467  0.0461 -0.0617  0.1085
   39MPD2    C3  596   2.551   3.157   1.379 -0.7188 -0.7285 -0.0016
   39MPD2    C4  597   2.612   3.100   1.266 -0.1143  0.2613  0.0945
   39MPD2    C5  598   2.745   3.122   1.243  0.0939  0.3385 -0.1399
   39MPD2     H  599   2.578   3.271   1.550  2.2952  3.6129 -0.4536
   39MPD2    H1  600   2.549   3.053   1.190 -0.9767 -0.0557  1.0102
   39MPD2    H2  601   2.938   3.165   1.327 -0.1117  2.1846 -1.4682
   39MPD2    H3  602   2.785   3.074   1.154 -0.4973 -2.0518  0.8831
   39MPD2     N  603   2.413   3.135   1.392  0.2851 -0.5796 -0.8874
   39MPD2    H5  604   2.362   3.101   1.311 -1.2238 -0.5779  0.0481
   39MPD2    N1  605   2.855   3.292   1.545  0.3402  0.3622  0.1206
   39MPD2    H7  606   2.952   3.303   1.518  0.6056  0.8192  1.2719
   40TCq2    C1  607   2.810   3.351   1.666 -0.6334 -0.1948  0.0153
   40TCq2    O2  608   2.704   3.339   1.723 -0.3004  0.4912  0.4363
   40TCq2    C2  609   2.906   3.448   1.718 -0.4003 -0.1053 -0.0234
   40TCq2    C3  610   2.863   3.545   1.801  0.4044  0.3567  0.2832
   40TCq2    C4  611   2.944   3.651   1.831  0.1169 -0.6724  0.7011
   40TCq2    C5  612   3.065   3.662   1.763 -0.3204  0.9182 -0.3690
   40TCq2    C6  613   3.106   3.571   1.674 -0.1257  0.3920 -0.5592
   40TCq2    C7  614   3.034   3.456   1.665  0.2075 -0.3217 -0.1668
   40TCq2    C8  615   3.252   3.574   1.632 -0.6768 -0.1321 -1.3325
   40TCq2    O4  616   3.297   3.464   1.604  0.7795  0.2958 -0.6943
   40TCq2    C9  617   2.890   3.761   1.910  0.0316  0.0181 -0.2417
   40TCq2    O5  618   2.960   3.865   1.916 -0.3878  0.5710  0.5283
   40TCq2    O6  619   2.779   3.744   1.971 -0.7047  0.0145  0.0640
   40TCq2    H2  620   2.760   3.540   1.836  0.5947 -1.2918  0.6281
   40TCq2    H3  621   3.126   3.749   1.786  2.0517 -1.2368  1.4517
   40TCq2    H4  622   3.069   3.380   1.596 -1.6382 -0.0133 -1.4337
   41TMC2    C1  623   1.143   0.552  13.993 -0.5468  0.8725  0.4901
   41TMC2    C2  624   1.187   0.672  14.032 -0.2023 -0.0676 -0.2669
   41TMC2    C3  625   1.173   0.769  13.933 -0.7100  0.0554  0.6973
   41TMC2    C4  626   1.084   0.529  13.876 -0.4524 -0.4699  0.4696
   41TMC2    C5  627   1.083   0.621  13.779  0.0241  0.1150 -0.3920
   41TMC2    C6  628   1.124   0.749  13.807  0.0033  0.5131 -0.0265
   41TMC2     C  629   1.129   0.441  14.086  0.5825 -0.0714  0.5011
   41TMC2     O  630   1.105   0.331  14.041 -0.2067 -0.0403 -0.0297
   41TMC2     H  631   1.244   0.701  14.120 -0.1393  0.3020 -0.4324
   41TMC2    H1  632   1.051   0.427  13.864 -0.5791 -0.3667 -0.0440
   41TMC2    H2  633   1.115   0.831  13.738  0.3339 -0.6848 -1.5053
   41TMC2    C7  634   1.048   0.576  13.643  0.3037  0.3277 -0.3428
   41TMC2    C8  635   1.213   0.906  13.971 -0.8318  0.3897  0.3252
   41TMC2    O1  636   1.033   0.454  13.628  0.2156 -0.1406  0.2743
   41TMC2    O2  637   1.202   0.952  14.084 -0.3175  0.4018 -0.0435
   41TMC2    O5  638   1.288   0.956  13.871  0.5385  0.1350  0.5104
   41TMC2    H5  639   1.333   0.890  13.815 -1.2983 -0.2570 -0.4931
   42MPD2     C  640   1.191   0.275  14.314 -0.2003 -0.2006 -0.4393
   42MPD2    C1  641   1.197   0.409  14.323 -0.5658  0.2723  0.0154
   42MPD2    C2  642   1.262   0.475  14.430 -0.0319  0.1272 -0.4953
   42MPD2    C3  643   1.306   0.400  14.532 -0.6295  0.1104  0.5816
   42MPD2    C4  644   1.283   0.262  14.529  0.3725 -0.7553 -0.6130
   42MPD2    C5  645   1.232   0.200  14.420  0.1900 -0.6113  0.1593
   42MPD2     H  646   1.290   0.580  14.425  0.5140 -0.0540 -1.3400
   42MPD2    H1  647   1.321   0.193  14.604  0.3411  1.4176  1.3781
   42MPD2    H2  648   1.133   0.222  14.239 -0.2410  0.5293 -0.9233
   42MPD2    H3  649   1.215   0.094  14.429  1.7422 -1.0750 -2.4238
   42MPD2     N  650   1.371   0.453  14.649  0.3928  0.3320 -0.8833
   42MPD2    H5  651   1.395   0.387  14.722  0.3706  1.0740 -0.2005
   42MPD2    N1  652   1.176   0.486  14.210 -0.2040 -0.2591  0.2452
   42MPD2    H7  653   1.199   0.585  14.215 -1.5068 -0.0250  1.4950
   43MPD2     C  654   2.848   4.088   0.217 -0.3313 -0.1523  0.1154
   43MPD2    C1  655   2.921   4.146   0.320  0.5392 -0.0215 -0.6319
   43MPD2    C2  656   2.853   4.204   0.426 -0.2345  0.0981  0.1328
   43MPD2    C3  657   2.714   4.222   0.422  0.2509  0.3869  0.1824
   43MPD2    C4  658   2.644   4.154   0.326  0.6755 -0.1659 -0.6043
   43MPD2    C5  659   2.707   4.083   0.229  0.1108 -0.5298  0.2398
   43MPD2     H  660   2.917   4.246   0.503 -1.6096  2.8512 -0.2253
   43MPD2    H1  661   2.535   4.152   0.328  0.6805  1.8172  1.3055
   43MPD2    H2  662   2.887   4.038   0.130  2.1692  0.6278  0.8018
   43MPD2    H3  663   2.645   4.041   0.150  2.4502 -1.0689 -1.3458
   43MPD2     N  664   2.647   4.284   0.531  0.7939  0.6072 -0.0507
   43MPD2    H5  665   2.551   4.309   0.509  1.1824  0.2099 -2.1370
   43MPD2    N1  666   3.065   4.129   0.329  0.3334 -0.0133  1.0004
   43MPD2    H7  667   3.110   4.191   0.394  0.2226 -1.5679  2.5475
   44TCq2    C1  668   2.582   4.550   1.060 -0.2144 -0.2874  0.1444
   44TCq2    O2  669   2.701   4.557   1.080 -0.5120  0.2180  0.0026
   44TCq2    C2  670   2.533   4.466   0.954  0.2675 -0.2888 -0.2838
   44TCq2    C3  671   2.402   4.425   0.945 -0.6643  0.4310  0.1120
   44TCq2    C4  672   2.373   4.355   0.833 -0.3890 -0.8569  0.1503
   44TCq2    C5  673   2.462   4.330   0.734  0.2266 -0.0212 -0.5532
   44TCq2    C6  674   2.591   4.374   0.747  0.9571  0.7584 -0.3653
   44TCq2    C7  675   2.629   4.430   0.866  0.2821 -0.5555  0.5861
   44TCq2    C8  676   2.701   4.326   0.656  0.5052  0.2652 -0.4485
   44TCq2    O4  677   2.812   4.296   0.694  0.7435  0.6578 -0.0027
   44TCq2    C9  678   2.241   4.303   0.816  0.7668 -0.6324  0.1853
   44TCq2    O5  679   2.218   4.212   0.731 -0.5326  0.2892  0.7215
   44TCq2    O6  680   2.152   4.374   0.871 -0.3294  0.3656  0.4381
   44TCq2    H2  681   2.328   4.461   1.016 -2.3135  0.2551 -1.5141
   44TCq2    H3  682   2.429   4.255   0.664 -1.1528  1.3412 -1.3889
   44TCq2    H4  683   2.733   4.457   0.878 -0.2109  0.6367  2.2997
   45TMC2    C1  684   3.305   1.071   9.457  0.2890 -0.1187  0.4487
   45TMC2    C2  685   3.345   1.023   9.334 -0.0362 -0.7040 -0.1659
   45TMC2    C3  686   3.359   1.122   9.240 -0.2371  0.2273 -0.2509
   45TMC2    C4  687   3.275   1.201   9.495 -0.1057 -0.4196 -0.1013
   45TMC2    C5  688   3.291   1.288   9.394 -0.2362 -0.4157  0.4326
   45TMC2    C6  689   3.339   1.255   9.271  0.0944  0.4172 -0.4150
   45TMC2     C  690   3.313   0.972   9.559 -0.0485 -0.5598  0.1821
   45TMC2     O  691   3.343   1.015   9.669  0.0226 -0.7472  0.0054
   45TMC2     H  692   3.379   0.922   9.318  0.3222 -0.4401 -1.1028
   45TMC2    H1  693   3.225   1.218   9.590 -0.7980  0.7142 -0.6740
   45TMC2    H2  694   3.354   1.336   9.201 -0.9285  0.6513 -0.3584
   45TMC2    C7  695   3.263   1.433   9.430  0.1048 -0.3322 -0.2694
   45TMC2    C8  696   3.390   1.086   9.107 -0.2801 -0.3577  0.7782
   45TMC2    O1  697   3.257   1.510   9.332 -0.0045  0.6473 -0.4851
   45TMC2    O2  698   3.429   1.168   9.028 -0.1806  0.4850  0.1642
   45TMC2    O5  699   3.337   0.962   9.068 -0.1970  0.4647  0.0489
   45TMC2    H5  700   3.299   0.901   9.134 -0.6946  1.9156  1.0929
   46MPD2     C  701   3.324   0.730   9.739  0.4140 -0.4879  0.1643
   46MPD2    C1  702   3.271   0.732   9.611  0.3730 -0.3255 -0.3938
   46MPD2    C2  703   3.239   0.608   9.558 -0.4767 -0.0589 -0.4877
   46MPD2    C3  704   3.241   0.487   9.626 -0.1128 -0.2989  1.0319
   46MPD2    C4  705   3.300   0.495   9.753  0.4533  0.1974  0.4061
   46MPD2    C5  706   3.319   0.619   9.816 -0.1727  0.3855 -0.4128
   46MPD2     H  707   3.213   0.607   9.453 -1.9929  0.7279 -0.1224
   46MPD2    H1  708   3.310   0.405   9.812 -1.7103  0.3112  0.9509
   46MPD2    H2  709   3.358   0.822   9.784 -0.6420  0.2167 -0.4833
   46MPD2    H3  710   3.367   0.618   9.913  1.0544  0.1028 -1.0195
   46MPD2     N  711   3.180   0.371   9.563 -0.4156 -0.1907 -0.2363
   46MPD2    H5  712   3.144   0.378   9.469 -0.9899 -0.4039 -0.0344
   46MPD2    N1  713   3.264   0.846   9.526 -0.3832 -0.2253 -0.2691
   46MPD2    H7  714   3.228   0.824   9.433 -0.2586 -1.9546  0.0865
   47TMC2    C1  715   0.389   1.417   9.708  0.2347  0.8140 -0.4880
   47TMC2    C2  716   0.409   1.463   9.581 -0.1141  0.4140  0.2648
   47TMC2    C3  717   0.359   1.590   9.558 -0.5507  0.0851 -0.5788
   47TMC2    C4  718   0.306   1.475   9.798 -0.6979 -0.1286 -0.1007
   47TMC2    C5  719   0.268   1.603   9.774  0.2714  0.3039  0.1087
   47TMC2    C6  720   0.297   1.664   9.649  0.0390  0.0645 -0.0051
   47TMC2     C  721   0.486   1.324   9.769 -0.4684 -0.1748 -0.2829
   47TMC2     O  722   0.483   1.336   9.892 -0.2061 -1.0068  0.1416
   47TMC2     H  723   0.472   1.423   9.503  0.0762  2.7462 -0.7928
   47TMC2    H1  724   0.266   1.417   9.881  1.1538 -0.4082  0.6085
   47TMC2    H2  725   0.259   1.763   9.626 -0.8173 -0.8503 -2.4852
   47TMC2    C7  726   0.163   1.655   9.859 -0.0031  1.1679 -0.7853
   47TMC2    C8  727   0.415   1.657   9.450  0.1284 -0.1051 -0.8794
   47TMC2    O1  728   0.103   1.758   9.822  0.1789 -0.6469  0.2398
   47TMC2    O2  729   0.527   1.626   9.407 -0.2041  0.1002  1.0713
   47TMC2    O5  730   0.359   1.779   9.433  0.5250  0.0852 -0.4694
   47TMC2    H5  731   0.263   1.785   9.452  0.6223  0.5288 -0.1486
   48MPD2     C  732   0.676   1.119   9.853 -0.2391 -0.6811 -0.0133
   48MPD2    C1  733   0.643   1.146   9.719 -0.1184 -0.2475  0.8042
   48MPD2    C2  734   0.710   1.087   9.618  0.4201 -0.0831 -0.2831
   48MPD2    C3  735   0.812   1.005   9.647 -0.3922  0.5943 -0.5645
   48MPD2    C4  736   0.852   0.990   9.778  0.6406  0.2888  0.1585
   48MPD2    C5  737   0.775   1.034   9.880  0.1253 -0.5889 -0.3417
   48MPD2     H  738   0.687   1.101   9.513 -2.5328 -0.3654  0.3422
   48MPD2    H1  739   0.934   0.928   9.813  0.9940  0.0752 -1.0596
   48MPD2    H2  740   0.617   1.167   9.929 -0.4367 -1.0465  0.0624
   48MPD2    H3  741   0.799   1.011   9.983  1.1924  0.9089 -0.2612
   48MPD2     N  742   0.893   0.950   9.550  0.3224  0.4787  0.3366
   48MPD2    H5  743   0.872   0.973   9.454 -1.0866 -1.2940  0.2124
   48MPD2    N1  744   0.543   1.241   9.682  0.6656  0.2897  0.1081
   48MPD2    H7  745   0.521   1.233   9.583  0.6959  2.3554 -0.0641
   49MPD2     C  746   3.296   3.023  10.043  0.0224 -0.3494 -0.6742
   49MPD2    C1  747   3.242   3.022  10.172 -0.5035 -0.3861  0.5882
   49MPD2    C2  748   3.264   3.135  10.258  0.5001 -0.6815 -0.0985
   49MPD2    C3  749   3.350   3.239  10.217 -0.4575  0.3257 -0.3568
   49MPD2    C4  750   3.392   3.238  10.087 -1.1995  0.4060  0.5157
   49MPD2    C5  751   3.368   3.135  10.000  0.2094  0.0413  0.1301
   49MPD2     H  752   3.225   3.134  10.359  0.6811  1.0491 -0.0214
   49MPD2    H1  753   3.454   3.318  10.050 -1.0947  0.9123  1.7920
   49MPD2    H2  754   3.266   2.945   9.974  1.2609 -2.0761  0.7400
   49MPD2    H3  755   3.400   3.135   9.897 -0.7891 -0.6916 -0.1813
   49MPD2     N  756   3.392   3.345  10.299 -0.3875  0.0535 -0.6365
   49MPD2    H5  757   3.453   3.414  10.257  0.5921 -0.6395 -0.3604
   49MPD2    N1  758   3.163   2.919  10.228  0.4475 -0.6384  0.2178
   49MPD2    H7  759   3.134   2.925  10.325 -0.7173 -3.2547  0.0179
   50TCq2    C1  760   3.109   2.814  10.157 -0.7327 -0.1395  0.2684
   50TCq2    O2  761   3.104   2.794  10.038 -0.3435 -0.0616 -0.2042
   50TCq2    C2  762   3.064   2.708  10.249 -0.6171  0.3169 -0.1089
   50TCq2    C3  763   2.974   2.614  10.196 -0.2048 -0.0006 -0.4590
   50TCq2    C4  764   2.908   2.524  10.279 -0.8040 -0.1491 -0.5306
   50TCq2    C5  765   2.937   2.522  10.411  0.8735 -0.4012  0.8882
   50TCq2    C6  766   3.027   2.616  10.458  0.2481  0.0552 -0.1883
   50TCq2    C7  767   3.099   2.703  10.378 -0.2692 -0.1214  0.1141
   50TCq2    C8  768   3.055   2.617  10.600 -0.9483 -0.3704 -0.2313
   50TCq2    O4  769   2.974   2.565  10.671  0.7230 -0.9764  0.3593
   50TCq2    C9  770   2.814   2.439  10.230 -0.2080 -0.8324  0.0958
   50TCq2    O5  771   2.779   2.348  10.309  0.1772 -0.2731 -0.3601
   50TCq2    O6  772   2.818   2.429  10.105  0.3041 -0.4636 -0.7327
   50TCq2    H2  773   2.936   2.630  10.096  0.8020 -2.6031 -1.2553
   50TCq2    H3  774   2.884   2.460  10.483 -0.6149 -1.3030 -1.0007
   50TCq2    H4  775   3.165   2.777  10.423  1.5166 -1.2267 -0.7136
   51MPD2     C  776   4.430   2.854   1.317 -1.1970 -0.6516  0.0907
   51MPD2    C1  777   4.304   2.898   1.282 -0.5097  0.3595 -0.0144
   51MPD2    C2  778   4.292   3.034   1.261  0.3403  0.1829 -0.7386
   51MPD2    C3  779   4.399   3.122   1.264  0.1966 -0.2606  0.0705
   51MPD2    C4  780   4.521   3.070   1.302  0.1022  0.6728  0.2604
   51MPD2    C5  781   4.536   2.939   1.318 -0.0838 -0.5283 -0.0454
   51MPD2     H  782   4.191   3.069   1.242  0.2441  0.1118 -0.3506
   51MPD2    H1  783   4.606   3.135   1.321  0.0856  1.2047 -1.5247
   51MPD2    H2  784   4.459   2.750   1.328 -0.6075 -0.4791  0.1506
   51MPD2    H3  785   4.633   2.893   1.332 -0.7240 -1.6753  0.6295
   51MPD2     N  786   4.387   3.257   1.253 -0.1140 -0.3450 -0.4180
   51MPD2    H5  787   4.470   3.312   1.271  1.9976 -3.4603 -0.5734
   51MPD2    N1  788   4.196   2.809   1.275 -0.3309  0.3304  0.0314
   51MPD2    H7  789   4.105   2.839   1.241  0.5447 -0.4314 -3.0257
   52TCq2    C1  790   4.281   3.328   1.220  0.6089 -0.1665 -0.4609
   52TCq2    O2  791   4.168   3.290   1.191 -0.3957  0.0025 -1.0682
   52TCq2    C2  792   4.299   3.468   1.230 -0.6894  0.1380 -0.2869
   52TCq2    C3  793   4.184   3.540   1.219  0.3119 -0.7220 -0.6901
   52TCq2    C4  794   4.195   3.677   1.214  0.8386 -0.0237 -0.0534
   52TCq2    C5  795   4.320   3.735   1.222 -0.0940  1.0533  1.3088
   52TCq2    C6  796   4.434   3.655   1.216 -0.4471 -0.0139 -0.6640
   52TCq2    C7  797   4.425   3.521   1.218 -0.3175  0.4373  0.8630
   52TCq2    C8  798   4.557   3.724   1.265  0.4879 -0.5224  0.0934
   52TCq2    O4  799   4.571   3.844   1.260 -0.8043 -0.3711 -0.1993
   52TCq2    C9  800   4.082   3.760   1.178  0.5425  0.1281 -0.4108
   52TCq2    O5  801   3.969   3.713   1.191 -0.1437 -0.1784 -0.4827
   52TCq2    O6  802   4.103   3.878   1.135  0.0840  1.0323 -0.3934
   52TCq2    H2  803   4.087   3.493   1.205 -0.3976  0.4902  0.1892
   52TCq2    H3  804   4.317   3.843   1.236 -3.1789  0.8142  2.6383
   52TCq2    H4  805   4.510   3.457   1.201 -0.0197  1.6322 -2.0579
   53TMC2    C1  806   0.041   0.166  12.159  0.7357  0.1255 -0.3632
   53TMC2    C2  807   0.146   0.256  12.182 -0.1617  0.4068 -0.5630
   53TMC2    C3  808   0.128   0.333  12.295  0.6776  0.4394  0.1622
   53TMC2    C4  809   4.665   0.141  12.246 -0.0809  0.2990  1.2907
   53TMC2    C5  810   4.661   0.210  12.361 -0.1313 -0.4606  0.0513
   53TMC2    C6  811   0.037   0.299  12.392  0.1224 -0.2212  0.2004
   53TMC2     C  812   0.006   0.142  12.015  0.4792 -0.1496 -0.1175
   53TMC2     O  813   0.090   0.102  11.934 -1.0142  0.8390 -0.1308
   53TMC2     H  814   0.225   0.265  12.108  1.2879 -0.1480  0.9181
   53TMC2    H1  815   4.578   0.082  12.220  0.7187 -0.0111 -0.6354
   53TMC2    H2  816   0.043   0.351  12.487  1.1079 -0.9355  0.5368
   53TMC2    C7  817   4.531   0.232  12.421  0.5169 -0.3930  0.2529
   53TMC2    C8  818   0.254   0.392  12.342  0.0783  0.3762 -0.6827
   53TMC2    O1  819   4.438   0.169  12.379 -0.5371 -0.2788  0.9699
   53TMC2    O2  820   0.360   0.334  12.317 -0.2762  0.5442 -0.0946
   53TMC2    O5  821   0.236   0.472  12.449  0.8597  0.1684  0.1750
   53TMC2    H5  822   0.143   0.505  12.447  1.6082  2.3105 -0.0277
   54MPD2     C  823   4.588   0.140  11.755  0.0755  0.3544 -0.5566
   54MPD2    C1  824   4.529   0.156  11.881  0.5735  0.8062 -0.0094
   54MPD2    C2  825   4.390   0.139  11.889  0.2236  0.4086  0.3322
   54MPD2    C3  826   4.308   0.135  11.778  0.5965  0.4903  0.0886
   54MPD2    C4  827   4.375   0.136  11.655  0.1975  0.0498  0.0657
   54MPD2    C5  828   4.512   0.127  11.644  0.1328  0.9782  0.5400
   54MPD2     H  829   4.339   0.143  11.984  0.0184  1.1924  0.1909
   54MPD2    H1  830   4.321   0.123  11.562 -0.5907  2.4285  0.2112
   54MPD2    H2  831   4.695   0.157  11.744  0.6242 -1.6236  1.7914
   54MPD2    H3  832   4.552   0.136  11.544  1.2868 -0.6242  0.8658
   54MPD2     N  833   4.168   0.146  11.775 -0.0793 -0.9427 -0.6560
   54MPD2    H5  834   4.127   0.131  11.683 -0.2411  0.3167 -0.7855
   54MPD2    N1  835   4.600   0.170  12.001 -0.0597 -0.2181 -0.2799
   54MPD2    H7  836   4.553   0.204  12.084  1.0898 -1.4637  0.8824
   55MPD2     C  837   0.588   3.186  17.702  0.9538 -0.5436  0.1837
   55MPD2    C1  838   0.615   3.124   0.116  1.0977 -0.5580  0.0030
   55MPD2    C2  839   0.605   3.204   0.233 -0.3449 -0.1129  0.4618
   55MPD2    C3  840   0.564   3.342   0.225  0.2410  0.0197 -0.1566
   55MPD2    C4  841   0.545   3.395   0.103 -0.4264  0.2251 -0.0857
   55MPD2    C5  842   0.564   3.321  17.693 -0.1054  0.0221 -0.4534
   55MPD2     H  843   0.603   3.154   0.329  2.7905 -2.1644 -0.5550
   55MPD2    H1  844   0.519   3.497   0.081  0.2314  0.1376 -1.2795
   55MPD2    H2  845   0.593   3.135  17.606 -0.2072 -1.3500  0.5535
   55MPD2    H3  846   0.542   3.366  17.597  0.6358  2.8166  0.6817
   55MPD2     N  847   0.534   3.399   0.349 -0.1305  0.6303 -0.4212
   55MPD2    H5  848   0.547   3.335   0.427  0.7710 -0.9481 -1.8799
   55MPD2    N1  849   0.631   2.979   0.112  0.4306 -0.1646  0.5230
   55MPD2    H7  850   0.621   2.927   0.026  1.8109  1.2254 -0.4792
   56TCq2    C1  851   0.657   2.895   0.218 -0.1145 -0.5266  0.1054
   56TCq2    O2  852   0.672   2.921   0.338 -0.7306  0.2138  0.3623
   56TCq2    C2  853   0.656   2.754   0.180  0.6361 -0.6516 -0.3549
   56TCq2    C3  854   0.701   2.717   0.057  0.6710 -0.3236 -0.2511
   56TCq2    C4  855   0.706   2.578   0.039  0.5414 -0.1144 -0.3617
   56TCq2    C5  856   0.678   2.491   0.141  0.1092 -0.0814  0.2788
   56TCq2    C6  857   0.636   2.531   0.260  0.6579 -0.5975  0.3254
   56TCq2    C7  858   0.632   2.665   0.283 -0.0039  0.3181 -0.6679
   56TCq2    C8  859   0.616   2.431   0.361  0.4850  0.2430 -0.1266
   56TCq2    O4  860   0.614   2.314   0.318  0.4203  0.5140  0.3119
   56TCq2    C9  861   0.745   2.529  17.614  0.3090 -0.1644  0.4583
   56TCq2    O5  862   0.803   2.613  17.543 -0.0815 -0.3215  0.0246
   56TCq2    O6  863   0.726   2.407  17.582  0.1322 -0.5905  0.1893
   56TCq2    H2  864   0.741   2.796  17.700 -2.8759  1.8069  0.1629
   56TCq2    H3  865   0.684   2.384   0.125  2.6200 -0.0572  1.1788
   56TCq2    H4  866   0.583   2.699   0.373 -0.0193 -0.1993 -0.4809
   57TMC2    C1  867   4.529   4.268  13.942 -0.3092 -0.0209 -0.2646
   57TMC2    C2  868   4.593   4.290  14.059 -0.2668  0.1132 -0.0909
   57TMC2    C3  869   4.724   4.333  14.048  0.5149  0.5525 -0.4479
   57TMC2    C4  870   4.594   4.274  13.822  0.8435  0.9991  0.6184
   57TMC2    C5  871   4.726   4.307  13.814 -0.1760 -0.1105 -0.0919
   57TMC2    C6  872   0.064   4.337  13.925 -0.0900 -0.1977  0.9172
   57TMC2     C  873   4.384   4.253  13.947 -0.9366  0.0996  0.1180
   57TMC2     O  874   4.316   4.291  14.044 -0.0100 -1.2258 -0.2335
   57TMC2     H  875   4.530   4.313  14.144 -0.8334  1.3330 -0.8399
   57TMC2    H1  876   4.537   4.294  13.732 -0.2405  0.4016  1.1872
   57TMC2    H2  877   0.172   4.352  13.927 -0.4466  2.5139 -1.5083
   57TMC2    C7  878   0.073   4.329  13.687 -0.7101  0.4473  0.3219
   57TMC2    C8  879   0.069   4.388  14.164  0.3863  0.0359 -0.4443
   57TMC2    O1  880   0.193   4.360  13.693  0.2448 -0.3831 -0.5759
   57TMC2    O2  881   0.114   4.301  14.241 -0.3655 -0.1294  0.2814
   57TMC2    O5  882   0.118   4.506  14.123  0.7473 -0.3938  0.1999
   57TMC2    H5  883   0.069   4.544  14.048  0.7520 -0.7248  0.0286
   58MPD2     C  884   3.942   4.130  13.740 -0.2002  0.3253  0.4318
   58MPD2    C1  885   3.976   4.234  13.825  0.2423 -0.0674  0.2045
   58MPD2    C2  886   4.109   4.243  13.869 -0.0512  0.7457  0.3215
   58MPD2    C3  887   4.209   4.164  13.815 -0.0822 -0.2067  0.2428
   58MPD2    C4  888   4.171   4.067  13.725  0.1386  0.1165  0.6209
   58MPD2    C5  889   4.037   4.048  13.694  0.2423  0.5646 -0.1929
   58MPD2     H  890   4.134   4.337  13.918 -3.1213  0.7704  1.8287
   58MPD2    H1  891   4.242   4.003  13.675 -2.5434 -0.7155 -2.1250
   58MPD2    H2  892   3.841   4.099  13.717  1.0703 -2.2419 -1.5445
   58MPD2    H3  893   4.007   3.964  13.632  1.6612 -1.2632  1.5849
   58MPD2     N  894   4.340   4.187  13.840 -0.4714  0.2086 -0.3111
   58MPD2    H5  895   4.408   4.138  13.782 -1.8448 -0.7429 -1.1125
   58MPD2    N1  896   3.875   4.327  13.864  0.2784 -0.0231  0.6777
   58MPD2    H7  897   3.907   4.414  13.908  1.3710 -0.3478  0.5333
   59MPD2     C  898   1.781   4.291  13.463 -0.2575 -0.4439 -0.0765
   59MPD2    C1  899   1.881   4.279  13.376 -0.7493 -0.5284 -0.9324
   59MPD2    C2  900   1.993   4.355  13.393  0.5685 -0.2463  0.1844
   59MPD2    C3  901   2.009   4.459  13.490  0.6295  0.9429 -1.0760
   59MPD2    C4  902   1.902   4.461  13.582  0.2844 -0.1541  0.0237
   59MPD2    C5  903   1.796   4.378  13.568 -0.5944 -0.1641  0.2009
   59MPD2     H  904   2.070   4.330  13.321  0.2136 -0.8177  0.0018
   59MPD2    H1  905   1.905   4.530  13.665 -0.0003  0.7555 -0.7194
   59MPD2    H2  906   1.693   4.228  13.464 -0.9905  0.5927  1.0420
   59MPD2    H3  907   1.727   4.392  13.651 -1.2169 -0.6831 -0.2349
   59MPD2     N  908   2.125   4.536  13.509  0.0898 -0.3532  0.5838
   59MPD2    H5  909   2.134   4.604  13.583 -2.0120  1.1632 -0.5485
   59MPD2    N1  910   1.879   4.193  13.257 -0.2516 -0.1672 -0.1380
   59MPD2    H7  911   1.957   4.200  13.192  0.9917  2.6246  1.6687
   60TCq2    C1  912   1.772   4.110  13.228  0.9336  0.3609 -0.4304
   60TCq2    O2  913   1.678   4.082  13.304  0.0744 -0.0285  0.2577
   60TCq2    C2  914   1.767   4.058  13.085 -0.2726 -0.5890  0.4587
   60TCq2    C3  915   1.685   3.953  13.060  0.6971 -0.4864 -0.1009
   60TCq2    C4  916   1.687   3.880  12.943 -0.6882  0.1400 -0.0833
   60TCq2    C5  917   1.781   3.917  12.851  0.0232  0.8915 -0.0941
   60TCq2    C6  918   1.852   4.035  12.867  0.4374  0.1942  0.5075
   60TCq2    C7  919   1.853   4.106  12.984  0.0517 -0.1725  0.0979
   60TCq2    C8  920   1.964   4.050  12.784  0.8802  0.2536  0.3157
   60TCq2    O4  921   2.043   3.954  12.777 -0.1286 -0.1576  0.1894
   60TCq2    C9  922   1.607   3.765  12.934  0.0665 -0.8487  0.2349
   60TCq2    O5  923   1.644   3.681  12.850 -0.6113 -0.3646  0.5186
   60TCq2    O6  924   1.539   3.731  13.030 -0.1177 -0.4643 -0.1788
   60TCq2    H2  925   1.621   3.924  13.143  0.9741 -0.5456  0.0942
   60TCq2    H3  926   1.792   3.861  12.760  0.6893  1.5031 -0.3939
   60TCq2    H4  927   1.909   4.195  13.008 -2.3809  0.6567  2.7055
   61MPD2     C  928   1.266   1.135  14.720  0.2838 -0.4248 -0.6448
   61MPD2    C1  929   1.336   1.234  14.779 -0.1781  0.5908 -0.3823
   61MPD2    C2  930   1.303   1.367  14.768  0.4706 -0.2230  0.6951
   61MPD2    C3  931   1.199   1.401  14.684  0.4218  0.0951  0.1350
   61MPD2    C4  932   1.133   1.304  14.611  0.4906  0.2130 -0.0423
   61MPD2    C5  933   1.168   1.171  14.632  0.5144  0.7305 -0.1341
   61MPD2     H  934   1.364   1.443  14.816 -1.4471  1.5579  0.3329
   61MPD2    H1  935   1.053   1.323  14.541  0.5730 -1.1850 -0.5331
   61MPD2    H2  936   1.286   1.031  14.741 -2.7654 -0.6737  1.0897
   61MPD2    H3  937   1.114   1.090  14.584 -1.9147  2.9808 -1.2713
   61MPD2     N  938   1.156   1.534  14.661 -0.0647  0.2232 -0.4939
   61MPD2    H5  939   1.112   1.548  14.571 -0.2590  1.9724 -0.1231
   61MPD2    N1  940   1.438   1.200  14.874  0.0739 -0.9450  0.1375
   61MPD2    H7  941   1.493   1.274  14.915 -1.2419  1.7040 -2.8679
   62TCq2    C1  942   1.476   1.074  14.910  0.3176  0.0360 -0.3721
   62TCq2    O2  943   1.452   0.965  14.865  0.3460  0.1275 -0.3978
   62TCq2    C2  944   1.556   1.083  15.035  0.3679  0.4854 -0.0615
   62TCq2    C3  945   1.623   0.973  15.079 -0.4193 -0.1231 -0.4744
   62TCq2    C4  946   1.660   0.954  15.210  0.0130 -0.2259 -0.2096
   62TCq2    C5  947   1.630   1.046  15.305  0.6221  0.0207 -0.1937
   62TCq2    C6  948   1.563   1.157  15.254 -0.2597  0.3614  0.0937
   62TCq2    C7  949   1.529   1.180  15.119  0.2899  0.4516 -0.0347
   62TCq2    C8  950   1.532   1.268  15.348  0.1055  0.4954 -0.1735
   62TCq2    O4  951   1.522   1.375  15.292 -0.3839  0.1982  0.1026
   62TCq2    C9  952   1.741   0.836  15.249  0.0940  0.1475  0.0827
   62TCq2    O5  953   1.760   0.808  15.370  0.3664 -0.1999  1.2022
   62TCq2    O6  954   1.777   0.760  15.156  0.1070 -0.1352  0.1242
   62TCq2    H2  955   1.647   0.890  15.013  0.5510  0.6139 -1.0606
   62TCq2    H3  956   1.662   1.028  15.407  0.4399  2.3130  0.2729
   62TCq2    H4  957   1.445   1.248  15.110 -0.8375 -0.8848  0.2987
   63TMC2    C1  958   1.031   0.741  11.469  0.3204  0.1044 -0.4571
   63TMC2    C2  959   1.121   0.774  11.565 -0.2204  0.3162 -0.3250
   63TMC2    C3  960   1.210   0.866  11.532 -0.2808  0.2176  0.7550
   63TMC2    C4  961   1.031   0.797  11.348  0.5233 -0.3911 -0.5817
   63TMC2    C5  962   1.139   0.876  11.311 -0.6013  0.2029 -0.7168
   63TMC2    C6  963   1.224   0.915  11.404 -0.1873  0.2912  0.0699
   63TMC2     C  964   0.937   0.638  11.498 -0.0933  0.1388 -0.2631
   63TMC2     O  965   0.899   0.614  11.611 -0.3056 -0.9258  0.1215
   63TMC2     H  966   1.110   0.733  11.664 -0.0037  2.7587  0.7064
   63TMC2    H1  967   0.951   0.779  11.278 -0.6319 -0.6935  0.8147
   63TMC2    H2  968   1.293   0.998  11.397  1.5429 -0.9765  2.3093
   63TMC2    C7  969   1.138   0.927  11.171 -0.2404  0.8142  0.1704
   63TMC2    C8  970   1.322   0.891  11.622 -0.6872 -0.1168 -0.9575
   63TMC2    O1  971   1.046   0.891  11.099  0.1925  0.4425  0.0314
   63TMC2    O2  972   1.399   0.982  11.603  0.0387  0.0904 -0.5188
   63TMC2    O5  973   1.335   0.796  11.722  0.2249 -0.2930  0.2182
   63TMC2    H5  974   1.264   0.729  11.725 -2.7741  2.8807 -0.2197
   64MPD2     C  975   0.662   0.262  11.312 -0.2200 -0.0514  0.2061
   64MPD2    C1  976   0.735   0.315  11.209 -0.0289 -0.3333  0.1530
   64MPD2    C2  977   0.831   0.410  11.235 -0.2620  0.5285 -0.0613
   64MPD2    C3  978   0.836   0.458  11.362 -0.4766  0.0724 -0.7463
   64MPD2    C4  979   0.757   0.414  11.462  0.5331  0.1642 -0.1639
   64MPD2    C5  980   0.671   0.313  11.437 -0.2196 -0.3864  0.1760
   64MPD2     H  981   0.895   0.449  11.158  1.8180  0.3938  1.5903
   64MPD2    H1  982   0.759   0.465  11.557 -1.8427  0.9692 -0.5565
   64MPD2    H2  983   0.585   0.189  11.290  0.0400 -0.0954 -0.5708
   64MPD2    H3  984   0.601   0.267  11.507 -0.4004  0.5213  0.5883
   64MPD2     N  985   0.926   0.564  11.385  0.1608  0.0567 -0.1050
   64MPD2    H5  986   0.988   0.589  11.308  0.7799  1.0842  0.7444
   64MPD2    N1  987   0.737   0.272  11.078 -0.2134  0.5832 -0.3733
   64MPD2    H7  988   0.806   0.318  11.019  0.7765 -0.2130  0.1582
   65MPD2     C  989   1.993   0.774  15.782  0.0751 -0.0766  0.7538
   65MPD2    C1  990   1.956   0.777  15.648 -0.4666 -0.4038  0.2429
   65MPD2    C2  991   1.904   0.659  15.600 -0.5413 -0.2916 -0.8655
   65MPD2    C3  992   1.878   0.550  15.674  0.0765  0.0926  0.7679
   65MPD2    C4  993   1.899   0.565  15.811 -1.0836 -0.7079  0.0181
   65MPD2    C5  994   1.968   0.676  15.860  0.0683 -0.8331  0.6159
   65MPD2     H  995   1.876   0.657  15.495 -1.7941 -2.2674 -0.4826
   65MPD2    H1  996   1.877   0.484  15.880  2.5064 -1.5955  0.1350
   65MPD2    H2  997   2.044   0.857  15.829  0.4158  0.1012  0.0705
   65MPD2    H3  998   2.001   0.675  15.963  0.8256  0.8703  0.3890
   65MPD2     N  999   1.831   0.425  15.626  0.3335  0.4437  0.1280
   65MPD2    H5 1000   1.820   0.345  15.687 -0.5196  0.7289  0.3467
   65MPD2    N1 1001   1.976   0.892  15.562  0.9075 -0.2830  0.0016
   65MPD2    H7 1002   1.939   0.880  15.468 -1.5462 -2.0721  1.1889
   66TCq2    C1 1003   2.029   1.011  15.599 -0.2623 -0.0304  0.3882
   66TCq2    O2 1004   2.051   1.060  15.710  0.3288 -0.9080  0.4464
   66TCq2    C2 1005   2.028   1.104  15.485 -0.1035  0.0628 -0.4211
   66TCq2    C3 1006   2.027   1.060  15.353  0.3437  0.3753 -0.1074
   66TCq2    C4 1007   2.030   1.154  15.257  1.0150  0.1468 -0.8212
   66TCq2    C5 1008   2.033   1.289  15.283  0.0507 -0.2664 -0.3515
   66TCq2    C6 1009   2.020   1.329  15.410 -0.3478 -0.0326 -0.1618
   66TCq2    C7 1010   2.018   1.237  15.508 -0.2397  0.3809 -0.7669
   66TCq2    C8 1011   2.042   1.459  15.453 -0.5888 -0.4568  0.3278
   66TCq2    O4 1012   2.128   1.524  15.389  0.3024  0.9511 -0.1736
   66TCq2    C9 1013   2.046   1.114  15.123 -0.2083  0.6944  0.4831
   66TCq2    O5 1014   2.065   1.206  15.040  0.2964  0.3741 -0.1814
   66TCq2    O6 1015   2.023   0.994  15.104  0.0994 -0.3006 -0.4523
   66TCq2    H2 1016   2.037   0.955  15.326 -1.6304 -0.1354  1.2175
   66TCq2    H3 1017   2.029   1.368  15.208  0.5953 -0.8108 -0.9540
   66TCq2    H4 1018   2.035   1.263  15.612 -0.0264  0.9773 -0.9520
   67MPD2     C 1019   1.765   0.137  13.687  0.2348 -0.0850 -0.2113
   67MPD2    C1 1020   1.785   0.266  13.734 -0.2294  0.2170  0.3942
   67MPD2    C2 1021   1.775   0.376  13.649  0.0003 -0.2199  0.5568
   67MPD2    C3 1022   1.743   0.363  13.519 -0.2189  0.6440  0.1724
   67MPD2    C4 1023   1.706   0.234  13.479  0.1373  0.1723  1.0765
   67MPD2    C5 1024   1.734   0.122  13.555  0.6814  0.0533 -0.6580
   67MPD2     H 1025   1.807   0.469  13.694 -2.1865 -0.7820  3.2677
   67MPD2    H1 1026   1.667   0.206  13.382  1.6652 -0.2247  0.5797
   67MPD2    H2 1027   1.773   0.049  13.750 -0.7141  0.0944  0.1519
   67MPD2    H3 1028   1.708   0.028  13.508 -0.4505 -0.5196  1.1578
   67MPD2     N 1029   1.729   0.464  13.423  0.2815  0.0897 -0.4400
   67MPD2    H5 1030   1.676   0.436  13.341  1.3401  3.0209 -2.1416
   67MPD2    N1 1031   1.804   0.291  13.873  0.1895 -0.1915  1.0066
   67MPD2    H7 1032   1.810   0.386  13.908 -0.2407  0.0766  0.3565
   68TCq2    C1 1033   1.820   0.195  13.964 -0.5454  0.3790 -0.2361
   68TCq2    O2 1034   1.804   0.075  13.966 -0.5339 -0.5195  0.4830
   68TCq2    C2 1035   1.838   0.252  14.099 -0.0251 -0.4139  0.3743
   68TCq2    C3 1036   1.883   0.379  14.112  0.5073  0.3032  0.5171
   68TCq2    C4 1037   1.952   0.413  14.225  0.4436  0.0898 -0.1851
   68TCq2    C5 1038   1.958   0.326  14.331  0.4345 -0.1503 -0.7096
   68TCq2    C6 1039   1.912   0.198  14.310  0.0322 -0.4871  0.0141
   68TCq2    C7 1040   1.851   0.159  14.194  0.8306 -0.6087 -0.0050
   68TCq2    C8 1041   1.963   0.087  14.392 -0.3304  0.0655  0.1359
   68TCq2    O4 1042   1.929   4.701  14.356 -0.5100  0.3352 -0.4903
   68TCq2    C9 1043   1.986   0.550  14.249 -0.4508  0.0949 -0.1460
   68TCq2    O5 1044   2.042   0.576  14.356 -0.4411 -0.0162 -0.3122
   68TCq2    O6 1045   1.949   0.639  14.166  0.3688 -0.1216 -0.5303
   68TCq2    H2 1046   1.858   0.451  14.036  1.0348  1.5465  1.5155
   68TCq2    H3 1047   2.005   0.367  14.420 -0.4114  0.4765 -0.5546
   68TCq2    H4 1048   1.802   0.063  14.195  0.8054 -0.5923  0.2505
   69TMC2    C1 1049   3.976   0.963  11.841 -0.0672 -0.1398 -0.6949
   69TMC2    C2 1050   3.919   1.079  11.819 -0.6351 -0.0527 -0.1264
   69TMC2    C3 1051   3.929   1.130  11.699  0.0957 -0.7212 -0.7476
   69TMC2    C4 1052   4.055   0.905  11.749 -0.1975  0.5005 -0.0901
   69TMC2    C5 1053   4.071   0.958  11.632  0.1362 -0.2968 -0.4372
   69TMC2    C6 1054   4.005   1.075  11.602 -0.7988 -0.2896 -0.2368
   69TMC2     C 1055   3.988   0.920  11.977  0.7367  0.0452  0.5781
   69TMC2     O 1056   3.909   0.961  12.060  0.3329 -0.3886 -0.0228
   69TMC2     H 1057   3.861   1.136  11.891 -1.9142  0.4645 -1.5583
   69TMC2    H1 1058   4.104   0.810  11.769 -2.4787 -0.0195  3.0397
   69TMC2    H2 1059   4.016   1.119  11.503  0.1462  1.2866  0.5705
   69TMC2    C7 1060   4.136   0.888  11.524  0.5222 -0.2404 -0.5448
   69TMC2    C8 1061   3.810   1.186  11.654 -0.4421  0.0982  0.0324
   69TMC2    O1 1062   4.101   0.916  11.410 -0.3532 -0.3027  0.8242
   69TMC2    O2 1063   3.702   1.169  11.705 -0.1369  0.2403 -0.2396
   69TMC2    O5 1064   3.834   1.273  11.555  0.2480  0.8346 -0.7042
   69TMC2    H5 1065   3.928   1.298  11.541  0.0187  1.7652 -0.5590
   70MPD2     C 1066   4.261   0.758  12.157  0.2834  0.0229  0.4552
   70MPD2    C1 1067   4.135   0.820  12.143  0.1392  0.7682 -0.0382
   70MPD2    C2 1068   4.057   0.846  12.262  0.2230  0.2161  0.5209
   70MPD2    C3 1069   4.094   0.784  12.381 -0.2197  0.0197 -0.3489
   70MPD2    C4 1070   4.208   0.713  12.390 -0.5470 -0.0684 -0.1982
   70MPD2    C5 1071   4.293   0.705  12.280 -0.2386  0.6565  0.4671
   70MPD2     H 1072   3.970   0.911  12.255 -0.8327 -1.0722  1.5962
   70MPD2    H1 1073   4.246   0.667  12.480 -0.5119  1.3698  0.5073
   70MPD2    H2 1074   4.323   0.738  12.070  0.3184 -0.4233  0.5816
   70MPD2    H3 1075   4.375   0.635  12.286 -1.1198 -0.2730  1.6264
   70MPD2     N 1076   4.029   0.804  12.506  0.1213 -0.3159 -0.4860
   70MPD2    H5 1077   4.074   0.763  12.587 -3.0500 -1.5711  0.6406
   70MPD2    N1 1078   4.105   0.857  12.008 -0.3093 -0.5176  0.8444
   70MPD2    H7 1079   4.175   0.844  11.936 -1.4147  2.3109 -0.7622
   71TMC2    C1 1080   2.549   2.896   1.667  0.5181 -0.2313  0.1020
   71TMC2    C2 1081   2.681   2.928   1.646  0.1762  0.3562 -0.3248
   71TMC2    C3 1082   2.748   2.996   1.744  0.0202  0.0859 -1.2470
   71TMC2    C4 1083   2.483   2.904   1.788  0.6663  0.2334  0.1686
   71TMC2    C5 1084   2.557   2.970   1.884  0.2020  0.0364  0.3917
   71TMC2    C6 1085   2.685   3.015   1.867  0.1650  0.6482 -0.2938
   71TMC2     C 1086   2.478   2.823   1.566 -0.3160  0.7957 -0.4110
   71TMC2     O 1087   2.357   2.806   1.567 -0.1723  0.3094 -0.3947
   71TMC2     H 1088   2.727   2.919   1.548  0.3434  2.0048 -0.4061
   71TMC2    H1 1089   2.386   2.855   1.792  1.0341 -0.7167 -2.8575
   71TMC2    H2 1090   2.745   3.050   1.951  1.3321 -1.6231 -0.1953
   71TMC2    C7 1091   2.503   2.976   2.020 -0.4623 -0.1501 -0.0835
   71TMC2    C8 1092   2.892   3.022   1.743 -0.0161  0.0920  0.4000
   71TMC2    O1 1093   2.547   3.057   2.102 -0.2701 -0.3171  0.1719
   71TMC2    O2 1094   2.939   3.099   1.827  0.4355  0.2018 -0.4535
   71TMC2    O5 1095   2.956   2.908   1.715 -0.4310  0.1026  0.8152
   71TMC2    H5 1096   2.890   2.857   1.662  0.4804 -1.7095  1.4428
   72MPD2     C 1097   2.439   2.534   1.158  0.6182 -0.5415 -0.3022
   72MPD2    C1 1098   2.372   2.647   1.195  0.0500 -0.0639  0.0231
   72MPD2    C2 1099   2.403   2.719   1.314 -0.1038 -0.0107 -0.0044
   72MPD2    C3 1100   2.517   2.681   1.381  0.6622  0.5708 -0.2971
   72MPD2    C4 1101   2.590   2.574   1.341 -0.1755 -0.7325 -0.3712
   72MPD2    C5 1102   2.546   2.501   1.236  0.1020  0.0224  0.5622
   72MPD2     H 1103   2.345   2.810   1.329 -0.3377 -0.4424  1.7312
   72MPD2    H1 1104   2.685   2.548   1.385  0.3746 -0.9405 -1.6843
   72MPD2    H2 1105   2.420   2.474   1.069  0.4639  0.0682 -0.6792
   72MPD2    H3 1106   2.611   2.425   1.193 -0.4293  0.5098 -1.0974
   72MPD2     N 1107   2.561   2.752   1.490 -0.4339  0.1506 -0.0027
   72MPD2    H5 1108   2.657   2.738   1.519 -1.2624 -0.4646  2.4455
   72MPD2    N1 1109   2.261   2.696   1.122 -0.0947  0.2881  0.3046
   72MPD2    H7 1110   2.225   2.783   1.162  0.7860  0.9833 -0.4026
   73TMC2    C1 1111   1.613   3.715  14.343  0.1152 -0.3158  0.6526
   73TMC2    C2 1112   1.688   3.824  14.333  0.6836 -0.0158  0.1929
   73TMC2    C3 1113   1.790   3.828  14.422  0.3995  0.2158 -0.0376
   73TMC2    C4 1114   1.637   3.613  14.434 -0.2991  0.0388 -1.2596
   73TMC2    C5 1115   1.752   3.611  14.509 -0.3778 -0.4477  0.4544
   73TMC2    C6 1116   1.826   3.724  14.509  0.2457  0.4465 -0.3262
   73TMC2     C 1117   1.554   3.659  14.229  0.2997  0.2706 -0.5066
   73TMC2     O 1118   1.530   3.539  14.225 -0.3678 -0.1075 -0.0565
   73TMC2     H 1119   1.664   3.904  14.264 -0.5043 -0.4119  0.1525
   73TMC2    H1 1120   1.565   3.531  14.432  0.8719 -0.9891 -1.4180
   73TMC2    H2 1121   1.912   3.726  14.574 -0.5443 -2.5590  0.7987
   73TMC2    C7 1122   1.823   3.495  14.486  0.3640  0.7109  0.2794
   73TMC2    C8 1123   1.882   3.943  14.428 -0.7030 -0.6224  0.0669
   73TMC2    O1 1124   1.930   3.479  14.541 -0.6931  0.6361  0.3098
   73TMC2    O2 1125   1.995   3.950  14.473 -1.0039 -0.1118  0.1565
   73TMC2    O5 1126   1.804   4.052  14.410 -0.7124 -0.3493 -0.0799
   73TMC2    H5 1127   1.716   4.011  14.422 -0.4816 -0.1627  2.2129
   74MPD2     C 1128   1.399   3.659  13.745  0.0238 -0.5204  0.4268
   74MPD2    C1 1129   1.458   3.568  13.824  0.6623  0.5400 -0.5104
   74MPD2    C2 1130   1.506   3.601  13.952 -0.3405 -0.2328 -0.6954
   74MPD2    C3 1131   1.483   3.728  13.999 -0.1439 -0.2689 -0.0004
   74MPD2    C4 1132   1.423   3.825  13.922  0.6356  0.1688  0.1925
   74MPD2    C5 1133   1.384   3.786  13.795  0.0188 -0.4307  0.5805
   74MPD2     H 1134   1.574   3.533  14.003  1.9010  0.4035 -2.8396
   74MPD2    H1 1135   1.392   3.926  13.949 -1.4375 -0.4360  0.0599
   74MPD2    H2 1136   1.359   3.641  13.646  2.3647 -1.3936 -0.3429
   74MPD2    H3 1137   1.325   3.851  13.732 -0.4378 -3.5742 -2.1990
   74MPD2     N 1138   1.525   3.752  14.131 -0.0390 -0.1347  0.7043
   74MPD2    H5 1139   1.527   3.851  14.154 -1.1662 -0.5260  2.4668
   74MPD2    N1 1140   1.483   3.445  13.758  0.3737  0.2877  0.6118
   74MPD2    H7 1141   1.463   3.440  13.658 -0.0125 -1.2140  0.7568
   75TCq2    C1 1142   1.752   0.601  13.444 -0.2619 -0.3462 -0.9587
   75TCq2    O2 1143   1.794   0.653  13.544  0.3192  0.4833  0.5503
   75TCq2    C2 1144   1.710   0.683  13.323  0.2596  0.4579 -0.0907
   75TCq2    C3 1145   1.677   0.813  13.351 -0.3314  0.4488 -0.0647
   75TCq2    C4 1146   1.592   0.870  13.260  0.5629  0.1183 -0.4911
   75TCq2    C5 1147   1.544   0.805  13.149  0.8269 -0.4240 -1.3697
   75TCq2    C6 1148   1.580   0.675  13.132  0.0582  0.5280 -0.7856
   75TCq2    C7 1149   1.658   0.612  13.218  0.0059  0.1948 -0.2968
   75TCq2    C8 1150   1.464   0.600  13.088  0.5309  0.0777  0.5445
   75TCq2    O4 1151   1.455   0.485  13.134  0.3808 -0.0266 -0.1507
   75TCq2    C9 1152   1.547   1.003  13.298  0.1722  0.3847 -0.0236
   75TCq2    O5 1153   1.536   1.027  13.416  0.0411  0.1271  0.4405
   75TCq2    O6 1154   1.535   1.089  13.205  0.4326  0.6748  0.0353
   75TCq2    H2 1155   1.699   0.869  13.441 -0.1585  0.8441 -0.3493
   75TCq2    H3 1156   1.480   0.861  13.082 -0.9217 -1.0574 -0.2421
   75TCq2    H4 1157   1.693   0.511  13.198  2.3838  0.7098  1.1706
   76MPD2     C 1158   0.512   0.611  12.113  0.2080  0.1322  0.3526
   76MPD2    C1 1159   0.544   0.504  12.031 -0.5087 -0.4173 -0.6280
   76MPD2    C2 1160   0.656   0.434  12.057  0.1642  0.1886  0.5058
   76MPD2    C3 1161   0.746   0.479  12.153  0.3354  0.1303 -0.3401
   76MPD2    C4 1162   0.712   0.591  12.231 -0.2802  0.5139  0.5656
   76MPD2    C5 1163   0.596   0.654  12.209  0.4673 -0.5790  0.1572
   76MPD2     H 1164   0.682   0.350  11.993  1.8462  0.0721  1.3416
   76MPD2    H1 1165   0.784   0.643  12.293 -2.6766  1.2252  2.6980
   76MPD2    H2 1166   0.424   0.673  12.101  0.2395  0.1137  0.0082
   76MPD2    H3 1167   0.562   0.739  12.266  0.7912 -0.7468  0.5992
   76MPD2     N 1168   0.871   0.420  12.181  0.0645  0.7139  0.5162
   76MPD2    H5 1169   0.932   0.459  12.252  0.5451  3.3577 -1.3257
   76MPD2    N1 1170   0.465   0.457  11.920 -0.0869  1.2522 -0.3816
   76MPD2    H7 1171   0.509   0.394  11.853  2.2437 -0.1780  2.4497
   77TCq2    C1 1172   0.918   0.301  12.126 -0.2417 -0.0976 -0.0115
   77TCq2    O2 1173   0.863   0.217  12.057  0.7134 -0.3135  0.2500
   77TCq2    C2 1174   1.044   0.253  12.175 -0.2010  0.0939 -0.5832
   77TCq2    C3 1175   1.071   0.122  12.171 -0.5878  0.5774  0.4674
   77TCq2    C4 1176   1.198   0.084  12.221 -0.5619  0.3774 -0.0851
   77TCq2    C5 1177   1.289   0.177  12.249 -0.4535 -0.0466 -0.1688
   77TCq2    C6 1178   1.261   0.313  12.251 -1.1446  0.4561  0.0013
   77TCq2    C7 1179   1.136   0.348  12.211  0.4604 -0.4717 -0.3626
   77TCq2    C8 1180   1.365   0.410  12.286 -0.0760  0.1498  0.2047
   77TCq2    O4 1181   1.479   0.363  12.294 -0.1512  0.7265  0.6128
   77TCq2    C9 1182   1.226   4.672  12.218 -0.2497 -0.2286 -0.7290
   77TCq2    O5 1183   1.349   4.643  12.243  0.4882  0.0407 -0.2904
   77TCq2    O6 1184   1.133   4.598  12.176  0.3432  0.1748 -0.3978
   77TCq2    H2 1185   0.996   0.050  12.140 -2.0403  2.1941  0.1806
   77TCq2    H3 1186   1.391   0.144  12.264 -0.4722  0.0896  0.2508
   77TCq2    H4 1187   1.117   0.450  12.181  0.8593 -0.2900  0.0059
   78MPD1     C 1188   3.533   2.853   0.876  0.2154  0.5619  0.0936
   78MPD1    C1 1189   3.434   2.926   0.937  0.4716 -0.0055 -0.3650
   78MPD1    C2 1190   3.363   2.865   1.036  0.5842  0.6254  0.0809
   78MPD1    C3 1191   3.380   2.732   1.078  0.0158  0.7565  0.3787
   78MPD1    C4 1192   3.485   2.667   1.025 -0.2945  0.4141 -0.4209
   78MPD1    C5 1193   3.562   2.730   0.925 -0.2846 -0.1681 -0.0243
   78MPD1     H 1194   3.278   2.917   1.078  0.3629 -0.5281  1.0569
   78MPD1    H1 1195   3.511   2.567   1.059 -0.0695  0.3020 -0.9109
   78MPD1    H2 1196   3.588   2.877   0.785 -2.6986 -0.9207 -2.0590
   78MPD1    H3 1197   3.632   2.665   0.873  0.3574 -0.5398  1.3113
   78MPD1     N 1198   3.291   2.668   1.179 -0.0537 -0.4284 -0.1395
   78MPD1    H5 1199   3.320   2.574   1.205 -0.0422 -0.5547 -0.6175
   78MPD1    N1 1200   3.395   3.046   0.878  0.2988  0.0597 -0.8192
   78MPD1    H6 1201   3.355   3.112   0.945  1.5650  0.6441 -0.6276
   78MPD1    H7 1202   3.470   3.085   0.820  1.3577  0.1141  0.5697
   79TCq2    C1 1203   3.175   2.717   1.237  0.1561  0.0736 -1.0151
   79TCq2    O2 1204   3.114   2.820   1.215  0.0927 -0.2429 -0.5933
   79TCq2    C2 1205   3.111   2.612   1.315  0.2032 -0.0230  0.5347
   79TCq2    C3 1206   3.008   2.654   1.399  0.4662 -0.0538  0.4029
   79TCq2    C4 1207   2.972   2.562   1.499  0.2511  0.2243 -0.5949
   79TCq2    C5 1208   3.027   2.439   1.508  0.6011  0.2000 -0.2830
   79TCq2    C6 1209   3.114   2.396   1.412 -0.5464 -0.0086  0.3817
   79TCq2    C7 1210   3.163   2.484   1.318 -0.3143 -0.0951 -0.1428
   79TCq2    C8 1211   3.153   2.258   1.415 -0.1470 -0.3401 -0.3522
   79TCq2    O4 1212   3.153   2.201   1.523  0.3725 -0.8440  0.2086
   79TCq2    C9 1213   2.867   2.598   1.593 -0.7151 -0.0782  0.4111
   79TCq2    O5 1214   2.824   2.717   1.580  0.0103 -0.0026  0.1372
   79TCq2    O6 1215   2.829   2.513   1.680 -0.4753 -0.6369  0.4085
   79TCq2    H2 1216   2.982   2.759   1.399 -3.7390 -1.0951  1.7494
   79TCq2    H3 1217   2.993   2.370   1.584  1.4548 -0.0157 -0.1003
   79TCq2    H4 1218   3.238   2.447   1.250  0.1949  0.4393  0.1284
   80MPD2     C 1219   4.458   4.543  12.073  0.1825 -0.2025  0.0805
   80MPD2    C1 1220   4.332   4.528  12.129 -0.8749  0.3647  0.4915
   80MPD2    C2 1221   4.328   4.521  12.269 -0.0940  0.1148 -0.0933
   80MPD2    C3 1222   4.437   4.539  12.351 -0.3877 -0.2106  0.4529
   80MPD2    C4 1223   4.555   4.556  12.292 -0.0945  0.1332  0.7893
   80MPD2    C5 1224   4.564   4.550  12.155  0.1108 -0.0626  0.4993
   80MPD2     H 1225   4.231   4.510  12.317  0.4908  0.3185  1.1326
   80MPD2    H1 1226   4.637   4.586  12.356  1.4375  0.4453 -1.2898
   80MPD2    H2 1227   4.475   4.543  11.966  1.8801  1.4873  0.3586
   80MPD2    H3 1228   4.665   4.557  12.116  0.1875 -0.0437  0.6976
   80MPD2     N 1229   4.425   4.563  12.487 -0.9731 -0.3555 -0.1923
   80MPD2    H5 1230   4.512   4.594  12.531  0.8011 -3.9938 -1.0813
   80MPD2    N1 1231   4.218   4.516  12.049  0.0880  0.0234  0.1719
   80MPD2    H7 1232   4.129   4.505  12.097 -0.3770 -0.2920 -0.7576
   81TCq2    C1 1233   4.209   4.520  11.911 -0.1902 -0.8928  0.0867
   81TCq2    O2 1234   4.298   4.532  11.830 -0.0135  0.3777  0.0287
   81TCq2    C2 1235   4.074   4.510  11.851 -0.1591  0.2813  0.1965
   81TCq2    C3 1236   4.057   4.572  11.732 -0.0316 -0.2496  0.8215
   81TCq2    C4 1237   3.931   4.608  11.689 -0.5060 -0.2383  0.0213
   81TCq2    C5 1238   3.824   4.586  11.766  0.7963 -0.6312 -0.3414
   81TCq2    C6 1239   3.838   4.522  11.885 -0.2606  0.5382 -0.5605
   81TCq2    C7 1240   3.962   4.471  11.923 -0.6858  0.8348 -0.1121
   81TCq2    C8 1241   3.714   4.536  11.975 -0.0653 -0.6702 -0.3840
   81TCq2    O4 1242   3.614   4.599  11.933 -0.3628 -0.6587 -0.0812
   81TCq2    C9 1243   3.926   4.706  11.579 -0.4015  0.0951  0.6425
   81TCq2    O5 1244   4.039   0.030  11.547 -0.3265 -0.0086  0.5042
   81TCq2    O6 1245   3.823   0.040  11.554 -0.6619  0.3845  0.5327
   81TCq2    H2 1246   4.137   4.591  11.661 -0.7924  2.7321  0.7610
   81TCq2    H3 1247   3.727   4.627  11.742 -0.5340 -2.1044  2.5058
   81TCq2    H4 1248   3.977   4.421  12.018  0.2057  1.9611  0.3447
   82MPD2     C 1249   2.929   0.071  10.674  0.1168  0.3979 -0.1140
   82MPD2    C1 1250   2.808   0.022  10.718 -0.7757 -1.0418  0.4409
   82MPD2    C2 1251   2.814   4.618  10.784 -0.6685 -0.0526 -0.4322
   82MPD2    C3 1252   2.929   4.546  10.796 -0.1095  0.3494 -0.1044
   82MPD2    C4 1253   3.050   4.602  10.767  0.5821  0.2275 -0.0948
   82MPD2    C5 1254   3.044   4.720  10.691 -0.5142 -0.2336 -0.0687
   82MPD2     H 1255   2.719   4.577  10.815  0.4142 -2.1626  0.1268
   82MPD2    H1 1256   3.144   4.551  10.785 -0.5725 -1.6964  0.4641
   82MPD2    H2 1257   2.924   0.169  10.627  0.2627  0.3604 -0.2088
   82MPD2    H3 1258   3.135   0.032  10.647 -1.0522  1.4182  0.2512
   82MPD2     N 1259   2.938   4.429  10.870 -0.3182 -0.3969  0.0626
   82MPD2    H5 1260   3.030   4.393  10.896 -1.5280 -3.4058  0.1073
   82MPD2    N1 1261   2.694   0.103  10.708  0.0459 -0.3693 -0.3683
   82MPD2    H7 1262   2.693   0.172  10.633 -0.1294  1.0196  0.8972
   83TCq2    C1 1263   2.828   4.351  10.904  0.5183  0.2671 -0.0343
   83TCq2    O2 1264   2.714   4.352  10.864 -0.1129  0.0896 -0.0098
   83TCq2    C2 1265   2.852   4.263  11.022  0.1620 -0.3648 -0.2180
   83TCq2    C3 1266   2.949   4.300  11.107  0.6726  0.4663 -0.3113
   83TCq2    C4 1267   2.961   4.231  11.233  0.2672  1.0558  0.3749
   83TCq2    C5 1268   2.881   4.126  11.270 -0.8015  0.5388 -0.5427
   83TCq2    C6 1269   2.778   4.103  11.182 -0.2633  0.8712 -0.3320
   83TCq2    C7 1270   2.762   4.166  11.064  0.1029 -0.1304  0.5075
   83TCq2    C8 1271   2.680   4.017  11.237  0.8227  0.3028 -0.1883
   83TCq2    O4 1272   2.679   4.006  11.357 -0.1391  0.7724 -0.7533
   83TCq2    C9 1273   3.053   4.275  11.330 -0.2078 -0.0785  0.2903
   83TCq2    O5 1274   3.115   4.383  11.307 -0.3450 -0.1448 -0.2177
   83TCq2    O6 1275   3.066   4.206  11.437 -0.7610  0.2129 -0.0237
   83TCq2    H2 1276   3.022   4.376  11.083  1.2975 -0.2493 -0.6648
   83TCq2    H3 1277   2.897   4.065  11.358 -1.0856 -0.3372 -1.0945
   83TCq2    H4 1278   2.675   4.141  11.004 -0.2661  0.9888  0.5773
   84TCq2    C1 1279   3.352   3.368  10.429 -0.4957  0.0353 -0.3567
   84TCq2    O2 1280   3.265   3.315  10.491 -0.4216  0.2236 -0.6095
   84TCq2    C2 1281   3.401   3.493  10.485  0.1162 -0.7655  0.6727
   84TCq2    C3 1282   3.511   3.564  10.436 -0.1511  0.3133 -0.3756
   84TCq2    C4 1283   3.565   3.668  10.496  0.2240  0.1291 -0.2268
   84TCq2    C5 1284   3.505   3.720  10.608 -0.1275  0.4125 -0.6114
   84TCq2    C6 1285   3.399   3.654  10.658 -0.8051  0.4957  0.7794
   84TCq2    C7 1286   3.343   3.539  10.599 -0.6718 -0.2198 -0.2604
   84TCq2    C8 1287   3.317   3.731  10.750  0.4174 -0.2366  0.2374
   84TCq2    O4 1288   3.194   3.719  10.744  0.1233  0.1110 -0.2763
   84TCq2    C9 1289   3.685   3.729  10.440  1.0126 -0.2346  0.1990
   84TCq2    O5 1290   3.741   3.675  10.339  0.2941  0.1626  0.2500
   84TCq2    O6 1291   3.735   3.826  10.503  0.4970 -0.3389 -0.9076
   84TCq2    H2 1292   3.573   3.529  10.354  1.9338  3.2648 -0.0597
   84TCq2    H3 1293   3.565   3.798  10.654  0.6707 -0.0201 -0.9136
   84TCq2    H4 1294   3.249   3.495  10.633 -0.0888 -1.0395  0.2874
   85MPD2     C 1295   4.280   0.960  16.429 -0.3543  0.5423 -0.1846
   85MPD2    C1 1296   4.158   1.025  16.423 -0.2636 -0.1499 -0.0588
   85MPD2    C2 1297   4.142   1.121  16.326 -0.5445 -0.3972  0.2820
   85MPD2    C3 1298   4.242   1.145  16.233 -0.6286 -0.2910  0.1929
   85MPD2    C4 1299   4.359   1.083  16.241 -0.2352  0.9317  0.4694
   85MPD2    C5 1300   4.381   0.991  16.339  0.5133 -0.0345 -0.0099
   85MPD2     H 1301   4.051   1.180  16.314  0.5540  1.6550  2.1182
   85MPD2    H1 1302   4.444   1.098  16.175 -1.5764  1.4364 -1.1123
   85MPD2    H2 1303   4.302   0.885  16.504  0.0882 -0.2608 -1.1261
   85MPD2    H3 1304   4.478   0.942  16.339  0.8533  0.6459  1.0055
   85MPD2     N 1305   4.215   1.238  16.133 -0.2158 -0.4945 -0.0905
   85MPD2    H5 1306   4.122   1.279  16.137 -0.4721 -1.1298  0.5569
   85MPD2    N1 1307   4.054   1.001  16.518 -0.3471 -0.7965  0.6678
   85MPD2    H7 1308   3.966   1.043  16.492 -0.0658  0.0001  0.9950
   86TCq2    C1 1309   4.310   1.290  16.043 -0.0736  0.1910 -1.0273
   86TCq2    O2 1310   4.422   1.252  16.022 -0.6601 -0.2403  0.4998
   86TCq2    C2 1311   4.265   1.407  15.960 -0.3405  0.4371  0.4778
   86TCq2    C3 1312   4.129   1.442  15.968  0.1137 -0.6146 -0.2786
   86TCq2    C4 1313   4.105   1.572  15.989  0.1399 -0.0963 -0.6836
   86TCq2    C5 1314   4.201   1.672  15.968  0.0555 -1.1220  0.7737
   86TCq2    C6 1315   4.335   1.635  15.959 -0.0600  0.2223 -0.3042
   86TCq2    C7 1316   4.360   1.502  15.957 -0.3464  0.1439  0.6741
   86TCq2    C8 1317   4.443   1.728  15.996  0.1178 -0.1803  0.6447
   86TCq2    O4 1318   4.555   1.680  15.999  0.4208 -0.1208  0.3183
   86TCq2    C9 1319   3.969   1.614  16.017  0.3004  0.4933  0.2103
   86TCq2    O5 1320   3.882   1.523  16.039 -0.1039 -0.1748 -0.0700
   86TCq2    O6 1321   3.948   1.739  16.036 -0.0370 -0.2796 -0.4620
   86TCq2    H2 1322   4.052   1.367  15.979  0.6800 -1.2100 -0.3743
   86TCq2    H3 1323   4.176   1.777  15.973 -0.7362 -1.2297 -0.9522
   86TCq2    H4 1324   4.464   1.472  15.950 -0.4236  0.3209 -1.2095
   87MPD2     C 1325   0.865   0.556   0.868  0.3782  0.0795 -0.0300
   87MPD2    C1 1326   0.937   0.587   0.756  0.4009 -0.8469 -0.3104
   87MPD2    C2 1327   0.912   0.524   0.640  0.1840  0.0696 -0.6266
   87MPD2    C3 1328   0.808   0.430   0.625  0.2187  0.0913 -0.2134
   87MPD2    C4 1329   0.746   0.394   0.744  0.3129 -0.0880 -0.1567
   87MPD2    C5 1330   0.762   0.465   0.855  0.5106 -0.7610 -0.1591
   87MPD2     H 1331   0.977   0.547   0.556  1.6984  0.5928  0.6705
   87MPD2    H1 1332   0.672   0.316   0.757 -0.9301  1.0625 -0.3495
   87MPD2    H2 1333   0.871   0.619   0.956 -2.4052  0.6341 -0.2444
   87MPD2    H3 1334   0.700   0.444   0.942  1.5286  1.5725  1.1439
   87MPD2     N 1335   0.772   0.377   0.499 -0.9821  0.4864 -0.1856
   87MPD2    H5 1336   0.694   0.312   0.498 -0.1986 -0.4400 -1.7245
   87MPD2    N1 1337   1.041   0.677   0.783  0.1635  0.1162  0.5387
   87MPD2    H7 1338   1.046   0.708   0.879 -3.5740 -0.5788  0.9534
   88TCq2    C1 1339   1.131   0.728   0.692  0.2293  0.4189  0.2583
   88TCq2    O2 1340   1.150   0.703   0.572 -0.0587  0.6726 -0.7892
   88TCq2    C2 1341   1.233   0.822   0.746 -0.3836 -0.4731 -0.4724
   88TCq2    C3 1342   1.186   0.898   0.844  0.0372  0.1481  0.7066
   88TCq2    C4 1343   1.275   0.983   0.902 -0.0848  0.6752 -0.0974
   88TCq2    C5 1344   1.408   0.982   0.859 -0.9379 -0.5429  0.5238
   88TCq2    C6 1345   1.446   0.905   0.756  0.4739  0.7014 -0.3655
   88TCq2    C7 1346   1.361   0.822   0.699  0.0407 -1.0973  0.2328
   88TCq2    C8 1347   1.587   0.878   0.743 -0.2922 -0.1731 -1.4505
   88TCq2    O4 1348   1.625   0.787   0.674  0.2308  0.3324 -0.3530
   88TCq2    C9 1349   1.236   1.077   1.006  0.0098 -0.3005 -0.7337
   88TCq2    O5 1350   1.315   1.172   1.035 -0.1022 -0.0782 -0.3056
   88TCq2    O6 1351   1.114   1.070   1.042 -0.0215 -0.3972 -0.2989
   88TCq2    H2 1352   1.081   0.901   0.870 -0.9131 -0.3996 -3.1234
   88TCq2    H3 1353   1.478   1.042   0.916 -2.1840  0.7579  0.6696
   88TCq2    H4 1354   1.393   0.742   0.634  1.4636 -1.1613  1.0147
   89MPD2     C 1355   3.499   3.623   1.469 -0.5665 -0.7457 -0.1565
   89MPD2    C1 1356   3.417   3.722   1.527  0.3801  0.3686 -0.3110
   89MPD2    C2 1357   3.464   3.851   1.512  0.3436  0.4781  0.3295
   89MPD2    C3 1358   3.596   3.873   1.471 -0.1756  0.4269 -0.1921
   89MPD2    C4 1359   3.681   3.772   1.431  0.3328 -0.2884 -0.4975
   89MPD2    C5 1360   3.622   3.652   1.418 -0.0211 -0.4415 -0.5320
   89MPD2     H 1361   3.393   3.927   1.543 -1.0711 -1.3777  1.6039
   89MPD2    H1 1362   3.785   3.786   1.404 -0.3854  0.6434 -2.7565
   89MPD2    H2 1363   3.461   3.522   1.468 -0.1776 -0.8793 -1.3351
   89MPD2    H3 1364   3.681   3.570   1.380  1.7365 -0.3117  1.9280
   89MPD2     N 1365   3.634   4.009   1.438 -0.2523  0.3347 -0.3938
   89MPD2    H5 1366   3.583   4.089   1.474  0.5786  1.0581 -0.8262
   89MPD2    N1 1367   3.296   3.699   1.596 -0.1808 -0.1675  0.1704
   89MPD2    H7 1368   3.231   3.775   1.609 -2.6465 -2.3204  0.3837
   90TCq2    C1 1369   3.744   4.053   1.365  1.2965 -0.0350  0.2032
   90TCq2    O2 1370   3.827   3.989   1.303  0.5277 -0.1620  0.2607
   90TCq2    C2 1371   3.754   4.198   1.363 -0.5249 -0.0527 -0.3049
   90TCq2    C3 1372   3.725   4.265   1.472 -0.0243  0.1177 -0.6709
   90TCq2    C4 1373   3.807   4.378   1.504  0.0571 -0.2066 -0.5561
   90TCq2    C5 1374   3.909   4.422   1.421  0.1952 -0.0562  0.2631
   90TCq2    C6 1375   3.933   4.347   1.306 -0.6414  0.9214  0.3184
   90TCq2    C7 1376   3.848   4.243   1.274  0.2522 -0.3277 -0.4956
   90TCq2    C8 1377   4.071   4.334   1.260 -0.3921  0.2010  0.2034
   90TCq2    O4 1378   4.086   4.257   1.167  0.6054  0.5717  0.4494
   90TCq2    C9 1379   3.787   4.440   1.632  0.0884  0.0239  0.7603
   90TCq2    O5 1380   3.835   4.556   1.649  0.9167 -0.3847  0.3843
   90TCq2    O6 1381   3.705   4.381   1.705  0.1427 -0.2727  0.9045
   90TCq2    H2 1382   3.646   4.236   1.540 -1.1625  0.5732 -1.8060
   90TCq2    H3 1383   3.971   4.503   1.457  1.0936 -0.6617  0.0946
   90TCq2    H4 1384   3.873   4.181   1.189 -2.5180  0.4671 -1.9230
   91TMC2    C1 1385   4.221   2.246  16.516 -0.0515 -0.2343 -0.4372
   91TMC2    C2 1386   4.296   2.320  16.602  0.2306 -0.3254  0.9288
   91TMC2    C3 1387   4.236   2.360  16.721 -0.0212  0.7808 -0.1621
   91TMC2    C4 1388   4.086   2.218  16.535  0.1601 -0.0297 -0.2712
   91TMC2    C5 1389   4.035   2.266  16.658 -0.6205 -0.4466  0.0048
   91TMC2    C6 1390   4.107   2.326  16.751 -0.0024 -0.5632  0.0465
   91TMC2     C 1391   4.285   2.159  16.424  0.6506  0.0206  0.1811
   91TMC2     O 1392   4.204   2.091  16.360 -0.1093  0.0188 -0.1186
   91TMC2     H 1393   4.402   2.338  16.589 -0.0594  0.1552 -0.7482
   91TMC2    H1 1394   4.023   2.170  16.462  0.9563 -0.4441 -0.6948
   91TMC2    H2 1395   4.074   2.341  16.853 -0.0849 -0.9012  0.0686
   91TMC2    C7 1396   3.912   2.207  16.710  0.0616  0.6074  0.2487
   91TMC2    C8 1397   4.323   2.420  16.819  1.0764 -0.3680  0.4629
   91TMC2    O1 1398   3.886   2.218  16.828  0.2197 -0.2738 -0.2352
   91TMC2    O2 1399   4.434   2.384  16.852  0.2589  0.4920 -0.3845
   91TMC2    O5 1400   4.253   2.498  16.897 -0.3880 -0.7947 -0.0163
   91TMC2    H5 1401   4.177   2.536  16.850 -0.1149 -0.6388 -0.3301
   92MPD2     C 1402   4.458   1.916  16.357  0.2674 -0.2272  0.8943
   92MPD2    C1 1403   4.507   2.028  16.420  0.3185  0.5827 -0.1635
   92MPD2    C2 1404   4.637   2.030  16.450 -0.8697  0.5735  0.3258
   92MPD2    C3 1405   0.001   1.931  16.406 -0.0072 -0.2265  0.3112
   92MPD2    C4 1406   4.678   1.818  16.343 -0.2402  0.4555 -0.6334
   92MPD2    C5 1407   4.543   1.808  16.323  0.1043 -0.1592 -0.4115
   92MPD2     H 1408   4.672   2.114  16.508  1.4031 -0.0212 -0.1581
   92MPD2    H1 1409   0.001   1.730  16.304  0.4566  0.1171  1.0194
   92MPD2    H2 1410   4.352   1.910  16.336  0.0336 -0.1156  2.0234
   92MPD2    H3 1411   4.501   1.718  16.279  0.4099 -1.8769  2.7889
   92MPD2     N 1412   0.140   1.944  16.432 -0.8254 -0.0185 -0.1569
   92MPD2    H5 1413   0.166   2.028  16.482  1.9869 -1.8193  1.3361
   92MPD2    N1 1414   4.421   2.137  16.451 -0.9510  0.7896 -0.4632
   92MPD2    H7 1415   4.468   2.211  16.503 -0.1592 -0.6466  0.8644
   93MPD2     C 1416   1.310   2.592  13.693  0.4897  0.2487  0.8084
   93MPD2    C1 1417   1.286   2.641  13.822 -0.0982  0.0462  0.2409
   93MPD2    C2 1418   1.160   2.624  13.871 -0.6385 -0.1739 -0.9952
   93MPD2    C3 1419   1.061   2.568  13.790 -0.3398 -0.1276  0.5181
   93MPD2    C4 1420   1.090   2.534  13.661  0.4344  0.6381  0.3452
   93MPD2    C5 1421   1.213   2.555  13.610  0.2140 -0.0754 -0.5875
   93MPD2     H 1422   1.131   2.649  13.973 -1.5626 -1.5406 -0.9088
   93MPD2    H1 1423   1.017   2.489  13.594  2.8681 -3.1716  0.2600
   93MPD2    H2 1424   1.409   2.600  13.650 -0.2073  0.4404 -0.7747
   93MPD2    H3 1425   1.233   2.523  13.508  1.4679  1.3630 -0.8039
   93MPD2     N 1426   0.928   2.533  13.833 -0.1142  0.2334  0.0277
   93MPD2    H5 1427   0.863   2.523  13.755  2.6955  1.4829 -2.4556
   93MPD2    N1 1428   1.387   2.685  13.908 -0.1831  0.4770  0.4723
   93MPD2    H7 1429   1.355   2.727  13.995  0.7554 -1.2849  1.6768
   94TCq2    C1 1430   1.520   2.685  13.886  0.3743  0.1418  0.1378
   94TCq2    O2 1431   1.589   2.629  13.801  0.1388  0.0170  0.3307
   94TCq2    C2 1432   1.590   2.736  13.998  0.6008  0.1329 -0.3316
   94TCq2    C3 1433   1.526   2.820  14.088  0.5829  0.9323 -0.1793
   94TCq2    C4 1434   1.602   2.870  14.190  0.3238  0.1485 -0.0581
   94TCq2    C5 1435   1.735   2.849  14.199 -0.5995  0.6732  0.5201
   94TCq2    C6 1436   1.791   2.761  14.112 -0.4986 -0.3115 -0.2515
   94TCq2    C7 1437   1.722   2.705  14.009 -0.4013  0.1712  0.8658
   94TCq2    C8 1438   1.931   2.733  14.122 -0.5484 -0.9230  0.0436
   94TCq2    O4 1439   1.974   2.744  14.237 -0.1045  0.3006 -0.6275
   94TCq2    C9 1440   1.545   2.973  14.273  0.0929  0.0743  0.1564
   94TCq2    O5 1441   1.455   3.035  14.221  0.1974 -0.0962  0.5001
   94TCq2    O6 1442   1.600   2.995  14.383 -0.1373 -0.3057 -0.1275
   94TCq2    H2 1443   1.423   2.854  14.083 -0.2767 -1.9263 -2.0975
   94TCq2    H3 1444   1.781   2.901  14.282  2.2268  0.1085 -0.7052
   94TCq2    H4 1445   1.771   2.627  13.951  0.6874 -0.2230  2.2998
   95TMC2    C1 1446   1.141   0.193  16.124 -1.0616  0.4894 -0.6443
   95TMC2    C2 1447   1.127   0.089  16.210  0.1032  0.7331 -0.1362
   95TMC2    C3 1448   1.181   0.092  16.338  0.0401  0.0774  0.0154
   95TMC2    C4 1449   1.190   0.303  16.170 -0.3503 -0.6097 -0.2384
   95TMC2    C5 1450   1.235   0.309  16.298  0.1913  1.0477 -0.5215
   95TMC2    C6 1451   1.237   0.205  16.385 -0.4822 -0.4087 -0.6761
   95TMC2     C 1452   1.149   0.172  15.979  0.0246 -0.4497 -0.1417
   95TMC2     O 1453   1.215   0.247  15.908  0.0225  0.7931  0.0779
   95TMC2     H 1454   1.083   0.001  16.165 -0.1992  0.9866 -0.3334
   95TMC2    H1 1455   1.202   0.386  16.101  1.4906  0.0564  0.8855
   95TMC2    H2 1456   1.288   0.204  16.481 -1.7205  0.5575 -0.0062
   95TMC2    C7 1457   1.311   0.425  16.333  0.0755 -0.3348  0.1470
   95TMC2    C8 1458   1.198   4.688  16.413 -0.2529  0.6303  0.3283
   95TMC2    O1 1459   1.411   0.403  16.403 -0.8695  0.1285  0.0296
   95TMC2    O2 1460   1.130   4.594  16.382  0.0904 -0.4256 -0.2686
   95TMC2    O5 1461   1.323   4.681  16.454  0.0368 -0.1193 -0.1069
   95TMC2    H5 1462   1.382   0.033  16.456  0.6853 -0.5726 -1.3353
   96MPD2     C 1463   1.180   4.600  15.579  0.4296  0.3126  0.0772
   96MPD2    C1 1464   1.267   4.684  15.636  0.4088  0.7794  1.1013
   96MPD2    C2 1465   1.236   0.014  15.757  0.1694  0.5106  0.0146
   96MPD2    C3 1466   1.113   4.716  15.815 -0.4233 -0.4222 -0.5665
   96MPD2    C4 1467   1.028   4.631  15.752  0.0575 -0.5737  0.4387
   96MPD2    C5 1468   1.065   4.568  15.635  0.1345  0.0666 -0.3081
   96MPD2     H 1469   1.300   0.087  15.803  0.5460  0.7575 -0.9076
   96MPD2    H1 1470   0.933   4.611  15.801  1.5893  1.3895  4.2098
   96MPD2    H2 1471   1.210   4.549  15.488 -0.1657 -2.4479  1.4315
   96MPD2    H3 1472   0.999   4.501  15.582  0.2591 -1.1786  1.0940
   96MPD2     N 1473   1.077   0.059  15.932 -0.0848 -0.2899  0.1027
   96MPD2    H5 1474   0.991   0.035  15.979  0.7188  1.6161  2.5376
   96MPD2    N1 1475   1.388   4.718  15.564 -0.1551  0.4238  0.0712
   96MPD2    H7 1476   1.391   4.676  15.472  2.1636  3.4911 -1.2224
   97MPD2     C 1477   3.565   2.117   1.521  0.3352 -0.1021  0.4289
   97MPD2    C1 1478   3.558   2.235   1.450 -0.1801  0.5323 -0.4472
   97MPD2    C2 1479   3.600   2.237   1.316 -0.3686  0.7104  0.5159
   97MPD2    C3 1480   3.642   2.120   1.260  0.7323 -0.0369 -0.2658
   97MPD2    C4 1481   3.660   2.006   1.336  0.2514  0.2205  0.7123
   97MPD2    C5 1482   3.617   2.006   1.465  0.1848 -0.2265  0.4620
   97MPD2     H 1483   3.588   2.329   1.261  0.3169  2.8497  3.9469
   97MPD2    H1 1484   3.695   1.910   1.299 -1.0954 -0.2346  0.6203
   97MPD2    H2 1485   3.531   2.101   1.622  1.4946 -2.1948  0.4822
   97MPD2    H3 1486   3.618   1.919   1.528  2.5517 -0.1182  0.5691
   97MPD2     N 1487   3.680   2.116   1.126  0.3170  0.3424 -0.7819
   97MPD2    H5 1488   3.727   2.030   1.099 -1.6607 -0.7609 -0.6755
   97MPD2    N1 1489   3.500   2.341   1.528  0.0352 -0.2677 -0.0391
   97MPD2    H7 1490   3.490   2.314   1.625 -1.8892  0.5172 -0.0146
   98TCq2    C1 1491   3.681   2.213   1.028 -0.0724 -0.0520  0.2640
   98TCq2    O2 1492   3.661   2.336   1.039  0.0241 -0.7862 -0.4839
   98TCq2    C2 1493   3.714   2.160   0.896  1.2251 -0.6316  0.1426
   98TCq2    C3 1494   3.709   2.023   0.863  0.2285  0.4543  0.4042
   98TCq2    C4 1495   3.764   1.980   0.749  0.3712  0.3355  0.3378
   98TCq2    C5 1496   3.806   2.067   0.653  0.3583  0.3086 -0.4408
   98TCq2    C6 1497   3.798   2.200   0.682 -0.5438 -0.0891 -0.1347
   98TCq2    C7 1498   3.751   2.251   0.800  0.5563  0.0796  0.2944
   98TCq2    C8 1499   3.860   2.292   0.592  0.8676 -0.1597 -0.0540
   98TCq2    O4 1500   3.970   2.265   0.546  0.1220  0.1822  0.4044
   98TCq2    C9 1501   3.779   1.842   0.744  0.3777 -0.6247 -0.4216
   98TCq2    O5 1502   3.707   1.765   0.812  0.2216  0.3208  0.1208
   98TCq2    O6 1503   3.858   1.810   0.653 -0.4240 -0.0877  0.0887
   98TCq2    H2 1504   3.671   1.955   0.938 -2.6484 -1.3548 -2.7588
   98TCq2    H3 1505   3.849   2.037   0.558 -0.4592 -0.0655 -0.6969
   98TCq2    H4 1506   3.765   2.353   0.834 -2.9856  0.0289  1.8675
   99MPD2     C 1507   2.538   0.170   1.437  0.2135 -0.4237 -0.0725
   99MPD2    C1 1508   2.421   0.178   1.365  0.1698  0.1925 -0.4576
   99MPD2    C2 1509   2.396   0.086   1.264  0.2545 -0.5069  0.6601
   99MPD2    C3 1510   2.501   4.725   1.227 -0.1404  0.1208 -0.1209
   99MPD2    C4 1511   2.625   0.009   1.290 -0.4896 -0.3841 -0.3761
   99MPD2    C5 1512   2.642   0.094   1.392 -0.2220  0.6685  1.0758
   99MPD2     H 1513   2.300   0.079   1.214  0.9255 -0.6147 -0.6045
   99MPD2    H1 1514   2.715   4.680   1.267 -1.0569 -1.1088 -0.8537
   99MPD2    H2 1515   2.563   0.244   1.512  1.0468 -0.0428 -0.7235
   99MPD2    H3 1516   2.738   0.091   1.442 -0.7855 -1.6881  2.0147
   99MPD2     N 1517   2.486   4.627   1.120  0.4212  0.1254  0.0426
   99MPD2    H5 1518   2.401   4.621   1.065  1.1024 -1.0269 -0.9039
   99MPD2    N1 1519   2.318   0.272   1.403 -0.0175 -0.1718 -0.4164
   99MPD2    H7 1520   2.225   0.249   1.371 -0.4602 -0.7413  1.3112
  100TCq2    C1 1521   2.338   0.386   1.478  0.4239  0.9616 -0.2749
  100TCq2    O2 1522   2.445   0.451   1.491 -0.0626  0.3882  0.7513
  100TCq2    C2 1523   2.216   0.463   1.491 -0.0841  0.5269 -0.2756
  100TCq2    C3 1524   2.226   0.588   1.540 -0.2061 -0.3155 -0.0082
  100TCq2    C4 1525   2.111   0.645   1.578 -0.5641  0.7019  0.0269
  100TCq2    C5 1526   1.993   0.590   1.553  0.1128 -0.2543 -0.2245
  100TCq2    C6 1527   1.990   0.461   1.510  0.0421 -0.4686  0.2731
  100TCq2    C7 1528   2.102   0.388   1.491 -1.2584  0.0320  0.2200
  100TCq2    C8 1529   1.863   0.388   1.537 -0.2419 -0.0709  0.5161
  100TCq2    O4 1530   1.795   0.444   1.622 -0.3492 -0.8314  0.1702
  100TCq2    C9 1531   2.105   0.775   1.635  0.3089 -0.9938  0.3595
  100TCq2    O5 1532   2.217   0.823   1.664  0.5992  0.1556 -0.3660
  100TCq2    O6 1533   1.996   0.805   1.689 -0.1795  0.3161  0.2055
  100TCq2    H2 1534   2.321   0.640   1.545 -0.6171  0.3627  0.7469
  100TCq2    H3 1535   1.898   0.639   1.570  0.3548  0.0552  0.2352
  100TCq2    H4 1536   2.092   0.281   1.475  0.0180  0.2589 -2.1749
  101MPD2     C 1537   2.991   4.724  13.004  0.5925  0.1498 -0.1605
  101MPD2    C1 1538   2.875   0.069  13.003  0.3509 -0.4790  0.1952
  101MPD2    C2 1539   2.781   0.054  13.107  0.4371  0.1492 -0.5477
  101MPD2    C3 1540   2.803   4.690  13.213  0.4918  0.7269 -0.4358
  101MPD2    C4 1541   2.923   4.619  13.211  0.7530  0.2303 -0.7203
  101MPD2    C5 1542   3.012   4.639  13.108  0.0090  0.2412 -0.3454
  101MPD2     H 1543   2.692   0.116  13.111  1.4446  1.4436  1.6309
  101MPD2    H1 1544   2.963   4.555  13.289  0.1919 -0.2927 -0.8573
  101MPD2    H2 1545   3.063   4.717  12.923  0.0741 -2.2314 -0.4086
  101MPD2    H3 1546   3.106   4.585  13.104 -0.0532  0.2589 -1.9606
  101MPD2     N 1547   2.701   4.680  13.306 -0.0588  0.2525 -0.1374
  101MPD2    H5 1548   2.614   0.004  13.292 -0.4187 -0.6782 -1.2980
  101MPD2    N1 1549   2.855   0.156  12.890 -0.2022  0.3968 -0.0878
  101MPD2    H7 1550   2.919   0.148  12.812 -0.7993  0.0303 -0.5477
  102TCq2    C1 1551   2.972   0.410  12.482 -0.8937  0.4108  0.3695
  102TCq2    O2 1552   3.070   0.350  12.527  0.3633 -0.3615  0.7706
  102TCq2    C2 1553   2.843   0.377  12.551 -0.3847  1.3020  0.1545
  102TCq2    C3 1554   2.718   0.418  12.503 -0.3902  0.2081  0.1209
  102TCq2    C4 1555   2.612   0.416  12.585 -0.9091  0.4364  0.0705
  102TCq2    C5 1556   2.623   0.359  12.712 -0.1373 -0.7211  0.4197
  102TCq2    C6 1557   2.748   0.324  12.756  0.4517 -0.2318  0.6867
  102TCq2    C7 1558   2.863   0.332  12.680  0.4763 -0.0081  0.1018
  102TCq2    C8 1559   2.748   0.247  12.876  0.3337  0.3775  0.1249
  102TCq2    O4 1560   2.650   0.261  12.949  0.3734 -0.1039  0.4021
  102TCq2    C9 1561   2.484   0.474  12.543 -0.0342 -0.0818 -0.0427
  102TCq2    O5 1562   2.477   0.525  12.427 -0.5276 -0.4710 -0.0517
  102TCq2    O6 1563   2.384   0.444  12.616 -0.3738 -0.0486  0.4654
  102TCq2    H2 1564   2.723   0.470  12.407  1.6023  0.6420  0.4535
  102TCq2    H3 1565   2.539   0.362  12.781  0.0725  2.8206  0.5448
  102TCq2    H4 1566   2.960   0.308  12.721  0.6764 -0.0841 -0.4180
  103TMC2    C1 1567   1.220   1.022  12.757  0.3976 -0.6503 -0.2330
  103TMC2    C2 1568   1.292   1.138  12.781 -0.3142  0.4195 -0.4026
  103TMC2    C3 1569   1.322   1.176  12.907 -0.0974  0.3193 -0.4147
  103TMC2    C4 1570   1.190   0.939  12.860  0.3891  0.4493 -0.3620
  103TMC2    C5 1571   1.221   0.978  12.989 -0.3682 -0.0186 -0.3706
  103TMC2    C6 1572   1.286   1.100  13.017  0.0640 -0.2692 -0.2235
  103TMC2     C 1573   1.217   0.961  12.628 -0.4341  0.3726  0.2151
  103TMC2     O 1574   1.128   0.884  12.602 -0.0150 -0.0262 -0.2418
  103TMC2     H 1575   1.308   1.212  12.703  2.3392  1.9425  1.5776
  103TMC2    H1 1576   1.158   0.837  12.841  1.9158  0.3243 -2.2073
  103TMC2    H2 1577   1.299   1.142  13.116 -1.8846 -1.9098  0.7199
  103TMC2    C7 1578   1.203   0.890  13.099  0.3734 -0.4625  0.1889
  103TMC2    C8 1579   1.419   1.279  12.920 -0.8417 -0.3711  0.0347
  103TMC2    O1 1580   1.243   0.934  13.209 -0.0123  0.6725  0.1033
  103TMC2    O2 1581   1.424   1.350  12.819  0.6887  0.9040  0.2689
  103TMC2    O5 1582   1.524   1.222  12.986 -0.4037  0.1924 -0.0224
  103TMC2    H5 1583   1.507   1.161  13.061 -0.1865 -0.2294 -0.3141
  104MPD2     C 1584   1.527   0.869  12.447 -0.0672  0.2811 -0.6469
  104MPD2    C1 1585   1.393   0.862  12.481 -0.4657  0.3596 -0.2006
  104MPD2    C2 1586   1.323   0.754  12.426 -0.6358 -0.3895  0.4658
  104MPD2    C3 1587   1.385   0.651  12.361 -0.0750  0.0180  0.5906
  104MPD2    C4 1588   1.517   0.655  12.332  0.1230  0.2870  0.0862
  104MPD2    C5 1589   1.580   0.769  12.372 -0.6775 -0.0423 -0.5518
  104MPD2     H 1590   1.215   0.752  12.437 -0.8937  0.5374 -1.8966
  104MPD2    H1 1591   1.571   0.578  12.278 -1.3744 -1.3423  0.9100
  104MPD2    H2 1592   1.575   0.958  12.487  1.5487 -1.3400  0.9643
  104MPD2    H3 1593   1.687   0.772  12.353 -0.5789 -2.1023 -0.3119
  104MPD2     N 1594   1.312   0.533  12.323 -0.3339  0.2606  0.6709
  104MPD2    H5 1595   1.211   0.542  12.331 -0.5887  1.0833 -3.3034
  104MPD2    N1 1596   1.342   0.967  12.569 -0.2452 -0.0410 -0.2016
  104MPD2    H7 1597   1.414   1.035  12.594 -0.9112 -0.1175  1.9285
  105MPD2     C 1598   2.796   0.217   0.205 -0.3598 -0.1373  0.0490
  105MPD2    C1 1599   2.676   0.147   0.208 -0.1642  0.2207  0.7261
  105MPD2    C2 1600   2.575   0.190   0.294  0.0956 -0.3238  0.1478
  105MPD2    C3 1601   2.609   0.285   0.388  0.2821 -0.2917  0.1882
  105MPD2    C4 1602   2.736   0.337   0.389 -0.2861  0.3102  0.0549
  105MPD2    C5 1603   2.830   0.298   0.306  0.2668  0.1882 -0.4476
  105MPD2     H 1604   2.479   0.142   0.277 -0.4528  0.9716 -0.3989
  105MPD2    H1 1605   2.769   0.420   0.451  0.2888 -2.0766  2.9737
  105MPD2    H2 1606   2.870   0.200   0.128 -0.6281 -1.2145  0.0324
  105MPD2    H3 1607   2.922   0.355   0.303 -0.9499  2.3111  2.2812
  105MPD2     N 1608   2.501   0.329   0.462 -0.4372  0.0531  0.2079
  105MPD2    H5 1609   2.410   0.292   0.436 -0.4921 -0.9811  1.8397
  105MPD2    N1 1610   2.642   0.046   0.113  0.1872 -0.5180 -0.2374
  105MPD2    H7 1611   2.552   4.725   0.120  0.0738  0.0163  1.8002
  106TCq2    C1 1612   2.504   0.421   0.568  0.4174 -0.4082 -0.4183
  106TCq2    O2 1613   2.593   0.502   0.596  0.1615  0.5156 -0.7317
  106TCq2    C2 1614   2.382   0.430   0.648  0.0404  0.1939  0.8899
  106TCq2    C3 1615   2.278   0.336   0.644  0.3187 -0.1117  0.3080
  106TCq2    C4 1616   2.158   0.354   0.708  0.7322 -0.1164 -0.8461
  106TCq2    C5 1617   2.139   0.472   0.770 -0.1329  0.2572  0.3577
  106TCq2    C6 1618   2.234   0.568   0.771 -0.5096  0.0115 -0.0421
  106TCq2    C7 1619   2.357   0.552   0.712  0.6291  0.3301 -0.7210
  106TCq2    C8 1620   2.198   0.712   0.805  0.5374  0.0272 -0.0917
  106TCq2    O4 1621   2.296   0.782   0.822  0.3799  0.0408 -0.3367
  106TCq2    C9 1622   2.061   0.249   0.721 -0.0508 -0.1278  0.7382
  106TCq2    O5 1623   2.065   0.157   0.637 -0.0546 -0.2590  0.4907
  106TCq2    O6 1624   1.992   0.248   0.827 -0.1740 -0.6324 -0.2576
  106TCq2    H2 1625   2.286   0.238   0.598 -0.0774  0.5054 -1.0737
  106TCq2    H3 1626   2.051   0.482   0.832 -1.0239 -1.3134 -0.6374
  106TCq2    H4 1627   2.425   0.636   0.708  0.6308  0.3721  0.2712
  107TMC2    C1 1628   3.471   3.917  11.741  0.4194 -0.5008 -0.8247
  107TMC2    C2 1629   3.596   3.862  11.749 -0.7435 -0.1392 -0.3024
  107TMC2    C3 1630   3.673   3.868  11.633 -0.1336  0.1741 -0.0775
  107TMC2    C4 1631   3.408   3.962  11.627  0.2627  0.5457 -0.4186
  107TMC2    C5 1632   3.495   3.971  11.518  0.0595  0.3667 -0.7810
  107TMC2    C6 1633   3.627   3.932  11.516 -0.6741 -0.0552  0.1124
  107TMC2     C 1634   3.390   3.904  11.858  0.1473 -0.2186 -0.3848
  107TMC2     O 1635   3.445   3.847  11.949  0.4665  0.3668 -0.2434
  107TMC2     H 1636   3.642   3.815  11.835 -0.3199  0.6675 -0.0886
  107TMC2    H1 1637   3.310   4.009  11.624 -1.0207 -2.2242 -1.5063
  107TMC2    H2 1638   3.694   3.959  11.435 -0.2413 -0.6787  0.2646
  107TMC2    C7 1639   3.435   4.031  11.401  0.7244 -0.2510 -0.0701
  107TMC2    C8 1640   3.808   3.825  11.632 -0.0234  0.3626 -0.1652
  107TMC2    O1 1641   3.347   4.110  11.415  0.1532  0.3756 -0.0390
  107TMC2    O2 1642   3.883   3.848  11.540 -0.7797 -0.1895 -0.7601
  107TMC2    O5 1643   3.823   3.721  11.722 -0.4273  0.3840  0.6751
  107TMC2    H5 1644   3.759   3.711  11.796 -1.1018  1.3766  0.2298
  108MPD2     C 1645   3.074   4.061  11.954 -0.3655  0.8613 -0.0777
  108MPD2    C1 1646   3.174   3.966  11.961  0.2772 -0.7678 -0.6480
  108MPD2    C2 1647   3.185   3.888  12.076 -0.4630  0.0408  0.0039
  108MPD2    C3 1648   3.095   3.914  12.184 -0.5149  0.1351 -0.4473
  108MPD2    C4 1649   2.996   4.009  12.171  0.2917  0.2049 -0.4470
  108MPD2    C5 1650   2.992   4.076  12.056 -0.6068 -0.2056  0.1598
  108MPD2     H 1651   3.260   3.810  12.077  0.0091  0.4478 -2.0092
  108MPD2    H1 1652   2.926   4.017  12.254  0.8094  2.5690 -0.2300
  108MPD2    H2 1653   3.075   4.129  11.870 -0.5617 -0.2738 -1.0037
  108MPD2    H3 1654   2.910   4.147  12.049  0.8456  1.4020 -0.7093
  108MPD2     N 1655   3.104   3.848  12.313 -0.1027 -0.1685 -0.6291
  108MPD2    H5 1656   3.036   3.879  12.381  0.0604  0.3874 -0.7131
  108MPD2    N1 1657   3.263   3.962  11.852  0.2589  0.7836  0.1546
  108MPD2    H7 1658   3.234   4.015  11.771  0.2940  0.5095 -0.0349
  109MPD2     C 1659   3.413   1.610   2.277 -0.6228  0.3592 -0.5726
  109MPD2    C1 1660   3.352   1.665   2.166 -0.2369  0.0566 -0.2405
  109MPD2    C2 1661   3.259   1.764   2.181 -0.1885  0.2014  0.4260
  109MPD2    C3 1662   3.192   1.775   2.304 -0.5915 -0.3684  0.6573
  109MPD2    C4 1663   3.244   1.713   2.416  0.2604  0.1435  0.0747
  109MPD2    C5 1664   3.356   1.634   2.404 -0.2714 -0.6438  0.3226
  109MPD2     H 1665   3.216   1.817   2.097  3.4952 -0.0553 -1.6454
  109MPD2    H1 1666   3.201   1.732   2.514  0.0314  1.0670 -0.2022
  109MPD2    H2 1667   3.489   1.533   2.273  0.7456  1.7485 -1.3831
  109MPD2    H3 1668   3.408   1.584   2.485  1.1703  1.0016  0.4158
  109MPD2     N 1669   3.097   1.877   2.316 -0.1781 -0.4263  0.1539
  109MPD2    H5 1670   3.086   1.938   2.235 -2.0505 -3.0018 -1.5473
  109MPD2    N1 1671   3.401   1.627   2.040 -0.1254  0.1276 -0.0781
  109MPD2    H7 1672   3.481   1.565   2.034 -0.8512 -0.7541 -0.6217
  110TCq2    C1 1673   3.008   1.885   2.414 -0.2085  0.1871 -0.1784
  110TCq2    O2 1674   2.974   1.801   2.498  0.3909 -0.3681 -0.4889
  110TCq2    C2 1675   2.925   2.008   2.397 -0.4277 -0.3727  0.4578
  110TCq2    C3 1676   2.810   2.012   2.469 -0.0191 -0.6272  0.0179
  110TCq2    C4 1677   2.734   2.126   2.466 -0.0398 -0.2223 -0.3165
  110TCq2    C5 1678   2.775   2.236   2.397 -0.5626  0.0187 -0.6619
  110TCq2    C6 1679   2.894   2.233   2.332 -0.3299  0.5332  0.2467
  110TCq2    C7 1680   2.968   2.120   2.332 -0.1704  0.1258 -0.0016
  110TCq2    C8 1681   2.956   2.350   2.269 -0.9178 -0.4416 -0.5279
  110TCq2    O4 1682   3.077   2.348   2.234 -0.3008  0.8305  0.0382
  110TCq2    C9 1683   2.631   2.144   2.560  0.6878 -0.7278 -0.0095
  110TCq2    O5 1684   2.601   2.036   2.626 -0.6259 -0.1232 -0.6153
  110TCq2    O6 1685   2.564   2.257   2.560 -0.8272  0.2212  0.1942
  110TCq2    H2 1686   2.791   1.926   2.532 -0.6825 -1.1287 -0.8621
  110TCq2    H3 1687   2.721   2.329   2.406 -1.2367 -0.5082  0.7483
  110TCq2    H4 1688   3.072   2.117   2.302 -0.3587  2.2433 -0.8442
  111TMC2    C1 1689   3.761   0.714  11.163 -0.4623 -0.2074  0.5397
  111TMC2    C2 1690   3.840   0.649  11.073 -0.0126  0.1366 -0.4798
  111TMC2    C3 1691   3.931   0.561  11.129 -0.4355 -0.1584  0.4439
  111TMC2    C4 1692   3.772   0.694  11.301 -0.8365 -0.1439  0.1085
  111TMC2    C5 1693   3.868   0.608  11.353  0.0421 -0.4651 -0.0335
  111TMC2    C6 1694   3.947   0.543  11.265  0.0200  0.5996 -0.3911
  111TMC2     C 1695   3.639   0.781  11.112 -0.3170 -0.1022 -0.7283
  111TMC2     O 1696   3.618   0.784  10.991 -0.2426  0.0908 -0.0777
  111TMC2     H 1697   3.815   0.642  10.968 -4.4200 -0.8662  0.6439
  111TMC2    H1 1698   3.719   0.752  11.376 -0.1499 -0.1147  0.5769
  111TMC2    H2 1699   4.013   0.462  11.293 -1.2281  0.0404  0.9873
  111TMC2    C7 1700   3.898   0.622  11.498  0.9970  0.3532  0.5185
  111TMC2    C8 1701   3.967   0.461  11.035  0.3849  1.0235  0.1979
  111TMC2    O1 1702   3.836   0.698  11.569  0.2070 -0.3414  0.5692
  111TMC2    O2 1703   3.998   0.348  11.075 -0.0132  0.3956  0.2062
  111TMC2    O5 1704   4.014   0.520  10.927  0.1527  0.1340 -0.8395
  111TMC2    H5 1705   3.995   0.617  10.923 -2.0816 -0.2367  0.5069
  112MPD2     C 1706   3.254   1.115  11.176  0.2791 -0.3208  0.3962
  112MPD2    C1 1707   3.287   1.036  11.070  0.0118 -0.1274  0.5880
  112MPD2    C2 1708   3.384   0.939  11.082 -0.1606 -0.1157  0.6175
  112MPD2    C3 1709   3.465   0.931  11.196  0.1358 -0.6672 -0.2176
  112MPD2    C4 1710   3.435   1.011  11.304 -0.1415  0.6252  0.4529
  112MPD2    C5 1711   3.325   1.102  11.295  0.2982 -0.3501  0.2662
  112MPD2     H 1712   3.412   0.873  11.001 -1.0300  2.1967 -1.5959
  112MPD2    H1 1713   3.490   1.005  11.397 -1.4868 -2.6681  1.0542
  112MPD2    H2 1714   3.164   1.176  11.181  0.9505  0.8223 -1.5412
  112MPD2    H3 1715   3.296   1.165  11.378  0.4730 -0.2080  0.2217
  112MPD2     N 1716   3.578   0.852  11.213 -0.7867  0.2266  0.4835
  112MPD2    H5 1717   3.617   0.855  11.307 -2.9837  2.8144  1.3111
  112MPD2    N1 1718   3.216   1.036  10.950  0.1024 -0.6238 -0.2566
  112MPD2    H7 1719   3.232   0.960  10.885 -1.3873  0.5970 -2.0426
  113MPD2     C 1720   1.803   4.499   0.876  0.7125 -0.6326 -0.4988
  113MPD2    C1 1721   1.673   4.548   0.868  0.7670  0.5962 -0.8339
  113MPD2    C2 1722   1.577   4.462   0.808 -0.7503  0.4147 -1.2270
  113MPD2    C3 1723   1.614   4.344   0.739  0.0610 -0.1416 -0.3050
  113MPD2    C4 1724   1.747   4.321   0.723 -0.2171 -0.7499 -0.0474
  113MPD2    C5 1725   1.836   4.396   0.795 -0.7318  0.0626 -0.2675
  113MPD2     H 1726   1.471   4.484   0.812 -0.6807  1.1398 -3.2070
  113MPD2    H1 1727   1.782   4.232   0.673  0.1756  1.0325 -2.9557
  113MPD2    H2 1728   1.887   4.548   0.923  0.1777  1.7075 -1.9864
  113MPD2    H3 1729   1.942   4.373   0.784 -0.3811  0.5530  2.1880
  113MPD2     N 1730   1.527   4.266   0.660  0.5963  0.6443 -0.5669
  113MPD2    H5 1731   1.566   4.188   0.607  2.8688 -0.2795  2.4475
  113MPD2    N1 1732   1.625   4.664   0.934 -0.0934 -0.1673  0.3086
  113MPD2    H7 1733   1.527   4.691   0.936 -0.2878 -0.9961  2.1296
  114TCq2    C1 1734   1.393   4.258   0.683 -0.0039 -0.9214 -0.9524
  114TCq2    O2 1735   1.316   4.326   0.752  0.0228 -0.2426 -0.2726
  114TCq2    C2 1736   1.343   4.133   0.636 -1.1443 -0.3166  0.4257
  114TCq2    C3 1737   1.401   4.069   0.534 -0.9366 -0.2794 -0.1807
  114TCq2    C4 1738   1.361   3.949   0.492 -0.3979 -0.7650 -0.5318
  114TCq2    C5 1739   1.261   3.882   0.561 -0.4713  0.3465  0.4468
  114TCq2    C6 1740   1.203   3.945   0.671  0.0254  0.4902  0.5560
  114TCq2    C7 1741   1.248   4.071   0.711  0.2080  0.2114 -1.2350
  114TCq2    C8 1742   1.155   3.855   0.773 -0.3634 -0.1895 -0.5599
  114TCq2    O4 1743   1.084   3.767   0.721 -0.0898 -0.2385  0.1979
  114TCq2    C9 1744   1.414   3.896   0.375  0.1940 -0.0586 -0.2163
  114TCq2    O5 1745   1.345   3.806   0.323 -0.2113 -0.1978 -0.1794
  114TCq2    O6 1746   1.535   3.928   0.339  0.2669  0.3662  0.0913
  114TCq2    H2 1747   1.483   4.120   0.485  1.1724 -1.1377  2.4261
  114TCq2    H3 1748   1.228   3.785   0.525 -1.9451  1.2190 -0.5597
  114TCq2    H4 1749   1.219   4.115   0.805  0.6466  1.3628 -1.6382
  115TMC2    C1 1750   2.482   1.560   0.537  0.1827  0.2405  0.4113
  115TMC2    C2 1751   2.557   1.453   0.580  1.1162  1.0021 -0.0728
  115TMC2    C3 1752   2.662   1.470   0.665  0.1072  0.0875 -0.4228
  115TMC2    C4 1753   2.514   1.683   0.586 -0.0183 -0.2357  0.0081
  115TMC2    C5 1754   2.618   1.693   0.672  0.5006  0.6069 -0.1385
  115TMC2    C6 1755   2.690   1.590   0.719  0.2227  0.6372  0.0727
  115TMC2     C 1756   2.376   1.544   0.442  0.3092 -0.0887  1.1642
  115TMC2     O 1757   2.374   1.436   0.381  0.1454 -0.4748  0.6002
  115TMC2     H 1758   2.532   1.356   0.539 -0.9996  1.5149  0.0123
  115TMC2    H1 1759   2.467   1.774   0.549  0.2060 -0.0654  0.1427
  115TMC2    H2 1760   2.774   1.603   0.786 -0.3939  0.6778  0.8378
  115TMC2    C7 1761   2.606   1.803   0.763  0.0289 -0.4761 -0.3099
  115TMC2    C8 1762   2.751   1.356   0.678 -0.1693  0.1257  0.0976
  115TMC2    O1 1763   2.586   1.788   0.884 -0.4021  0.4362 -0.4401
  115TMC2    O2 1764   2.763   1.260   0.603  0.5862  0.4717  0.4721
  115TMC2    O5 1765   2.828   1.377   0.790  0.1177  0.3544 -0.4049
  115TMC2    H5 1766   2.784   1.436   0.855 -0.9138  0.1577 -0.9286
  116MPD2     C 1767   1.870   1.595   0.409 -0.2882 -0.1065  0.5422
  116MPD2    C1 1768   1.950   1.511   0.343  0.1984 -0.0957 -0.3113
  116MPD2    C2 1769   2.084   1.524   0.365  1.3238 -0.0432 -0.0089
  116MPD2    C3 1770   2.135   1.615   0.459 -0.0480  0.4460  0.1549
  116MPD2    C4 1771   2.049   1.690   0.537  0.2377 -0.8271 -0.6559
  116MPD2    C5 1772   1.918   1.690   0.497 -0.4206  0.8539 -0.3011
  116MPD2     H 1773   2.152   1.463   0.307 -0.5454 -1.0741 -1.1150
  116MPD2    H1 1774   2.083   1.752   0.619 -1.1257 -2.0383  0.8242
  116MPD2    H2 1775   1.763   1.596   0.392 -0.1313 -2.8504 -0.6450
  116MPD2    H3 1776   1.843   1.740   0.557  0.4847  0.2698  1.3200
  116MPD2     N 1777   2.274   1.624   0.487  0.1281  0.2524  0.5697
  116MPD2    H5 1778   2.295   1.683   0.567  0.7098 -0.0480  0.6369
  116MPD2    N1 1779   1.894   1.409   0.261  0.1063 -0.2202 -0.6611
  116MPD2    H7 1780   1.797   1.421   0.234 -0.4075 -0.9806  0.8733
  117TMC2    C1 1781   1.036   3.024  13.508 -0.5146  0.3048  0.1260
  117TMC2    C2 1782   1.126   2.922  13.482 -0.3922 -0.9783  0.2841
  117TMC2    C3 1783   1.253   2.963  13.480  0.4494 -0.7799 -0.2345
  117TMC2    C4 1784   1.071   3.157  13.516 -0.4245 -0.0699  0.5837
  117TMC2    C5 1785   1.203   3.192  13.505  0.2356 -0.8281 -0.2198
  117TMC2    C6 1786   1.299   3.095  13.485  0.4226  0.6085  0.2370
  117TMC2     C 1787   0.900   2.975  13.536 -0.1157 -0.5326  0.0939
  117TMC2     O 1788   0.875   2.857  13.524  0.2897  0.3525 -0.0254
  117TMC2     H 1789   1.114   2.815  13.466 -0.2028 -0.5233 -2.9724
  117TMC2    H1 1790   1.003   3.238  13.539  1.1676  0.7098  2.6009
  117TMC2    H2 1791   1.404   3.121  13.484  0.0494  2.1499  1.4900
  117TMC2    C7 1792   1.228   3.334  13.476  0.0861  0.3436 -0.4479
  117TMC2    C8 1793   1.359   2.871  13.459  0.5535  0.4046 -0.3265
  117TMC2    O1 1794   1.342   3.377  13.498 -0.4956 -0.3567 -0.1134
  117TMC2    O2 1795   1.383   2.797  13.364  0.4089  0.2596 -0.6044
  117TMC2    O5 1796   1.430   2.875  13.571 -0.4965 -0.0051 -0.2895
  117TMC2    H5 1797   1.379   2.920  13.642  0.8469  1.9209 -0.5532
  118MPD2     C 1798   1.004   3.597  13.354  0.1177 -0.0695  0.4539
  118MPD2    C1 1799   1.118   3.543  13.399 -0.5666 -0.0660  0.0383
  118MPD2    C2 1800   1.230   3.623  13.405 -0.3242 -0.1149 -0.0682
  118MPD2    C3 1801   1.226   3.756  13.373  0.4615  0.1335  0.8847
  118MPD2    C4 1802   1.114   3.807  13.326 -0.2016  0.5219 -0.2311
  118MPD2    C5 1803   1.000   3.733  13.323 -0.3513  0.3634 -0.2976
  118MPD2     H 1804   1.326   3.580  13.431 -1.2434 -1.2496  1.4170
  118MPD2    H1 1805   1.104   3.911  13.298 -0.4106  0.6024  0.1377
  118MPD2    H2 1806   0.906   3.550  13.353 -0.5047  1.2179  0.3785
  118MPD2    H3 1807   0.909   3.776  13.284  0.5205  2.4419 -0.0396
  118MPD2     N 1808   1.333   3.840  13.383  0.0819  0.2755  0.0329
  118MPD2    H5 1809   1.317   3.940  13.394 -0.4778  0.1739  0.1608
  118MPD2    N1 1810   1.120   3.404  13.429  0.3312  0.0534 -0.8394
  118MPD2    H7 1811   1.030   3.361  13.416  0.5546 -0.7289  0.2114
  119MPD2     C 1812   4.109   4.691  13.972  0.1955  0.3039  0.6765
  119MPD2    C1 1813   3.975   4.697  13.950 -0.1019 -0.4167  0.2101
  119MPD2    C2 1814   3.931   4.658  13.825  1.0158  0.3675 -0.6630
  119MPD2    C3 1815   4.027   4.608  13.729  0.2049  0.3310 -0.1152
  119MPD2    C4 1816   4.154   4.600  13.764  0.4250  0.2246 -0.0328
  119MPD2    C5 1817   4.200   4.643  13.882 -1.3247  0.1729 -0.3217
  119MPD2     H 1818   3.826   4.661  13.799  1.0802  0.0040 -0.9779
  119MPD2    H1 1819   4.230   4.567  13.694  1.5717  1.8037  0.4764
  119MPD2    H2 1820   4.145   4.714  14.072 -1.2702  3.1618  0.5643
  119MPD2    H3 1821   4.303   4.648  13.916 -2.3342 -2.2682  3.0829
  119MPD2     N 1822   3.998   4.532  13.615 -0.7771 -0.1010  0.5621
  119MPD2    H5 1823   4.073   4.472  13.585 -1.2381 -0.0865 -0.6183
  119MPD2    N1 1824   3.900   0.012  14.064  0.0604 -0.4225  0.3134
  119MPD2    H7 1825   3.962   0.061  14.126 -0.7167  0.8519  0.0925
  120TCq2    C1 1826   3.869   4.515  13.562 -0.5199 -0.1144 -0.2199
  120TCq2    O2 1827   3.766   4.572  13.592  0.3278 -0.2478  0.1720
  120TCq2    C2 1828   3.863   4.395  13.482 -0.3253  0.6842 -0.8458
  120TCq2    C3 1829   3.979   4.336  13.440 -0.8241 -0.5162  0.7917
  120TCq2    C4 1830   3.967   4.225  13.362 -0.2014  0.4801  0.0856
  120TCq2    C5 1831   3.845   4.174  13.340 -0.3328 -0.5370  0.8394
  120TCq2    C6 1832   3.738   4.229  13.402 -0.0603 -0.2150  0.2244
  120TCq2    C7 1833   3.739   4.346  13.471 -0.3361  0.0819 -0.3319
  120TCq2    C8 1834   3.611   4.154  13.404 -0.0764  0.6882  0.2043
  120TCq2    O4 1835   3.593   4.075  13.316  0.3728  0.0312  0.1898
  120TCq2    C9 1836   4.085   4.156  13.318 -0.8940 -0.6656 -0.0748
  120TCq2    O5 1837   4.198   4.185  13.375  0.2216  0.4613 -0.4513
  120TCq2    O6 1838   4.067   4.062  13.232 -0.4583  0.4686  0.2479
  120TCq2    H2 1839   4.080   4.376  13.450 -0.9260 -0.2459  0.7286
  120TCq2    H3 1840   3.832   4.085  13.279  1.0304 -1.0448  1.2917
  120TCq2    H4 1841   3.656   4.402  13.513 -1.5578  0.9809 -3.9755
  121TMC2    C1 1842   0.325   1.229  13.960 -1.3016 -0.6077 -0.7285
  121TMC2    C2 1843   0.288   1.113  14.016 -0.7844  0.2150 -0.1490
  121TMC2    C3 1844   0.183   1.037  13.964 -0.4082 -0.4877  0.1897
  121TMC2    C4 1845   0.252   1.277  13.861  0.6024 -0.3044  0.7852
  121TMC2    C5 1846   0.132   1.219  13.837  0.6196  0.1553  0.4912
  121TMC2    C6 1847   0.100   1.094  13.877 -0.3692 -0.2239 -0.1466
  121TMC2     C 1848   0.441   1.298  14.019 -0.0240 -1.0085  0.1742
  121TMC2     O 1849   0.476   1.279  14.135  0.1212  0.1680 -0.1513
  121TMC2     H 1850   0.341   1.067  14.098 -1.4872  1.6538  1.1051
  121TMC2    H1 1851   0.278   1.369  13.809  0.1240 -0.6897 -0.1195
  121TMC2    H2 1852   0.011   1.039  13.851 -0.1235 -0.8931  0.4408
  121TMC2    C7 1853   0.048   1.263  13.728 -0.4825  0.2277  0.4738
  121TMC2    C8 1854   0.107   0.969  14.062  0.3080  0.3455  0.3851
  121TMC2    O1 1855   0.094   1.334  13.641  0.6162 -0.2184 -0.3113
  121TMC2    O2 1856   0.105   0.988  14.180  0.2095 -0.0485  0.3194
  121TMC2    O5 1857   0.084   0.848  14.005 -0.1324 -0.6107  0.3232
  121TMC2    H5 1858   0.109   0.843  13.911 -2.9180 -1.2162 -0.3844
  122MPD2     C 1859   0.686   1.456  14.070  0.3640  0.4926 -0.2544
  122MPD2    C1 1860   0.586   1.484  13.973 -0.7123  0.4490  0.5600
  122MPD2    C2 1861   0.591   1.600  13.906 -0.0364 -0.3098  0.2831
  122MPD2    C3 1862   0.703   1.680  13.916  0.6618 -0.0714  0.1642
  122MPD2    C4 1863   0.792   1.660  14.010  0.3290  0.2098 -0.7724
  122MPD2    C5 1864   0.788   1.547  14.089 -0.1434 -0.3926  0.6624
  122MPD2     H 1865   0.510   1.619  13.838 -0.4505  0.2023  0.9198
  122MPD2    H1 1866   0.876   1.729  14.015 -0.4372  0.9875  1.2647
  122MPD2    H2 1867   0.685   1.372  14.138 -0.1423 -0.7433 -1.7808
  122MPD2    H3 1868   0.854   1.532  14.173 -0.2856 -1.0682  0.6477
  122MPD2     N 1869   0.707   1.796  13.837 -0.2973  0.3527  0.8909
  122MPD2    H5 1870   0.759   1.868  13.886 -0.0397  0.3535  0.6167
  122MPD2    N1 1871   0.488   1.393  13.934 -0.0347 -0.4319  0.3401
  122MPD2    H7 1872   0.445   1.403  13.843  0.6983  2.1380  0.2879
  123MPD2     C 1873   2.949   4.088   8.713 -0.4635  0.2929  0.3211
  123MPD2    C1 1874   3.055   4.103   8.800  0.3947  0.1233 -0.2052
  123MPD2    C2 1875   3.116   3.986   8.850  0.1015 -0.2759  0.2828
  123MPD2    C3 1876   3.062   3.861   8.824 -0.2770  0.1407 -0.2744
  123MPD2    C4 1877   2.950   3.853   8.745 -0.9698  0.7197  0.2209
  123MPD2    C5 1878   2.894   3.963   8.694  0.5672  0.5601  0.3231
  123MPD2     H 1879   3.198   3.993   8.921 -2.1387 -1.0153  2.9726
  123MPD2    H1 1880   2.904   3.760   8.714 -1.4908  0.5604  1.4837
  123MPD2    H2 1881   2.905   4.169   8.655 -0.7174  0.7635  1.1518
  123MPD2    H3 1882   2.809   3.958   8.628  0.5166  0.0663  0.4280
  123MPD2     N 1883   3.116   3.753   8.895 -0.1186 -0.0479 -0.2972
  123MPD2    H5 1884   3.188   3.774   8.963  0.2250  1.0234 -0.9803
  123MPD2    N1 1885   3.100   4.232   8.824 -0.2835 -0.1747  0.5831
  123MPD2    H7 1886   3.042   4.310   8.795 -1.0672 -1.4958 -1.4220
  124TCq2    C1 1887   3.058   3.621   8.894 -0.6731  0.2130 -0.4169
  124TCq2    O2 1888   2.976   3.567   8.825 -0.2102 -0.3784  0.0461
  124TCq2    C2 1889   3.148   3.526   8.970  0.9413  0.2547 -1.1294
  124TCq2    C3 1890   3.097   3.401   9.009 -0.2626 -0.3553 -0.0416
  124TCq2    C4 1891   3.173   3.316   9.084  0.0459 -0.2585  0.1916
  124TCq2    C5 1892   3.302   3.351   9.120 -0.3483  0.0441  0.4033
  124TCq2    C6 1893   3.354   3.472   9.083 -0.7596 -0.0842  0.4960
  124TCq2    C7 1894   3.274   3.558   9.008 -0.3925 -0.0245  0.4653
  124TCq2    C8 1895   3.447   3.535   9.179  0.5474  0.1557 -0.0056
  124TCq2    O4 1896   3.465   3.485   9.288  0.9045  0.1408  0.1636
  124TCq2    C9 1897   3.118   3.194   9.133 -0.3133 -0.1083 -0.3676
  124TCq2    O5 1898   3.010   3.160   9.086 -0.2164  0.0440  0.0861
  124TCq2    O6 1899   3.201   3.122   9.197  0.2388  0.5528  0.3369
  124TCq2    H2 1900   2.998   3.374   8.977 -0.7433  1.2660  0.0842
  124TCq2    H3 1901   3.360   3.288   9.185  0.2134  1.1445  0.9653
  124TCq2    H4 1902   3.316   3.654   8.980 -0.0733 -1.1946 -3.0574
  125TMC2    C1 1903   4.053   1.954  10.251  0.8518 -0.3935  0.8228
  125TMC2    C2 1904   4.005   1.930  10.125 -0.3905  0.3953  0.0065
  125TMC2    C3 1905   4.075   1.857  10.036  0.3994  0.5461 -0.0382
  125TMC2    C4 1906   4.164   1.882  10.297  0.5470  0.3944 -0.1374
  125TMC2    C5 1907   4.237   1.810  10.204 -0.8174 -0.6237 -0.6207
  125TMC2    C6 1908   4.194   1.800  10.073 -0.7227  0.3762 -0.4967
  125TMC2     C 1909   4.016   2.074  10.321 -0.6700  0.1531 -0.2480
  125TMC2     O 1910   4.071   2.089  10.430  0.0855 -0.5576  0.1848
  125TMC2     H 1911   3.906   1.967  10.100 -0.5589 -0.4036 -0.5235
  125TMC2    H1 1912   4.202   1.905  10.396  2.5104 -2.4382 -0.2564
  125TMC2    H2 1913   4.256   1.747  10.001  1.0764  0.5945  0.8962
  125TMC2    C7 1914   4.352   1.742  10.255 -0.1498  0.1818 -0.3998
  125TMC2    C8 1915   4.043   1.824   9.902 -0.1577  0.7050  0.0673
  125TMC2    O1 1916   4.371   1.738  10.380  0.0267  0.1614 -0.0874
  125TMC2    O2 1917   4.068   1.716   9.845 -0.0893 -0.6207 -0.1047
  125TMC2    O5 1918   3.978   1.930   9.848 -0.0394 -0.1904  0.1033
  125TMC2    H5 1919   3.993   2.017   9.892  1.6013 -0.3538 -0.1606
  126MPD1     C 1920   3.843   2.556  10.372 -0.9644  0.2292 -0.2787
  126MPD1    C1 1921   3.858   2.456  10.469  0.2621 -0.5009  0.2206
  126MPD1    C2 1922   3.886   2.327  10.429 -0.5376 -0.1315  0.6887
  126MPD1    C3 1923   3.914   2.297  10.299  0.3910  0.1314 -0.8833
  126MPD1    C4 1924   3.907   2.395  10.203 -0.2461 -0.0785 -0.2479
  126MPD1    C5 1925   3.867   2.525  10.245 -0.2631  0.0639 -0.2662
  126MPD1     H 1926   3.893   2.251  10.506 -0.9067  3.4064  4.1952
  126MPD1    H1 1927   3.928   2.365  10.101 -1.7062 -1.5741 -0.1027
  126MPD1    H2 1928   3.829   2.657  10.410 -0.5068  0.5190 -0.8810
  126MPD1    H3 1929   3.869   2.613  10.183 -0.9248 -0.7279 -1.4035
  126MPD1     N 1930   3.946   2.167  10.248 -0.3341  0.3717 -0.9742
  126MPD1    H5 1931   3.946   2.160  10.147  0.2921  2.7462 -1.1514
  126MPD1    N1 1932   3.852   2.492  10.603  0.5459 -0.0042  0.0396
  126MPD1    H6 1933   3.792   2.572  10.621  1.5517  0.1848  2.5719
  126MPD1    H7 1934   3.827   2.406  10.652  2.4480 -1.0393 -0.8279
  127MPD2     C 1935   1.259   0.020   9.458  0.0119  0.9506  0.0159
  127MPD2    C1 1936   1.157   0.078   9.533  0.3667  0.0756 -0.0589
  127MPD2    C2 1937   1.143   0.218   9.535 -0.3832 -0.0282  0.0249
  127MPD2    C3 1938   1.219   0.296   9.442 -0.4098  0.5391 -0.3038
  127MPD2    C4 1939   1.318   0.231   9.364 -0.4873  0.3282 -1.0004
  127MPD2    C5 1940   1.343   0.100   9.382 -0.0512 -0.2851  0.3817
  127MPD2     H 1941   1.071   0.273   9.594 -0.6851 -0.8684  0.4498
  127MPD2    H1 1942   1.387   0.291   9.306  0.7045 -1.8502 -1.8131
  127MPD2    H2 1943   1.267   4.638   9.450  0.2955  0.9267  0.6417
  127MPD2    H3 1944   1.423   0.051   9.328 -0.5098 -1.0554  0.3925
  127MPD2     N 1945   1.199   0.437   9.427 -0.8572  0.6562  0.0174
  127MPD2    H5 1946   1.128   0.470   9.492 -2.0983 -1.3026 -0.3570
  127MPD2    N1 1947   1.083   4.724   9.619  0.3668 -0.3613  0.4185
  127MPD2    H7 1948   1.084   4.624   9.605 -0.0908 -0.2380 -0.5003
  128TCq2    C1 1949   1.015   0.040   9.728 -0.3635  0.5774  0.6301
  128TCq2    O2 1950   1.006   0.153   9.778 -0.3120 -0.5580 -0.3065
  128TCq2    C2 1951   0.943   4.661   9.803  0.5262  0.0264 -0.2819
  128TCq2    C3 1952   0.922   4.678   9.935  0.2283 -0.1061  0.0191
  128TCq2    C4 1953   0.861   4.583  10.019 -0.6177  0.1744  0.7263
  128TCq2    C5 1954   0.816   4.470   9.955 -0.1497 -0.2822 -0.1725
  128TCq2    C6 1955   0.835   4.450   9.820  0.3054 -0.0450  0.3815
  128TCq2    C7 1956   0.906   4.543   9.740 -0.3269 -0.4516  0.0280
  128TCq2    C8 1957   0.780   4.339   9.750 -0.1320 -0.0998  0.0876
  128TCq2    O4 1958   0.841   4.288   9.656 -0.3579 -0.3919 -0.7585
  128TCq2    C9 1959   0.847   4.605  10.160 -0.2661 -0.4879 -0.1874
  128TCq2    O5 1960   0.837   4.725  10.196  0.4124  0.0214 -0.1065
  128TCq2    O6 1961   0.852   4.507  10.242  0.1652  0.0897  0.1298
  128TCq2    H2 1962   0.949   0.045   9.983 -0.1530 -1.3715  2.6372
  128TCq2    H3 1963   0.777   4.384  10.009 -1.1397  1.5562  2.0567
  128TCq2    H4 1964   0.940   4.515   9.640 -0.4404 -0.8743  0.1096
  129MPD2     C 1965   3.643   2.273   1.963 -0.3302  0.3833  0.7660
  129MPD2    C1 1966   3.743   2.191   1.912  0.1241 -0.8668 -0.6142
  129MPD2    C2 1967   3.809   2.224   1.799  0.7422 -0.1513 -0.3168
  129MPD2    C3 1968   3.793   2.348   1.735 -0.6980 -0.3002  0.0596
  129MPD2    C4 1969   3.681   2.428   1.782  0.2577 -0.4610 -0.3384
  129MPD2    C5 1970   3.611   2.388   1.893 -0.1687  0.2665  0.0167
  129MPD2     H 1971   3.897   2.168   1.768  0.8634 -0.4759  0.6300
  129MPD2    H1 1972   3.657   2.521   1.732 -0.0864 -2.9282 -4.8014
  129MPD2    H2 1973   3.600   2.251   2.060  1.0282 -1.5690  0.9350
  129MPD2    H3 1974   3.533   2.445   1.941 -0.1649  0.9115 -0.7485
  129MPD2     N 1975   3.867   2.367   1.620  0.5345 -0.1675  0.5378
  129MPD2    H5 1976   3.928   2.294   1.586 -1.2634 -0.8423 -1.2446
  129MPD2    N1 1977   3.788   2.068   1.971  0.1615  0.0848 -0.0007
  129MPD2    H7 1978   3.870   2.031   1.925 -0.3644 -0.1499 -0.7374
  130TCq2    C1 1979   3.730   2.007   2.074 -0.3683  1.1489  0.3595
  130TCq2    O2 1980   3.616   2.022   2.109 -0.2945  0.1167 -0.2769
  130TCq2    C2 1981   3.801   1.889   2.120 -0.1054 -0.4806  0.2514
  130TCq2    C3 1982   3.936   1.892   2.115  0.1556  0.8575 -0.4002
  130TCq2    C4 1983   4.005   1.773   2.124 -0.0828 -0.6238  0.0621
  130TCq2    C5 1984   3.937   1.654   2.139  0.7848 -0.1772  0.1177
  130TCq2    C6 1985   3.803   1.652   2.146  0.3200 -0.0398 -0.0648
  130TCq2    C7 1986   3.733   1.769   2.129 -0.0247 -0.6318  0.4324
  130TCq2    C8 1987   3.738   1.527   2.128  1.2117  0.3693  0.4516
  130TCq2    O4 1988   3.661   1.523   2.036  0.3613 -0.0620  0.2830
  130TCq2    C9 1989   4.148   1.775   2.105 -0.5364 -0.5697 -0.0208
  130TCq2    O5 1990   4.210   1.884   2.108 -0.9799  0.4266 -0.1084
  130TCq2    O6 1991   4.207   1.665   2.084 -0.2222  0.5419  0.3449
  130TCq2    H2 1992   3.989   1.986   2.103  1.1606  0.2489 -0.6515
  130TCq2    H3 1993   3.989   1.561   2.156 -0.1021 -0.9516 -1.3440
  130TCq2    H4 1994   3.625   1.776   2.123 -0.0870 -1.3962  0.7685
  131MPD2     C 1995   3.465   0.087   9.663 -0.1056 -0.1142  0.0645
  131MPD2    C1 1996   3.483   0.170   9.562 -0.3600  0.6207 -0.7318
  131MPD2    C2 1997   3.422   0.132   9.444  0.2197 -0.2727 -0.3001
  131MPD2    C3 1998   3.382   0.004   9.420 -0.4334 -0.6581  0.4584
  131MPD2    C4 1999   3.380   4.638   9.524  0.2191  0.2983  0.1219
  131MPD2    C5 2000   3.412   4.688   9.643 -0.6373 -0.0273  0.4079
  131MPD2     H 2001   3.425   0.201   9.361 -2.0929  0.2178  0.0375
  131MPD2    H1 2002   3.327   4.544   9.532  1.1884 -0.1661  1.0252
  131MPD2    H2 2003   3.493   0.116   9.764  0.3365 -2.6771  0.6704
  131MPD2    H3 2004   3.405   4.624   9.730  1.8220 -0.5364  0.2349
  131MPD2     N 2005   3.320   4.705   9.295 -0.2039 -0.1394  0.2938
  131MPD2    H5 2006   3.328   0.052   9.225  0.7520 -0.4489  0.0771
  131MPD2    N1 2007   3.547   0.296   9.592 -0.3274  0.7134  0.6157
  131MPD2    H7 2008   3.591   0.299   9.683 -2.9129 -1.6768  1.9484
  132TCq2    C1 2009   3.661   0.872   9.449 -0.3578  0.3415 -0.5318
  132TCq2    O2 2010   3.657   0.846   9.328 -0.1687 -0.4906 -0.1755
  132TCq2    C2 2011   3.628   0.765   9.539  0.3677 -1.1909  0.1213
  132TCq2    C3 2012   3.680   0.764   9.667 -0.1215  0.0262  0.4985
  132TCq2    C4 2013   3.697   0.649   9.732  0.4680 -0.6801 -0.0519
  132TCq2    C5 2014   3.658   0.528   9.679 -0.2547 -0.1106 -0.0337
  132TCq2    C6 2015   3.592   0.525   9.559  0.3892 -0.5659  0.1350
  132TCq2    C7 2016   3.585   0.643   9.485 -0.0462  0.5571 -0.3346
  132TCq2    C8 2017   3.534   0.404   9.505 -0.1613 -0.0993  0.2544
  132TCq2    O4 2018   3.501   0.407   9.385 -0.1444 -0.3352 -0.0800
  132TCq2    C9 2019   3.763   0.645   9.865 -0.2701 -0.9829 -0.7407
  132TCq2    O5 2020   3.778   0.529   9.923  0.4924  0.5142 -0.6699
  132TCq2    O6 2021   3.757   0.756   9.931 -0.6279  0.2819 -0.0260
  132TCq2    H2 2022   3.716   0.853   9.718  0.2399 -1.0768  2.1552
  132TCq2    H3 2023   3.669   0.435   9.734 -1.5930 -0.2604 -0.0242
  132TCq2    H4 2024   3.547   0.641   9.383 -2.8329  0.5342  0.6883
  133MPD2     C 2025   2.740   0.564   8.909 -0.3718 -0.2954 -0.9353
  133MPD2    C1 2026   2.819   0.594   9.014 -0.1208 -0.3983  0.7718
  133MPD2    C2 2027   2.882   0.502   9.083 -0.0841  0.4055  0.2971
  133MPD2    C3 2028   2.846   0.368   9.065  0.2224  0.2235  0.3136
  133MPD2    C4 2029   2.764   0.330   8.952  0.0800 -0.0754  1.2529
  133MPD2    C5 2030   2.715   0.431   8.868  0.2097 -0.0675  0.0256
  133MPD2     H 2031   2.940   0.537   9.167  0.5208 -1.6037  0.7116
  133MPD2    H1 2032   2.737   0.230   8.923 -3.0011  0.8910  0.8024
  133MPD2    H2 2033   2.695   0.641   8.847  4.3356  1.2157 -2.4161
  133MPD2    H3 2034   2.646   0.400   8.791  1.7983 -2.3542 -0.4752
  133MPD2     N 2035   2.892   0.268   9.147 -0.0860  0.0074 -0.1319
  133MPD2    H5 2036   2.864   0.173   9.122 -0.1798  0.7537 -2.8669
  133MPD2    N1 2037   2.840   0.729   9.025  0.6289  0.5342  0.1248
  133MPD2    H7 2038   2.789   0.792   8.963 -0.3774  0.4321  0.8544
  134TCq2    C1 2039   2.900   0.787   9.139  0.8199 -0.2734 -0.2357
  134TCq2    O2 2040   2.943   0.743   9.242  0.1124 -0.1886 -0.4503
  134TCq2    C2 2041   2.906   0.932   9.127 -0.6050 -0.5494  0.0214
  134TCq2    C3 2042   2.927   0.985   9.006 -0.2177 -0.7322  0.2712
  134TCq2    C4 2043   2.969   1.116   8.995 -0.2673 -0.0590  0.1930
  134TCq2    C5 2044   2.981   1.207   9.098  0.4904 -0.3107  0.1058
  134TCq2    C6 2045   2.956   1.152   9.220  0.2357 -0.0281 -0.3461
  134TCq2    C7 2046   2.921   1.015   9.235 -0.5641  0.2580  0.0239
  134TCq2    C8 2047   2.928   1.228   9.338 -0.5335  0.3743 -0.0439
  134TCq2    O4 2048   2.954   1.176   9.445 -0.2928 -0.2166  0.1353
  134TCq2    C9 2049   3.015   1.164   8.861 -0.0359  0.1539  0.6944
  134TCq2    O5 2050   3.056   1.284   8.853 -0.3249  0.5800 -0.0788
  134TCq2    O6 2051   2.997   1.090   8.760 -0.2276 -0.1152 -0.1410
  134TCq2    H2 2052   2.923   0.926   8.916 -0.7404 -2.1483  1.2212
  134TCq2    H3 2053   3.020   1.307   9.081  0.1911 -0.6160 -2.3709
  134TCq2    H4 2054   2.909   0.964   9.330 -0.0755 -0.3886 -0.2588
  135MPD2     C 2055   0.417   2.007   9.892 -0.0736 -0.4332  0.3819
  135MPD2    C1 2056   0.455   1.891   9.955  0.0726 -0.0487  0.1195
  135MPD2    C2 2057   0.524   1.794   9.875 -0.5292  0.2448 -0.3031
  135MPD2    C3 2058   0.590   1.836   9.761  0.4915 -0.1825  0.7025
  135MPD2    C4 2059   0.560   1.955   9.709 -0.1198 -0.7868  0.6452
  135MPD2    C5 2060   0.466   2.034   9.772 -0.0208  0.0577  0.4774
  135MPD2     H 2061   0.549   1.698   9.918 -1.1849  1.9771  3.8953
  135MPD2    H1 2062   0.599   1.989   9.613 -1.5790 -1.0624 -0.0544
  135MPD2    H2 2063   0.345   2.077   9.933  0.4107  0.8025 -0.8673
  135MPD2    H3 2064   0.442   2.131   9.730  0.7357 -1.0010 -2.3786
  135MPD2     N 2065   0.670   1.749   9.684 -0.3811 -0.2208  0.3518
  135MPD2    H5 2066   0.696   1.792   9.596 -0.9139 -0.8039 -0.0838
  135MPD2    N1 2067   0.414   1.849  10.079 -0.3096 -0.4067  0.3739
  135MPD2    H7 2068   0.452   1.761  10.112  1.2793  0.2263  0.2100
  136TCq2    C1 2069   0.320   1.911  10.156  0.3637  0.7909  0.3281
  136TCq2    O2 2070   0.230   1.987  10.117 -0.3278  0.0206  0.3622
  136TCq2    C2 2071   0.293   1.851  10.287  0.7343 -0.1046 -0.2640
  136TCq2    C3 2072   0.363   1.741  10.322  0.4002 -0.1108 -0.7347
  136TCq2    C4 2073   0.329   1.680  10.444 -0.4850  0.1883  0.5643
  136TCq2    C5 2074   0.238   1.737  10.526 -0.1291  0.1399  0.4781
  136TCq2    C6 2075   0.167   1.846  10.487 -0.1252 -0.2380  0.7080
  136TCq2    C7 2076   0.198   1.909  10.363 -0.4819 -0.3164  0.2543
  136TCq2    C8 2077   0.038   1.877  10.557 -0.5255  0.2902 -0.0741
  136TCq2    O4 2078   4.719   1.803  10.641  0.7355 -0.3083  0.9042
  136TCq2    C9 2079   0.411   1.569  10.493 -0.2032  0.3051 -0.0287
  136TCq2    O5 2080   0.380   1.516  10.603 -0.7998  0.1721  0.3115
  136TCq2    O6 2081   0.515   1.537  10.427 -0.3847 -0.6006 -0.0006
  136TCq2    H2 2082   0.439   1.685  10.268  2.0474 -0.1080  1.5677
  136TCq2    H3 2083   0.221   1.687  10.621 -0.0668 -0.2443  0.2893
  136TCq2    H4 2084   0.136   1.986  10.318 -0.7358  0.3261  1.6997
  137MPD2     C 2085   0.185   1.329   9.352 -0.0602 -0.0208  0.7349
  137MPD2    C1 2086   0.085   1.414   9.393  0.0901  0.1861  0.1933
  137MPD2    C2 2087   0.041   1.391   9.515 -0.2474  0.4510 -0.3931
  137MPD2    C3 2088   0.087   1.283   9.601  0.2627  0.7606  0.6116
  137MPD2    C4 2089   0.185   1.196   9.562 -0.2179  0.2442 -0.1932
  137MPD2    C5 2090   0.234   1.226   9.437 -0.2638 -0.0864 -0.2199
  137MPD2     H 2091   4.705   1.468   9.559 -0.9483 -1.3470  1.7860
  137MPD2    H1 2092   0.231   1.113   9.614  1.9125  1.5506  0.0013
  137MPD2    H2 2093   0.229   1.342   9.254 -1.0807  0.3955  0.3369
  137MPD2    H3 2094   0.317   1.166   9.402 -0.4346 -0.4891  0.0788
  137MPD2     N 2095   0.025   1.274   9.730 -0.6273 -0.6480 -0.2836
  137MPD2    H5 2096   4.669   1.332   9.741 -0.8758 -1.1892  0.6591
  137MPD2    N1 2097   0.040   1.521   9.310 -0.5888 -0.6225  0.0971
  137MPD2    H7 2098   0.077   1.511   9.216  1.6049 -0.6332  0.9479
  138TCq2    C1 2099   4.666   1.614   9.342 -0.3385  0.1313 -0.0558
  138TCq2    O2 2100   4.600   1.631   9.447  0.5526 -0.5018  0.1040
  138TCq2    C2 2101   4.643   1.709   9.232  0.2865  0.0573 -0.4757
  138TCq2    C3 2102   0.007   1.713   9.128 -0.1063  0.5162  0.0858
  138TCq2    C4 2103   4.703   1.787   9.020 -0.3135  0.1349 -0.4990
  138TCq2    C5 2104   4.586   1.856   9.012 -0.3027  0.5710  0.5054
  138TCq2    C6 2105   4.501   1.855   9.117 -0.3126  0.1389 -0.7028
  138TCq2    C7 2106   4.532   1.787   9.227  0.7737  0.0302 -0.0140
  138TCq2    C8 2107   4.393   1.948   9.109 -0.0477 -0.3993  0.0141
  138TCq2    O4 2108   4.390   2.046   9.035  0.7349 -0.1117 -0.3296
  138TCq2    C9 2109   0.059   1.786   8.899  0.0433 -0.0946  0.3315
  138TCq2    O5 2110   0.006   1.815   8.788  0.1321  0.0651 -0.0748
  138TCq2    O6 2111   0.161   1.709   8.901  0.0070  0.2844  0.5304
  138TCq2    H2 2112   0.107   1.672   9.134 -1.2097 -2.0557  0.9582
  138TCq2    H3 2113   4.563   1.913   8.922 -1.1654 -1.9556 -0.8923
  138TCq2    H4 2114   4.469   1.802   9.313  1.1553 -1.5956  0.5527
  139TMC2    C1 2115   0.779   4.054  13.792 -0.7931  0.1975 -0.1296
  139TMC2    C2 2116   0.890   4.001  13.858 -0.3977  0.4767 -0.6969
  139TMC2    C3 2117   0.978   4.086  13.918  0.1008  0.1350 -1.0297
  139TMC2    C4 2118   0.769   4.192  13.770 -0.4372 -0.3272 -0.2738
  139TMC2    C5 2119   0.867   4.269  13.829  0.0228  0.0619  0.1150
  139TMC2    C6 2120   0.970   4.226  13.897  0.4046  0.0712  0.5631
  139TMC2     C 2121   0.684   3.955  13.743  0.7404  0.0248  0.1310
  139TMC2     O 2122   0.735   3.847  13.721 -0.3518 -0.1291 -0.0812
  139TMC2     H 2123   0.900   3.895  13.877  4.1118  1.0797  0.2304
  139TMC2    H1 2124   0.688   4.242  13.719 -0.9944 -2.3990 -1.4456
  139TMC2    H2 2125   1.035   4.293  13.952 -0.8418  1.6182  0.1463
  139TMC2    C7 2126   0.865   4.406  13.792 -0.6896 -0.6462  0.7515
  139TMC2    C8 2127   1.089   4.025  13.993 -0.0720 -0.1688 -0.2510
  139TMC2    O1 2128   0.772   4.454  13.733  0.3021  0.0050 -0.1617
  139TMC2    O2 2129   1.084   3.920  14.058  0.3066 -0.3663 -0.1765
  139TMC2    O5 2130   1.183   4.115  14.015 -0.3593 -0.3091 -0.0779
  139TMC2    H5 2131   1.182   4.179  13.940 -1.0454 -0.0736  0.1374
  140MPD2     C 2132   0.337   3.983  13.626 -1.0474  0.0777 -0.6217
  140MPD2    C1 2133   0.453   3.919  13.659 -0.4113 -0.4326  0.3147
  140MPD2    C2 2134   0.466   3.787  13.618 -0.4336  0.4351 -0.7740
  140MPD2    C3 2135   0.365   3.716  13.563 -0.0719 -0.2448  0.7982
  140MPD2    C4 2136   0.251   3.782  13.529 -0.2214  0.5610 -0.0045
  140MPD2    C5 2137   0.241   3.914  13.556 -0.1338 -0.5265 -0.4053
  140MPD2     H 2138   0.561   3.738  13.638 -0.0035  1.1701 -1.0310
  140MPD2    H1 2139   0.167   3.742  13.472  0.7253  1.0139 -1.7159
  140MPD2    H2 2140   0.325   4.090  13.645 -0.1993 -0.1059  0.9662
  140MPD2    H3 2141   0.145   3.957  13.529  0.0996 -0.6736 -1.4572
  140MPD2     N 2142   0.374   3.577  13.552 -0.1793  0.1542 -0.5790
  140MPD2    H5 2143   0.467   3.542  13.569 -1.7225 -3.2798  0.8914
  140MPD2    N1 2144   0.558   4.004  13.712  0.0080  0.5819  1.3691
  140MPD2    H7 2145   0.531   4.102  13.720  1.5913  1.0780  0.6097
  141TCq2    C1 2146   1.370   0.583  14.687  0.1601 -0.4400  0.9044
  141TCq2    O2 2147   1.313   0.683  14.642  0.6875 -0.7126 -0.6959
  141TCq2    C2 2148   1.442   0.606  14.805  0.9124 -1.0134 -0.7112
  141TCq2    C3 2149   1.541   0.514  14.838  0.1777  0.3840 -0.0331
  141TCq2    C4 2150   1.578   0.512  14.965 -0.5486  0.0162 -0.1840
  141TCq2    C5 2151   1.530   0.589  15.064  0.0113  0.0995 -0.1150
  141TCq2    C6 2152   1.432   0.677  15.021  0.2290 -0.5249 -0.1092
  141TCq2    C7 2153   1.390   0.695  14.893  0.0918 -0.3249 -0.3564
  141TCq2    C8 2154   1.353   0.736  15.130 -0.0673 -0.6177 -0.5732
  141TCq2    O4 2155   1.360   0.680  15.239  0.1832 -0.0106 -0.3139
  141TCq2    C9 2156   1.680   0.412  15.003  0.7918  0.1539 -0.3658
  141TCq2    O5 2157   1.731   0.434  15.120 -0.3654 -0.0044  0.2177
  141TCq2    O6 2158   1.740   0.356  14.904  0.4264  0.4119 -0.2306
  141TCq2    H2 2159   1.569   0.434  14.771  2.0974 -0.2599  1.5317
  141TCq2    H3 2160   1.546   0.548  15.163 -2.9566  0.4464  0.5242
  141TCq2    H4 2161   1.304   0.755  14.866 -0.6610 -0.4566  1.8023
  142MPD2     C 2162   3.125   3.687  10.296 -0.1703 -0.2457  0.0205
  142MPD2    C1 2163   3.162   3.636  10.177 -0.1664  0.4004 -0.1629
  142MPD2    C2 2164   3.286   3.667  10.123  0.7322 -0.2292 -0.5838
  142MPD2    C3 2165   3.359   3.781  10.169 -0.2062  0.0426 -0.2799
  142MPD2    C4 2166   3.316   3.829  10.292 -0.2699 -0.0830 -0.3645
  142MPD2    C5 2167   3.205   3.782  10.353 -0.2358 -0.1726  0.0030
  142MPD2     H 2168   3.320   3.627  10.029 -0.6752  0.4829 -1.3947
  142MPD2    H1 2169   3.373   3.908  10.340 -0.0029  0.1237 -1.0140
  142MPD2    H2 2170   3.031   3.664  10.344  0.7002 -0.4936  1.5884
  142MPD2    H3 2171   3.182   3.820  10.451  1.6703 -1.0014  0.7856
  142MPD2     N 2172   3.467   3.850  10.105 -0.0782 -0.9624 -0.1076
  142MPD2    H5 2173   3.505   3.931  10.152 -0.3252 -1.3501  0.7660
  142MPD2    N1 2174   3.087   3.531  10.125 -0.6548 -0.2534 -0.3536
  142MPD2    H7 2175   2.997   3.511  10.168 -1.1638  1.4215 -0.6036
  143TCq2    C1 2176   3.478   3.850   9.967  0.5327 -0.1553 -0.3895
  143TCq2    O2 2177   3.395   3.809   9.891  0.1100  0.2836 -0.0181
  143TCq2    C2 2178   3.611   3.886   9.921  0.1629 -0.3636  0.0878
  143TCq2    C3 2179   3.716   3.898  10.006  0.1868  0.0870 -0.1046
  143TCq2    C4 2180   3.837   3.917   9.953  0.5367 -0.3193  0.6477
  143TCq2    C5 2181   3.866   3.941   9.817 -0.3098 -0.0176  0.0054
  143TCq2    C6 2182   3.756   3.932   9.736  0.1836 -0.0764  0.5095
  143TCq2    C7 2183   3.629   3.892   9.784 -0.2617 -0.7600 -0.5009
  143TCq2    C8 2184   3.785   3.934   9.595 -0.1352 -0.9448 -0.3118
  143TCq2    O4 2185   3.890   3.991   9.560 -0.9160  0.8690  0.0926
  143TCq2    C9 2186   3.951   3.922  10.041 -0.1945 -0.2757 -0.1294
  143TCq2    O5 2187   3.926   3.882  10.156  0.0967 -0.6075  0.2643
  143TCq2    O6 2188   4.069   3.905   9.987 -0.0955 -0.1079  0.1012
  143TCq2    H2 2189   3.709   3.889  10.114  0.4291  0.1456 -0.0835
  143TCq2    H3 2190   3.964   3.968   9.780 -0.1862  0.1440  0.4607
  143TCq2    H4 2191   3.536   3.879   9.730 -1.8080 -0.8946  2.1732
  144MPD2     C 2192   1.446   3.604   0.644 -0.1415 -0.8691  0.7869
  144MPD2    C1 2193   1.498   3.476   0.614 -0.2112 -0.3523 -0.5197
  144MPD2    C2 2194   1.633   3.459   0.631  0.1615  0.4922 -0.1319
  144MPD2    C3 2195   1.716   3.556   0.682  0.0790 -0.1361  0.5581
  144MPD2    C4 2196   1.659   3.683   0.717 -0.0229 -0.1010  0.6043
  144MPD2    C5 2197   1.526   3.699   0.697 -0.2534  0.2577 -0.1298
  144MPD2     H 2198   1.675   3.361   0.608 -0.7766  0.1195 -0.2645
  144MPD2    H1 2199   1.721   3.763   0.757 -0.7728  0.7057  0.1551
  144MPD2    H2 2200   1.340   3.623   0.634 -0.1569 -0.1920  2.1765
  144MPD2    H3 2201   1.479   3.795   0.714 -1.1219 -0.3138  0.7303
  144MPD2     N 2202   1.849   3.532   0.713 -0.0892 -0.1700  0.4721
  144MPD2    H5 2203   1.905   3.609   0.746 -2.5588  1.5274  0.7271
  144MPD2    N1 2204   1.428   3.366   0.562 -0.0302  0.3937  0.0003
  144MPD2    H7 2205   1.480   3.287   0.527 -0.5573 -0.2349  0.6293
  145TCq2    C1 2206   1.917   3.411   0.690  0.0727  0.1023 -0.1258
  145TCq2    O2 2207   1.894   3.316   0.612 -0.6083  0.3455 -0.6346
  145TCq2    C2 2208   2.056   3.419   0.731  0.2979 -0.1323 -0.1527
  145TCq2    C3 2209   2.147   3.338   0.666 -0.6807  0.3467  0.8300
  145TCq2    C4 2210   2.275   3.355   0.709 -0.0455  0.3168  0.2660
  145TCq2    C5 2211   2.313   3.446   0.803  0.6512  0.2906 -0.0009
  145TCq2    C6 2212   2.218   3.526   0.859 -0.4349  0.4723  0.2979
  145TCq2    C7 2213   2.086   3.510   0.832 -0.6124  0.4581 -1.0416
  145TCq2    C8 2214   2.261   3.618   0.956  0.4049 -0.0418 -0.3967
  145TCq2    O4 2215   2.357   3.582   1.027  0.0892 -0.4494  0.3802
  145TCq2    C9 2216   2.372   3.257   0.650  0.2754  0.7006 -0.5231
  145TCq2    O5 2217   2.323   3.167   0.568  0.5544  0.4220 -0.3189
  145TCq2    O6 2218   2.493   3.270   0.679 -0.0067  0.2416 -0.1871
  145TCq2    H2 2219   2.122   3.258   0.598  1.9168 -0.0284  0.3074
  145TCq2    H3 2220   2.416   3.450   0.835  0.5739 -0.0778  0.2831
  145TCq2    H4 2221   2.012   3.562   0.891 -1.6376 -2.0636 -0.0948
  146TMC2    C1 2222   2.310   1.775  12.878  0.2085 -0.4887 -0.2099
  146TMC2    C2 2223   2.251   1.666  12.929  0.5184  0.2962  0.0828
  146TMC2    C3 2224   2.240   1.545  12.862 -0.5276 -0.2054  1.0655
  146TMC2    C4 2225   2.371   1.758  12.757 -0.6806 -0.0116 -0.3575
  146TMC2    C5 2226   2.361   1.638  12.686 -0.1710  1.0183 -0.0436
  146TMC2    C6 2227   2.295   1.527  12.742 -0.0651  0.0546  0.1745
  146TMC2     C 2228   2.369   1.879  12.969  0.0701  0.2884 -0.4094
  146TMC2     O 2229   2.307   1.975  13.007  0.1226 -0.3845  0.0040
  146TMC2     H 2230   2.211   1.667  13.030 -0.5974 -2.6548 -0.3230
  146TMC2    H1 2231   2.429   1.843  12.722  1.0342 -0.8705  0.3748
  146TMC2    H2 2232   2.312   1.432  12.691 -0.7494 -0.1679  0.3677
  146TMC2    C7 2233   2.450   1.624  12.572 -0.3408  0.0951 -0.1909
  146TMC2    C8 2234   2.246   1.430  12.944  0.3338 -0.2511  0.1747
  146TMC2    O1 2235   2.455   1.705  12.483  0.4792 -0.2500  0.4330
  146TMC2    O2 2236   2.328   1.428  13.033  0.6663  0.2298  0.5248
  146TMC2    O5 2237   2.183   1.328  12.880  0.0762  0.4561 -0.0401
  146TMC2    H5 2238   2.116   1.357  12.815  0.8868  0.9733 -0.6493
  147MPD2     C 2239   2.831   1.348  12.394  0.7973 -0.3841  0.3387
  147MPD2    C1 2240   2.830   1.320  12.525 -0.3175  1.0848 -0.1117
  147MPD2    C2 2241   2.730   1.386  12.599 -0.2660  0.2122  0.6199
  147MPD2    C3 2242   2.645   1.474  12.532  0.9954  0.3438  0.0470
  147MPD2    C4 2243   2.645   1.495  12.396 -0.2257 -0.3674 -0.5853
  147MPD2    C5 2244   2.734   1.429  12.331 -0.5980 -0.0388 -0.2946
  147MPD2     H 2245   2.730   1.381  12.707  0.7624 -0.7770  0.5767
  147MPD2    H1 2246   2.584   1.564  12.338 -3.1155 -2.3310  0.0819
  147MPD2    H2 2247   2.902   1.295  12.331  1.2210 -0.0842  0.5682
  147MPD2    H3 2248   2.730   1.455  12.226  0.3538 -1.2483 -0.6202
  147MPD2     N 2249   2.553   1.544  12.615  0.1070 -0.3820 -0.9433
  147MPD2    H5 2250   2.557   1.527  12.715 -0.0529  1.8799 -0.5603
  147MPD2    N1 2251   2.936   1.239  12.581 -0.0815 -0.0606  0.1400
  147MPD2    H7 2252   3.016   1.232  12.519 -1.0156 -1.1482 -0.9465
  148MPD2     C 2253   3.300   0.287  10.203  0.8341 -0.1590  1.1056
  148MPD2    C1 2254   3.311   0.148  10.179 -0.1716 -0.5331 -0.0678
  148MPD2    C2 2255   3.210   0.067  10.226  1.0906 -0.9106 -0.5374
  148MPD2    C3 2256   3.109   0.121  10.304  0.0903  0.4013 -0.9757
  148MPD2    C4 2257   3.105   0.255  10.332 -0.1792 -0.4779  0.1793
  148MPD2    C5 2258   3.199   0.341  10.279 -0.3895 -0.0607  0.0659
  148MPD2     H 2259   3.205   4.690  10.192  0.1714 -1.5712  1.5585
  148MPD2    H1 2260   3.028   0.303  10.392  0.1793 -0.1122  0.3503
  148MPD2    H2 2261   3.360   0.363  10.153 -0.3332  0.3281  0.4582
  148MPD2    H3 2262   3.188   0.449  10.277 -1.7246 -0.1942  0.1124
  148MPD2     N 2263   2.999   0.043  10.347 -0.1916 -0.5915  0.1228
  148MPD2    H5 2264   2.916   0.096  10.374  0.7219 -0.0901  1.9817
  148MPD2    N1 2265   3.425   0.088  10.117  0.3918  0.0165  0.2472
  148MPD2    H7 2266   3.408   4.716  10.100 -0.8307 -0.2925  3.2730
  149TCq2    C1 2267   3.545   0.154  10.092  0.2153  0.7036 -0.1650
  149TCq2    O2 2268   3.578   0.270  10.088 -0.1427 -0.3806  0.1589
  149TCq2    C2 2269   3.634   0.068  10.008  0.2730 -0.7724  0.7575
  149TCq2    C3 2270   3.706   0.125   9.905 -0.4796  0.7616 -0.9403
  149TCq2    C4 2271   3.781   0.046   9.820  0.0104 -0.0305  0.0814
  149TCq2    C5 2272   3.757   4.634   9.822  0.8784 -0.1629 -0.4636
  149TCq2    C6 2273   3.682   4.583   9.927  0.6006 -0.0086  0.3914
  149TCq2    C7 2274   3.638   4.663  10.026  0.7619  0.1831 -0.8719
  149TCq2    C8 2275   3.608   4.462   9.894 -0.0213  0.1188  0.2397
  149TCq2    O4 2276   3.533   4.423   9.978 -0.3988  0.1550  0.8094
  149TCq2    C9 2277   3.829   0.101   9.696  0.3551  0.2994 -0.3665
  149TCq2    O5 2278   3.805   0.225   9.684  0.1298 -0.5277  0.3584
  149TCq2    O6 2279   3.874   0.021   9.611  0.1731  0.1776 -0.2324
  149TCq2    H2 2280   3.711   0.233   9.898  3.0035  0.5659 -1.7133
  149TCq2    H3 2281   3.796   4.569   9.744 -0.0262 -1.8148  0.4920
  149TCq2    H4 2282   3.587   4.619  10.111  0.4968  1.7407 -0.2141
  150MPD2     C 2283   0.014   4.035  12.165 -0.2268 -0.5516 -0.8991
  150MPD2    C1 2284   4.699   4.146  12.094  0.0201  0.3276  0.4362
  150MPD2    C2 2285   0.056   4.257  12.085  0.2021  0.6634  0.2049
  150MPD2    C3 2286   0.172   4.260  12.159 -0.2160  0.7078  0.4344
  150MPD2    C4 2287   0.218   4.150  12.217 -0.3552 -0.0980 -0.3456
  150MPD2    C5 2288   0.141   4.041  12.216  1.3289  0.8106  0.5240
  150MPD2     H 2289   0.019   4.347  12.037  1.0913 -0.4630 -2.5460
  150MPD2    H1 2290   0.316   4.150  12.264 -0.3837 -0.5216 -0.2902
  150MPD2    H2 2291   4.676   3.950  12.182 -1.3043  0.1807 -1.2903
  150MPD2    H3 2292   0.174   3.959  12.279 -0.3675 -0.8498 -0.7701
  150MPD2     N 2293   0.252   4.375  12.173  0.2896 -0.3847  0.1271
  150MPD2    H5 2294   0.229   4.448  12.107 -1.2745  0.0198  1.1095
  150MPD2    N1 2295   4.574   4.148  12.036  0.5407 -0.2351 -0.0799
  150MPD2    H7 2296   4.511   4.072  12.059  1.9882 -1.1354  0.9404
  151TCq2    C1 2297   0.356   4.402  12.263  0.1758  0.0905  0.7272
  151TCq2    O2 2298   0.384   4.351  12.370 -0.3113  0.1616 -0.1727
  151TCq2    C2 2299   0.428   4.515  12.217 -0.5052 -0.8043  0.5871
  151TCq2    C3 2300   0.425   4.556  12.082  0.0590 -0.6365 -0.6476
  151TCq2    C4 2301   0.505   4.661  12.048  0.4442  0.4050 -0.0981
  151TCq2    C5 2302   0.580   0.007  12.139 -0.0073  0.1350 -0.1086
  151TCq2    C6 2303   0.573   4.687  12.270 -0.1357  0.9405 -0.2225
  151TCq2    C7 2304   0.498   4.583  12.309  0.3259  0.5337  0.0212
  151TCq2    C8 2305   0.687   0.002  12.353 -0.4819 -0.5752 -0.2496
  151TCq2    O4 2306   0.740   0.106  12.325  0.6524  0.1028 -0.1856
  151TCq2    C9 2307   0.532   4.691  11.905  0.2836  0.6603 -0.3751
  151TCq2    O5 2308   0.449   4.658  11.816 -0.1605  0.2254 -0.3417
  151TCq2    O6 2309   0.643   0.023  11.882  0.5923 -0.3821  0.4610
  151TCq2    H2 2310   0.373   4.503  12.003 -1.8181 -0.0374  0.1865
  151TCq2    H3 2311   0.647   0.086  12.107  0.7729 -0.3097  0.4208
  151TCq2    H4 2312   0.483   4.555  12.412  0.0637 -0.0628 -0.1815
  152MPD2     C 2313   4.377   3.812  12.856 -0.0150  0.4474  0.3379
  152MPD2    C1 2314   4.349   3.906  12.756  0.3716  0.4139 -0.0215
  152MPD2    C2 2315   4.216   3.933  12.735  0.0982  0.0143  0.1899
  152MPD2    C3 2316   4.115   3.865  12.803  1.0653  0.1791  0.4968
  152MPD2    C4 2317   4.149   3.756  12.885  0.3478 -0.0504  0.2148
  152MPD2    C5 2318   4.279   3.734  12.917 -0.3939 -0.1457 -0.2552
  152MPD2     H 2319   4.185   4.017  12.674  3.2671 -0.1872 -1.6909
  152MPD2    H1 2320   4.069   3.699  12.931  1.3147 -1.7314 -0.1993
  152MPD2    H2 2321   4.478   3.799  12.892  0.3076  1.8617 -0.0673
  152MPD2    H3 2322   4.311   3.659  12.988  0.7748 -0.5039 -1.1539
  152MPD2     N 2323   3.986   3.909  12.771  0.0397  0.0333  0.2614
  152MPD2    H5 2324   3.976   3.981  12.700 -0.1466 -0.8105 -0.5623
  152MPD2    N1 2325   4.462   3.974  12.701  0.3547 -0.2638 -0.6002
  152MPD2    H7 2326   4.550   3.940  12.738 -0.1488  0.4727  1.3133
  153TCq2    C1 2327   4.463   4.090  12.632 -0.0836 -0.5108 -0.1738
  153TCq2    O2 2328   4.366   4.156  12.606  0.0770  0.5162  0.0107
  153TCq2    C2 2329   4.596   4.141  12.610 -0.3627  1.1439 -0.7111
  153TCq2    C3 2330   4.691   4.044  12.598 -0.1592  0.1374 -0.2204
  153TCq2    C4 2331   0.093   4.078  12.576 -0.5172 -0.0094  0.7219
  153TCq2    C5 2332   0.140   4.205  12.570  0.6721 -0.0879 -0.4950
  153TCq2    C6 2333   0.040   4.297  12.575 -0.1526  0.0420  0.3068
  153TCq2    C7 2334   4.633   4.272  12.594 -0.2509 -0.2477 -0.5323
  153TCq2    C8 2335   0.071   4.437  12.597  0.3239  0.7640 -0.6405
  153TCq2    O4 2336   4.705   4.514  12.615  0.8685  0.1032  0.3438
  153TCq2    C9 2337   0.193   3.979  12.565 -0.1228 -0.2683 -0.3904
  153TCq2    O5 2338   0.311   4.004  12.584 -0.4104 -0.3753 -0.0820
  153TCq2    O6 2339   0.146   3.861  12.562  0.3198  0.1306 -0.0620
  153TCq2    H2 2340   4.657   3.942  12.589  1.2952 -0.4196  0.7112
  153TCq2    H3 2341   0.245   4.220  12.550  1.0612 -0.1907  1.4456
  153TCq2    H4 2342   4.559   4.351  12.596 -0.1099 -0.1226 -0.2832
  154MPD2     C 2343   1.264   4.157   0.173  0.2747  0.4511 -0.1015
  154MPD2    C1 2344   1.307   4.259   0.258  0.3766 -0.1244 -0.0958
  154MPD2    C2 2345   1.217   4.311   0.350 -0.0593  0.9772 -0.2330
  154MPD2    C3 2346   1.090   4.265   0.363  0.1868  0.0308  0.1812
  154MPD2    C4 2347   1.047   4.165   0.279 -0.0214  0.1185 -0.3008
  154MPD2    C5 2348   1.138   4.112   0.196  0.3230  0.0995 -0.2890
  154MPD2     H 2349   1.237   4.385   0.427  0.3025  1.5354 -0.8625
  154MPD2    H1 2350   0.950   4.119   0.278  1.2776 -2.6328  1.6248
  154MPD2    H2 2351   1.322   4.109   0.095  1.1205 -0.8770  1.3389
  154MPD2    H3 2352   1.102   4.038   0.125 -0.9186 -1.4755  1.9874
  154MPD2     N 2353   1.010   4.318   0.470  1.1020 -0.4183  0.4333
  154MPD2    H5 2354   1.041   4.396   0.526  3.9622  0.2600 -2.1435
  154MPD2    N1 2355   1.443   4.300   0.260  0.3441 -0.3676 -0.2975
  154MPD2    H7 2356   1.508   4.254   0.196  1.0335  2.0782 -1.3777
  155TCq2    C1 2357   1.493   4.408   0.326  0.1406  0.2020  0.0606
  155TCq2    O2 2358   1.428   4.496   0.384  0.3588  0.0195 -0.0010
  155TCq2    C2 2359   1.637   4.425   0.308 -0.4540 -0.4644 -0.3132
  155TCq2    C3 2360   1.696   4.494   0.401 -0.1105 -0.2432 -0.2025
  155TCq2    C4 2361   1.830   4.520   0.400  0.1003  0.1445 -0.3814
  155TCq2    C5 2362   1.901   4.471   0.296  0.2592 -0.1967 -1.0462
  155TCq2    C6 2363   1.834   4.405   0.195 -0.1968  0.1160 -0.3727
  155TCq2    C7 2364   1.708   4.367   0.209 -0.8654 -0.2276 -0.4938
  155TCq2    C8 2365   1.912   4.340   0.086 -0.0086 -0.1639 -0.0807
  155TCq2    O4 2366   1.849   4.289  17.700  0.1790  0.4009 -0.3422
  155TCq2    C9 2367   1.899   4.585   0.511  0.8576  0.2610  0.2428
  155TCq2    O5 2368   1.834   4.667   0.577 -0.1408  0.1548 -0.5819
  155TCq2    O6 2369   2.009   4.534   0.534 -0.2836  0.2776 -0.3909
  155TCq2    H2 2370   1.633   4.525   0.484  0.2464 -0.3436  0.1065
  155TCq2    H3 2371   2.004   4.502   0.280 -0.0009 -0.2159 -2.8131
  155TCq2    H4 2372   1.668   4.302   0.132 -1.7931 -1.2417  0.8554
  156MPD2     C 2373   4.680   1.332  12.153  0.3985 -0.0961  0.0736
  156MPD2    C1 2374   4.608   1.427  12.087  0.2287 -0.6312 -1.2933
  156MPD2    C2 2375   4.572   1.546  12.145 -0.0176 -0.1219  0.3640
  156MPD2    C3 2376   4.621   1.566  12.277  0.4084  0.1396 -0.0152
  156MPD2    C4 2377   4.673   1.460  12.352 -0.2721  0.3166  0.0569
  156MPD2    C5 2378   4.698   1.343  12.288 -0.0476  0.0583  0.4579
  156MPD2     H 2379   4.525   1.626  12.089 -0.5992 -1.7928 -1.5664
  156MPD2    H1 2380   4.710   1.472  12.454 -0.4207 -0.0386  0.1549
  156MPD2    H2 2381   4.724   1.247  12.101  0.2357  0.1860 -0.5322
  156MPD2    H3 2382   0.022   1.267  12.347  1.3502 -1.2318 -2.4006
  156MPD2     N 2383   4.600   1.697  12.324 -0.3458 -0.2343  0.0180
  156MPD2    H5 2384   4.542   1.761  12.271 -2.3053 -0.4552  1.8878
  156MPD2    N1 2385   4.584   1.411  11.950 -0.0671 -0.1362 -0.0525
  156MPD2    H7 2386   4.628   1.328  11.912  1.1690  1.2974 -1.7563
  157TCq2    C1 2387   4.505   1.485  11.873 -0.0071 -0.0375  0.2295
  157TCq2    O2 2388   4.418   1.565  11.899  0.1488 -0.2071 -0.4497
  157TCq2    C2 2389   4.514   1.451  11.728 -0.1294 -0.5074  0.5315
  157TCq2    C3 2390   4.633   1.413  11.678  0.1521  0.4499  0.0305
  157TCq2    C4 2391   4.650   1.419  11.547  0.5133 -0.1554 -0.0619
  157TCq2    C5 2392   4.552   1.471  11.466  0.3384  0.6762  0.2336
  157TCq2    C6 2393   4.436   1.508  11.520 -0.0822 -0.4273  0.0001
  157TCq2    C7 2394   4.421   1.510  11.654  0.6017  0.4793 -0.2640
  157TCq2    C8 2395   4.387   1.635  11.464 -0.0993  0.7697 -0.5239
  157TCq2    O4 2396   4.352   1.721  11.548 -0.2738  0.3226  0.2461
  157TCq2    C9 2397   0.055   1.401  11.487  0.5689 -0.4771 -0.6129
  157TCq2    O5 2398   0.152   1.421  11.566  0.3150  0.1618  0.0509
  157TCq2    O6 2399   0.077   1.368  11.371  0.9166 -0.4169  0.0247
  157TCq2    H2 2400   4.709   1.378  11.747  0.5156 -0.6098 -0.9019
  157TCq2    H3 2401   4.579   1.477  11.361  2.1020  0.8172  0.7051
  157TCq2    H4 2402   4.325   1.541  11.695  0.6598  2.0897 -1.3238
  158TMC2    C1 2403   1.010   0.513  14.684 -0.5765 -0.1105 -0.1002
  158TMC2    C2 2404   1.032   0.599  14.789  0.2664 -0.2229  0.5031
  158TMC2    C3 2405   1.009   0.731  14.775  0.3184  0.3088  0.1029
  158TMC2    C4 2406   0.962   0.561  14.565 -0.2655  0.1347  0.1168
  158TMC2    C5 2407   0.957   0.699  14.554  0.1537 -1.2276  0.4239
  158TMC2    C6 2408   0.974   0.789  14.660  0.2185 -0.2194 -0.2162
  158TMC2     C 2409   0.960   0.379  14.717 -0.5547 -0.5839  0.5733
  158TMC2     O 2410   1.003   0.325  14.819  0.5370 -0.8988  0.8885
  158TMC2     H 2411   1.049   0.559  14.888  1.7634  0.5508  0.5521
  158TMC2    H1 2412   0.949   0.496  14.480 -2.2036  0.1202  0.4341
  158TMC2    H2 2413   0.960   0.896  14.656  0.3168 -0.2783 -2.0321
  158TMC2    C7 2414   0.959   0.765  14.423 -0.8057  0.1387  0.1363
  158TMC2    C8 2415   1.026   0.820  14.889 -0.1228 -0.2212 -0.0668
  158TMC2    O1 2416   0.989   0.882  14.425 -0.1208  0.3649  0.8844
  158TMC2    O2 2417   1.053   0.938  14.876  0.5114  0.0888  0.0050
  158TMC2    O5 2418   0.948   0.762  14.982  0.5666  0.1907 -0.5302
  158TMC2    H5 2419   0.910   0.677  14.952  1.6877 -0.2981 -0.5754
  159MPD2     C 2420   0.686   4.686  14.615  0.0764 -0.1293  0.2044
  159MPD2    C1 2421   0.635   0.069  14.551  0.0111 -0.4570 -0.6977
  159MPD2    C2 2422   0.704   0.187  14.554 -0.0692  0.0020 -0.2493
  159MPD2    C3 2423   0.813   0.206  14.635 -0.6572 -0.8129 -0.4583
  159MPD2    C4 2424   0.870   0.093  14.693  0.0648 -0.2433  0.1624
  159MPD2    C5 2425   0.806   4.699  14.683 -0.3218  0.5526  0.6157
  159MPD2     H 2426   0.663   0.269  14.495  3.9373  0.2632 -2.6515
  159MPD2    H1 2427   0.965   0.103  14.743 -0.5554 -0.3682  1.3561
  159MPD2    H2 2428   0.642   4.588  14.598  0.5045 -0.0024 -1.6281
  159MPD2    H3 2429   0.855   4.604  14.704 -0.5285  0.1782 -0.5838
  159MPD2     N 2430   0.862   0.340  14.634  1.3395  0.3868  0.1494
  159MPD2    H5 2431   0.823   0.395  14.558 -1.1551 -1.1686  0.3068
  159MPD2    N1 2432   0.509   0.050  14.491 -0.0186 -0.3251 -0.5231
  159MPD2    H7 2433   0.464   4.688  14.516 -0.7404 -0.4183 -2.2131
  160TMC2    C1 2434   1.078   3.412   1.642 -0.3975  0.0675 -0.1918
  160TMC2    C2 2435   1.140   3.330   1.720 -0.2208  0.7971 -0.6466
  160TMC2    C3 2436   1.217   3.225   1.676 -0.1129  0.7806 -0.0067
  160TMC2    C4 2437   1.087   3.408   1.507  1.1767  0.2398 -0.4988
  160TMC2    C5 2438   1.164   3.296   1.465  0.0350  0.1878 -0.2489
  160TMC2    C6 2439   1.231   3.206   1.539 -0.2345 -0.0020  0.1551
  160TMC2     C 2440   1.037   3.534   1.706  0.1160  0.4009 -0.3471
  160TMC2     O 2441   1.088   3.558   1.815  0.5224  0.1387 -0.1185
  160TMC2     H 2442   1.110   3.333   1.824 -1.7639  2.0808 -1.1332
  160TMC2    H1 2443   1.051   3.484   1.440 -1.0637 -0.5048 -0.1296
  160TMC2    H2 2444   1.293   3.130   1.494  0.9096  0.8854  0.2374
  160TMC2    C7 2445   1.162   3.269   1.326  0.5396 -0.3028 -0.6909
  160TMC2    C8 2446   1.283   3.145   1.777  0.1666 -0.2484  0.4887
  160TMC2    O1 2447   1.253   3.204   1.278  0.1324 -0.6567  0.2671
  160TMC2    O2 2448   1.275   3.170   1.895 -0.5119 -0.2509  0.3217
  160TMC2    O5 2449   1.356   3.045   1.717  0.1822 -0.2735 -0.4696
  160TMC2    H5 2450   1.317   3.013   1.632  0.8399 -1.4675 -0.3251
  161MPD2     C 2451   0.910   3.792   1.769 -0.7343  0.4787  0.0699
  161MPD2    C1 2452   0.895   3.729   1.647  0.6476 -0.1910 -0.5151
  161MPD2    C2 2453   0.831   3.796   1.541 -0.4412 -0.0342 -0.0958
  161MPD2    C3 2454   0.771   3.924   1.561 -0.4621  0.3821  0.3391
  161MPD2    C4 2455   0.791   3.977   1.681  0.4962  0.0926  0.0370
  161MPD2    C5 2456   0.858   3.918   1.788 -0.3192 -0.2314  1.4135
  161MPD2     H 2457   0.822   3.745   1.446 -1.3098 -0.9180  0.4623
  161MPD2    H1 2458   0.758   4.079   1.695 -1.4377 -0.4313 -0.7355
  161MPD2    H2 2459   0.940   3.739   1.859  0.9532 -0.7000 -1.1974
  161MPD2    H3 2460   0.862   3.965   1.886  3.4835  2.9070 -0.2526
  161MPD2     N 2461   0.698   4.002   1.464 -0.6019  0.2343 -0.8467
  161MPD2    H5 2462   0.661   4.092   1.492 -1.4885  0.5262 -2.9858
  161MPD2    N1 2463   0.950   3.602   1.618  0.1912 -0.0206  0.2232
  161MPD2    H7 2464   0.920   3.563   1.530  3.0259  0.1615 -0.8030
  162TMC2    C1 2465   3.414   1.437   0.918  0.1503  0.0644 -0.3266
  162TMC2    C2 2466   3.361   1.502   0.811  0.4620 -0.5951 -0.2212
  162TMC2    C3 2467   3.251   1.582   0.825  0.6430  0.3878 -0.3535
  162TMC2    C4 2468   3.365   1.452   1.043 -0.3208  0.0048  0.6200
  162TMC2    C5 2469   3.247   1.526   1.056  0.6113 -0.2642 -0.0779
  162TMC2    C6 2470   3.200   1.601   0.950  0.2549  0.2884  0.2579
  162TMC2     C 2471   3.485   1.321   0.892  0.0416 -0.4031  0.1015
  162TMC2     O 2472   3.481   1.280   0.779 -0.9559 -0.3720  0.1499
  162TMC2     H 2473   3.398   1.482   0.711 -1.1625 -0.1533 -0.9065
  162TMC2    H1 2474   3.417   1.415   1.131  1.2861 -0.8910 -0.7111
  162TMC2    H2 2475   3.111   1.658   0.973  0.6471 -0.1221  2.8483
  162TMC2    C7 2476   3.188   1.549   1.187 -1.0527  0.4193  0.3040
  162TMC2    C8 2477   3.159   1.601   0.713  0.0938 -0.3340 -0.4090
  162TMC2    O1 2478   3.107   1.642   1.206  0.1748 -0.2750 -0.3604
  162TMC2    O2 2479   3.037   1.619   0.727 -0.4380  0.0750 -0.0651
  162TMC2    O5 2480   3.240   1.641   0.616 -0.0345 -0.7236  0.1734
  162TMC2    H5 2481   3.332   1.648   0.651 -0.0714 -0.4002  0.2030
  163MPD2     C 2482   3.806   0.934   1.036 -0.6826 -0.6861 -0.4277
  163MPD2    C1 2483   3.772   0.984   0.913  0.4022 -0.1844 -0.0968
  163MPD2    C2 2484   3.678   1.080   0.898 -0.0986  0.6364 -0.8117
  163MPD2    C3 2485   3.628   1.147   1.004  0.7102  0.6012 -0.4516
  163MPD2    C4 2486   3.661   1.097   1.132 -0.5055 -0.3197 -0.5166
  163MPD2    C5 2487   3.747   0.994   1.147 -0.5978  0.7155  0.1360
  163MPD2     H 2488   3.643   1.109   0.800  1.0380 -0.9311 -1.6863
  163MPD2    H1 2489   3.609   1.133   1.219  0.2677  1.5773 -0.8246
  163MPD2    H2 2490   3.869   0.850   1.063  0.6299 -0.1359 -1.7908
  163MPD2    H3 2491   3.768   0.956   1.246  0.3028  3.2663  0.9270
  163MPD2     N 2492   3.553   1.269   1.003  0.6145  0.1613 -0.5175
  163MPD2    H5 2493   3.539   1.313   1.093 -2.2376  0.4367 -1.0789
  163MPD2    N1 2494   3.816   0.913   0.795 -0.0618 -0.0399  0.2034
  163MPD2    H7 2495   3.766   0.943   0.712 -0.4643 -0.6486  0.2219
  164TCq2    C1 2496   3.448   0.057  10.559  0.6314 -0.3210  0.0105
  164TCq2    O2 2497   3.380   4.695  10.619 -0.2452  0.6904 -0.3746
  164TCq2    C2 2498   3.420   0.205  10.583 -0.0405  0.1559  0.8820
  164TCq2    C3 2499   3.478   0.293  10.493 -0.9260 -0.4711 -0.0092
  164TCq2    C4 2500   3.460   0.427  10.510  0.1029  0.2452 -0.3392
  164TCq2    C5 2501   3.407   0.478  10.630 -0.0791  0.1055  0.7685
  164TCq2    C6 2502   3.338   0.385  10.713 -0.6905  0.4724  0.5638
  164TCq2    C7 2503   3.339   0.251  10.679 -0.6774  0.1148 -0.3469
  164TCq2    C8 2504   3.281   0.432  10.837  0.3431 -0.2172  0.1409
  164TCq2    O4 2505   3.270   0.553  10.847 -0.1028 -0.5007 -0.4257
  164TCq2    C9 2506   3.509   0.516  10.406  0.1738 -0.2738 -0.7093
  164TCq2    O5 2507   3.492   0.641  10.431  0.0420 -0.2829  0.5173
  164TCq2    O6 2508   3.576   0.466  10.309  0.0173 -0.3406 -0.4944
  164TCq2    H2 2509   3.523   0.259  10.400  0.5767  1.5883 -0.0362
  164TCq2    H3 2510   3.407   0.581  10.663 -2.9471  0.9195 -1.7307
  164TCq2    H4 2511   3.287   0.182  10.743 -2.5997  2.4135  0.5455
  165MPD2     C 2512   0.126   3.565   1.413  0.1562 -0.5080 -0.0313
  165MPD2    C1 2513   0.037   3.667   1.382  0.0858  0.1769  0.1989
  165MPD2    C2 2514   0.072   3.796   1.429  0.4204 -0.2879 -0.0501
  165MPD2    C3 2515   0.196   3.823   1.499  0.2118 -0.2636  0.2885
  165MPD2    C4 2516   0.287   3.723   1.504  0.4972  0.0639  0.6940
  165MPD2    C5 2517   0.247   3.595   1.470  0.2799 -0.4726  0.4681
  165MPD2     H 2518   0.010   3.881   1.406  1.5227  1.0037  1.7458
  165MPD2    H1 2519   0.391   3.743   1.527  0.8910 -1.0786 -0.0938
  165MPD2    H2 2520   0.107   3.461   1.388 -1.0872 -0.2210 -0.2613
  165MPD2    H3 2521   0.323   3.518   1.477  1.5247  0.7865  0.8360
  165MPD2     N 2522   0.233   3.949   1.549  0.6046 -0.5523 -0.5022
  165MPD2    H5 2523   0.319   3.955   1.603 -0.6967 -0.8427  1.6234
  165MPD2    N1 2524   4.644   3.629   1.315 -0.7595  0.2074  1.1567
  165MPD2    H7 2525   4.627   3.529   1.305  0.9500 -0.0646  0.9092
  166TCq2    C1 2526   0.145   4.053   1.593 -0.0046 -0.2243 -0.1505
  166TCq2    O2 2527   0.026   4.063   1.573  0.3157 -0.0867 -0.3420
  166TCq2    C2 2528   0.212   4.167   1.651  1.1313 -0.5365 -0.1731
  166TCq2    C3 2529   0.137   4.252   1.716 -0.7601 -0.4204  0.8852
  166TCq2    C4 2530   0.201   4.359   1.773  0.1118 -0.7017  0.0166
  166TCq2    C5 2531   0.327   4.397   1.739  0.1532  0.4815 -0.2354
  166TCq2    C6 2532   0.398   4.313   1.657 -1.0275 -0.4164  0.2932
  166TCq2    C7 2533   0.343   4.198   1.614  0.4105  0.2270  0.4556
  166TCq2    C8 2534   0.534   4.343   1.632 -0.1691 -0.3734 -0.0144
  166TCq2    O4 2535   0.593   4.273   1.547 -0.6445  0.1321  0.1103
  166TCq2    C9 2536   0.127   4.450   1.860  0.6724  0.4491  0.3796
  166TCq2    O5 2537   0.003   4.435   1.870  0.2802 -0.2272 -0.4726
  166TCq2    O6 2538   0.193   4.550   1.893  0.0457 -0.4096  0.1868
  166TCq2    H2 2539   0.038   4.225   1.750 -1.0382  0.4419  0.7634
  166TCq2    H3 2540   0.372   4.487   1.780  1.3487  0.3568 -1.2868
  166TCq2    H4 2541   0.398   4.131   1.548 -0.4677  1.7514 -1.8368
  167TMC2    C1 2542   2.733   4.325  13.089  0.6188  0.4982 -0.1302
  167TMC2    C2 2543   2.701   4.297  13.223  0.7173  0.2386  0.6760
  167TMC2    C3 2544   2.771   4.202  13.292 -1.2578  0.1234  0.3756
  167TMC2    C4 2545   2.837   4.259  13.032 -0.3439  0.7048 -0.1648
  167TMC2    C5 2546   2.914   4.179  13.112 -0.8388 -0.7075  0.2010
  167TMC2    C6 2547   2.882   4.145  13.236  0.6750 -0.1954 -0.1670
  167TMC2     C 2548   2.662   4.433  13.014  0.4175 -0.8129  0.0915
  167TMC2     O 2549   2.548   4.463  13.049 -0.3768  0.2423  0.4600
  167TMC2     H 2550   2.638   4.364  13.280  1.6523  1.6437  0.0611
  167TMC2    H1 2551   2.862   4.288  12.930  0.9980  0.1375  0.0024
  167TMC2    H2 2552   2.934   4.062  13.282 -2.7208 -1.6583  1.0180
  167TMC2    C7 2553   3.011   4.101  13.050  0.7447 -0.0087 -0.4562
  167TMC2    C8 2554   2.728   4.138  13.414  0.4402 -0.5721 -0.3553
  167TMC2    O1 2555   3.066   4.011  13.115  0.1545  0.2131 -0.8081
  167TMC2    O2 2556   2.814   4.082  13.481 -0.0122 -0.7833 -0.3657
  167TMC2    O5 2557   2.617   4.203  13.459  0.3130 -0.3707  0.4227
  167TMC2    H5 2558   2.543   4.201  13.396 -1.8675  1.9419  2.9063
  168MPD2     C 2559   2.575   4.651  12.818  0.6082  0.7979 -0.0452
  168MPD2    C1 2560   2.693   4.576  12.801 -0.0022  0.1293 -0.9409
  168MPD2    C2 2561   2.764   4.594  12.684 -0.6730 -0.9113 -0.6859
  168MPD2    C3 2562   2.725   4.680  12.585  0.1191  0.4757  1.4336
  168MPD2    C4 2563   2.611   0.025  12.603 -0.0554  0.0434  0.0247
  168MPD2    C5 2564   2.540   0.016  12.720 -0.4912  0.9938 -0.6006
  168MPD2     H 2565   2.848   4.528  12.667  0.7587  1.5332 -3.0182
  168MPD2    H1 2566   2.571   0.091  12.527  1.4317  2.6697  1.5295
  168MPD2    H2 2567   2.515   4.653  12.908 -0.0271 -1.4668 -0.4182
  168MPD2    H3 2568   2.450   0.075  12.736 -0.1012  1.2118  0.7767
  168MPD2     N 2569   2.806   4.691  12.468 -0.0428  0.6513  0.0162
  168MPD2    H5 2570   2.886   4.630  12.466  0.4423  1.3379 -1.5675
  168MPD2    N1 2571   2.732   4.484  12.905 -0.1867  0.0393 -0.3085
  168MPD2    H7 2572   2.828   4.454  12.889 -0.4118 -0.1624 -1.2582
  169MPD1     C 2573   0.580   3.249   9.607 -0.0419 -0.4377 -0.1448
  169MPD1    C1 2574   0.482   3.334   9.647  0.4850  0.4010 -0.0793
  169MPD1    C2 2575   0.524   3.458   9.682  0.8259  0.6963 -0.0206
  169MPD1    C3 2576   0.652   3.489   9.676  0.6209  0.9611  0.1516
  169MPD1    C4 2577   0.751   3.400   9.640 -0.5119 -0.0463 -0.3384
  169MPD1    C5 2578   0.721   3.270   9.605 -0.4392  0.2211  0.0349
  169MPD1     H 2579   0.454   3.537   9.709 -0.6132 -0.5976  0.0101
  169MPD1    H1 2580   0.854   3.430   9.619 -1.7039  1.7438 -3.7996
  169MPD1    H2 2581   0.539   3.155   9.571 -1.9423  0.9021 -1.4873
  169MPD1    H3 2582   0.798   3.207   9.562 -0.2690  0.8119 -0.5303
  169MPD1     N 2583   0.685   3.621   9.728  0.2225  0.7671  0.3610
  169MPD1    H5 2584   0.611   3.680   9.765  1.4274  1.3522  1.8310
  169MPD1    N1 2585   0.347   3.300   9.623  0.1540  0.1500  0.2316
  169MPD1    H6 2586   0.289   3.335   9.698  1.6184  0.4126  1.2546
  169MPD1    H7 2587   0.335   3.199   9.636 -0.3258  0.2588  0.6455
  170MPD1     C 2588   3.941   2.279  13.185 -0.6627 -0.5290 -0.2912
  170MPD1    C1 2589   3.835   2.362  13.176 -1.0220 -0.3175 -0.1432
  170MPD1    C2 2590   3.790   2.419  13.292 -0.4769  0.0655  0.0989
  170MPD1    C3 2591   3.841   2.388  13.421  0.0031  0.0097  0.2115
  170MPD1    C4 2592   3.937   2.296  13.422  0.6809 -0.7870  0.0788
  170MPD1    C5 2593   3.985   2.244  13.307  0.2359  0.4545 -0.2773
  170MPD1     H 2594   3.713   2.495  13.283  0.1575  0.5898 -0.8621
  170MPD1    H1 2595   3.986   2.268  13.515 -0.1584  0.0340  0.7638
  170MPD1    H2 2596   3.980   2.220  13.103  0.3927  1.1456 -0.9933
  170MPD1    H3 2597   4.057   2.163  13.315 -0.8074 -0.4689 -0.0955
  170MPD1     N 2598   3.800   2.471  13.529 -0.0127  0.3821 -0.4070
  170MPD1    H5 2599   3.736   2.549  13.513 -1.4341 -0.4463  1.3208
  170MPD1    N1 2600   3.777   2.401  13.051 -0.3379  0.6223  0.0393
  170MPD1    H6 2601   3.682   2.439  13.052  0.2589  2.1478 -0.9642
  170MPD1    H7 2602   3.768   2.329  12.980  0.0113  0.4603  0.1639
  171MPD1     C 2603   2.530   3.817  15.828 -0.3398 -0.0329 -0.1349
  171MPD1    C1 2604   2.479   3.714  15.763 -0.0889  0.6183  0.5019
  171MPD1    C2 2605   2.499   3.586  15.811  0.0247  0.2861 -0.1708
  171MPD1    C3 2606   2.572   3.561  15.924  0.5306  0.0724 -0.5172
  171MPD1    C4 2607   2.625   3.671  15.986  0.3548  0.0972 -0.4682
  171MPD1    C5 2608   2.606   3.798  15.937  0.5002  0.1899  0.4652
  171MPD1     H 2609   2.446   3.505  15.762  0.0252  0.6524 -0.7803
  171MPD1    H1 2610   2.677   3.664  16.081  0.7800 -1.1104 -0.7804
  171MPD1    H2 2611   2.505   3.919  15.799  2.6578  0.6931 -0.1305
  171MPD1    H3 2612   2.640   3.880  15.999 -0.1159 -0.1206  1.2088
  171MPD1     N 2613   2.597   3.432  15.981  0.0642  0.2633  0.3775
  171MPD1    H5 2614   2.638   3.428  16.074 -3.1443  2.4019  1.8752
  171MPD1    N1 2615   2.379   3.734  15.669  0.7101  0.4132 -0.2594
  171MPD1    H6 2616   2.388   3.664  15.596 -1.3657 -0.2816  0.1435
  171MPD1    H7 2617   2.387   3.825  15.625 -1.7781  0.5609 -0.4234
  172MPD1     C 2618   1.684   2.504  17.318 -0.1388 -0.1325 -0.5586
  172MPD1    C1 2619   1.683   2.637  17.316  0.0360 -0.0382  0.2556
  172MPD1    C2 2620   1.731   2.708  17.425  0.0745 -0.1229  0.0690
  172MPD1    C3 2621   1.785   2.636  17.534  0.6654  1.0690  0.2130
  172MPD1    C4 2622   1.803   2.501  17.533 -0.3039 -0.7365 -0.0563
  172MPD1    C5 2623   1.745   2.442  17.425  0.5224  0.3294  0.2571
  172MPD1     H 2624   1.706   2.812  17.445  1.0879 -0.5733  3.6227
  172MPD1    H1 2625   1.847   2.446  17.615 -1.3218 -2.4677 -0.6710
  172MPD1    H2 2626   1.636   2.432  17.252 -3.2834  0.8512  0.6472
  172MPD1    H3 2627   1.746   2.336  17.404 -0.2487  0.0584  1.5783
  172MPD1     N 2628   1.834   2.691  17.651 -0.0666  0.1675 -0.5072
  172MPD1    H5 2629   1.867   2.630   0.019 -1.1703  0.2249  0.0354
  172MPD1    N1 2630   1.606   2.701  17.219  0.2353 -0.2259  0.0076
  172MPD1    H6 2631   1.604   2.637  17.139 -4.6517 -0.0282 -0.0202
  172MPD1    H7 2632   1.629   2.796  17.190  0.5873  0.1576  1.5341
  173MPD1     C 2633   2.933   3.397  14.804 -0.6610  0.1061 -0.7570
  173MPD1    C1 2634   2.891   3.353  14.923  0.2927  0.2310  0.3922
  173MPD1    C2 2635   2.854   3.223  14.937 -0.0918  0.5883 -0.4268
  173MPD1    C3 2636   2.868   3.140  14.827 -0.6671  0.2833  0.2758
  173MPD1    C4 2637   2.910   3.183  14.703 -0.0771  0.4238  0.0627
  173MPD1    C5 2638   2.948   3.312  14.696  0.2004  1.5888  0.2515
  173MPD1     H 2639   2.822   3.182  15.032 -0.0213 -1.0074 -1.0748
  173MPD1    H1 2640   2.903   3.130  14.609 -1.1639  2.4935 -1.0206
  173MPD1    H2 2641   2.955   3.503  14.802 -1.4759  0.2923  0.3942
  173MPD1    H3 2642   2.978   3.353  14.601  0.7413  0.5175 -0.0335
  173MPD1     N 2643   2.831   3.007  14.854 -0.0485  0.2566  0.1445
  173MPD1    H5 2644   2.825   2.976  14.951 -1.5535 -0.6469 -0.2352
  173MPD1    N1 2645   2.860   3.451  15.022  0.3582 -0.9619 -0.0900
  173MPD1    H6 2646   2.907   3.541  15.006  1.4762 -1.7261 -1.1017
  173MPD1    H7 2647   2.900   3.423  15.111 -1.6205  1.1074  1.4541
  174MPD1     C 2648   2.928   1.920  14.645  0.2951 -0.2101 -0.1776
  174MPD1    C1 2649   2.897   2.023  14.558 -0.3799  0.4070 -1.0360
  174MPD1    C2 2650   2.872   2.149  14.607 -0.4298 -0.1646 -0.3072
  174MPD1    C3 2651   2.874   2.177  14.742  0.2120 -1.0162 -0.1822
  174MPD1    C4 2652   2.889   2.067  14.829  0.1646  0.0741 -0.2570
  174MPD1    C5 2653   2.916   1.939  14.780  0.5285  0.1402 -0.3861
  174MPD1     H 2654   2.857   2.221  14.528  0.7295 -1.6796 -1.9199
  174MPD1    H1 2655   2.895   2.081  14.937 -0.1443  0.0798 -0.2405
  174MPD1    H2 2656   2.947   1.815  14.625  0.7030 -0.2997  0.6747
  174MPD1    H3 2657   2.929   1.862  14.854 -0.6633 -0.3772 -0.7221
  174MPD1     N 2658   2.855   2.308  14.796 -0.0770  0.7527 -0.0125
  174MPD1    H5 2659   2.830   2.317  14.894  1.2966  0.2006  0.3736
  174MPD1    N1 2660   2.903   1.997  14.423  0.1061  0.0969  0.1918
  174MPD1    H6 2661   2.867   2.072  14.363  2.4839 -0.4823 -1.9650
  174MPD1    H7 2662   2.873   1.904  14.393 -1.7769  0.3651  1.2104
  175MPD1     C 2663   1.367   4.094  15.581 -0.6729  0.2449  0.0900
  175MPD1    C1 2664   1.260   4.160  15.635 -0.1608 -0.1607  0.3356
  175MPD1    C2 2665   1.215   4.115  15.763  0.1875 -0.0872 -0.2015
  175MPD1    C3 2666   1.248   3.995  15.819  0.3355  0.4156  0.1089
  175MPD1    C4 2667   1.353   3.924  15.761  0.2566  0.0211 -0.7479
  175MPD1    C5 2668   1.407   3.975  15.647  0.0964 -0.9688 -0.2589
  175MPD1     H 2669   1.142   4.178  15.813  1.6186  1.6901 -0.3529
  175MPD1    H1 2670   1.402   3.841  15.810  0.1904 -0.5157 -1.5884
  175MPD1    H2 2671   1.417   4.104  15.486 -1.4313 -0.7979 -0.4234
  175MPD1    H3 2672   1.498   3.927  15.610  0.0814 -1.0803 -0.1515
  175MPD1     N 2673   1.192   3.940  15.941  0.3342 -0.2723  0.2345
  175MPD1    H5 2674   1.241   3.872  15.998 -0.3330 -0.6988  0.2918
  175MPD1    N1 2675   1.227   4.282  15.587 -0.4157 -0.7425  0.1834
  175MPD1    H6 2676   1.127   4.299  15.596 -0.4476 -0.3406 -0.9464
  175MPD1    H7 2677   1.254   4.299  15.490  0.3081 -0.4169  0.4425
  176MPD1     C 2678   3.299   0.272  16.874 -0.2422  1.1477  0.0424
  176MPD1    C1 2679   3.298   0.187  16.985  0.7121 -0.3987  0.2563
  176MPD1    C2 2680   3.259   0.243  17.107 -0.4351  0.1978 -0.0260
  176MPD1    C3 2681   3.238   0.378  17.111 -1.2297 -0.3702  0.1673
  176MPD1    C4 2682   3.234   0.458  17.002  0.3946  0.1796  0.8314
  176MPD1    C5 2683   3.268   0.404  16.887  0.6803  0.4742  0.4416
  176MPD1     H 2684   3.269   0.184  17.197  2.3293  0.5306 -0.0906
  176MPD1    H1 2685   3.217   0.565  17.004  0.1740  0.1498  0.5222
  176MPD1    H2 2686   3.315   0.233  16.774 -0.7728 -1.8461  1.1268
  176MPD1    H3 2687   3.253   0.463  16.797 -0.3057 -0.1773  0.1786
  176MPD1     N 2688   3.216   0.431  17.243 -0.1443  0.5481  0.0978
  176MPD1    H5 2689   3.233   0.370  17.323  0.0414 -0.0009 -0.3562
  176MPD1    N1 2690   3.302   0.044  16.964 -0.3903  0.2234  0.1096
  176MPD1    H6 2691   3.361   0.020  16.884  0.3333  2.8355 -0.1337
  176MPD1    H7 2692   3.334   4.707  17.037  0.4281  0.8359  0.2814
  177MPD1     C 2693   1.368   1.135   8.717  0.9890 -0.2431  0.0898
  177MPD1    C1 2694   1.461   1.067   8.796 -0.5519 -0.0034 -1.0953
  177MPD1    C2 2695   1.402   1.001   8.904 -0.5263  0.8208  0.8577
  177MPD1    C3 2696   1.269   1.011   8.941 -0.1532  0.2693 -0.1543
  177MPD1    C4 2697   1.183   1.084   8.864 -0.0529 -0.7300 -0.2054
  177MPD1    C5 2698   1.233   1.136   8.750 -0.0143  0.1858 -0.2152
  177MPD1     H 2699   1.456   0.925   8.957  1.0527  0.3178 -1.4969
  177MPD1    H1 2700   1.077   1.095   8.883  0.5799  2.8967  1.3766
  177MPD1    H2 2701   1.391   1.180   8.621  1.7613 -0.3227  0.2417
  177MPD1    H3 2702   1.160   1.181   8.684  0.9696 -0.5223 -1.7550
  177MPD1     N 2703   1.221   0.931   9.055  0.3954  0.5732  0.0512
  177MPD1    H5 2704   1.291   0.868   9.092 -0.6207 -1.3201 -1.3045
  177MPD1    N1 2705   1.589   1.034   8.746 -0.0466  0.7443  0.0900
  177MPD1    H6 2706   1.656   1.013   8.819  1.9935  1.0193 -1.6768
  177MPD1    H7 2707   1.621   1.119   8.699  1.8507 -1.4298 -2.6072
  178MPD1     C 2708   3.614   1.980   0.089 -0.8403  0.2784 -0.1335
  178MPD1    C1 2709   3.582   1.845   0.098 -0.3839  0.2627  0.6790
  178MPD1    C2 2710   3.621   1.765  17.691  0.1616  0.2986  0.0069
  178MPD1    C3 2711   3.707   1.815  17.588  0.0545  0.1141 -0.0446
  178MPD1    C4 2712   3.740   1.956  17.594  1.1326 -0.9497  0.0687
  178MPD1    C5 2713   3.689   2.038  17.694 -0.1981 -0.0050 -0.5434
  178MPD1     H 2714   3.589   1.661  17.699 -1.8340  0.9561  0.5673
  178MPD1    H1 2715   3.803   1.999  17.518 -0.6603 -0.7874 -1.3490
  178MPD1    H2 2716   3.568   2.049   0.158 -1.6791  0.7983 -1.2003
  178MPD1    H3 2717   3.690   2.146  17.681 -0.2065  0.2655  1.6264
  178MPD1     N 2718   3.767   1.744  17.481  0.2003  0.6466 -0.6023
  178MPD1    H5 2719   3.838   1.799  17.435  1.8453 -1.2131 -0.2787
  178MPD1    N1 2720   3.475   1.811   0.184  0.1184  0.2744 -0.5626
  178MPD1    H6 2721   3.480   1.713   0.210 -2.3808 -0.0922 -1.4200
  178MPD1    H7 2722   3.386   1.816   0.134  0.0318 -1.6897 -0.6078
  179MPD1     C 2723   4.035   3.821  15.732  0.0270 -0.7129  0.8593
  179MPD1    C1 2724   3.903   3.812  15.694  0.1318 -0.2794  0.8869
  179MPD1    C2 2725   3.808   3.855  15.780  0.0010  0.4133 -0.7596
  179MPD1    C3 2726   3.844   3.891  15.914  0.2455 -0.0234 -0.1332
  179MPD1    C4 2727   3.977   3.874  15.951  0.0920 -0.6032 -0.0312
  179MPD1    C5 2728   4.072   3.847  15.861  0.2452  0.3875  0.0242
  179MPD1     H 2729   3.704   3.848  15.750 -0.3315  0.9837  0.2650
  179MPD1    H1 2730   4.014   3.902  16.049 -0.7513  1.0853 -0.1874
  179MPD1    H2 2731   4.114   3.787  15.665  0.1540 -1.3564  1.3407
  179MPD1    H3 2732   4.178   3.849  15.886  0.3038 -1.5729 -0.0809
  179MPD1     N 2733   3.751   3.938  16.003  0.1825 -0.3816  0.7004
  179MPD1    H5 2734   3.782   3.977  16.092 -0.3671 -1.3141  1.2981
  179MPD1    N1 2735   3.864   3.750  15.573 -0.3496  0.3620  0.8508
  179MPD1    H6 2736   3.785   3.799  15.531  1.9994  2.7976 -0.7583
  179MPD1    H7 2737   3.947   3.757  15.515  0.7216 -1.7836  2.0989
  180MPD1     C 2738   3.719   0.946  15.445  0.2697  0.2564  1.2683
  180MPD1    C1 2739   3.773   0.962  15.317  0.5717  0.3672 -0.8289
  180MPD1    C2 2740   3.686   1.011  15.221  0.5582  0.2767  0.0276
  180MPD1    C3 2741   3.553   1.019  15.244 -0.1449 -0.3443 -0.1317
  180MPD1    C4 2742   3.511   1.011  15.368 -0.1457 -0.0058 -0.1413
  180MPD1    C5 2743   3.586   0.971  15.469 -0.3059  0.0490  0.4182
  180MPD1     H 2744   3.720   1.031  15.120  0.1408  2.7067  0.3729
  180MPD1    H1 2745   3.407   1.034  15.392 -0.0563  0.7807 -0.5070
  180MPD1    H2 2746   3.786   0.904  15.519  1.4041 -0.0576  0.0664
  180MPD1    H3 2747   3.552   0.962  15.571 -2.2412 -0.2629 -0.2561
  180MPD1     N 2748   3.468   1.053  15.134  0.2527  0.1730 -0.2854
  180MPD1    H5 2749   3.517   1.053  15.046 -1.1982  1.3147 -1.0887
  180MPD1    N1 2750   3.908   0.970  15.301  0.3914 -0.4616  0.5366
  180MPD1    H6 2751   3.955   0.898  15.354 -2.0799 -1.3834  1.4686
  180MPD1    H7 2752   3.935   0.970  15.203 -0.4805  0.9965  0.2956
  181MPD1     C 2753   0.154   2.681  10.287  0.0050 -0.9207 -0.5486
  181MPD1    C1 2754   0.222   2.807  10.293  0.9779 -0.8791 -0.0060
  181MPD1    C2 2755   0.360   2.817  10.270 -0.6274 -0.6523  0.3018
  181MPD1    C3 2756   0.412   2.712  10.192 -0.0414  0.4540 -0.0736
  181MPD1    C4 2757   0.330   2.605  10.152 -0.4126  0.5692 -0.0965
  181MPD1    C5 2758   0.202   2.588  10.206 -0.1006 -0.4745  0.0409
  181MPD1     H 2759   0.420   2.905  10.291 -0.3452 -0.9676  0.8015
  181MPD1    H1 2760   0.358   2.528  10.082 -0.4922  0.1926  0.2863
  181MPD1    H2 2761   0.056   2.663  10.329 -0.5609  3.0654 -0.1577
  181MPD1    H3 2762   0.148   2.497  10.182  1.6751 -1.4207 -0.3857
  181MPD1     N 2763   0.549   2.714  10.152  0.0990  0.2847 -0.2591
  181MPD1    H5 2764   0.582   2.631  10.103  0.5900 -1.2086  2.6148
  181MPD1    N1 2765   0.154   2.914  10.356  0.3358 -0.1351 -0.1180
  181MPD1    H6 2766   0.166   3.007  10.315 -0.8625 -0.1130 -0.4039
  181MPD1    H7 2767   0.054   2.900  10.356  0.3596 -0.3061  0.4288
  182MPD1     C 2768   1.917   2.891   1.864  0.3372 -0.2440  0.1221
  182MPD1    C1 2769   1.951   2.833   1.740 -0.8566  0.2186 -0.5671
  182MPD1    C2 2770   1.858   2.766   1.668 -0.4932 -0.3966  0.6661
  182MPD1    C3 2771   1.722   2.776   1.700  0.3589 -0.1692 -0.1687
  182MPD1    C4 2772   1.690   2.851   1.810  0.2602  0.0879 -0.2890
  182MPD1    C5 2773   1.787   2.913   1.886  0.1113  0.3052  0.0800
  182MPD1     H 2774   1.895   2.710   1.583 -0.5663  1.0310 -0.3030
  182MPD1    H1 2775   1.586   2.859   1.838  0.0622 -2.2665 -0.3118
  182MPD1    H2 2776   1.990   2.919   1.938  1.2658  1.9502 -1.6219
  182MPD1    H3 2777   1.761   2.968   1.976  2.0611  0.0852  0.7766
  182MPD1     N 2778   1.621   2.713   1.624  0.2292 -0.6398  0.2013
  182MPD1    H5 2779   1.526   2.733   1.652  0.6176  0.5397  0.6614
  182MPD1    N1 2780   2.085   2.815   1.710  0.5346 -0.5927 -0.1299
  182MPD1    H6 2781   2.099   2.799   1.611 -0.0468 -1.1670 -0.1165
  182MPD1    H7 2782   2.140   2.891   1.750 -1.3517  2.0412 -2.4855
  183MPD1     C 2783   0.698   2.151   8.991  0.3916  0.6969 -0.2191
  183MPD1    C1 2784   0.649   2.250   9.073 -0.2269 -0.2578 -0.0476
  183MPD1    C2 2785   0.732   2.300   9.166  0.1816  0.6399  0.6232
  183MPD1    C3 2786   0.844   2.233   9.208 -0.0376 -0.2751  0.6989
  183MPD1    C4 2787   0.881   2.116   9.140  0.2337  0.4777 -0.0995
  183MPD1    C5 2788   0.809   2.087   9.026  0.3953 -1.1226 -0.0047
  183MPD1     H 2789   0.709   2.401   9.199  0.6324  1.6943 -2.2675
  183MPD1    H1 2790   0.971   2.058   9.154  1.3263  2.3666  0.5953
  183MPD1    H2 2791   0.641   2.114   8.906  1.0192  1.1114 -0.8160
  183MPD1    H3 2792   0.831   2.002   8.963  1.7778 -1.0270  0.3498
  183MPD1     N 2793   0.917   2.291   9.312  0.3374 -0.5465  0.1372
  183MPD1    H5 2794   0.872   2.370   9.357 -0.2603 -0.6186 -0.3256
  183MPD1    N1 2795   0.558   2.336   9.012 -0.5341 -0.1828  0.0553
  183MPD1    H6 2796   0.507   2.401   9.072  0.6871  0.8028  0.0324
  183MPD1    H7 2797   0.489   2.279   8.966 -1.3043  1.2804 -0.6043
  184MPD1     C 2798   0.270   0.347  11.183  0.1589 -0.3880 -0.2994
  184MPD1    C1 2799   0.146   0.389  11.139  0.6852 -0.3468 -0.1293
  184MPD1    C2 2800   0.138   0.465  11.019 -0.0666 -0.2484 -0.0464
  184MPD1    C3 2801   0.246   0.473  10.933 -0.0030 -0.1598 -0.0101
  184MPD1    C4 2802   0.362   0.414  10.975  0.6002 -0.0661  0.2242
  184MPD1    C5 2803   0.378   0.368  11.101 -0.2488 -0.1741 -0.2911
  184MPD1     H 2804   0.045   0.513  10.992 -0.0598  0.5757  1.3919
  184MPD1    H1 2805   0.444   0.410  10.904  0.4102  1.3829 -0.0735
  184MPD1    H2 2806   0.291   0.295  11.276  0.6474  0.6222  0.1598
  184MPD1    H3 2807   0.475   0.338  11.138  0.2831  1.6229 -0.2369
  184MPD1     N 2808   0.240   0.527  10.800 -0.5276  0.5332  0.1116
  184MPD1    H5 2809   0.314   0.502  10.735 -0.5889  2.4846 -0.7113
  184MPD1    N1 2810   0.041   0.385  11.231  0.2818  0.0572  0.3356
  184MPD1    H6 2811   4.679   0.384  11.178 -1.0476  1.6124  2.5454
  184MPD1    H7 2812   0.039   0.295  11.278  0.2002  0.4898  1.1466
  185MPD1     C 2813   4.379   0.957   9.948  0.0963  0.3993  0.1766
  185MPD1    C1 2814   4.343   0.954  10.081  0.0365  0.2313  0.1269
  185MPD1    C2 2815   4.430   0.895  10.172  0.3849 -0.3517  0.5173
  185MPD1    C3 2816   4.553   0.841  10.129 -0.7985  0.5264 -0.3540
  185MPD1    C4 2817   4.582   0.843  10.000 -0.4356  0.2841  0.0997
  185MPD1    C5 2818   4.492   0.896   9.910  1.2290  0.5997 -0.2148
  185MPD1     H 2819   4.404   0.890  10.277 -0.3928 -0.9883  0.2937
  185MPD1    H1 2820   4.673   0.799   9.960 -0.4988 -0.1772  0.4695
  185MPD1    H2 2821   4.316   0.997   9.870  1.1881  1.2208 -0.2797
  185MPD1    H3 2822   4.514   0.899   9.803 -0.1161 -1.6743 -0.5454
  185MPD1     N 2823   4.662   0.796  10.209  0.0147  0.2119 -0.4139
  185MPD1    H5 2824   0.026   0.793  10.163  0.9237 -0.4252  1.3856
  185MPD1    N1 2825   4.216   0.988  10.123  0.4608 -0.0815 -0.8433
  185MPD1    H6 2826   4.223   1.047  10.206  1.7476 -2.5225  0.7531
  185MPD1    H7 2827   4.171   1.052  10.058  0.0197 -0.9447 -1.3790
  186MPD1     C 2828   3.439   4.431  15.940 -0.4317  0.7429 -0.5912
  186MPD1    C1 2829   3.565   4.387  15.924 -0.0956 -0.2175 -0.2123
  186MPD1    C2 2830   3.644   4.378  16.040 -0.1111 -0.5654 -0.1490
  186MPD1    C3 2831   3.603   4.430  16.163  0.3936 -1.0845  0.4017
  186MPD1    C4 2832   3.472   4.464  16.171  0.0954 -0.0170 -0.7924
  186MPD1    C5 2833   3.387   4.453  16.060 -0.1694 -0.5031 -0.1548
  186MPD1     H 2834   3.747   4.345  16.025 -0.0456  0.6866 -2.6012
  186MPD1    H1 2835   3.437   4.500  16.266 -0.4078  0.1158 -1.0272
  186MPD1    H2 2836   3.375   4.435  15.853 -1.3975  0.2193  0.1107
  186MPD1    H3 2837   3.281   4.471  16.073 -0.2398  1.2266 -3.1332
  186MPD1     N 2838   3.695   4.446  16.277  0.3386  0.5472  0.3420
  186MPD1    H5 2839   3.658   4.491  16.360 -1.8583 -2.1175  0.8102
  186MPD1    N1 2840   3.611   4.370  15.800 -0.5791  0.5734  0.5153
  186MPD1    H6 2841   3.695   4.314  15.804 -0.2692  0.9758 -0.4655
  186MPD1    H7 2842   3.544   4.342  15.729 -1.1308 -0.0463  1.2840
  187MPD1     C 2843   2.811   2.289   1.258  0.4769 -0.3282  1.1441
  187MPD1    C1 2844   2.861   2.157   1.262 -0.2437 -0.3519 -0.0774
  187MPD1    C2 2845   2.933   2.118   1.151  0.5619 -0.0854  0.1300
  187MPD1    C3 2846   2.971   2.198   1.045  0.0273 -0.4724  0.2193
  187MPD1    C4 2847   2.950   2.336   1.057  0.5732  0.1734 -0.6676
  187MPD1    C5 2848   2.870   2.371   1.162  0.4424  0.0545 -0.3456
  187MPD1     H 2849   2.958   2.012   1.153  1.6150  0.1058 -3.1622
  187MPD1    H1 2850   2.975   2.404   0.976  1.2556  0.9497  0.1937
  187MPD1    H2 2851   2.740   2.321   1.333 -0.3122  0.6387 -0.0280
  187MPD1    H3 2852   2.844   2.476   1.161  1.7049  0.3673  0.9359
  187MPD1     N 2853   3.042   2.152   0.939 -0.5886  0.0449 -0.7564
  187MPD1    H5 2854   3.080   2.223   0.876 -1.6438  0.6135 -0.7567
  187MPD1    N1 2855   2.802   2.062   1.348 -0.4803 -0.0940  0.0702
  187MPD1    H6 2856   2.769   2.099   1.437  0.7831  1.5263 -0.1397
  187MPD1    H7 2857   2.866   1.985   1.363  0.2536  0.5913  0.4974
  188MPD1     C 2858   1.946   1.816   9.636 -0.1715  0.7387 -0.2213
  188MPD1    C1 2859   1.958   1.709   9.549 -0.0419  0.3615 -0.1039
  188MPD1    C2 2860   2.083   1.643   9.534 -0.3765 -0.4949  0.5441
  188MPD1    C3 2861   2.173   1.662   9.634  0.4499  0.2215  0.8467
  188MPD1    C4 2862   2.162   1.757   9.728 -0.6399  0.9480 -0.2457
  188MPD1    C5 2863   2.052   1.834   9.728  0.0494 -0.7152 -0.5945
  188MPD1     H 2864   2.099   1.575   9.451 -0.3641 -0.5504  0.5922
  188MPD1    H1 2865   2.236   1.788   9.802 -2.5949 -0.3341  2.2403
  188MPD1    H2 2866   1.853   1.864   9.662 -0.0370  0.8505  0.0493
  188MPD1    H3 2867   2.034   1.908   9.805 -0.6299 -1.4769 -0.0247
  188MPD1     N 2868   2.294   1.582   9.641  0.0856 -0.1345  0.3446
  188MPD1    H5 2869   2.344   1.600   9.728 -0.1497  1.4248  0.1727
  188MPD1    N1 2870   1.864   1.696   9.445 -0.5451  0.1674 -0.2869
  188MPD1    H6 2871   1.771   1.732   9.464 -0.1988  1.1488 -0.4638
  188MPD1    H7 2872   1.841   1.609   9.396 -1.1672  0.2665 -0.1685
  189MPD1     C 2873   0.189   2.255   0.788 -0.3596 -0.4184 -0.3254
  189MPD1    C1 2874   0.071   2.203   0.744  0.6228  0.4371  0.4589
  189MPD1    C2 2875   4.706   2.302   0.695 -0.0712  0.1915  0.1201
  189MPD1    C3 2876   0.001   2.436   0.700 -0.7022  0.3329  0.9464
  189MPD1    C4 2877   0.121   2.485   0.750  0.3653  0.2450  0.8767
  189MPD1    C5 2878   0.208   2.395   0.797 -0.0573  0.2669  0.0108
  189MPD1     H 2879   4.614   2.257   0.658  0.7464 -1.6911  0.3952
  189MPD1    H1 2880   0.148   2.590   0.751 -2.5099  0.9996 -3.6293
  189MPD1    H2 2881   0.271   2.189   0.816 -0.7926 -0.0488  1.8522
  189MPD1    H3 2882   0.300   2.437   0.836 -1.7744  2.6763  1.4547
  189MPD1     N 2883   4.640   2.517   0.624 -0.0058 -0.0760  0.5364
  189MPD1    H5 2884   4.577   2.466   0.563  0.3272  1.8242 -1.4223
  189MPD1    N1 2885   0.051   2.070   0.719  0.2129 -0.0847 -0.2243
  189MPD1    H6 2886   0.120   2.020   0.775  1.1074  0.6494 -0.6566
  189MPD1    H7 2887   4.683   2.040   0.743  0.8472 -0.5689  1.6799
  190MPD1     C 2888   2.361   0.699  16.754  0.1528 -0.4383  0.1754
  190MPD1    C1 2889   2.486   0.654  16.818  0.2982  0.7747 -0.2694
  190MPD1    C2 2890   2.600   0.673  16.738  0.4007  0.1113 -0.6615
  190MPD1    C3 2891   2.605   0.761  16.632  0.2708 -0.6308  0.2170
  190MPD1    C4 2892   2.491   0.830  16.595 -0.0944 -0.1573 -0.2663
  190MPD1    C5 2893   2.368   0.791  16.651 -0.5223  0.2140  0.6941
  190MPD1     H 2894   2.692   0.631  16.776 -0.1777 -0.2957  0.2972
  190MPD1    H1 2895   2.492   0.891  16.506  2.7766 -0.3892 -0.3917
  190MPD1    H2 2896   2.265   0.671  16.795 -0.4921  1.0637 -0.2979
  190MPD1    H3 2897   2.283   0.841  16.605  0.0851  1.4921  0.9754
  190MPD1     N 2898   2.727   0.781  16.566 -0.0112 -0.0295 -0.6794
  190MPD1    H5 2899   2.809   0.749  16.617 -0.0451 -1.1245 -1.2977
  190MPD1    N1 2900   2.486   0.565  16.925  0.3367  0.2693 -0.2692
  190MPD1    H6 2901   2.570   0.585  16.980 -1.2496  1.1212  1.8526
  190MPD1    H7 2902   2.409   0.577  16.991 -0.2508  1.4749 -1.1922
  191MPD1     C 2903   3.070   2.717  13.519  0.2456  0.1599 -0.3733
  191MPD1    C1 2904   3.110   2.800  13.419  0.4045  0.6828  0.3963
  191MPD1    C2 2905   3.015   2.853  13.334 -0.1983 -0.0867 -0.0624
  191MPD1    C3 2906   2.880   2.826  13.339  0.3229  0.5528 -0.2292
  191MPD1    C4 2907   2.838   2.744  13.439  0.6582  0.2020 -0.2251
  191MPD1    C5 2908   2.932   2.694  13.528 -0.6664 -0.2977  0.1991
  191MPD1     H 2909   3.054   2.919  13.257 -1.5263 -1.0459 -1.5787
  191MPD1    H1 2910   2.740   2.699  13.450  1.1573 -1.1460 -1.1772
  191MPD1    H2 2911   3.139   2.667  13.586  0.7198  0.0889 -0.9127
  191MPD1    H3 2912   2.894   2.621  13.599 -0.6612  0.9457  1.4921
  191MPD1     N 2913   2.791   2.865  13.233 -0.1459  0.2944 -0.8641
  191MPD1    H5 2914   2.840   2.906  13.153 -0.0794  2.8063  0.4613
  191MPD1    N1 2915   3.250   2.840  13.404 -0.7997  0.3908 -0.5628
  191MPD1    H6 2916   3.272   2.822  13.306 -1.1731 -1.7567 -0.2400
  191MPD1    H7 2917   3.296   2.772  13.464 -0.9391  1.4181  0.7086
  192MPD1     C 2918   1.775   3.074  12.865  0.6438 -0.5768 -0.2189
  192MPD1    C1 2919   1.816   2.954  12.922 -0.1426  0.1159 -0.1117
  192MPD1    C2 2920   1.956   2.929  12.927  0.9916 -0.5216 -0.1300
  192MPD1    C3 2921   2.048   3.028  12.890 -0.1889  0.5672  0.8002
  192MPD1    C4 2922   2.003   3.143  12.831  0.0870  0.5301  0.3045
  192MPD1    C5 2923   1.861   3.165  12.818 -0.5865  0.3777  0.5212
  192MPD1     H 2924   1.995   2.834  12.961 -0.6070 -1.3328 -0.6097
  192MPD1    H1 2925   2.076   3.217  12.802 -0.3470  1.1806  0.8714
  192MPD1    H2 2926   1.670   3.092  12.844  1.3823  2.0755 -1.6200
  192MPD1    H3 2927   1.825   3.257  12.773 -2.2434 -0.3576  0.3601
  192MPD1     N 2928   2.184   3.020  12.908 -0.4320 -0.2002  0.5627
  192MPD1    H5 2929   2.233   3.106  12.884 -1.9308  0.2404 -0.8847
  192MPD1    N1 2930   1.715   2.855  12.939  0.4081 -0.5033  0.3368
  192MPD1    H6 2931   1.618   2.884  12.935  0.2697 -0.7543  2.1031
  192MPD1    H7 2932   1.735   2.773  12.996 -0.8659 -0.8003  0.3595
  193MPD1     C 2933   2.128   2.909  16.523 -0.1694 -0.4383 -0.2241
  193MPD1    C1 2934   2.168   2.844  16.635  0.1801  0.2443 -0.5291
  193MPD1    C2 2935   2.271   2.900  16.708  0.2932  0.4730  0.0579
  193MPD1    C3 2936   2.332   3.017  16.672 -0.1643  0.3457 -0.2141
  193MPD1    C4 2937   2.280   3.088  16.568  0.2785 -0.5257 -0.6518
  193MPD1    C5 2938   2.178   3.032  16.501 -0.4483  0.4652 -0.4922
  193MPD1     H 2939   2.319   2.835  16.781  2.2401 -0.9632 -2.5039
  193MPD1    H1 2940   2.317   3.180  16.525  0.6616  0.2693  1.4026
  193MPD1    H2 2941   2.046   2.883  16.457 -0.8153 -1.6048  1.0232
  193MPD1    H3 2942   2.140   3.084  16.414 -3.6264  1.2421  1.3622
  193MPD1     N 2943   2.441   3.070  16.745 -0.2101 -0.3319  0.1022
  193MPD1    H5 2944   2.472   3.163  16.722 -0.3569 -1.2252 -3.6395
  193MPD1    N1 2945   2.117   2.716  16.675 -0.0598  0.6638  0.0097
  193MPD1    H6 2946   2.103   2.699  16.774  0.1629  1.5043  0.1862
  193MPD1    H7 2947   2.023   2.707  16.637 -0.6681 -1.2634  1.9750
  194MPD1     C 2948   0.534   1.412  17.383  1.0848 -0.2414 -0.7393
  194MPD1    C1 2949   0.462   1.303  17.334  0.1470 -0.1130  0.2103
  194MPD1    C2 2950   0.526   1.195  17.286 -0.0894 -0.0210  0.2321
  194MPD1    C3 2951   0.664   1.200  17.276 -0.2209 -0.4022  0.3013
  194MPD1    C4 2952   0.732   1.317  17.304 -0.6527 -0.0739 -0.3666
  194MPD1    C5 2953   0.670   1.425  17.355 -1.0930 -0.1956 -0.1443
  194MPD1     H 2954   0.470   1.104  17.272  1.6382 -1.2885  1.4959
  194MPD1    H1 2955   0.840   1.315  17.296 -0.5223  1.7471  0.6839
  194MPD1    H2 2956   0.499   1.492  17.447 -0.3821 -0.5968 -1.0830
  194MPD1    H3 2957   0.727   1.513  17.380  3.1125 -2.4182 -1.9186
  194MPD1     N 2958   0.737   1.093  17.227  0.2192  0.0870  0.8545
  194MPD1    H5 2959   0.835   1.120  17.226 -0.5790  2.9774  1.4426
  194MPD1    N1 2960   0.323   1.299  17.363  0.2541  0.1857  0.5462
  194MPD1    H6 2961   0.276   1.388  17.372  1.4130  0.7003  1.4355
  194MPD1    H7 2962   0.271   1.237  17.301  0.3837  1.5008 -0.8920
  195MPD1     C 2963   2.384   1.369   0.934  1.1756  0.3783  0.4710
  195MPD1    C1 2964   2.475   1.278   0.892 -0.0428  0.2991  0.0660
  195MPD1    C2 2965   2.427   1.192   0.797 -0.5886  0.0037 -0.5037
  195MPD1    C3 2966   2.305   1.215   0.732  0.3461  0.0961 -0.4055
  195MPD1    C4 2967   2.220   1.318   0.765  0.1185  0.2380 -0.0110
  195MPD1    C5 2968   2.259   1.400   0.871 -0.2961 -0.1143  0.9453
  195MPD1     H 2969   2.501   1.116   0.773  0.5296  0.9775 -0.1700
  195MPD1    H1 2970   2.125   1.328   0.714  0.3475 -1.1372 -0.7128
  195MPD1    H2 2971   2.405   1.431   1.021 -1.3384  1.4298  0.3286
  195MPD1    H3 2972   2.194   1.483   0.898 -0.7352 -0.5777  1.3151
  195MPD1     N 2973   2.256   1.122   0.636 -0.4213  0.2188  0.1337
  195MPD1    H5 2974   2.171   1.153   0.589 -0.6495  0.0685  0.4474
  195MPD1    N1 2975   2.581   1.242   0.975 -0.4382  0.2501  0.0984
  195MPD1    H6 2976   2.624   1.322   1.021 -0.6180 -0.9748  2.3977
  195MPD1    H7 2977   2.650   1.175   0.941  1.8734  2.1885  0.9425
  196MPD1     C 2978   1.962   2.429   0.173 -0.1150  1.0259  0.2119
  196MPD1    C1 2979   1.858   2.480   0.242 -0.0162 -0.1113  0.5472
  196MPD1    C2 2980   1.867   2.553   0.362  0.1399 -0.1587 -0.4186
  196MPD1    C3 2981   1.993   2.567   0.420 -0.2086  0.0539  0.2774
  196MPD1    C4 2982   2.098   2.511   0.351 -0.3039 -0.4922  0.1257
  196MPD1    C5 2983   2.084   2.441   0.233 -0.0806  0.2035  0.4539
  196MPD1     H 2984   1.781   2.595   0.412  1.4091 -0.0017  1.6642
  196MPD1    H1 2985   2.198   2.518   0.392  0.1966  0.0596 -1.1826
  196MPD1    H2 2986   1.962   2.380   0.076 -0.8893  3.0922 -0.8253
  196MPD1    H3 2987   2.164   2.401   0.173 -0.4388 -0.3037  0.3172
  196MPD1     N 2988   2.009   2.632   0.542 -0.5122 -0.3599  0.1937
  196MPD1    H5 2989   2.103   2.658   0.573 -0.5605 -1.5917  1.3864
  196MPD1    N1 2990   1.743   2.486   0.166 -0.3773 -0.6906 -0.1066
  196MPD1    H6 2991   1.666   2.490   0.232 -0.3355 -1.6132 -0.0092
  196MPD1    H7 2992   1.732   2.410   0.100  1.5982 -1.0929  0.0156
  197MPD1     C 2993   1.530   4.553  17.674 -0.1804 -0.6138 -0.6657
  197MPD1    C1 2994   1.455   4.651  17.624  0.4308 -0.2803 -0.2508
  197MPD1    C2 2995   1.391   4.636  17.506  0.4232  0.0731  0.0757
  197MPD1    C3 2996   1.390   4.520  17.431  0.2571 -0.5479  0.8009
  197MPD1    C4 2997   1.475   4.422  17.480 -0.1529  0.1217 -0.2346
  197MPD1    C5 2998   1.540   4.434  17.598  0.0336  0.3275  0.3351
  197MPD1     H 2999   1.326   4.716  17.471 -0.0405  0.1712  1.1532
  197MPD1    H1 3000   1.477   4.326  17.429 -0.2425 -0.0256  0.0407
  197MPD1    H2 3001   1.589   4.577   0.055 -0.2614  0.6245 -0.9587
  197MPD1    H3 3002   1.616   4.367  17.638  0.8258  1.2868  0.4414
  197MPD1     N 3003   1.323   4.499  17.308 -1.1240  0.3985 -0.0955
  197MPD1    H5 3004   1.322   4.405  17.270 -1.8801  0.0107  0.8818
  197MPD1    N1 3005   1.419   0.041  17.698 -0.3194  0.6519 -0.3892
  197MPD1    H6 3006   1.416   0.115  17.629 -1.1009  0.5006 -0.5174
  197MPD1    H7 3007   1.483   0.061   0.069 -0.6983 -0.9647  0.3481
  198MPD1     C 3008   2.671   2.201  15.811  0.2777 -0.7606  0.1314
  198MPD1    C1 3009   2.784   2.288  15.805 -0.7904  0.0032 -0.0678
  198MPD1    C2 3010   2.900   2.230  15.855  0.6672 -0.2221  0.9274
  198MPD1    C3 3011   2.898   2.109  15.932 -0.2475  0.2085  0.5309
  198MPD1    C4 3012   2.786   2.035  15.940  0.2699 -0.0560  0.2781
  198MPD1    C5 3013   2.667   2.080  15.878 -0.1641 -0.1936 -0.2084
  198MPD1     H 3014   2.995   2.281  15.863 -0.2014  1.2869  1.6268
  198MPD1    H1 3015   2.794   1.932  15.975  0.2744 -0.5680 -1.2439
  198MPD1    H2 3016   2.577   2.237  15.771  1.8877 -0.5940 -3.5393
  198MPD1    H3 3017   2.575   2.023  15.887  0.1403 -0.6316  0.0975
  198MPD1     N 3018   3.020   2.073  15.992  0.3655  0.4047  0.3116
  198MPD1    H5 3019   3.106   2.116  15.961 -0.7671  1.5633 -1.1889
  198MPD1    N1 3020   2.791   2.399  15.721  0.2412 -0.4563  0.2691
  198MPD1    H6 3021   2.862   2.464  15.755  0.3494 -0.4166 -0.0341
  198MPD1    H7 3022   2.709   2.452  15.694  1.7358  2.7869  2.0706
  199MPD1     C 3023   4.561   3.290  10.975 -0.4197  0.3478 -0.5450
  199MPD1    C1 3024   4.450   3.359  10.935  1.1878  0.1419  0.0829
  199MPD1    C2 3025   4.452   3.443  10.822 -0.1743 -0.0569 -0.3269
  199MPD1    C3 3026   4.563   3.442  10.737  0.7964 -0.2505 -0.0331
  199MPD1    C4 3027   4.679   3.381  10.779  0.5891  0.7734 -0.5816
  199MPD1    C5 3028   4.673   3.300  10.890  0.2458 -0.4398  0.3732
  199MPD1     H 3029   4.364   3.496  10.788 -0.6210 -0.2410  0.5310
  199MPD1    H1 3030   0.047   3.370  10.725 -0.6201 -0.0244 -2.5271
  199MPD1    H2 3031   4.565   3.239  11.070 -3.4156 -0.9096 -1.0992
  199MPD1    H3 3032   0.033   3.243  10.922  0.1694 -2.0043 -2.2368
  199MPD1     N 3033   4.566   3.514  10.615  0.2889 -0.2191  0.7197
  199MPD1    H5 3034   4.660   3.503  10.577  0.5845 -0.9231  1.6550
  199MPD1    N1 3035   4.330   3.352  11.018 -0.0357 -0.0451 -0.1129
  199MPD1    H6 3036   4.246   3.371  10.964  0.3205 -3.1667 -1.7867
  199MPD1    H7 3037   4.323   3.269  11.076 -0.8693  1.0880  1.3876
  200MPD1     C 3038   3.980   3.484  15.030  0.1094  0.1066  0.3662
  200MPD1    C1 3039   3.963   3.412  14.913 -0.0927 -0.6568 -0.8864
  200MPD1    C2 3040   4.074   3.387  14.836 -0.4764 -0.2477 -0.0044
  200MPD1    C3 3041   4.192   3.430  14.874  0.0382  0.1831 -0.3644
  200MPD1    C4 3042   4.213   3.486  14.998 -0.0521  0.3897 -0.0163
  200MPD1    C5 3043   4.104   3.509  15.074 -0.4691  0.5951 -0.1584
  200MPD1     H 3044   4.070   3.337  14.740 -0.8827 -0.3969  0.0909
  200MPD1    H1 3045   4.312   3.511  15.037  0.1582 -0.9144  0.2769
  200MPD1    H2 3046   3.901   3.518  15.096  1.7132  1.4227  1.5995
  200MPD1    H3 3047   4.109   3.561  15.170  1.3427 -1.3639  0.8276
  200MPD1     N 3048   4.292   3.411  14.771  0.3616  0.1216 -0.1351
  200MPD1    H5 3049   4.272   3.354  14.689 -4.6659 -0.5750  1.5703
  200MPD1    N1 3050   3.841   3.390  14.854 -0.4850  0.6607  0.7092
  200MPD1    H6 3051   3.831   3.307  14.796  0.4594  0.5317  0.7353
  200MPD1    H7 3052   3.758   3.401  14.913  1.3640  2.5473  2.9601
  201MPD1     C 3053   2.068   2.838  13.370 -0.0935 -0.1872  0.2147
  201MPD1    C1 3054   1.980   2.739  13.395 -0.4469 -0.2195  0.6661
  201MPD1    C2 3055   2.028   2.611  13.409  0.1626 -0.1526  0.3451
  201MPD1    C3 3056   2.158   2.574  13.390 -0.1555  0.4689  0.3229
  201MPD1    C4 3057   2.242   2.678  13.346 -0.6242  0.1642 -0.6762
  201MPD1    C5 3058   2.192   2.805  13.345  0.8529  0.4943  0.6523
  201MPD1     H 3059   1.963   2.538  13.456  0.2116 -0.6891 -0.4214
  201MPD1    H1 3060   2.346   2.665  13.320 -0.6093  1.4725 -1.2512
  201MPD1    H2 3061   2.031   2.935  13.340  0.5318 -0.7367 -2.3479
  201MPD1    H3 3062   2.252   2.885  13.302  2.6026 -1.4713 -0.5384
  201MPD1     N 3063   2.197   2.440  13.410  0.0875 -0.1532 -0.2630
  201MPD1    H5 3064   2.122   2.373  13.424 -0.5544 -0.0834 -3.2993
  201MPD1    N1 3065   1.859   2.779  13.450  0.3480  0.0500  0.2503
  201MPD1    H6 3066   1.821   2.859  13.399 -0.0985 -1.3793 -1.6918
  201MPD1    H7 3067   1.780   2.715  13.436  0.4240 -0.2024  0.9958
  202MPD1     C 3068   1.475   1.291   9.105 -0.4264 -0.3039  0.1514
  202MPD1    C1 3069   1.603   1.337   9.110 -0.4010 -0.0816  1.0921
  202MPD1    C2 3070   1.670   1.351   9.235  0.0567  0.4682 -0.5358
  202MPD1    C3 3071   1.592   1.351   9.348 -0.2826  0.3745  0.4085
  202MPD1    C4 3072   1.453   1.335   9.342 -0.6282 -0.2030 -0.2022
  202MPD1    C5 3073   1.400   1.294   9.224  0.2583  0.2543 -0.3800
  202MPD1     H 3074   1.777   1.367   9.240 -0.0045  1.1872 -1.5095
  202MPD1    H1 3075   1.401   1.342   9.437  0.4170 -0.2114  0.3717
  202MPD1    H2 3076   1.427   1.269   9.010 -0.6602 -1.4321  0.5382
  202MPD1    H3 3077   1.294   1.270   9.221  0.8043 -2.0596 -0.5342
  202MPD1     N 3078   1.651   1.352   9.480  0.2108 -0.1406  0.0372
  202MPD1    H5 3079   1.584   1.335   9.555  0.4090  0.9696  0.4594
  202MPD1    N1 3080   1.678   1.320   8.994 -0.2406 -0.0163  0.3724
  202MPD1    H6 3081   1.770   1.362   8.993  0.7073 -2.1325 -0.0769
  202MPD1    H7 3082   1.624   1.343   8.911 -0.5005  1.6568  1.0134
  203MPD1     C 3083   0.666   3.122  12.668 -0.2934 -0.1537  0.4843
  203MPD1    C1 3084   0.720   3.074  12.784  0.3888 -0.2294  0.1175
  203MPD1    C2 3085   0.699   2.936  12.802  0.6807 -0.8813 -0.5719
  203MPD1    C3 3086   0.640   2.853  12.715 -0.3172  0.2625 -0.1715
  203MPD1    C4 3087   0.598   2.911  12.595 -0.1521 -0.3417 -0.1045
  203MPD1    C5 3088   0.608   3.042  12.575 -0.2857 -0.6004 -0.1775
  203MPD1     H 3089   0.735   2.896  12.897  0.7957  0.3901 -0.0799
  203MPD1    H1 3090   0.560   2.857  12.509 -0.3183  0.9077 -0.8088
  203MPD1    H2 3091   0.684   3.226  12.643  1.3004 -0.5155  0.0659
  203MPD1    H3 3092   0.584   3.089  12.481 -1.4523 -0.2384  0.3053
  203MPD1     N 3093   0.641   2.710  12.734  0.2941 -0.0144  0.6014
  203MPD1    H5 3094   0.703   2.682  12.809 -1.2987 -0.2410  1.8413
  203MPD1    N1 3095   0.755   3.158  12.893 -0.6961  0.2296  0.4128
  203MPD1    H6 3096   0.830   3.120  12.950 -0.7349 -1.5204 -0.6888
  203MPD1    H7 3097   0.781   3.251  12.859  0.2495  0.7050  2.4052
  204MPD1     C 3098   0.037   3.890   0.182  0.5134 -1.1684 -0.3520
  204MPD1    C1 3099   0.058   3.878   0.053  0.2881  0.4029  0.3930
  204MPD1    C2 3100   0.103   3.762  17.705 -0.0031 -0.2691 -0.4630
  204MPD1    C3 3101   0.113   3.647   0.078 -0.0425  0.0527  0.2288
  204MPD1    C4 3102   0.084   3.654   0.210  0.0426  0.5649  0.7128
  204MPD1    C5 3103   0.044   3.778   0.258  0.0421  0.0503  1.1640
  204MPD1     H 3104   0.123   3.758  17.598  1.6818 -0.4869 -0.1343
  204MPD1    H1 3105   0.095   3.577   0.285  1.6118 -0.1900 -0.2990
  204MPD1    H2 3106   4.720   3.984   0.215  1.9191 -1.1680  1.4626
  204MPD1    H3 3107   0.014   3.788   0.362  0.8575 -0.1446  1.4119
  204MPD1     N 3108   0.156   3.522   0.026  1.0424 -0.1240  0.4988
  204MPD1    H5 3109   0.178   3.529  17.633  1.8434  2.4322  0.8727
  204MPD1    N1 3110   0.021   3.979  17.670  0.3991 -0.0798  0.2301
  204MPD1    H6 3111   0.072   3.972  17.583  0.2552 -0.5912  0.1831
  204MPD1    H7 3112   0.057   4.065   0.003 -0.0789 -0.4580  1.5349
  205MPD1     C 3113   4.155   2.028  17.668  0.1064 -0.9646  0.5772
  205MPD1    C1 3114   4.227   2.128  17.597 -0.6715 -0.6122  0.1440
  205MPD1    C2 3115   4.367   2.121  17.612  0.6795 -0.4300 -0.3400
  205MPD1    C3 3116   4.425   2.043   0.008 -0.5035  0.1810  0.0045
  205MPD1    C4 3117   4.353   1.956   0.084 -0.4531  0.4864  0.8716
  205MPD1    C5 3118   4.221   1.938   0.044 -0.5591 -0.1566 -0.4421
  205MPD1     H 3119   4.427   2.201  17.571 -0.7982  0.3473 -0.9901
  205MPD1    H1 3120   4.379   1.893   0.169 -0.4093 -0.7291 -0.0520
  205MPD1    H2 3121   4.048   2.010  17.661 -0.1799  0.2652  1.7767
  205MPD1    H3 3122   4.169   1.870   0.110 -1.1018  1.1642  0.4712
  205MPD1     N 3123   4.559   2.056   0.034 -0.6192 -0.4217 -0.4923
  205MPD1    H5 3124   4.593   2.003   0.113  2.0637  0.3706 -1.1419
  205MPD1    N1 3125   4.166   2.192  17.486  0.1879 -0.5328  0.0376
  205MPD1    H6 3126   4.073   2.228  17.508  0.3146  0.7989 -1.6036
  205MPD1    H7 3127   4.227   2.262  17.444 -0.1726 -0.7902 -0.9318
  206MPD1     C 3128   0.237   0.610  16.817 -0.1459 -0.2712  0.0238
  206MPD1    C1 3129   0.165   0.501  16.783 -0.3433  0.0349 -0.0800
  206MPD1    C2 3130   0.148   0.470  16.648 -0.5893 -0.7018 -0.0131
  206MPD1    C3 3131   0.195   0.556  16.549 -0.7070 -0.7855 -0.1227
  206MPD1    C4 3132   0.255   0.673  16.583 -0.1846 -0.7144  0.2626
  206MPD1    C5 3133   0.277   0.694  16.715  1.0066  0.7245  0.2966
  206MPD1     H 3134   0.096   0.378  16.625  0.2201 -0.7076 -1.8114
  206MPD1    H1 3135   0.308   0.737  16.514 -2.3384  1.7101  0.8704
  206MPD1    H2 3136   0.264   0.639  16.918  3.3044  0.8605 -1.2222
  206MPD1    H3 3137   0.337   0.780  16.743  0.3259  1.4088 -0.3418
  206MPD1     N 3138   0.199   0.529  16.411 -0.2589 -0.1457  0.1465
  206MPD1    H5 3139   0.253   0.596  16.356  0.2620  0.2613  1.1499
  206MPD1    N1 3140   0.093   0.433  16.884 -0.4891  0.0455  0.1779
  206MPD1    H6 3141   0.136   0.451  16.974 -1.9635  1.0385  0.6792
  206MPD1    H7 3142   0.062   0.336  16.872 -0.0559  0.3508 -3.4577
  207MPD1     C 3143   3.153   2.694   9.460 -0.8356  0.2532 -0.1999
  207MPD1    C1 3144   3.140   2.828   9.429  0.1288 -0.0542 -0.6437
  207MPD1    C2 3145   3.095   2.910   9.527 -0.1019 -0.1560 -0.5888
  207MPD1    C3 3146   3.082   2.871   9.655 -0.2359 -0.2790  0.4637
  207MPD1    C4 3147   3.093   2.741   9.690 -0.1466 -0.1144  0.4275
  207MPD1    C5 3148   3.127   2.655   9.587  0.8597  0.0137 -0.7213
  207MPD1     H 3149   3.061   3.008   9.496 -1.7644 -0.4069  0.4452
  207MPD1    H1 3150   3.079   2.696   9.787  1.2349 -1.2478  0.1024
  207MPD1    H2 3151   3.183   2.623   9.384 -1.3467 -0.4102  0.2307
  207MPD1    H3 3152   3.147   2.551   9.609 -0.4986 -0.1788 -0.3980
  207MPD1     N 3153   3.030   2.963   9.752 -0.0471  0.5178 -0.1686
  207MPD1    H5 3154   3.004   2.921   9.840  0.1931 -0.2709 -0.4768
  207MPD1    N1 3155   3.138   2.863   9.296  0.1042 -0.0681 -0.2180
  207MPD1    H6 3156   3.146   2.964   9.290 -0.0134 -0.0923 -0.8128
  207MPD1    H7 3157   3.219   2.826   9.246  0.7993 -1.4322  1.9345
  208MPD1     C 3158   1.520   2.262  17.650  0.0301 -0.2104 -0.3330
  208MPD1    C1 3159   1.606   2.214   0.046 -1.0673  0.0078  0.5754
  208MPD1    C2 3160   1.556   2.180   0.173 -0.3196 -0.3223  0.6947
  208MPD1    C3 3161   1.427   2.153   0.185  0.2489 -0.6189 -0.2201
  208MPD1    C4 3162   1.342   2.166   0.069 -0.5490  0.4428 -0.1922
  208MPD1    C5 3163   1.387   2.236  17.669  0.0343 -0.1324 -0.7226
  208MPD1     H 3164   1.621   2.166   0.259  0.8173 -0.4419 -0.1942
  208MPD1    H1 3165   1.234   2.164   0.065 -0.5454  1.8912 -1.0866
  208MPD1    H2 3166   1.557   2.302  17.557 -1.5915 -0.4057 -1.0711
  208MPD1    H3 3167   1.316   2.264  17.592 -0.3028 -2.3656 -1.2295
  208MPD1     N 3168   1.376   2.105   0.306  0.1484  0.0984 -0.4384
  208MPD1    H5 3169   1.449   2.106   0.376  1.3181 -0.4937 -1.6463
  208MPD1    N1 3170   1.748   2.223   0.027  0.1534  0.7538 -0.4927
  208MPD1    H6 3171   1.772   2.189  17.640  0.1759 -1.5608  0.3491
  208MPD1    H7 3172   1.789   2.163   0.099  3.4049  0.2568 -2.7583
  209MPD1     C 3173   2.601   2.453  11.550  0.1925  0.3221 -0.3387
  209MPD1    C1 3174   2.734   2.487  11.557 -0.2560 -0.3880 -0.2992
  209MPD1    C2 3175   2.796   2.541  11.447 -0.1160  1.2002 -0.2082
  209MPD1    C3 3176   2.726   2.589  11.338  0.1616  0.0355 -0.3782
  209MPD1    C4 3177   2.589   2.580  11.342 -0.7490  0.0628 -0.2208
  209MPD1    C5 3178   2.531   2.502  11.445 -0.4244  0.4062 -0.3948
  209MPD1     H 3179   2.904   2.539  11.451 -0.1240  0.5222 -0.2507
  209MPD1    H1 3180   2.529   2.628  11.266  0.2644 -0.0850 -1.1097
  209MPD1    H2 3181   2.546   2.395  11.623 -0.0584 -0.5484 -1.2282
  209MPD1    H3 3182   2.425   2.479  11.441 -0.1260 -1.0018 -0.2272
  209MPD1     N 3183   2.798   2.663  11.235  0.2090 -0.2016 -0.4712
  209MPD1    H5 3184   2.898   2.669  11.250  0.0766  0.3829  0.1793
  209MPD1    N1 3185   2.816   2.417  11.653 -0.0640 -0.4239  0.0430
  209MPD1    H6 3186   2.889   2.485  11.676 -0.4082 -0.6813  1.9206
  209MPD1    H7 3187   2.765   2.395  11.739 -0.8005  3.8508  0.6928
  210MPD1     C 3188   3.371   3.479  11.130 -0.4835  0.0616  0.4451
  210MPD1    C1 3189   3.339   3.386  11.229  0.1456 -0.2680 -0.3556
  210MPD1    C2 3190   3.268   3.271  11.194  0.6323 -0.3799 -0.3840
  210MPD1    C3 3191   3.235   3.244  11.063 -0.6069 -0.2959 -0.1264
  210MPD1    C4 3192   3.249   3.345  10.968  0.3369  0.7069  0.7885
  210MPD1    C5 3193   3.319   3.458  11.008 -0.0972 -0.4010  0.0883
  210MPD1     H 3194   3.255   3.197  11.273 -1.2463 -0.1503 -0.4818
  210MPD1    H1 3195   3.215   3.342  10.865  0.9284 -0.3788  0.6306
  210MPD1    H2 3196   3.420   3.573  11.150  0.3876 -0.6709  1.8169
  210MPD1    H3 3197   3.335   3.540  10.939  2.5437 -0.7427  0.2897
  210MPD1     N 3198   3.164   3.126  11.016  0.6422 -0.0703  0.0650
  210MPD1    H5 3199   3.157   3.127  10.915  0.1348 -1.1289  0.0885
  210MPD1    N1 3200   3.399   3.396  11.353  0.4055  1.0246 -0.2469
  210MPD1    H6 3201   3.359   3.329  11.418  2.2294  0.5965  0.4298
  210MPD1    H7 3202   3.394   3.491  11.388 -0.8022  1.7907 -2.5259
  211MPD1     C 3203   0.874   1.297  16.500 -0.0087  0.3945 -0.8164
  211MPD1    C1 3204   0.762   1.295  16.416  0.4931 -0.0527 -0.1748
  211MPD1    C2 3205   0.686   1.413  16.417 -0.4921 -0.0272  0.1293
  211MPD1    C3 3206   0.726   1.534  16.467 -0.1192 -0.0585 -0.3047
  211MPD1    C4 3207   0.845   1.530  16.541 -0.7422  0.0206  0.2942
  211MPD1    C5 3208   0.918   1.416  16.551 -0.5193 -0.8604  0.1152
  211MPD1     H 3209   0.584   1.405  16.383 -0.8849  1.7988  0.8904
  211MPD1    H1 3210   0.883   1.614  16.597 -3.1507  1.9563 -0.9839
  211MPD1    H2 3211   0.939   1.212  16.514 -0.4313  0.5596  2.0099
  211MPD1    H3 3212   1.004   1.413  16.618 -1.2519 -0.6117  1.0735
  211MPD1     N 3213   0.651   1.647  16.442  0.4857  0.3150  0.0231
  211MPD1    H5 3214   0.563   1.632  16.392  0.2190  0.7406  0.3694
  211MPD1    N1 3215   0.703   1.176  16.373 -0.3303  0.2141 -0.1939
  211MPD1    H6 3216   0.648   1.186  16.288 -0.6283  0.2466  0.0056
  211MPD1    H7 3217   0.779   1.119  16.336 -0.3300 -0.3045  0.6185
  212MPD1     C 3218   4.711   0.830  16.072 -0.6379  0.4619  0.0297
  212MPD1    C1 3219   0.036   0.882  16.187  0.0168  0.2519 -0.1604
  212MPD1    C2 3220   4.708   0.832  16.307 -0.0179  0.2645 -0.7804
  212MPD1    C3 3221   4.624   0.727  16.313 -0.6384  0.1449  0.2032
  212MPD1    C4 3222   4.585   0.668  16.192  0.3534 -0.7125 -0.4245
  212MPD1    C5 3223   4.627   0.725  16.073 -0.4730  0.2814  0.4079
  212MPD1     H 3224   0.024   0.872  16.399 -2.8650  0.3241  0.5121
  212MPD1    H1 3225   4.528   0.575  16.194 -2.1765  0.8123 -1.7337
  212MPD1    H2 3226   0.013   0.881  15.980  1.3509 -0.3122  0.2099
  212MPD1    H3 3227   4.577   0.693  15.982 -0.9614  2.9470 -0.2526
  212MPD1     N 3228   4.573   0.667  16.431  0.0755 -0.3626  0.1803
  212MPD1    H5 3229   4.510   0.591  16.410  0.3097 -0.2595 -0.9237
  212MPD1    N1 3230   0.128   0.987  16.176 -1.0369  0.2249  0.9054
  212MPD1    H6 3231   0.185   1.004  16.259  1.0136  0.3973 -0.5262
  212MPD1    H7 3232   0.170   1.002  16.085  0.1149 -1.5076  1.1540
  213MPD1     C 3233   3.392   1.599  15.899  0.0194 -0.6040 -1.0297
  213MPD1    C1 3234   3.314   1.513  15.977  1.0647 -0.1481  0.0111
  213MPD1    C2 3235   3.181   1.532  15.969 -0.5385 -0.6793 -0.2094
  213MPD1    C3 3236   3.114   1.600  15.874 -0.7077 -0.7748  0.1831
  213MPD1    C4 3237   3.189   1.667  15.777 -0.1477  0.2906 -0.4416
  213MPD1    C5 3238   3.326   1.658  15.795 -0.6857  0.4276 -0.7753
  213MPD1     H 3239   3.121   1.483  16.045 -0.1514  0.7839  1.0345
  213MPD1    H1 3240   3.150   1.714  15.687 -1.2411  1.7544  0.7871
  213MPD1    H2 3241   3.499   1.582  15.892  0.4026  1.8227 -1.1976
  213MPD1    H3 3242   3.385   1.706  15.718 -2.5135  0.2391 -2.3257
  213MPD1     N 3243   2.968   1.597  15.864 -0.5561  0.3743  0.4507
  213MPD1    H5 3244   2.909   1.540  15.924  0.7065 -0.3743  0.9659
  213MPD1    N1 3245   3.352   1.475  16.100 -0.0012  1.3132 -0.4756
  213MPD1    H6 3246   3.301   1.391  16.126  1.1473  0.9941  0.7577
  213MPD1    H7 3247   3.453   1.457  16.102  0.1761  2.1736 -1.5792
  214MPD1     C 3248   2.431   1.015  16.054 -0.1556  0.3112 -0.4427
  214MPD1    C1 3249   2.397   1.041  15.919  0.8016  0.1835 -0.0378
  214MPD1    C2 3250   2.453   1.154  15.865  0.6269 -0.4375  0.3904
  214MPD1    C3 3251   2.534   1.238  15.938 -0.2735 -0.8967 -0.1517
  214MPD1    C4 3252   2.570   1.214  16.067  0.0834  0.4396  0.4205
  214MPD1    C5 3253   2.519   1.093  16.123  0.2806 -0.0935  0.2090
  214MPD1     H 3254   2.433   1.172  15.760 -1.2867 -0.7307  0.7105
  214MPD1    H1 3255   2.626   1.287  16.125  2.5211 -0.5481 -0.6896
  214MPD1    H2 3256   2.384   0.935  16.111  1.4967  0.2014  0.7519
  214MPD1    H3 3257   2.539   1.068  16.226  2.0176  2.6694  0.5267
  214MPD1     N 3258   2.571   1.360  15.874  0.6515 -0.6071  0.5306
  214MPD1    H5 3259   2.650   1.408  15.915  0.3198 -1.4717  2.2082
  214MPD1    N1 3260   2.291   0.971  15.861 -0.3477 -0.3732 -0.4035
  214MPD1    H6 3261   2.270   0.881  15.904 -0.0127 -0.3746 -0.2397
  214MPD1    H7 3262   2.283   0.956  15.761  0.2744  2.4366 -0.8659
  215MPD1     C 3263   1.877   2.406  11.429  0.2576 -0.2175  0.0618
  215MPD1    C1 3264   1.858   2.506  11.527  0.2545  0.0528  0.0175
  215MPD1    C2 3265   1.947   2.617  11.536  0.0171 -0.0515 -0.0194
  215MPD1    C3 3266   2.059   2.626  11.453 -0.4899  0.3679  0.4712
  215MPD1    C4 3267   2.084   2.525  11.366  0.2518  0.1868  0.0331
  215MPD1    C5 3268   1.993   2.422  11.351 -0.8076  0.9798  0.2562
  215MPD1     H 3269   1.927   2.695  11.608 -1.8915 -1.6936  1.2175
  215MPD1    H1 3270   2.168   2.533  11.297  1.1540  0.2184  1.1351
  215MPD1    H2 3271   1.802   2.330  11.410 -0.2477  0.6532 -1.3166
  215MPD1    H3 3272   2.005   2.347  11.273 -0.3886 -0.4951  1.7381
  215MPD1     N 3273   2.145   2.738  11.468  0.4153 -1.2434 -0.2163
  215MPD1    H5 3274   2.129   2.802  11.545  1.2790 -1.8312  0.4524
  215MPD1    N1 3275   1.753   2.489  11.618 -0.1636 -0.2033 -0.9189
  215MPD1    H6 3276   1.717   2.581  11.642 -0.1772  0.1305 -2.2451
  215MPD1    H7 3277   1.681   2.434  11.571  0.7142 -1.9859 -0.1702
  216MPD1     C 3278   4.524   4.290  16.071 -0.1138  0.4810 -0.2134
  216MPD1    C1 3279   4.462   4.212  16.163 -0.2465 -0.1990  0.0440
  216MPD1    C2 3280   4.497   4.228  16.299  0.6271  0.3265  0.1108
  216MPD1    C3 3281   4.613   4.285  16.339  0.4398 -0.0223 -0.5456
  216MPD1    C4 3282   4.684   4.359  16.243 -0.0454  0.7102 -0.2646
  216MPD1    C5 3283   4.641   4.359  16.115 -0.2877 -0.2232  1.2676
  216MPD1     H 3284   4.448   4.171  16.377 -0.0668  1.9033  0.8337
  216MPD1    H1 3285   0.047   4.417  16.265  0.4594 -0.0026 -0.4359
  216MPD1    H2 3286   4.497   4.284  15.966  1.2536  1.5456 -0.6175
  216MPD1    H3 3287   4.685   4.428  16.045  0.5396 -1.7327  0.3111
  216MPD1     N 3288   4.653   4.275  16.475  0.2374  0.2450  0.5150
  216MPD1    H5 3289   4.595   4.219  16.538 -0.6628  0.0415 -0.5039
  216MPD1    N1 3290   4.342   4.147  16.128  0.1551  0.2702 -0.0419
  216MPD1    H6 3291   4.340   4.116  16.031 -1.3596 -2.5470  0.8816
  216MPD1    H7 3292   4.332   4.070  16.194  3.0165  0.1244  0.2302
  217MPD1     C 3293   1.146   1.717   8.831  0.6358  0.5199 -0.5667
  217MPD1    C1 3294   1.091   1.803   8.923  0.0517  0.1984  0.2791
  217MPD1    C2 3295   1.030   1.754   9.035  0.4486  0.3435 -0.0503
  217MPD1    C3 3296   1.036   1.616   9.065  0.2447  0.1536  0.3707
  217MPD1    C4 3297   1.092   1.532   8.975  0.4756  0.1634  0.6850
  217MPD1    C5 3298   1.145   1.584   8.858  0.4420  0.2538  0.1662
  217MPD1     H 3299   0.987   1.820   9.109  0.1127  1.2507 -1.0460
  217MPD1    H1 3300   1.095   1.425   8.991 -1.8264 -0.0529 -0.4531
  217MPD1    H2 3301   1.164   1.751   8.729 -0.0032  2.3896 -0.0559
  217MPD1    H3 3302   1.201   1.519   8.792 -1.7445 -2.2723  0.8035
  217MPD1     N 3303   0.993   1.570   9.193  1.0404 -0.5930 -0.3309
  217MPD1    H5 3304   1.022   1.475   9.216  0.9411 -0.9075 -1.4962
  217MPD1    N1 3305   1.053   1.928   8.884 -0.2787  0.3583 -0.4153
  217MPD1    H6 3306   1.122   1.959   8.815  0.8891 -1.0111  0.1446
  217MPD1    H7 3307   1.059   1.995   8.960 -1.1875 -0.0092 -0.0291
  218MPD1     C 3308   1.776   2.422  13.166 -0.0825 -0.3225 -0.4480
  218MPD1    C1 3309   1.823   2.549  13.153 -0.0874  0.1331 -0.5892
  218MPD1    C2 3310   1.944   2.566  13.095 -1.0978  0.1993  0.1318
  218MPD1    C3 3311   2.027   2.466  13.054  0.0457 -1.0514  1.2211
  218MPD1    C4 3312   1.973   2.337  13.065  0.2764  0.4911 -0.2500
  218MPD1    C5 3313   1.847   2.311  13.124 -0.1134 -0.0782 -0.2074
  218MPD1     H 3314   1.973   2.670  13.084 -0.0683  0.2084  2.9358
  218MPD1    H1 3315   2.022   2.245  13.036 -1.7815  0.1797 -2.6706
  218MPD1    H2 3316   1.676   2.410  13.208  0.4339  1.7792  1.3478
  218MPD1    H3 3317   1.824   2.206  13.139 -3.5950  0.4447 -1.9353
  218MPD1     N 3318   2.160   2.500  13.011  0.0268 -0.6452  0.0492
  218MPD1    H5 3319   2.186   2.596  12.991 -1.1928 -0.3632 -0.1916
  218MPD1    N1 3320   1.739   2.660  13.174  0.5353  0.2680 -0.2543
  218MPD1    H6 3321   1.677   2.643  13.253  3.8853 -2.3879  1.8027
  218MPD1    H7 3322   1.789   2.745  13.196 -1.1280  1.1511  0.1022
  219MPD1     C 3323   2.475   2.957  12.357  0.2907 -0.5808 -0.6227
  219MPD1    C1 3324   2.581   2.963  12.451 -0.1476 -0.0927 -0.1298
  219MPD1    C2 3325   2.574   2.878  12.558 -0.3338  0.1869  0.0633
  219MPD1    C3 3326   2.468   2.800  12.589  0.1319  0.6452  0.1804
  219MPD1    C4 3327   2.365   2.788  12.493  0.4220 -0.2785  0.0921
  219MPD1    C5 3328   2.370   2.876  12.385 -0.3213 -0.0753  0.6673
  219MPD1     H 3329   2.659   2.884  12.624  0.4439 -0.0298 -0.9118
  219MPD1    H1 3330   2.284   2.720  12.514  0.3074 -0.4224 -0.8513
  219MPD1    H2 3331   2.472   3.022  12.270 -3.0454  1.8535  1.2802
  219MPD1    H3 3332   2.295   2.872  12.307  0.7517  0.7575 -0.4003
  219MPD1     N 3333   2.461   2.726  12.709  0.0023 -0.1721  0.0037
  219MPD1    H5 3334   2.382   2.667  12.731 -0.7595  0.1495 -1.9200
  219MPD1    N1 3335   2.691   3.045  12.422 -0.4999 -0.0117  0.0467
  219MPD1    H6 3336   2.726   3.081  12.510  0.9749 -2.9075  0.6559
  219MPD1    H7 3337   2.665   3.129  12.371 -3.1610 -1.3451 -0.8071
  220MPD1     C 3338   2.822   3.571   9.783  0.3573  0.8054  1.0349
  220MPD1    C1 3339   2.813   3.626   9.910  0.5113  0.5165 -0.6030
  220MPD1    C2 3340   2.728   3.570  10.004  0.2673  0.3962 -0.5154
  220MPD1    C3 3341   2.664   3.452   9.974  0.3452  0.0621 -0.6273
  220MPD1    C4 3342   2.673   3.391   9.842  0.4587 -0.9759  0.5013
  220MPD1    C5 3343   2.742   3.467   9.747  0.1528 -0.6588  0.8568
  220MPD1     H 3344   2.707   3.624  10.096  0.4666  0.3669 -0.4537
  220MPD1    H1 3345   2.613   3.305   9.815  0.1053 -1.0496  1.5249
  220MPD1    H2 3346   2.883   3.611   9.703 -0.3959  0.0246  0.0685
  220MPD1    H3 3347   2.746   3.428   9.646 -0.1867 -0.6491  0.8385
  220MPD1     N 3348   2.589   3.404  10.084  0.5334  0.5899 -0.1325
  220MPD1    H5 3349   2.607   3.449  10.173 -0.7604 -1.6857  1.2868
  220MPD1    N1 3350   2.871   3.750   9.939  0.0100  0.8002 -0.1358
  220MPD1    H6 3351   2.956   3.763   9.883  2.1724  1.7483  3.3438
  220MPD1    H7 3352   2.902   3.761  10.036  0.3371 -2.6031  0.1360
  221MPD1     C 3353   1.398   1.699  17.205 -0.1379 -0.1688 -0.1027
  221MPD1    C1 3354   1.318   1.616  17.131 -0.2307  0.2595  0.1176
  221MPD1    C2 3355   1.271   1.660  17.011  0.6861  1.0646  0.4856
  221MPD1    C3 3356   1.328   1.775  16.956  0.0317 -0.4762 -0.6694
  221MPD1    C4 3357   1.426   1.843  17.024  0.0585  0.1212 -0.5728
  221MPD1    C5 3358   1.454   1.816  17.155 -0.2422  0.2895  0.7277
  221MPD1     H 3359   1.188   1.609  16.963  1.4108  1.3433 -1.0593
  221MPD1    H1 3360   1.456   1.939  16.984  3.8240 -0.3959  1.0572
  221MPD1    H2 3361   1.418   1.677  17.310 -0.6678 -0.4001 -0.0541
  221MPD1    H3 3362   1.529   1.872  17.209 -0.3021  1.0276  0.0505
  221MPD1     N 3363   1.310   1.822  16.822  0.3382  0.6754 -0.2240
  221MPD1    H5 3364   1.369   1.896  16.786  1.0063  0.4346  0.3846
  221MPD1    N1 3365   1.253   1.512  17.201 -0.8668  0.5200  0.1227
  221MPD1    H6 3366   1.325   1.489  17.269 -1.6460 -0.9364  0.4482
  221MPD1    H7 3367   1.234   1.441  17.130  3.5539  0.3599 -0.9258
  222MPD1     C 3368   4.533   0.344   0.998  0.4018 -0.0490  0.6411
  222MPD1    C1 3369   4.433   0.408   0.918  0.7797 -0.5577 -0.4052
  222MPD1    C2 3370   4.474   0.506   0.835  0.0505 -0.0245 -0.1658
  222MPD1    C3 3371   4.609   0.526   0.805 -0.7099 -0.0156  0.4373
  222MPD1    C4 3372   4.702   0.463   0.883  0.2856 -0.5801  0.9359
  222MPD1    C5 3373   4.666   0.375   0.980  0.0996  0.4543  0.1393
  222MPD1     H 3374   4.404   0.570   0.782 -0.1823 -0.1638 -0.0307
  222MPD1    H1 3375   0.079   0.479   0.854 -0.6324  1.2874 -1.2945
  222MPD1    H2 3376   4.505   0.276   1.078 -0.3800  0.9970  1.2439
  222MPD1    H3 3377   0.020   0.336   1.042  0.3890 -0.7754 -1.0083
  222MPD1     N 3378   4.656   0.605   0.699  0.5894 -0.2739 -0.3585
  222MPD1    H5 3379   0.029   0.599   0.681  0.9678  0.5649  1.4265
  222MPD1    N1 3380   4.298   0.382   0.952  0.2489 -0.4594  0.4953
  222MPD1    H6 3381   4.240   0.389   0.868 -1.1143 -1.4847  1.3414
  222MPD1    H7 3382   4.277   0.287   0.984  0.3940  0.1983  2.5277
  223MPD1     C 3383   0.799   0.874   0.431  0.3318  0.1738 -0.2867
  223MPD1    C1 3384   0.730   0.903   0.317  0.2768 -0.4671  0.3459
  223MPD1    C2 3385   0.602   0.864   0.306  0.4018 -0.5419 -0.2758
  223MPD1    C3 3386   0.530   0.805   0.409 -0.8721 -0.4996 -0.6506
  223MPD1    C4 3387   0.591   0.796   0.529 -0.6261 -0.7433  0.1393
  223MPD1    C5 3388   0.725   0.824   0.533  0.5008  0.3789 -0.1748
  223MPD1     H 3389   0.541   0.886   0.219  0.3168 -1.8385 -0.5492
  223MPD1    H1 3390   0.544   0.771   0.623 -0.5583  0.1874  0.4201
  223MPD1    H2 3391   0.906   0.891   0.442  0.0745  0.7645  1.2994
  223MPD1    H3 3392   0.775   0.817   0.628 -0.6784 -1.0938  0.3390
  223MPD1     N 3393   0.388   0.791   0.383  0.7399  0.0391 -0.3240
  223MPD1    H5 3394   0.357   0.811   0.288 -0.3128  0.0601  0.0356
  223MPD1    N1 3395   0.804   0.936   0.210  0.3366 -0.0706  0.3860
  223MPD1    H6 3396   0.887   0.988   0.235  1.0001 -0.5529 -0.7855
  223MPD1    H7 3397   0.751   1.011   0.166  0.2384  0.0197  0.6605
  224MPD1     C 3398   1.444   1.889   8.975 -0.5388  0.2559 -0.5313
  224MPD1    C1 3399   1.449   1.764   9.037 -0.4532 -0.2840  0.1897
  224MPD1    C2 3400   1.386   1.749   9.159 -0.2093 -0.2622 -0.3656
  224MPD1    C3 3401   1.307   1.847   9.214  0.3199  0.0399 -0.1499
  224MPD1    C4 3402   1.293   1.970   9.149  0.1529  0.3659  0.1841
  224MPD1    C5 3403   1.361   1.990   9.031  0.0316  0.3421 -0.1607
  224MPD1     H 3404   1.391   1.655   9.213  1.3959  0.2222  0.3055
  224MPD1    H1 3405   1.236   2.054   9.188  1.8090  1.5888 -0.0631
  224MPD1    H2 3406   1.502   1.911   8.886  1.2503  1.5740  0.9476
  224MPD1    H3 3407   1.367   2.086   8.982  0.7644  0.2764 -0.2018
  224MPD1     N 3408   1.237   1.848   9.339 -0.7051 -0.3023 -0.0670
  224MPD1    H5 3409   1.171   1.922   9.357 -1.5124 -1.5239  1.9386
  224MPD1    N1 3410   1.529   1.658   8.993 -0.4116  0.5239  0.7335
  224MPD1    H6 3411   1.571   1.658   8.901 -2.4597 -0.5119 -0.1862
  224MPD1    H7 3412   1.501   1.565   9.024  0.2694 -0.4309 -1.5497
  225MPD1     C 3413   1.949   3.750  13.256 -0.6189  0.3749  0.2898
  225MPD1    C1 3414   1.915   3.625  13.203  0.1473 -0.1888  0.0296
  225MPD1    C2 3415   1.947   3.597  13.067 -0.1698  0.3136  0.5542
  225MPD1    C3 3416   2.012   3.691  12.990 -0.1482 -0.0681  0.0586
  225MPD1    C4 3417   2.044   3.816  13.044 -0.0788 -0.8096 -0.4520
  225MPD1    C5 3418   2.013   3.841  13.176  0.1078 -0.1377 -0.0272
  225MPD1     H 3419   1.920   3.499  13.030  0.1968  1.3272 -2.3930
  225MPD1    H1 3420   2.088   3.895  12.984  0.2742 -0.9905 -0.4340
  225MPD1    H2 3421   1.896   3.773  13.348 -2.6216  0.5631 -0.9059
  225MPD1    H3 3422   2.029   3.944  13.206  3.4155 -0.1788 -1.6127
  225MPD1     N 3423   2.037   3.678  12.849  0.0343 -0.4881 -0.7210
  225MPD1    H5 3424   2.076   3.760  12.803  2.5773  0.9849  3.9885
  225MPD1    N1 3425   1.835   3.543  13.284  0.4112  0.0247 -0.2135
  225MPD1    H6 3426   1.830   3.442  13.275 -1.0568 -0.0671  1.6870
  225MPD1    H7 3427   1.842   3.551  13.386 -0.8846  1.4123 -0.2374
  226MPD1     C 3428   4.701   3.213  10.224  0.0918 -0.2854  0.3911
  226MPD1    C1 3429   0.057   3.249  10.324  0.1573  0.9714 -0.3268
  226MPD1    C2 3430   0.191   3.252  10.296 -0.6554  0.1805  0.2836
  226MPD1    C3 3431   0.243   3.209  10.174  0.3892  0.6313 -0.5655
  226MPD1    C4 3432   0.151   3.183  10.074 -0.4841  0.2309  0.4781
  226MPD1    C5 3433   0.017   3.184  10.096 -0.0792  0.1830  0.2246
  226MPD1     H 3434   0.263   3.298  10.363  1.9762 -2.1166 -0.9706
  226MPD1    H1 3435   0.184   3.161   9.973  0.0203 -0.9889  0.9071
  226MPD1    H2 3436   4.595   3.216  10.247 -0.0556 -1.5722 -0.1088
  226MPD1    H3 3437   4.679   3.137  10.022 -0.3504  0.3366  0.3610
  226MPD1     N 3438   0.381   3.215  10.156  0.0096  0.1073  0.0269
  226MPD1    H5 3439   0.431   3.261  10.231 -2.0572  1.8713  0.3453
  226MPD1    N1 3440   0.016   3.305  10.446 -0.7118 -0.2747 -0.4359
  226MPD1    H6 3441   4.654   3.266  10.479  0.1532 -0.3530  1.7923
  226MPD1    H7 3442   0.086   3.293  10.519  0.4039 -0.7066 -1.5712
  227MPD1     C 3443   1.158   3.878  10.197 -0.5610  0.2050  1.0896
  227MPD1    C1 3444   1.220   3.777  10.123  0.5795 -0.1950 -0.2986
  227MPD1    C2 3445   1.143   3.666  10.106  0.0016 -0.3358 -0.5301
  227MPD1    C3 3446   1.008   3.656  10.140 -0.0260 -0.1559 -0.2242
  227MPD1    C4 3447   0.950   3.759  10.218  0.0931  0.3844 -0.5210
  227MPD1    C5 3448   1.025   3.871  10.233  1.5392  0.3707 -0.0799
  227MPD1     H 3449   1.178   3.591  10.035  2.3118  2.0509 -1.9159
  227MPD1    H1 3450   0.853   3.750  10.267  1.2779 -0.8605  1.6183
  227MPD1    H2 3451   1.214   3.964  10.229  0.9979 -0.7578  0.9501
  227MPD1    H3 3452   0.979   3.958  10.280  2.8519  1.6450 -1.1521
  227MPD1     N 3453   0.941   3.537  10.107 -0.0635  0.3736 -0.4206
  227MPD1    H5 3454   0.997   3.468  10.058  1.5467  3.0862 -2.4457
  227MPD1    N1 3455   1.358   3.781  10.101  0.8753 -0.5890 -0.1551
  227MPD1    H6 3456   1.395   3.876  10.106  2.1204 -1.0351 -1.0137
  227MPD1    H7 3457   1.395   3.740  10.016  1.1046 -1.7751  0.5128
  228MPD1     C 3458   3.542   0.914  12.122 -0.5787 -0.2049  0.0688
  228MPD1    C1 3459   3.420   0.970  12.115 -0.1794  0.8813 -0.0829
  228MPD1    C2 3460   3.348   0.989  12.235 -0.1575  0.1580 -0.3795
  228MPD1    C3 3461   3.406   0.968  12.356  0.0368  0.2465  0.3857
  228MPD1    C4 3462   3.537   0.933  12.363 -0.3757  0.0141  0.3549
  228MPD1    C5 3463   3.598   0.895  12.247 -0.6856  0.5198  0.4184
  228MPD1     H 3464   3.243   1.016  12.226 -0.2935  0.4649  2.0543
  228MPD1    H1 3465   3.590   0.925  12.457 -0.0645  0.1759  0.1971
  228MPD1    H2 3466   3.606   0.897  12.036 -0.1405  0.9700  0.1611
  228MPD1    H3 3467   3.696   0.849  12.251 -1.5703 -1.2883  1.1572
  228MPD1     N 3468   3.329   0.999  12.476  0.0038 -0.0530 -0.0419
  228MPD1    H5 3469   3.229   1.007  12.459 -0.4861 -4.0617  0.9452
  228MPD1    N1 3470   3.351   0.992  11.991 -0.2967 -0.2867 -0.6558
  228MPD1    H6 3471   3.284   1.069  11.988 -0.2498 -0.1503  1.4097
  228MPD1    H7 3472   3.415   1.019  11.917  1.3044  2.1381  1.6565
  229MPD1     C 3473   4.347   4.707  14.286 -0.3066  0.4113 -0.4898
  229MPD1    C1 3474   4.275   0.027  14.392 -0.3817 -0.1753  0.6437
  229MPD1    C2 3475   4.155   4.694  14.431 -0.3959 -0.1920 -0.1674
  229MPD1    C3 3476   4.124   4.574  14.375  0.0528 -0.2788  0.2002
  229MPD1    C4 3477   4.206   4.518  14.277 -0.0934  0.2995 -0.0430
  229MPD1    C5 3478   4.317   4.583  14.236  0.0893 -0.4267 -0.2324
  229MPD1     H 3479   4.096   0.009  14.512  0.7083 -0.5411  0.8059
  229MPD1    H1 3480   4.184   4.427  14.221  0.3685 -0.6947  1.4117
  229MPD1    H2 3481   4.435   0.032  14.248 -1.0910  0.1279 -2.6688
  229MPD1    H3 3482   4.375   4.537  14.156 -0.3528 -0.9126 -0.2726
  229MPD1     N 3483   4.008   4.500  14.409 -0.7835 -0.1073 -0.2166
  229MPD1    H5 3484   3.998   4.413  14.357 -2.1388  0.1698 -0.4223
  229MPD1    N1 3485   4.305   0.150  14.444 -0.4513 -0.1662  1.1840
  229MPD1    H6 3486   4.270   0.168  14.538 -2.9724  0.0933  0.1867
  229MPD1    H7 3487   4.407   0.151  14.445 -0.4224 -3.8566  1.4268
  230MPD1     C 3488   3.235   4.694  15.023 -0.2952  0.0791  0.2383
  230MPD1    C1 3489   3.226   0.014  14.895 -0.3749  0.3548  0.0760
  230MPD1    C2 3490   3.315   4.684  14.809  0.4767 -0.4365 -0.1731
  230MPD1    C3 3491   3.406   4.588  14.849 -0.2218  0.0633  0.1643
  230MPD1    C4 3492   3.407   4.537  14.978 -0.0371  0.7118 -0.0596
  230MPD1    C5 3493   3.323   4.596  15.062  0.3258 -0.1730 -0.4446
  230MPD1     H 3494   3.318   4.725  14.708  0.6965  1.6292  0.6669
  230MPD1    H1 3495   3.485   4.470  15.015 -1.0388 -0.8217 -0.7382
  230MPD1    H2 3496   3.176   0.011  15.103 -1.2041  1.2300 -1.0529
  230MPD1    H3 3497   3.330   4.577  15.168 -0.6414  1.0688 -0.1590
  230MPD1     N 3498   3.478   4.531  14.748 -0.3089  0.0033  0.4522
  230MPD1    H5 3499   3.472   4.576  14.658 -0.9157 -0.4715  0.2601
  230MPD1    N1 3500   3.152   0.128  14.871 -0.2117  0.0184  0.1414
  230MPD1    H6 3501   3.067   0.145  14.923 -0.2757  1.4793 -0.4594
  230MPD1    H7 3502   3.114   0.130  14.777 -2.1753 -2.4821  0.8684
  231MPD1     C 3503   1.584   1.822  16.040  0.0118 -0.3811  1.0265
  231MPD1    C1 3504   1.628   1.949  16.048  0.0949  0.2028 -0.0995
  231MPD1    C2 3505   1.722   1.979  15.956  0.5156 -0.0133  0.9152
  231MPD1    C3 3506   1.756   1.896  15.852 -0.0924  0.1007 -0.6802
  231MPD1    C4 3507   1.702   1.770  15.845 -0.0174 -0.8797 -0.4111
  231MPD1    C5 3508   1.610   1.737  15.938 -0.0138 -0.3818 -0.1861
  231MPD1     H 3509   1.768   2.076  15.974 -0.7602  0.8808 -0.5790
  231MPD1    H1 3510   1.721   1.703  15.762  0.5354 -0.9045 -0.2620
  231MPD1    H2 3511   1.508   1.791  16.111 -1.3274 -1.4978 -0.8878
  231MPD1    H3 3512   1.574   1.635  15.945 -3.8183  0.9827  0.0398
  231MPD1     N 3513   1.846   1.941  15.751 -0.3682 -0.0337  1.0739
  231MPD1    H5 3514   1.862   1.885  15.668 -0.7219  0.1358  0.8916
  231MPD1    N1 3515   1.600   2.030  16.161 -0.3698  0.5204  0.4458
  231MPD1    H6 3516   1.606   2.130  16.143  1.9475  0.8289  3.0335
  231MPD1    H7 3517   1.516   2.010  16.216 -1.0113  1.1103 -0.3234
  232MPD1     C 3518   4.482   0.404   0.334 -0.7524  1.2770  0.5247
  232MPD1    C1 3519   4.361   0.394   0.396  0.3254 -0.4589  0.2024
  232MPD1    C2 3520   4.295   0.280   0.368 -0.3386 -0.3727  0.3091
  232MPD1    C3 3521   4.324   0.192   0.270  0.1684 -0.0706 -0.6824
  232MPD1    C4 3522   4.443   0.212   0.199 -0.1212  0.3938 -0.0042
  232MPD1    C5 3523   4.514   0.322   0.228 -0.5321  0.3489 -0.2778
  232MPD1     H 3524   4.208   0.259   0.428  0.5552  2.5086  2.5995
  232MPD1    H1 3525   4.486   0.140   0.132 -1.1254  1.5328 -1.8767
  232MPD1    H2 3526   4.542   0.493   0.349  0.1574  0.5786  1.0129
  232MPD1    H3 3527   4.608   0.327   0.174  0.1593  0.6753  0.9599
  232MPD1     N 3528   4.245   0.083   0.253  0.3930 -0.3730  0.6587
  232MPD1    H5 3529   4.161   0.078   0.310  1.2732  2.7438  2.2105
  232MPD1    N1 3530   4.305   0.498   0.471  0.7110 -0.1629 -0.1340
  232MPD1    H6 3531   4.233   0.461   0.532  0.7593 -2.3264 -1.3557
  232MPD1    H7 3532   4.375   0.554   0.518  1.0833 -0.7536  0.0145
  233MPD1     C 3533   0.561   3.942   2.039  0.3403 -0.7442  0.0212
  233MPD1    C1 3534   0.485   3.836   2.007 -0.1036  0.0291 -0.2591
  233MPD1    C2 3535   0.554   3.718   1.991 -0.6189 -0.2669  0.2043
  233MPD1    C3 3536   0.693   3.703   2.028 -0.5201 -0.0818  0.2171
  233MPD1    C4 3537   0.753   3.809   2.096  0.0269  0.7403  0.5043
  233MPD1    C5 3538   0.694   3.930   2.086 -0.5976 -0.2367 -0.9830
  233MPD1     H 3539   0.501   3.635   1.947 -1.0290 -0.9534  2.0477
  233MPD1    H1 3540   0.851   3.801   2.141  0.3010  1.3856  0.0214
  233MPD1    H2 3541   0.520   4.042   2.050 -1.2603 -1.4642  0.6944
  233MPD1    H3 3542   0.742   4.019   2.124  0.0036  0.5436 -3.5727
  233MPD1     N 3543   0.769   3.587   2.023  0.4484  0.1699 -0.2462
  233MPD1    H5 3544   0.857   3.581   2.073  0.5662 -1.5648 -0.6744
  233MPD1    N1 3545   0.360   3.855   1.953  0.2098 -0.1653  0.0660
  233MPD1    H6 3546   0.301   3.772   1.946 -1.1130  0.9243 -1.8750
  233MPD1    H7 3547   0.306   3.930   1.995  1.0437  0.6351 -0.2862
  234MPD1     C 3548   0.984   0.363  10.029  0.0021 -0.1688  0.1965
  234MPD1    C1 3549   0.967   0.467   9.937  0.0482  0.5097 -0.4522
  234MPD1    C2 3550   1.043   0.582   9.958 -0.8540  0.2325  0.2600
  234MPD1    C3 3551   1.143   0.581  10.058  0.7687 -0.4011  0.0191
  234MPD1    C4 3552   1.161   0.478  10.140 -0.6328 -0.1204 -0.1859
  234MPD1    C5 3553   1.078   0.371  10.124  1.0782  0.1071 -0.0997
  234MPD1     H 3554   1.028   0.669   9.895  0.4805  0.2458 -0.0411
  234MPD1    H1 3555   1.228   0.475  10.225 -0.8095  0.0163 -0.0431
  234MPD1    H2 3556   0.921   0.276  10.020  0.8637 -1.0655  2.8822
  234MPD1    H3 3557   1.089   0.288  10.193  0.9261  0.1980  0.0361
  234MPD1     N 3558   1.212   0.700  10.084 -0.5551  0.1287  0.5572
  234MPD1    H5 3559   1.208   0.762  10.004  0.7001 -0.2356  0.2035
  234MPD1    N1 3560   0.891   0.455   9.823  0.1220  0.4200 -0.5405
  234MPD1    H6 3561   0.823   0.532   9.818  0.1018  0.4301 -0.0829
  234MPD1    H7 3562   0.832   0.372   9.824  0.8257 -0.0561  0.9311
  235MPD1     C 3563   3.105   0.462   8.622 -0.3223  0.0009  0.1453
  235MPD1    C1 3564   3.225   0.439   8.680  0.2942 -0.2830 -0.8726
  235MPD1    C2 3565   3.239   0.340   8.770 -0.6095 -0.0763  0.7923
  235MPD1    C3 3566   3.136   0.244   8.792  0.3761  0.1512  0.0491
  235MPD1    C4 3567   3.016   0.257   8.721 -0.1818 -0.1773  0.7771
  235MPD1    C5 3568   3.000   0.373   8.641  0.6898  0.3642 -0.3553
  235MPD1     H 3569   3.332   0.330   8.825 -1.0629  1.1627  1.7709
  235MPD1    H1 3570   2.938   0.182   8.709 -0.7990  0.1604  2.6038
  235MPD1    H2 3571   3.084   0.552   8.565  1.9122  1.2558  1.3354
  235MPD1    H3 3572   2.910   0.388   8.581  0.4071  0.9596  0.2154
  235MPD1     N 3573   3.163   0.128   8.869  0.2347  0.1714  0.1792
  235MPD1    H5 3574   3.245   0.127   8.929 -0.5031  1.1597  1.2104
  235MPD1    N1 3575   3.328   0.536   8.663  0.9814  0.2310  0.0517
  235MPD1    H6 3576   3.421   0.507   8.693  1.9246  2.1205 -1.0036
  235MPD1    H7 3577   3.341   0.581   8.573 -0.8373  0.9816  0.1643
  236MPD1     C 3578   2.021   0.070  10.401  0.1197 -0.6538 -0.0836
  236MPD1    C1 3579   2.119   0.145  10.339  0.3768  0.1769  0.8977
  236MPD1    C2 3580   2.245   0.114  10.358  0.0666 -0.1832 -0.4480
  236MPD1    C3 3581   2.281   0.007  10.435  0.0655 -0.0108  0.7673
  236MPD1    C4 3582   2.183   4.662  10.504  0.2322 -0.3460 -0.6061
  236MPD1    C5 3583   2.050   4.698  10.489  0.2186 -0.6031 -0.0684
  236MPD1     H 3584   2.320   0.176  10.309  0.6304  0.2536  0.9368
  236MPD1    H1 3585   2.212   4.589  10.579  0.2641  0.9671  0.6644
  236MPD1    H2 3586   1.921   0.111  10.415  0.2309  0.1065 -1.5301
  236MPD1    H3 3587   1.972   4.656  10.551 -0.4253 -0.4598 -0.7872
  236MPD1     N 3588   2.409   4.682  10.466 -0.4476 -0.2954  0.5758
  236MPD1    H5 3589   2.418   4.591  10.511 -0.6983 -0.6133 -0.0145
  236MPD1    N1 3590   2.082   0.262  10.264  0.1337 -0.3513 -0.2635
  236MPD1    H6 3591   2.144   0.289  10.188  2.2503 -2.2686  0.7885
  236MPD1    H7 3592   1.989   0.263  10.223 -0.5264  1.4225  1.3013
  237MPD1     C 3593   2.321   3.935  15.272 -1.4560 -0.8405 -0.0300
  237MPD1    C1 3594   2.263   3.907  15.400  0.1337  0.5269  0.0765
  237MPD1    C2 3595   2.179   3.799  15.408 -1.1844  0.5178  0.2962
  237MPD1    C3 3596   2.132   3.735  15.292  0.0100 -0.6295 -0.4382
  237MPD1    C4 3597   2.179   3.777  15.166  0.3334  0.2171  0.1521
  237MPD1    C5 3598   2.272   3.876  15.160 -0.0833 -0.1451  0.6519
  237MPD1     H 3599   2.140   3.767  15.504 -2.4122 -0.1437 -0.4162
  237MPD1    H1 3600   2.151   3.724  15.076  0.9582  2.2753 -1.2492
  237MPD1    H2 3601   2.392   4.016  15.263  1.2025 -3.2150 -0.0957
  237MPD1    H3 3602   2.311   3.901  15.062 -0.6186 -0.2899  0.4001
  237MPD1     N 3603   2.044   3.628  15.293 -0.0818  0.5361  0.3540
  237MPD1    H5 3604   2.030   3.594  15.198  0.8750  0.6981  0.1564
  237MPD1    N1 3605   2.303   3.976  15.519  0.6946  0.4354 -0.6323
  237MPD1    H6 3606   2.356   4.060  15.495  0.4684  1.3244  1.9836
  237MPD1    H7 3607   2.223   4.003  15.576  0.6310  2.0679 -1.4957
  238MPD1     C 3608   4.022   1.070  15.908 -0.1994 -0.3295  0.2857
  238MPD1    C1 3609   3.902   1.077  15.970 -0.0414  0.0572 -0.4953
  238MPD1    C2 3610   3.797   1.148  15.908  0.6713  0.4370  0.0444
  238MPD1    C3 3611   3.803   1.176  15.771  0.1799 -1.2815  0.3836
  238MPD1    C4 3612   3.932   1.168  15.709  0.5539  0.0793  1.2722
  238MPD1    C5 3613   4.034   1.113  15.782  0.5326 -0.0483 -0.9229
  238MPD1     H 3614   3.699   1.147  15.956  0.5122  1.6513 -0.2599
  238MPD1    H1 3615   3.946   1.203  15.607 -0.8082  1.6549  1.6156
  238MPD1    H2 3616   4.112   1.040  15.961 -0.5275 -1.6466  0.1047
  238MPD1    H3 3617   4.132   1.114  15.737  0.6274  1.0441 -0.6826
  238MPD1     N 3618   3.701   1.214  15.682  0.1508 -0.3080 -0.0999
  238MPD1    H5 3619   3.731   1.231  15.587 -1.9063  0.8936 -0.5391
  238MPD1    N1 3620   3.897   1.049  16.114  0.0297  0.4813 -0.2499
  238MPD1    H6 3621   3.960   0.974  16.144  0.8386  1.2102 -0.1116
  238MPD1    H7 3622   3.806   1.021  16.150  0.2635 -1.7194 -1.3618
  239MPD1     C 3623   4.296   2.592  15.174  0.0825  0.0130  0.3073
  239MPD1    C1 3624   4.161   2.599  15.183  0.3255 -0.4855 -0.4536
  239MPD1    C2 3625   4.094   2.622  15.064 -0.7674 -0.7893 -0.7863
  239MPD1    C3 3626   4.159   2.662  14.947  0.2571  0.3964 -0.5821
  239MPD1    C4 3627   4.293   2.667  14.949  0.1676 -0.3158  0.8965
  239MPD1    C5 3628   4.355   2.629  15.061  0.1235 -0.4553  0.5064
  239MPD1     H 3629   3.986   2.617  15.064 -0.8214  0.4168  1.1887
  239MPD1    H1 3630   4.348   2.702  14.862  1.4558 -0.2826  1.7257
  239MPD1    H2 3631   4.364   2.555  15.249  1.2673  1.7022  0.0616
  239MPD1    H3 3632   4.464   2.626  15.059  0.0664 -0.6662 -2.4833
  239MPD1     N 3633   4.093   2.705  14.828  0.7158  0.8895  0.3895
  239MPD1    H5 3634   4.147   2.741  14.750  2.8222 -0.6634  1.1222
  239MPD1    N1 3635   4.092   2.548  15.298  0.5954 -0.4638  0.0513
  239MPD1    H6 3636   4.145   2.554  15.385 -0.9825  0.6163  0.9388
  239MPD1    H7 3637   4.002   2.596  15.307  1.2224  1.1428 -2.3064
  240MPD1     C 3638   3.606   2.166  14.434 -0.2587  0.7356 -0.4700
  240MPD1    C1 3639   3.481   2.198  14.484  0.0108  0.4220  0.1527
  240MPD1    C2 3640   3.444   2.133  14.600  0.6145  0.5644  0.7138
  240MPD1    C3 3641   3.532   2.062  14.682 -0.0167  0.6111  0.0357
  240MPD1    C4 3642   3.655   2.041  14.637 -0.3471  0.7096 -0.1665
  240MPD1    C5 3643   3.689   2.089  14.514 -0.0572  0.5195 -0.1750
  240MPD1     H 3644   3.342   2.151  14.634  0.4380  2.5594 -0.9221
  240MPD1    H1 3645   3.734   1.988  14.688 -1.0671  0.0024  0.2244
  240MPD1    H2 3646   3.625   2.188  14.329 -1.0645  1.9637 -0.3522
  240MPD1    H3 3647   3.782   2.045  14.480 -0.6288 -0.3420 -0.6038
  240MPD1     N 3648   3.491   2.009  14.801  0.0214 -0.7766 -0.2272
  240MPD1    H5 3649   3.391   2.014  14.819  0.3437 -1.6999  1.7424
  240MPD1    N1 3650   3.389   2.268  14.414 -0.5310  0.2970 -0.4748
  240MPD1    H6 3651   3.445   2.340  14.371  2.3471 -1.3897  0.4198
  240MPD1    H7 3652   3.306   2.301  14.463 -0.5716  0.5131 -0.6944
  241MPD1     C 3653   3.930   1.525  15.641  0.4191  0.6337  0.5156
  241MPD1    C1 3654   3.811   1.575  15.666 -1.1863 -0.1783  0.0474
  241MPD1    C2 3655   3.730   1.628  15.569 -0.1247  0.0839 -0.6806
  241MPD1    C3 3656   3.779   1.629  15.438 -0.3853  0.9619 -0.5550
  241MPD1    C4 3657   3.901   1.580  15.405 -0.0767 -0.5263 -0.3213
  241MPD1    C5 3658   3.976   1.533  15.510  0.6421  0.0273 -1.0119
  241MPD1     H 3659   3.633   1.664  15.599  0.1030 -0.3996  0.6505
  241MPD1    H1 3660   3.941   1.567  15.305 -1.2233  0.0843 -0.8654
  241MPD1    H2 3661   3.987   1.481  15.722 -0.8878 -0.3130  0.9055
  241MPD1    H3 3662   4.081   1.510  15.491  0.4259 -0.1259 -2.0588
  241MPD1     N 3663   3.707   1.674  15.325  0.4131 -0.1638  0.5739
  241MPD1    H5 3664   3.755   1.667  15.236 -1.1291 -3.3990 -0.0007
  241MPD1    N1 3665   3.766   1.593  15.794  0.2873 -0.2079 -0.4224
  241MPD1    H6 3666   3.818   1.547  15.869 -3.0260 -3.1656  0.0866
  241MPD1    H7 3667   3.670   1.560  15.795 -0.1330  0.9648 -1.8217
  242MPD1     C 3668   2.709   0.478  16.357  0.7458 -0.3416  0.4212
  242MPD1    C1 3669   2.601   0.431  16.279  0.5282 -0.3199  0.2453
  242MPD1    C2 3670   2.626   0.429  16.143  0.1977 -0.0935 -0.0585
  242MPD1    C3 3671   2.751   0.433  16.087 -1.0655 -0.2379  0.3361
  242MPD1    C4 3672   2.860   0.451  16.171  0.3174 -0.3360  0.0318
  242MPD1    C5 3673   2.837   0.485  16.301  0.7115 -0.1582  0.6739
  242MPD1     H 3674   2.539   0.437  16.080  0.5928 -0.1049 -0.6067
  242MPD1    H1 3675   2.959   0.465  16.130  0.0976  1.6556  0.1735
  242MPD1    H2 3676   2.715   0.487  16.465 -0.9200  2.2924  0.2731
  242MPD1    H3 3677   2.921   0.511  16.364 -0.4138 -1.8921  2.8831
  242MPD1     N 3678   2.784   0.429  15.949 -0.2381  0.3921 -0.0596
  242MPD1    H5 3679   2.883   0.420  15.927  0.6114  0.6876  3.6254
  242MPD1    N1 3680   2.471   0.445  16.336 -0.6059  0.2863 -0.6924
  242MPD1    H6 3681   2.413   0.381  16.283  1.1435  0.6454 -3.0697
  242MPD1    H7 3682   2.478   0.403  16.428 -2.9715 -1.4548 -1.3162
  243MPD1     C 3683   4.565   3.284   0.039  0.1315  0.3980 -0.0904
  243MPD1    C1 3684   4.603   3.152   0.039  0.0096  0.3029 -0.3228
  243MPD1    C2 3685   4.622   3.095  17.621 -0.7283 -0.2162 -0.7745
  243MPD1    C3 3686   4.598   3.161  17.502  0.3133  1.5041 -0.0292
  243MPD1    C4 3687   4.542   3.285  17.514 -0.0717 -0.2551  0.3369
  243MPD1    C5 3688   4.531   3.350  17.632 -0.7130 -0.4219  0.4122
  243MPD1     H 3689   4.667   2.997  17.612 -1.5332 -0.6324 -0.2113
  243MPD1    H1 3690   4.505   3.338  17.427  1.7223  0.5052  0.0288
  243MPD1    H2 3691   4.550   3.342   0.129 -1.1205  0.8265 -0.5721
  243MPD1    H3 3692   4.509   3.456  17.634  0.8105 -0.0505 -2.4344
  243MPD1     N 3693   4.612   3.094  17.379 -0.0735 -0.9043  0.1231
  243MPD1    H5 3694   4.649   3.001  17.399  0.9545 -0.5433 -0.1045
  243MPD1    N1 3695   4.635   3.079   0.157 -0.1959 -0.3460 -0.4454
  243MPD1    H6 3696   4.555   3.102   0.216 -1.0824 -1.4042 -1.2108
  243MPD1    H7 3697   4.631   2.981   0.129  0.6989 -0.0967 -1.4463
  244MPD1     C 3698   0.554   2.608  17.299 -0.4035 -0.3133  0.5365
  244MPD1    C1 3699   0.436   2.594  17.366 -0.0923 -0.4611  0.1061
  244MPD1    C2 3700   0.324   2.668  17.325  0.0389  0.3827  0.2423
  244MPD1    C3 3701   0.335   2.767  17.233 -0.0284 -0.4955  0.5428
  244MPD1    C4 3702   0.459   2.788  17.180  0.7039  0.7643  0.2023
  244MPD1    C5 3703   0.571   2.718  17.215  0.1126 -0.2446 -0.0696
  244MPD1     H 3704   0.228   2.644  17.369  0.2910  0.3667  0.7892
  244MPD1    H1 3705   0.479   2.864  17.105  0.6747  0.4362 -0.1373
  244MPD1    H2 3706   0.637   2.541  17.313  0.4717  0.9758  1.5733
  244MPD1    H3 3707   0.663   2.741  17.163 -0.7869  0.6905 -1.2379
  244MPD1     N 3708   0.225   2.844  17.192 -0.0219  0.3065  0.6148
  244MPD1    H5 3709   0.143   2.842  17.251 -1.0613 -0.2705 -0.8641
  244MPD1    N1 3710   0.416   2.485  17.444 -0.4538 -0.5213 -0.5834
  244MPD1    H6 3711   0.505   2.461  17.488  0.9424  3.3471 -1.2587
  244MPD1    H7 3712   0.349   2.501  17.519  2.8538  3.1634  1.6113
  245MPD1     C 3713   1.478   4.635  13.175  0.0906  0.5969  0.2728
  245MPD1    C1 3714   1.592   4.549  13.186  0.2221 -0.6674 -0.3720
  245MPD1    C2 3715   1.719   4.609  13.191 -0.7954 -0.1204  0.1740
  245MPD1    C3 3716   1.732   0.021  13.182 -0.3948  0.0068  0.4071
  245MPD1    C4 3717   1.622   0.101  13.157 -0.2212  0.1078 -0.7473
  245MPD1    C5 3718   1.499   0.045  13.161  0.2017  0.2883  0.5991
  245MPD1     H 3719   1.803   4.545  13.218  0.6247  0.5313 -2.6661
  245MPD1    H1 3720   1.640   0.208  13.154 -1.4905  0.3339 -0.1848
  245MPD1    H2 3721   1.380   4.590  13.186  1.0171 -0.5592  3.6331
  245MPD1    H3 3722   1.415   0.113  13.167 -0.8890 -0.8114 -2.2395
  245MPD1     N 3723   1.860   0.079  13.207  0.0211 -0.4204  0.4557
  245MPD1    H5 3724   1.938   0.015  13.215  2.3593  2.5141  1.0799
  245MPD1    N1 3725   1.579   4.418  13.230 -0.3859 -0.3956  0.2436
  245MPD1    H6 3726   1.506   4.376  13.172  0.8196 -0.6247 -1.0813
  245MPD1    H7 3727   1.663   4.369  13.200 -0.4486 -0.6278  0.4465
  246MPD1     C 3728   2.809   1.642   9.603 -0.2761 -0.6692  0.0763
  246MPD1    C1 3729   2.724   1.637   9.492  0.3632  0.3189 -0.2424
  246MPD1    C2 3730   2.740   1.539   9.396 -0.3440  0.3139 -0.8284
  246MPD1    C3 3731   2.838   1.443   9.421  0.1149  0.0935 -0.4839
  246MPD1    C4 3732   2.911   1.446   9.537 -0.0904 -0.0717 -0.7921
  246MPD1    C5 3733   2.896   1.543   9.628 -0.4520 -0.1576  0.3046
  246MPD1     H 3734   2.692   1.539   9.298 -0.1660 -0.2080 -0.9184
  246MPD1    H1 3735   2.993   1.378   9.560 -2.1252 -1.4597  2.2006
  246MPD1    H2 3736   2.827   1.733   9.658  0.5494 -1.7427  1.5860
  246MPD1    H3 3737   2.969   1.559   9.707  1.9745  2.0419 -2.3533
  246MPD1     N 3738   2.878   1.351   9.320 -0.4289 -0.0291 -0.0385
  246MPD1    H5 3739   2.847   1.371   9.225  1.4853  0.3152 -0.5954
  246MPD1    N1 3740   2.657   1.755   9.454 -0.3413 -0.1078 -0.3239
  246MPD1    H6 3741   2.611   1.774   9.542  1.2084  0.9050  0.2735
  246MPD1    H7 3742   2.573   1.737   9.400 -1.0225 -1.1759  1.1009
  247MPD1     C 3743   1.447   0.917  16.295 -1.0410 -0.2595 -0.0926
  247MPD1    C1 3744   1.515   0.815  16.353 -0.1592 -0.3416  0.1786
  247MPD1    C2 3745   1.449   0.690  16.363  0.5594  1.1250  0.6317
  247MPD1    C3 3746   1.330   0.666  16.302 -0.0430  0.3339 -0.1178
  247MPD1    C4 3747   1.266   0.768  16.239  0.5894  0.0608  0.2293
  247MPD1    C5 3748   1.327   0.891  16.231 -0.5356  0.1136 -0.1625
  247MPD1     H 3749   1.481   0.607  16.425  0.3308  0.6226  0.0763
  247MPD1    H1 3750   1.175   0.757  16.181  1.0947  1.1163 -0.7608
  247MPD1    H2 3751   1.487   1.017  16.296 -1.4622 -0.0805 -2.9369
  247MPD1    H3 3752   1.276   0.972  16.181 -1.6980 -0.1352  0.6256
  247MPD1     N 3753   1.261   0.542  16.285 -0.8029  0.0480 -0.3618
  247MPD1    H5 3754   1.178   0.541  16.225 -0.1142 -0.2509 -1.3106
  247MPD1    N1 3755   1.628   0.826  16.430  0.1661 -0.3860  0.0667
  247MPD1    H6 3756   1.689   0.901  16.397  0.8582 -0.6398  0.7686
  247MPD1    H7 3757   1.669   0.733  16.434 -0.7821 -0.6901  2.3608
  248MPD1     C 3758   2.367   4.237  17.568 -0.2362 -0.6379  0.0990
  248MPD1    C1 3759   2.389   4.290  17.687  0.5191  0.1637 -0.1669
  248MPD1    C2 3760   2.277   4.335   0.058 -0.3444  0.1492  0.4208
  248MPD1    C3 3761   2.150   4.305   0.018  0.0648  0.3656  0.4420
  248MPD1    C4 3762   2.127   4.250  17.596  0.2083 -0.3394  0.5743
  248MPD1    C5 3763   2.239   4.217  17.527 -0.0824  0.7809  0.2684
  248MPD1     H 3764   2.291   4.387   0.152  0.8693  1.7743 -0.6508
  248MPD1    H1 3765   2.030   4.224  17.556  0.3408 -0.8769  0.6030
  248MPD1    H2 3766   2.448   4.221  17.498  0.2407  0.3220  0.4340
  248MPD1    H3 3767   2.225   4.169  17.431 -2.1445 -0.8072  1.3615
  248MPD1     N 3768   2.054   4.353   0.104 -0.0507 -0.6118 -0.6886
  248MPD1    H5 3769   2.083   4.403   0.187 -1.0843 -2.1528  0.5968
  248MPD1    N1 3770   2.522   4.319   0.030  0.6045  0.3664 -0.2148
  248MPD1    H6 3771   2.606   4.281  17.692 -0.7774 -4.4025  1.2601
  248MPD1    H7 3772   2.533   4.295   0.129 -0.2636 -2.0280 -0.6867
  249MPD1     C 3773   3.337   2.742  11.003 -0.6380  0.5652 -0.5888
  249MPD1    C1 3774   3.391   2.811  10.896 -0.4292 -0.6425  0.0475
  249MPD1    C2 3775   3.329   2.803  10.771 -0.3318  0.6046 -1.1691
  249MPD1    C3 3776   3.219   2.716  10.761 -0.6146 -0.2369  0.5214
  249MPD1    C4 3777   3.168   2.651  10.875  0.0669 -0.1701 -0.1239
  249MPD1    C5 3778   3.229   2.661  10.993  0.4688  0.2040 -0.3367
  249MPD1     H 3779   3.361   2.854  10.681 -0.8875  0.9183 -1.1863
  249MPD1    H1 3780   3.082   2.586  10.861  0.8616 -1.1039 -0.7124
  249MPD1    H2 3781   3.371   2.748  11.106  0.3905 -1.9523 -0.7972
  249MPD1    H3 3782   3.178   2.609  11.074  0.3208  1.2323  0.2296
  249MPD1     N 3783   3.163   2.693  10.636 -0.3864 -0.6987  0.3979
  249MPD1    H5 3784   3.218   2.729  10.559 -0.5909 -2.3419 -0.5106
  249MPD1    N1 3785   3.519   2.883  10.908  0.0062 -0.3391  0.0527
  249MPD1    H6 3786   3.543   2.910  11.003  1.3864 -1.8705  0.1597
  249MPD1    H7 3787   3.521   2.954  10.835  0.5816  0.1708  0.5637
  250MPD2     C 3788   4.507   3.187  13.347  0.0394 -0.6862 -0.0923
  250MPD2    C1 3789   4.480   3.241  13.223  0.2382 -0.0863  0.2452
  250MPD2    C2 3790   4.412   3.148  13.136 -0.3490  0.6051  0.4655
  250MPD2    C3 3791   4.368   3.019  13.166  0.2057  0.4418  0.1023
  250MPD2    C4 3792   4.401   2.976  13.291 -0.0026  0.3400  0.5767
  250MPD2    C5 3793   4.464   3.060  13.383  0.2242  0.1819  0.4598
  250MPD2     H 3794   4.387   3.187  13.038 -1.6408  1.6172  1.2030
  250MPD2    H1 3795   4.386   2.872  13.322  0.3227  0.3653  0.8219
  250MPD2    H2 3796   4.554   3.249  13.424  0.8229 -1.6186  0.1792
  250MPD2    H3 3797   4.481   3.018  13.481  0.5530 -0.5455  0.0964
  250MPD2     N 3798   4.303   2.927  13.077  0.7086  0.6088  0.6704
  250MPD2    H5 3799   4.264   2.842  13.116  1.8402 -0.1383  0.1541
  250MPD2    N1 3800   4.520   3.372  13.201 -0.2002  0.0017 -0.4614
  250MPD2    H7 3801   4.568   3.426  13.273 -2.8910  0.1618  1.2230
  251TMC3    C1 3802   4.598   3.546  13.062 -0.2849 -0.4754  0.4270
  251TMC3    C2 3803   4.590   3.654  13.148  0.7340  0.4859  0.9044
  251TMC3    C3 3804   4.694   3.735  13.172  0.2657 -0.1373  0.0632
  251TMC3    C4 3805   4.718   3.515  13.005  0.0037  0.0509 -0.5328
  251TMC3    C5 3806   0.092   3.607  13.017  0.1404 -0.4319  0.5838
  251TMC3    C6 3807   0.087   3.716  13.100  0.4232  0.4343  0.4675
  251TMC3     C 3808   4.513   3.429  13.073  0.0101  0.1899  0.4843
  251TMC3     O 3809   4.481   3.381  12.970  0.9077  0.6469 -0.4059
  251TMC3     H 3810   4.498   3.679  13.201 -0.0819 -0.3590 -0.1129
  251TMC3    H1 3811   4.724   3.427  12.942 -0.6859 -1.2494  1.2333
  251TMC3    H2 3812   0.181   3.762  13.128  1.1237 -0.9657  0.4178
  251TMC3    C7 3813   0.220   3.529  13.042  0.3113 -0.6794  0.5594
  251TMC3    C8 3814   4.670   3.863  13.244  0.5293 -0.5149 -0.1962
  251TMC3    O1 3815   0.201   3.414  13.070 -0.4401 -0.3324 -0.3318
  251TMC3    O2 3816   4.565   3.874  13.315 -0.4739 -0.4947 -0.0078
  252TMC3    C1 3817   0.829   3.782   9.811 -0.3245 -0.1647  0.2346
  252TMC3    C2 3818   0.929   3.868   9.777  0.3818  0.2203  0.0152
  252TMC3    C3 3819   0.931   3.988   9.844 -0.8450  0.4828 -0.2652
  252TMC3    C4 3820   0.737   3.811   9.906 -0.1314  0.2484 -0.9144
  252TMC3    C5 3821   0.750   3.927   9.976 -0.7551 -0.4639 -0.5301
  252TMC3    C6 3822   0.842   4.019   9.948 -0.2473  0.6751  0.3695
  252TMC3     C 3823   0.808   3.671   9.717 -0.1857 -0.3153  0.7126
  252TMC3     O 3824   0.911   3.632   9.664  0.2130 -0.4808 -0.4136
  252TMC3     H 3825   1.002   3.852   9.699  4.0380 -0.9175  3.6653
  252TMC3    H1 3826   0.663   3.734   9.923 -0.4234  0.0165 -3.2678
  252TMC3    H2 3827   0.853   4.099  10.020 -0.9036  0.1346  1.0630
  252TMC3    C7 3828   0.681   3.939  10.104  0.4265  0.4497 -0.7933
  252TMC3    C8 3829   1.044   4.075   9.819  0.4560  0.7657 -0.0601
  252TMC3    O1 3830   0.720   4.030  10.181 -0.6558 -0.4633 -0.3097
  252TMC3    O2 3831   1.116   4.049   9.724 -0.0808 -0.2017 -0.0029
  253MPD2     C 3832   0.845   3.412  15.910  0.6662  0.3843  1.0605
  253MPD2    C1 3833   0.950   3.351  15.839  0.8289 -0.1177 -0.2586
  253MPD2    C2 3834   0.950   3.213  15.845 -0.4291 -0.1566 -0.0318
  253MPD2    C3 3835   0.854   3.146  15.916  0.4429 -0.0452 -0.0417
  253MPD2    C4 3836   0.769   3.214  15.996 -0.4814  0.7819 -0.0415
  253MPD2    C5 3837   0.767   3.350  15.997  0.4489 -0.0865 -0.0911
  253MPD2     H 3838   1.011   3.161  15.772 -1.0308  2.5948 -2.5341
  253MPD2    H1 3839   0.716   3.155  16.069 -1.1792  1.6730  0.1776
  253MPD2    H2 3840   0.826   3.518  15.902  1.9860  0.5078 -0.5080
  253MPD2    H3 3841   0.706   3.410  16.063 -2.2232 -0.6889 -2.0458
  253MPD2     N 3842   0.848   3.007  15.915 -0.5337 -0.2624  0.1715
  253MPD2    H5 3843   0.771   2.964  15.964  0.0390 -1.7766 -0.2466
  253MPD2    N1 3844   1.042   3.414  15.745 -0.2336  0.1092 -0.0959
  253MPD2    H7 3845   1.108   3.364  15.686  0.2145  0.6293 -0.0375
  254TMC3    C1 3846   0.885   2.781  15.860  0.0317  0.0752 -0.3105
  254TMC3    C2 3847   0.743   2.764  15.853 -0.1029  0.6503  0.8895
  254TMC3    C3 3848   0.702   2.642  15.885  0.2781  0.1935  0.6603
  254TMC3    C4 3849   0.979   2.685  15.886 -0.1537 -0.7000  0.2122
  254TMC3    C5 3850   0.931   2.567  15.931 -0.1388 -0.1380  0.8514
  254TMC3    C6 3851   0.795   2.545  15.929 -0.0599  0.5605  0.4745
  254TMC3     C 3852   0.932   2.918  15.851 -0.1775  0.3247  0.0163
  254TMC3     O 3853   1.049   2.936  15.812  0.1252 -0.0309  1.1093
  254TMC3     H 3854   0.683   2.846  15.817  0.4091  0.5881 -0.1180
  254TMC3    H1 3855   1.086   2.705  15.896 -0.4506  0.2980  1.5480
  254TMC3    H2 3856   0.761   2.460  15.987 -1.2523  1.6978  1.4318
  254TMC3    C7 3857   1.009   2.494  16.024  0.4734 -0.5235  0.4600
  254TMC3    C8 3858   0.579   2.629  15.965  0.0070 -0.3750  0.2142
  254TMC3    O1 3859   1.106   2.552  16.067 -0.1765  0.2977 -0.7876
  254TMC3    O2 3860   0.575   2.576  16.071  0.1781  0.3953 -0.4040
  255MPD2     C 3861   3.963   1.539  10.188 -0.0858  0.8179  0.2920
  255MPD2    C1 3862   4.045   1.531  10.300  0.3341  0.3790 -0.3657
  255MPD2    C2 3863   4.165   1.463  10.286  0.0248 -0.3479  0.4135
  255MPD2    C3 3864   4.206   1.424  10.158 -0.4320  0.5002 -0.1333
  255MPD2    C4 3865   4.124   1.446  10.049 -0.0624 -0.7774 -0.6275
  255MPD2    C5 3866   4.000   1.495  10.060 -0.1596 -0.4160 -0.2194
  255MPD2     H 3867   4.235   1.459  10.369  1.3186  0.0246 -0.6506
  255MPD2    H1 3868   4.157   1.432   9.947  0.3034  0.7713 -0.7310
  255MPD2    H2 3869   3.863   1.581  10.187 -0.4317  0.0056  1.5827
  255MPD2    H3 3870   3.946   1.519   9.969 -1.8999  4.4749  2.1304
  255MPD2     N 3871   4.330   1.363  10.154 -0.0153 -0.3771 -0.0821
  255MPD2    H5 3872   4.382   1.381  10.239 -0.7149 -1.2959  0.5423
  255MPD2    N1 3873   3.999   1.578  10.427 -0.2509 -0.2566  1.0618
  255MPD2    H7 3874   3.907   1.620  10.428 -0.8384 -1.5284  0.3434
  256TMC3    C1 3875   3.985   1.638  10.654  0.1718  0.8875  0.0154
  256TMC3    C2 3876   4.067   1.737  10.715 -0.2073  0.7218  0.6269
  256TMC3    C3 3877   4.025   1.864  10.710 -0.0873  0.2718 -0.0348
  256TMC3    C4 3878   3.855   1.662  10.621 -0.0528 -0.5514  0.1443
  256TMC3    C5 3879   3.814   1.787  10.630  0.0717  0.5986  0.1831
  256TMC3    C6 3880   3.894   1.888  10.676 -0.8473  0.1417 -0.1406
  256TMC3     C 3881   4.056   1.555  10.551 -0.4642  0.2146  0.2767
  256TMC3     O 3882   4.158   1.493  10.583  0.0206  0.1063  0.0301
  256TMC3     H 3883   4.169   1.707  10.733 -0.8471 -2.6188 -1.1380
  256TMC3    H1 3884   3.788   1.585  10.585 -0.6496  0.1643 -0.2671
  256TMC3    H2 3885   3.861   1.990  10.654  1.0229  1.1234  1.6176
  256TMC3    C7 3886   3.742   1.818  10.503  0.1117  1.3931  0.2177
  256TMC3    C8 3887   4.121   1.974  10.709  0.3069  0.6982 -0.7973
  256TMC3    O1 3888   3.746   1.726  10.423 -0.5350 -0.0728 -0.4278
  256TMC3    O2 3889   4.069   2.083  10.727 -0.3476 -0.2370 -0.3809
  257MPD2     C 3890   3.755   3.318  13.484  0.0390  0.0931 -0.4317
  257MPD2    C1 3891   3.728   3.212  13.411 -0.0204  0.6901  0.1520
  257MPD2    C2 3892   3.711   3.085  13.465 -0.2221  0.8369  0.7350
  257MPD2    C3 3893   3.739   3.066  13.598 -0.3911 -0.3758  0.4141
  257MPD2    C4 3894   3.790   3.172  13.677  0.0649  0.3329  0.1036
  257MPD2    C5 3895   3.803   3.292  13.612 -0.6775 -0.7763 -0.2001
  257MPD2     H 3896   3.673   3.000  13.409  0.9905  0.8425 -0.1101
  257MPD2    H1 3897   3.801   3.154  13.783 -1.5937 -1.9870 -0.1201
  257MPD2    H2 3898   3.768   3.420  13.451  2.3589  0.8492  2.8335
  257MPD2    H3 3899   3.842   3.378  13.664  0.5179 -1.5247  0.1652
  257MPD2     N 3900   3.720   2.934  13.650 -0.4693 -0.3158  1.0743
  257MPD2    H5 3901   3.699   2.869  13.575  2.1277 -1.9210  1.7577
  257MPD2    N1 3902   3.683   3.237  13.276 -0.1843 -0.1687  0.1698
  257MPD2    H7 3903   3.681   3.336  13.258  0.9914 -0.0123  0.8685
  258TMC3    C1 3904   3.697   2.758  13.805 -0.0664 -0.3250  0.2235
  258TMC3    C2 3905   3.749   2.670  13.713 -0.0503  0.2901 -0.8471
  258TMC3    C3 3906   3.773   2.536  13.753  0.1515 -0.4583  0.2016
  258TMC3    C4 3907   3.658   2.715  13.932 -0.0206  0.0378  0.5519
  258TMC3    C5 3908   3.687   2.582  13.967  0.5900 -0.5678 -0.4462
  258TMC3    C6 3909   3.754   2.497  13.881  0.4544 -0.1672 -0.2581
  258TMC3     C 3910   3.701   2.902  13.780  0.4991  0.0046  0.6261
  258TMC3     O 3911   3.703   2.980  13.873 -0.4372  0.2366  0.3073
  258TMC3     H 3912   3.776   2.709  13.615  3.6313 -0.3557 -0.1098
  258TMC3    H1 3913   3.602   2.773  14.005 -2.2640 -2.5069  0.8943
  258TMC3    H2 3914   3.768   2.390  13.891  1.8521 -0.2347 -2.8876
  258TMC3    C7 3915   3.696   2.553  14.115 -0.0953 -0.2973  0.4089
  258TMC3    C8 3916   3.835   2.443  13.661  0.5818 -0.7132 -0.0666
  258TMC3    O1 3917   3.630   2.627  14.189 -0.4741  0.1163 -0.0812
  258TMC3    O2 3918   3.888   2.347  13.705 -0.3723  0.3047 -0.0395
  259MPD2     C 3919   2.423   0.048   0.746  0.2886  0.4551  0.2619
  259MPD2    C1 3920   2.549   0.097   0.767  0.1604  0.7556 -0.4735
  259MPD2    C2 3921   2.648   0.055   0.681 -0.1542  0.2412  0.0654
  259MPD2    C3 3922   2.623   4.693   0.581 -0.8112 -0.1047 -0.5077
  259MPD2    C4 3923   2.500   4.643   0.559 -0.1669 -0.2208 -0.3854
  259MPD2    C5 3924   2.403   4.685   0.645  0.3318 -0.3938  0.4195
  259MPD2     H 3925   2.748   0.095   0.696 -0.3354 -0.2493  2.5585
  259MPD2    H1 3926   2.478   4.568   0.483  2.1254  0.1078 -1.3668
  259MPD2    H2 3927   2.349   0.066   0.823  1.2690  0.2794  1.2476
  259MPD2    H3 3928   2.305   4.641   0.633 -0.0075  0.8416 -1.3736
  259MPD2     N 3929   2.736   4.656   0.503 -0.3101 -0.1564  0.0732
  259MPD2    H5 3930   2.826   4.694   0.532 -0.8500  2.9780 -2.3217
  259MPD2    N1 3931   2.568   0.195   0.866 -0.3511  0.3189 -0.4523
  259MPD2    H7 3932   2.491   0.242   0.912 -0.6252 -2.6639  2.1187
  260TMC3    C1 3933   2.874   4.574   0.325  0.2555 -0.0504  1.0679
  260TMC3    C2 3934   2.970   4.672   0.345 -0.2323 -0.1205  0.0167
  260TMC3    C3 3935   3.077   4.666   0.261 -0.4224  0.9316 -0.3450
  260TMC3    C4 3936   2.879   4.501   0.212  0.4367 -0.4503 -0.0266
  260TMC3    C5 3937   2.987   4.502   0.130 -0.5176  0.9196  0.3748
  260TMC3    C6 3938   3.093   4.576   0.163  0.0505  0.8701 -0.5864
  260TMC3     C 3939   2.740   4.584   0.385 -0.7292  0.0705  0.3736
  260TMC3     O 3940   2.649   4.528   0.324 -0.2644  0.0691 -0.0400
  260TMC3     H 3941   2.959   0.014   0.428 -0.5836  0.7708 -0.7550
  260TMC3    H1 3942   2.799   4.431   0.192  0.8023 -0.0663 -2.9012
  260TMC3    H2 3943   3.177   4.579   0.095  1.6757 -1.0901  1.3405
  260TMC3    C7 3944   3.016   4.373   0.056  0.4400 -0.1476  0.2324
  260TMC3    C8 3945   3.183   0.047   0.280  0.3755  0.0750  0.3297
  260TMC3    O1 3946   2.917   4.325   0.001 -0.2141  0.3253  0.3530
  260TMC3    O2 3947   3.155   0.155   0.335  0.3844 -0.5454 -0.1910
  261MPD2     C 3948   4.034   2.682  12.307  0.0643 -0.0084  0.6231
  261MPD2    C1 3949   4.106   2.778  12.378  0.1287 -0.2348 -0.6680
  261MPD2    C2 3950   4.183   2.863  12.302 -0.0976  0.2281  0.1335
  261MPD2    C3 3951   4.206   2.853  12.166 -0.2830 -0.8795 -0.4438
  261MPD2    C4 3952   4.141   2.750  12.105  1.1085  0.2318  0.4053
  261MPD2    C5 3953   4.057   2.671  12.176 -1.2015 -0.0350  0.0269
  261MPD2     H 3954   4.239   2.940  12.355 -2.6404  1.9669  0.2780
  261MPD2    H1 3955   4.139   2.742  11.997  2.5028 -1.1032  0.4770
  261MPD2    H2 3956   3.961   2.611  12.344 -0.5332 -0.4360 -1.3343
  261MPD2    H3 3957   3.992   2.601  12.125 -0.0462  0.2702 -1.8842
  261MPD2     N 3958   4.277   2.955  12.094 -0.2554 -0.2702  0.2931
  261MPD2    H5 3959   4.314   3.032  12.149  1.5161  0.0885 -1.3630
  261MPD2    N1 3960   4.112   2.795  12.518 -0.4823 -0.2030  0.0317
  261MPD2    H7 3961   4.188   2.846  12.561 -1.8912  0.6116  1.5761
  262TMC3    C1 3962   4.393   3.070  11.914  0.4828  0.6379 -0.6033
  262TMC3    C2 3963   4.348   3.195  11.951  0.8249  0.6468 -0.1703
  262TMC3    C3 3964   4.418   3.304  11.918  0.1043  0.0622  0.7724
  262TMC3    C4 3965   4.480   3.049  11.809  0.5482 -0.1601 -0.3571
  262TMC3    C5 3966   4.539   3.164  11.764  0.0427 -0.1770  0.0089
  262TMC3    C6 3967   4.506   3.287  11.814  0.5173 -0.6511  0.4978
  262TMC3     C 3968   4.299   2.962  11.958 -0.2472  0.1198 -0.8562
  262TMC3     O 3969   4.270   2.884  11.872  0.4736  0.3680 -0.3463
  262TMC3     H 3970   4.272   3.197  12.029 -0.2751 -0.5261 -1.2188
  262TMC3    H1 3971   4.514   2.950  11.781  1.7800  0.5545 -1.4298
  262TMC3    H2 3972   4.550   3.377  11.774 -0.5195 -0.1238  0.5313
  262TMC3    C7 3973   4.644   3.145  11.670  0.3376 -0.0597 -0.3047
  262TMC3    C8 3974   4.349   3.428  11.914  0.1531 -0.9043 -0.3334
  262TMC3    O1 3975   4.669   3.029  11.644  0.1267  0.2833  0.1412
  262TMC3    O2 3976   4.378   3.506  11.825 -0.2087 -0.0681  0.1306
  263MPD2     C 3977   0.487   2.145  11.685  0.7341 -0.4106 -0.5335
  263MPD2    C1 3978   0.603   2.103  11.630 -0.9586  0.1386  0.4413
  263MPD2    C2 3979   0.642   2.160  11.509  0.3657  0.3795  0.2144
  263MPD2    C3 3980   0.566   2.255  11.441  0.5099 -0.4399  0.2305
  263MPD2    C4 3981   0.450   2.300  11.505 -0.1312  0.1579  1.0372
  263MPD2    C5 3982   0.418   2.244  11.625 -0.1692  0.7485  0.1870
  263MPD2     H 3983   0.731   2.125  11.458 -0.0652  0.8042 -0.8277
  263MPD2    H1 3984   0.384   2.372  11.458  0.8852 -0.9529 -2.0735
  263MPD2    H2 3985   0.441   2.111  11.777 -0.3554  1.5835 -0.3332
  263MPD2    H3 3986   0.323   2.267  11.672 -1.8252 -3.6867 -0.9872
  263MPD2     N 3987   0.611   2.292  11.314 -0.3653 -0.4182  0.0760
  263MPD2    H5 3988   0.710   2.273  11.297 -0.6462 -0.7528 -1.1765
  263MPD2    N1 3989   0.693   2.012  11.696 -0.4730 -0.1296  0.3457
  263MPD2    H7 3990   0.660   1.989  11.789  2.1535 -2.1263  0.7749
  264TMC3    C1 3991   0.593   2.389  11.093  0.6819  0.0160 -0.2290
  264TMC3    C2 3992   0.532   2.489  11.021 -0.0146 -0.1720 -0.5064
  264TMC3    C3 3993   0.596   2.532  10.911 -0.1080  0.1076 -0.1158
  264TMC3    C4 3994   0.710   2.331  11.066 -0.1319  0.1963  0.0843
  264TMC3    C5 3995   0.773   2.374  10.956  0.3284 -0.5903  0.0324
  264TMC3    C6 3996   0.716   2.471  10.876 -0.7737 -0.5376  0.2381
  264TMC3     C 3997   0.533   2.363  11.227 -0.2548 -0.2447 -0.6229
  264TMC3     O 3998   0.415   2.399  11.233  0.4338 -0.4400 -0.8422
  264TMC3     H 3999   0.441   2.539  11.050 -0.1551 -0.8807  0.2695
  264TMC3    H1 4000   0.743   2.247  11.127 -0.6441  0.0395  0.1460
  264TMC3    H2 4001   0.777   2.507  10.795 -0.6572 -2.4505 -0.5258
  264TMC3    C7 4002   0.913   2.382  10.982 -0.0423  0.1663 -0.7437
  264TMC3    C8 4003   0.614   2.675  10.896  0.1340 -0.6225  0.3340
  264TMC3    O1 4004   0.938   2.357  11.096 -0.2155  0.2965 -0.0026
  264TMC3    O2 4005   0.684   2.725  10.806  0.1651  0.0636  0.3219
  265MPD2     C 4006   2.857   2.691  15.921 -0.0111 -0.1102  0.4538
  265MPD2    C1 4007   2.797   2.767  15.824  0.0470  0.7152 -0.1092
  265MPD2    C2 4008   2.855   2.764  15.696 -0.0699  0.2653  0.6464
  265MPD2    C3 4009   2.957   2.670  15.674  0.1211 -0.4716 -0.4698
  265MPD2    C4 4010   3.018   2.610  15.782  0.9884  0.6358  0.0409
  265MPD2    C5 4011   2.965   2.616  15.905 -0.6741  0.4658  0.2720
  265MPD2     H 4012   2.808   2.819  15.614  2.8889 -0.6440 -1.6594
  265MPD2    H1 4013   3.112   2.557  15.770  1.7333  1.7516  0.9588
  265MPD2    H2 4014   2.830   2.689  16.026 -1.7844  1.0316  0.0162
  265MPD2    H3 4015   3.005   2.561  15.990 -2.4246  1.8982  2.0314
  265MPD2     N 4016   3.018   2.643  15.545 -0.6028 -0.3186  0.0234
  265MPD2    H5 4017   3.073   2.558  15.544  0.2804  0.2847 -2.1663
  265MPD2    N1 4018   2.679   2.839  15.847 -0.2648  0.1803  0.4966
  265MPD2    H7 4019   2.647   2.900  15.773 -0.5262  1.4887  1.6830
  266TMC3    C1 4020   2.553   2.973  16.010 -0.4386 -0.4414  0.2664
  266TMC3    C2 4021   2.541   2.987  16.149  1.2029 -0.4179 -0.7133
  266TMC3    C3 4022   2.562   3.111  16.201 -0.3521 -0.4568 -0.1793
  266TMC3    C4 4023   2.585   3.078  15.931  0.9702 -0.0466 -0.1076
  266TMC3    C5 4024   2.605   3.201  15.991 -0.2695 -0.0468 -0.1570
  266TMC3    C6 4025   2.599   3.216  16.127  0.0246  0.2453 -0.2299
  266TMC3     C 4026   2.611   2.843  15.974  0.0446  0.0295 -0.4056
  266TMC3     O 4027   2.612   2.759  16.063  0.0515 -0.2311 -0.4944
  266TMC3     H 4028   2.522   2.902  16.215  1.6539 -0.8263 -1.1068
  266TMC3    H1 4029   2.592   3.074  15.823  1.1296 -0.7876 -0.0704
  266TMC3    H2 4030   2.621   3.314  16.169 -0.1904 -0.2860  1.1287
  266TMC3    C7 4031   2.576   3.318  15.912 -0.8443  0.4462  0.5101
  266TMC3    C8 4032   2.588   3.115  16.338 -0.8267 -1.2955  0.1156
  266TMC3    O1 4033   2.530   3.304  15.798  0.8177  0.9012 -0.7705
  266TMC3    O2 4034   2.572   3.005  16.391 -0.4640 -0.1179 -0.3235
  267MPD2     C 4035   0.434   0.147  17.137 -0.5463  1.0990  0.9195
  267MPD2    C1 4036   0.452   0.016  17.183 -0.9481  1.0259 -0.6484
  267MPD2    C2 4037   0.416   4.641  17.094  0.0843  0.2424 -0.5262
  267MPD2    C3 4038   0.352   4.667  16.976  0.7584  0.6541 -0.3833
  267MPD2    C4 4039   0.332   0.077  16.935 -0.6862  0.5562 -0.2457
  267MPD2    C5 4040   0.387   0.171  17.010  0.5071 -0.3188 -0.2583
  267MPD2     H 4041   0.449   4.540  17.112 -3.8610 -0.9313  0.1378
  267MPD2    H1 4042   0.286   0.118  16.845  1.4026  2.2163 -0.5450
  267MPD2    H2 4043   0.470   0.230  17.197 -0.7988  1.8766 -0.0114
  267MPD2    H3 4044   0.366   0.274  16.981  0.7110 -0.0221  0.6412
  267MPD2     N 4045   0.297   4.565  16.885  0.3081  0.1343  0.0404
  267MPD2    H5 4046   0.281   4.604  16.793 -0.6172  0.7318  0.4620
  267MPD2    N1 4047   0.520   4.716  17.303  0.1240 -0.5563  0.8211
  267MPD2    H7 4048   0.537   0.075  17.355  1.5343 -0.0114 -0.5489
  268TMC3    C1 4049   0.638   4.602  17.470 -0.5600 -0.3183  0.4504
  268TMC3    C2 4050   0.683   0.001  17.506 -0.3891 -0.6001 -0.0238
  268TMC3    C3 4051   0.704   0.020  17.638 -0.1159  0.2883  0.5833
  268TMC3    C4 4052   0.617   4.502  17.561 -0.4763  0.2853 -0.8692
  268TMC3    C5 4053   0.661   4.521  17.688 -0.3464  0.7759 -0.5196
  268TMC3    C6 4054   0.699   4.641   0.022  0.0388  0.3472  0.7108
  268TMC3     C 4055   0.566   4.590  17.346 -0.3885  0.6961 -0.3902
  268TMC3     O 4056   0.556   4.477  17.301 -0.5132  0.4766  0.4267
  268TMC3     H 4057   0.703   0.079  17.433  1.6718 -0.6456  0.4928
  268TMC3    H1 4058   0.582   4.406  17.524 -0.4278  0.3723 -1.1432
  268TMC3    H2 4059   0.732   4.649   0.125 -1.7041 -0.9459  1.3610
  268TMC3    C7 4060   0.652   4.422   0.086  0.3992 -0.2186  0.4051
  268TMC3    C8 4061   0.796   0.119  17.686  0.1466 -0.0640  0.2297
  268TMC3    O1 4062   0.705   4.442   0.191  0.7470 -0.2611  0.1900
  268TMC3    O2 4063   0.851   0.113   0.093  0.3637 -0.0850 -0.6213
  269MPD2     C 4064   0.664   3.586  15.528 -0.7567  0.0956  0.0571
  269MPD2    C1 4065   0.541   3.593  15.600 -0.0684  0.7213 -0.1251
  269MPD2    C2 4066   0.450   3.685  15.576  0.3908  0.1484  0.3831
  269MPD2    C3 4067   0.489   3.803  15.508 -0.4143 -0.1413 -0.0951
  269MPD2    C4 4068   0.616   3.820  15.473 -0.3057  0.0902  0.6222
  269MPD2    C5 4069   0.701   3.710  15.472 -0.7078  0.9097  0.1949
  269MPD2     H 4070   0.344   3.669  15.596  0.0310 -0.3656 -1.8704
  269MPD2    H1 4071   0.668   3.906  15.433  2.0182 -0.8342  1.6431
  269MPD2    H2 4072   0.727   3.499  15.541 -2.2691 -0.8524  0.9308
  269MPD2    H3 4073   0.799   3.724  15.429 -1.1258 -1.5447 -1.5422
  269MPD2     N 4074   0.392   3.900  15.476 -0.2026  0.0088  0.4565
  269MPD2    H5 4075   0.302   3.882  15.520 -1.5617 -0.0157 -2.3407
  269MPD2    N1 4076   0.505   3.480  15.667 -0.2067  0.2311  0.8901
  269MPD2    H7 4077   0.571   3.404  15.649 -0.7705 -0.6784  2.7023
  270TMC3    C1 4078   0.369   3.303  15.736  0.1618 -0.1678  1.0062
  270TMC3    C2 4079   0.238   3.267  15.720  0.0514 -0.3153 -0.6800
  270TMC3    C3 4080   0.208   3.137  15.679  0.1000  0.2184  0.1364
  270TMC3    C4 4081   0.473   3.222  15.706  0.4004  0.4058 -0.5981
  270TMC3    C5 4082   0.444   3.100  15.654 -0.4549  0.8350  0.1827
  270TMC3    C6 4083   0.314   3.063  15.629 -0.1250 -0.5076 -0.6223
  270TMC3     C 4084   0.388   3.444  15.722 -0.6508  0.2113  0.0479
  270TMC3     O 4085   0.300   3.519  15.756 -0.0803 -0.6329  0.6095
  270TMC3     H 4086   0.153   3.321  15.761  0.2616 -0.5689  0.0885
  270TMC3    H1 4087   0.572   3.244  15.745  0.9666 -1.1145 -1.2019
  270TMC3    H2 4088   0.305   2.957  15.609 -0.1913 -0.7877  0.9526
  270TMC3    C7 4089   0.548   3.036  15.576  0.2217 -0.3124  0.0685
  270TMC3    C8 4090   0.084   3.102  15.612  0.4359 -0.1159 -0.7255
  270TMC3    O1 4091   0.662   3.032  15.628  0.1790 -0.3138  0.0032
  270TMC3    O2 4092   4.710   3.100  15.680  0.0320 -0.0234 -0.3341
  271MPD2     C 4093   4.235   3.196  14.032  0.4992  0.3400  0.0690
  271MPD2    C1 4094   4.160   3.104  14.114  0.2885  0.1575  0.3920
  271MPD2    C2 4095   4.028   3.121  14.136 -0.5392 -0.3690 -0.0241
  271MPD2    C3 4096   3.957   3.221  14.066  0.7479  0.5706  0.2351
  271MPD2    C4 4097   4.029   3.317  13.992 -0.1526  0.1581  0.3434
  271MPD2    C5 4098   4.163   3.303  13.986 -0.0459  0.8372 -0.5562
  271MPD2     H 4099   3.973   3.066  14.211  1.1930  0.0090  1.5295
  271MPD2    H1 4100   3.978   3.399  13.943  3.2722  2.7565  1.1349
  271MPD2    H2 4101   4.338   3.186  14.000  0.7968 -0.8130  1.3870
  271MPD2    H3 4102   4.216   3.381  13.932  0.9292  2.5998  2.8673
  271MPD2     N 4103   3.815   3.240  14.063 -0.1191  0.5687  0.1609
  271MPD2    H5 4104   3.774   3.316  14.012 -2.1000 -0.6627 -0.0572
  271MPD2    N1 4105   4.219   2.997  14.176 -0.7535  0.5029  0.3755
  271MPD2    H7 4106   4.161   2.944  14.241 -0.5364 -1.0086 -0.6580
  272TMC3    C1 4107   4.382   2.864  14.277  0.1458 -0.0290  0.2628
  272TMC3    C2 4108   4.509   2.808  14.261  0.1416 -0.7984  0.1712
  272TMC3    C3 4109   4.574   2.758  14.372  0.6890 -0.2957 -0.3937
  272TMC3    C4 4110   4.325   2.867  14.395  0.2314 -0.0872  0.5601
  272TMC3    C5 4111   4.397   2.818  14.502 -0.6418  0.6693  0.2843
  272TMC3    C6 4112   4.520   2.760  14.497  0.6095  0.5131  0.0998
  272TMC3     C 4113   4.351   2.961  14.171 -0.1215 -0.2937  0.0026
  272TMC3     O 4114   4.437   2.990  14.091 -0.0185  0.6839 -0.0843
  272TMC3     H 4115   4.557   2.808  14.164  1.2835 -0.4126  0.7296
  272TMC3    H1 4116   4.231   2.919  14.408  0.3300 -0.2142  1.7825
  272TMC3    H2 4117   4.569   2.723  14.586 -0.8662  1.1991  1.1961
  272TMC3    C7 4118   4.349   2.863  14.629  0.6417  0.0546 -0.5522
  272TMC3    C8 4119   4.718   2.732  14.354 -0.0029 -0.3666  0.1664
  272TMC3    O1 4120   4.231   2.854  14.642 -0.7600 -0.7291  0.4218
  272TMC3    O2 4121   0.051   2.803  14.274  0.2257 -0.0048  0.6726
  273MPD2     C 4122   1.484   1.093  12.171 -0.4880  0.0412 -0.1988
  273MPD2    C1 4123   1.528   1.215  12.133  0.8381 -0.8752  0.0555
  273MPD2    C2 4124   1.536   1.244  11.998  0.6570  0.0761 -0.5006
  273MPD2    C3 4125   1.492   1.171  11.897 -0.0083  0.1143  0.2090
  273MPD2    C4 4126   1.451   1.045  11.936  0.2469 -0.0822  0.2884
  273MPD2    C5 4127   1.451   1.002  12.069  0.1034  0.0180  0.5195
  273MPD2     H 4128   1.569   1.347  11.984  3.1616 -0.7879 -0.9301
  273MPD2    H1 4129   1.420   0.970  11.864 -0.8224  1.2085 -0.5940
  273MPD2    H2 4130   1.489   1.060  12.274 -2.0782  1.1228  0.2131
  273MPD2    H3 4131   1.443   0.897  12.094  0.1553 -0.0851  0.0993
  273MPD2     N 4132   1.485   1.208  11.758 -0.4235  0.4846 -0.0930
  273MPD2    H5 4133   1.451   1.134  11.697  1.5841 -0.6951  0.1972
  273MPD2    N1 4134   1.559   1.319  12.222 -0.7634 -0.4174 -0.7200
  273MPD2    H7 4135   1.573   1.407  12.173 -0.0902 -0.0607  0.1001
  274TMC3    C1 4136   1.500   1.344  11.568  0.5135  0.6230  0.2304
  274TMC3    C2 4137   1.384   1.300  11.508 -0.0884  0.8047 -0.4157
  274TMC3    C3 4138   1.349   1.354  11.388 -0.7749 -0.0848 -0.1005
  274TMC3    C4 4139   1.577   1.441  11.511 -0.0648 -0.4002  0.2121
  274TMC3    C5 4140   1.531   1.502  11.394  0.4401  0.4298 -0.1417
  274TMC3    C6 4141   1.427   1.454  11.324 -0.2193  0.2396  0.6482
  274TMC3     C 4142   1.518   1.330  11.712 -0.1402  0.2031  0.5201
  274TMC3     O 4143   1.580   1.428  11.762  0.3659  0.1541 -0.0452
  274TMC3     H 4144   1.329   1.216  11.548  0.2631  1.5158  1.5541
  274TMC3    H1 4145   1.664   1.481  11.562  1.4132 -1.9531 -1.0926
  274TMC3    H2 4146   1.387   1.514  11.243 -2.1465 -0.2399  1.2455
  274TMC3    C7 4147   1.604   1.617  11.330 -0.0044  0.0545 -0.4887
  274TMC3    C8 4148   1.237   1.292  11.322 -0.0243 -0.4777 -0.1000
  274TMC3    O1 4149   1.593   1.621  11.209  0.0047 -0.6707  0.9969
  274TMC3    O2 4150   1.164   1.215  11.392 -0.0981 -0.6340 -0.5693
  275MPD2     C 4151   1.002   3.924  14.613 -0.0659  0.3051  0.4819
  275MPD2    C1 4152   0.918   4.031  14.608  0.0025  0.2958  0.0318
  275MPD2    C2 4153   0.789   4.006  14.553 -0.1576  0.0794 -0.5668
  275MPD2    C3 4154   0.759   3.880  14.514  0.0108  0.3717  0.2156
  275MPD2    C4 4155   0.855   3.779  14.516  0.3832  0.3749 -0.4212
  275MPD2    C5 4156   0.971   3.798  14.584  0.0993  0.0908  0.8318
  275MPD2     H 4157   0.730   4.096  14.539 -1.5431 -0.6167  0.7955
  275MPD2    H1 4158   0.826   3.678  14.490  0.6582  0.1266  0.2513
  275MPD2    H2 4159   1.104   3.937  14.648  0.5735 -3.1958 -0.0467
  275MPD2    H3 4160   1.050   3.724  14.582  0.2349  0.1685  2.6807
  275MPD2     N 4161   0.634   3.850  14.450  0.3043  0.3367  0.2563
  275MPD2    H5 4162   0.628   3.754  14.417  1.7322  0.4095 -0.1958
  275MPD2    N1 4163   0.943   4.164  14.658 -0.2288 -0.2447 -0.3473
  275MPD2    H7 4164   0.867   4.231  14.661 -0.8929 -1.0434  0.7168
  276TMC3    C1 4165   1.065   4.325  14.780 -0.4449  0.0808  0.1275
  276TMC3    C2 4166   0.969   4.334  14.869  0.6135  0.6739  0.5693
  276TMC3    C3 4167   0.952   4.454  14.930  0.2907 -0.9249  0.3570
  276TMC3    C4 4168   1.145   4.433  14.736  0.8248 -0.5769  0.6705
  276TMC3    C5 4169   1.127   4.548  14.804 -0.0044 -0.2878 -0.0029
  276TMC3    C6 4170   1.028   4.565  14.897  0.2951 -0.2142 -0.6259
  276TMC3     C 4171   1.069   4.206  14.693  0.5237  0.3498 -0.5078
  276TMC3     O 4172   1.175   4.157  14.679 -0.5545 -0.3642 -0.2391
  276TMC3     H 4173   0.896   4.255  14.884 -1.6880  2.4983 -1.1104
  276TMC3    H1 4174   1.212   4.420  14.652 -2.7800 -2.1599 -1.9454
  276TMC3    H2 4175   1.002   4.658  14.945 -1.3563 -1.5581  1.0784
  276TMC3    C7 4176   1.236   4.645  14.811 -0.1704  0.4777 -0.2625
  276TMC3    C8 4177   0.920   4.448  15.076 -0.1723  0.0790 -0.4121
  276TMC3    O1 4178   1.218   0.023  14.875  0.6486 -0.3993  0.4123
  276TMC3    O2 4179   0.879   4.551  15.124  0.1085  0.5271 -0.0443
  277MPD2     C 4180   3.168   2.924  13.799  0.3853  0.6569  0.6209
  277MPD2    C1 4181   3.033   2.943  13.810  0.9139  0.3954  0.3368
  277MPD2    C2 4182   2.971   2.896  13.919 -0.2526  0.8498  0.7291
  277MPD2    C3 4183   3.035   2.820  14.015 -0.3720 -0.5706 -0.8354
  277MPD2    C4 4184   3.171   2.813  14.009  0.1125 -0.4828 -0.0271
  277MPD2    C5 4185   3.235   2.862  13.901  0.5275  0.2008 -0.3334
  277MPD2     H 4186   2.863   2.906  13.931 -0.5899 -2.4576  0.3893
  277MPD2    H1 4187   3.233   2.779  14.091 -2.8580 -3.7215  0.9121
  277MPD2    H2 4188   3.227   2.966  13.718  0.3861 -2.9467 -1.2171
  277MPD2    H3 4189   3.343   2.854  13.893  0.7191  0.7890  1.7886
  277MPD2     N 4190   2.960   2.759  14.118 -0.7052  0.1227  0.8847
  277MPD2    H5 4191   2.860   2.777  14.114 -0.8570 -1.0990 -0.5909
  277MPD2    N1 4192   2.972   3.017  13.704  0.2964 -0.1543  0.5322
  277MPD2    H7 4193   3.028   3.048  13.625 -1.5320 -0.6249 -0.9343
  278TMC3    C1 4194   2.899   2.615  14.288 -1.0482  0.0921  0.0187
  278TMC3    C2 4195   2.876   2.480  14.293 -0.5713 -0.1026  0.0763
  278TMC3    C3 4196   2.750   2.437  14.305 -0.0792  0.0077  0.1876
  278TMC3    C4 4197   2.795   2.703  14.298 -1.4777  0.3957 -1.0524
  278TMC3    C5 4198   2.661   2.667  14.292 -0.3720 -0.0233 -0.2483
  278TMC3    C6 4199   2.643   2.525  14.281 -0.3371  0.0726  0.1013
  278TMC3     C 4200   3.004   2.660  14.202  0.9639 -0.3552  0.5803
  278TMC3     O 4201   3.105   2.593  14.202 -0.1246 -0.2302  0.3952
  278TMC3     H 4202   2.961   2.414  14.278 -0.2333  0.2890  0.2883
  278TMC3    H1 4203   2.799   2.812  14.296  2.5118  0.3013  0.3697
  278TMC3    H2 4204   2.541   2.488  14.272 -0.3265 -0.1820  1.0096
  278TMC3    C7 4205   2.591   2.739  14.186 -0.1138  0.1285 -0.0421
  278TMC3    C8 4206   2.745   2.303  14.245 -0.2788 -0.5006 -0.2217
  278TMC3    O1 4207   2.663   2.780  14.096 -0.3728 -0.3065  0.2138
  278TMC3    O2 4208   2.832   2.224  14.266 -0.0073 -0.0911 -0.2713
  279MPD2     C 4209   2.298   2.594  17.624  0.4504  0.8104 -1.3023
  279MPD2    C1 4210   2.260   2.707  17.694  0.5887  0.1057  0.3400
  279MPD2    C2 4211   2.195   2.806  17.622 -0.6405  0.0276 -0.6918
  279MPD2    C3 4212   2.143   2.784  17.496  0.1151 -0.3787  0.3164
  279MPD2    C4 4213   2.161   2.659  17.433  0.6093 -0.4154  0.0558
  279MPD2    C5 4214   2.245   2.580  17.499  0.0454 -0.3719  0.4924
  279MPD2     H 4215   2.178   2.904  17.667 -2.1209 -0.7981  0.5434
  279MPD2    H1 4216   2.118   2.630  17.338  1.3168 -1.2049 -0.0170
  279MPD2    H2 4217   2.357   2.510  17.658  0.2309  0.8024 -0.9441
  279MPD2    H3 4218   2.270   2.489  17.446  0.9587  0.3335 -0.2978
  279MPD2     N 4219   2.077   2.885  17.419 -0.3680  0.1602  0.0735
  279MPD2    H5 4220   2.033   2.848  17.335 -1.7807  0.3050  0.7415
  279MPD2    N1 4221   2.292   2.717   0.125 -0.2508 -0.5738 -0.3001
  279MPD2    H7 4222   2.357   2.651   0.167  4.8979  2.1404 -3.9589
  280TMC3    C1 4223   2.100   2.861   0.197  0.3285  0.0421  0.0123
  280TMC3    C2 4224   2.005   2.790   0.128  1.1488  0.0655 -0.2622
  280TMC3    C3 4225   1.884   2.856   0.106 -0.8085 -0.1535  0.7180
  280TMC3    C4 4226   2.074   2.990   0.239 -0.5903  0.9396  0.0207
  280TMC3    C5 4227   1.961   3.055   0.197  1.3624  0.0527  0.5901
  280TMC3    C6 4228   1.865   2.989   0.138 -0.1247  0.0503  0.6628
  280TMC3     C 4229   2.233   2.801   0.222  0.4035  0.4359  0.1736
  280TMC3     O 4230   2.269   2.831   0.337 -0.3818 -0.7663  0.8553
  280TMC3     H 4231   2.020   2.684   0.111  0.9172  0.1902 -1.2553
  280TMC3    H1 4232   2.159   3.043   0.281  0.5936 -1.0785  0.1846
  280TMC3    H2 4233   1.771   3.037   0.113  0.8477  2.4193  1.5562
  280TMC3    C7 4234   1.987   3.187   0.141 -0.4378 -0.1628  0.0221
  280TMC3    C8 4235   1.827   2.822  17.682 -0.4536  0.5033  0.3905
  280TMC3    O1 4236   2.091   3.236   0.182  0.4670 -0.1003  0.2849
  280TMC3    O2 4237   1.787   2.920  17.625 -0.0921 -0.0674 -0.3274
  281TMC3    C1 4238   0.327   3.360  13.480 -0.6748  0.4328 -0.5907
  281TMC3    C2 4239   0.452   3.351  13.419  0.2700 -0.1922  0.0814
  281TMC3    C3 4240   0.475   3.232  13.356  0.4574 -0.1115 -0.2548
  281TMC3    C4 4241   0.229   3.266  13.471 -0.5388  0.3829 -0.3940
  281TMC3    C5 4242   0.258   3.151  13.403 -0.3268  0.4063  0.1364
  281TMC3    C6 4243   0.387   3.134  13.350 -0.4287 -0.4329  0.4052
  281TMC3     C 4244   0.274   3.495  13.505  0.0233  0.0998  0.7716
  281TMC3     O 4245   0.158   3.520  13.475 -0.8329  0.1136  0.5800
  281TMC3     H 4246   0.537   3.419  13.418  0.1539 -0.0506 -0.3247
  281TMC3    H1 4247   0.131   3.282  13.514  1.2961  2.3998  2.9900
  281TMC3    H2 4248   0.411   3.035  13.312  4.8294  1.1155 -0.2902
  281TMC3    C7 4249   0.160   3.041  13.422  0.5143  0.7604  0.0866
  281TMC3    C8 4250   0.591   3.203  13.280 -0.4116 -0.0256 -0.4613
  281TMC3    O1 4251   0.048   3.084  13.450  0.7452  0.1157 -0.0933
  281TMC3    O2 4252   0.629   3.087  13.297  0.5950 -0.3287  0.9208
  282MPD2     C 4253   2.222   4.580  14.767 -1.0858  0.3080  0.4332
  282MPD2    C1 4254   2.155   4.697  14.816 -0.3601 -0.1998  0.7520
  282MPD2    C2 4255   2.097   0.058  14.722 -0.0243 -0.0755  0.2248
  282MPD2    C3 4256   2.088   0.031  14.592 -0.8682  0.2044 -0.6266
  282MPD2    C4 4257   2.148   4.639  14.542 -0.3265  0.0779  0.2040
  282MPD2    C5 4258   2.220   4.560  14.630  0.1655 -0.6943 -0.1042
  282MPD2     H 4259   2.069   0.155  14.761  1.9171 -0.4983  2.7148
  282MPD2    H1 4260   2.157   4.615  14.437 -0.9059 -2.9983  0.8472
  282MPD2    H2 4261   2.284   4.517  14.831  1.1458  1.1306 -0.9267
  282MPD2    H3 4262   2.265   4.477  14.576 -0.0748 -1.8369  1.4371
  282MPD2     N 4263   2.036   0.123  14.500  0.9652  0.5755 -0.6572
  282MPD2    H5 4264   2.007   0.210  14.543 -0.3306 -1.4287  2.4829
  282MPD2    N1 4265   2.146   0.011  14.949 -0.0452  0.1049  0.0747
  282MPD2    H7 4266   2.098   0.096  14.975 -0.1591  0.5533 -1.6639
  283TMC3    C1 4267   2.173   4.726  15.182  0.2752 -0.6966 -0.1091
  283TMC3    C2 4268   2.188   0.138  15.191 -0.4727 -0.0656 -0.5614
  283TMC3    C3 4269   2.161   0.182  15.313  0.6314  0.5832 -0.3155
  283TMC3    C4 4270   2.135   4.642  15.281 -0.5214 -0.0383  0.3305
  283TMC3    C5 4271   2.096   4.694  15.402 -0.4802 -0.2135 -0.0980
  283TMC3    C6 4272   2.114   0.102  15.421 -0.3996 -0.5286  1.1488
  283TMC3     C 4273   2.188   4.657  15.052  0.3056 -0.4871 -0.6881
  283TMC3     O 4274   2.217   4.539  15.060  0.6291  0.2469 -0.0885
  283TMC3     H 4275   2.240   0.197  15.116 -2.0568  0.2097 -1.4462
  283TMC3    H1 4276   2.119   4.537  15.259 -0.8148  0.2164 -0.6514
  283TMC3    H2 4277   2.060   0.154  15.499  1.3893 -1.9037  3.2843
  283TMC3    C7 4278   1.977   4.626  15.458 -0.2948 -0.1016 -0.0642
  283TMC3    C8 4279   2.192   0.320  15.341  0.2621 -0.1049  0.2198
  283TMC3    O1 4280   1.944   4.666  15.572 -0.1336  0.3436 -0.3289
  283TMC3    O2 4281   2.192   0.395  15.246 -0.0896  0.0983 -0.3386
  284MPD2     C 4282   0.506   3.830  11.781  0.3659 -0.0592  0.0574
  284MPD2    C1 4283   0.615   3.772  11.716  0.1038  0.6456  0.3774
  284MPD2    C2 4284   0.613   3.638  11.695  0.6635  0.2070 -0.3835
  284MPD2    C3 4285   0.511   3.556  11.742  0.8144  0.3475  0.3266
  284MPD2    C4 4286   0.408   3.616  11.820  0.0213 -0.3072  0.3377
  284MPD2    C5 4287   0.414   3.751  11.845 -0.0437 -0.0765 -0.0945
  284MPD2     H 4288   0.700   3.589  11.651  1.1760  1.3738 -0.6765
  284MPD2    H1 4289   0.320   3.566  11.859 -0.2498  0.0142  0.1330
  284MPD2    H2 4290   0.483   3.935  11.787  1.6231  0.2580 -0.8419
  284MPD2    H3 4291   0.329   3.794  11.897  0.6219  0.4925  0.5300
  284MPD2     N 4292   0.523   3.421  11.732  0.1564 -0.5951  0.1094
  284MPD2    H5 4293   0.617   3.385  11.721  0.6071  0.6872 -0.2909
  284MPD2    N1 4294   0.719   3.852  11.667 -0.4383  0.1248 -0.3599
  284MPD2    H7 4295   0.795   3.807  11.617 -2.1924 -2.9602 -0.1771
  285TMC3    C1 4296   0.856   4.035  11.635  0.6764 -0.1626  0.4029
  285TMC3    C2 4297   0.919   3.954  11.544  0.0807 -0.2727 -0.0549
  285TMC3    C3 4298   1.058   3.948  11.553 -0.3915 -0.2669 -0.3386
  285TMC3    C4 4299   0.916   4.125  11.718  0.5639 -1.1227 -0.3142
  285TMC3    C5 4300   1.053   4.116  11.716  0.0582  0.0488  0.0898
  285TMC3    C6 4301   1.123   4.038  11.626  0.3324  0.5543 -0.2887
  285TMC3     C 4302   0.735   3.986  11.691 -0.7665 -0.8300 -0.2807
  285TMC3     O 4303   0.673   4.070  11.761 -0.3793 -0.0177  0.1527
  285TMC3     H 4304   0.861   3.891  11.478  0.7104  1.6886 -2.4626
  285TMC3    H1 4305   0.865   4.160  11.808  0.9204 -0.4588 -0.3683
  285TMC3    H2 4306   1.231   4.046  11.617  0.3688  0.4359  0.0282
  285TMC3    C7 4307   1.123   4.219  11.790  0.0672  0.1764  0.5906
  285TMC3    C8 4308   1.124   3.853  11.471 -0.2666 -0.0336 -0.1725
  285TMC3    O1 4309   1.053   4.307  11.843  0.0549 -0.0663  0.3276
  285TMC3    O2 4310   1.054   3.786  11.397  0.4543  0.2030 -0.1243
  286MPD2     C 4311   1.834   3.823   1.802 -0.1735 -0.1676  0.2713
  286MPD2    C1 4312   1.745   3.752   1.719  0.1075  1.2154  0.1034
  286MPD2    C2 4313   1.777   3.625   1.665  0.0169 -0.3041 -0.6263
  286MPD2    C3 4314   1.911   3.581   1.682  0.3222 -0.8094 -0.1441
  286MPD2    C4 4315   1.994   3.651   1.773  0.7103 -0.1504  1.0165
  286MPD2    C5 4316   1.953   3.772   1.827  0.2994  0.0347  0.9105
  286MPD2     H 4317   1.702   3.570   1.609  0.4073  0.2997 -1.7536
  286MPD2    H1 4318   2.094   3.616   1.798  0.3626 -1.9591 -0.1666
  286MPD2    H2 4319   1.815   3.922   1.843  0.2539 -0.3440  0.8854
  286MPD2    H3 4320   2.026   3.835   1.878  0.2302 -0.0722  1.1417
  286MPD2     N 4321   1.963   3.453   1.631 -0.6800  0.1812 -0.1394
  286MPD2    H5 4322   2.059   3.432   1.654 -1.2302 -2.0195  0.1943
  286MPD2    N1 4323   1.611   3.796   1.694  0.6355 -0.1708  0.2550
  286MPD2    H7 4324   1.548   3.751   1.628 -0.1830  0.8544  0.3325
  287TMC3    C1 4325   1.981   3.248   1.515  0.6768  0.0585 -0.3900
  287TMC3    C2 4326   1.921   3.124   1.487  0.4709  0.3533  0.7906
  287TMC3    C3 4327   2.012   3.034   1.429  0.1827  1.1188  0.1069
  287TMC3    C4 4328   2.113   3.277   1.493  0.2978  0.3946  1.0689
  287TMC3    C5 4329   2.196   3.173   1.460  0.6177  0.6892 -0.1026
  287TMC3    C6 4330   2.149   3.051   1.418  0.0975  0.2120 -0.7327
  287TMC3     C 4331   1.893   3.359   1.562  0.3114  0.6876  0.4346
  287TMC3     O 4332   1.780   3.363   1.523  0.5188  0.1854 -0.2217
  287TMC3     H 4333   1.822   3.092   1.515  0.7766 -2.4593 -1.3981
  287TMC3    H1 4334   2.147   3.379   1.484  0.7741  0.1802  0.4362
  287TMC3    H2 4335   2.212   2.969   1.385  0.2452 -0.4179  1.1071
  287TMC3    C7 4336   2.336   3.196   1.489 -0.2598  0.4885 -0.4744
  287TMC3    C8 4337   1.952   2.914   1.371  0.1989  0.3921 -0.2679
  287TMC3    O1 4338   2.363   3.276   1.582  0.0749  0.1600 -0.2136
  287TMC3    O2 4339   2.034   2.824   1.339  0.5216  0.1489  0.3419
  288TMC3    C1 4340   2.818   2.540  14.807 -0.1278  0.5379  0.5250
  288TMC3    C2 4341   2.755   2.523  14.929  0.1981  0.1785 -0.1163
  288TMC3    C3 4342   2.724   2.642  14.993 -0.0882 -0.1006 -0.1102
  288TMC3    C4 4343   2.848   2.668  14.754 -0.0391  0.1650  0.2847
  288TMC3    C5 4344   2.817   2.774  14.825 -0.4703  0.1366 -0.3338
  288TMC3    C6 4345   2.753   2.764  14.944  0.2265  0.1603  0.5170
  288TMC3     C 4346   2.845   2.423  14.725 -0.1727 -0.2916  0.8472
  288TMC3     O 4347   2.883   2.436  14.610  0.1478  0.1867 -0.1485
  288TMC3     H 4348   2.727   2.426  14.968 -0.9246 -0.0451 -1.5170
  288TMC3    H1 4349   2.891   2.683  14.656  1.2775  0.2120  0.8635
  288TMC3    H2 4350   2.706   2.847  14.995  0.8747 -0.1048  1.5598
  288TMC3    C7 4351   2.839   2.905  14.765  0.0703 -0.0846  0.0346
  288TMC3    C8 4352   2.703   2.646  15.138  0.4475 -0.1378  0.0075
  288TMC3    O1 4353   2.859   2.912  14.645  0.0103 -0.2831 -0.5266
  288TMC3    O2 4354   2.718   2.753  15.190  0.6925  0.0403  0.3726
  289MPD2     C 4355   3.016   1.380  15.124  0.0525  0.6882 -0.3567
  289MPD2    C1 4356   3.030   1.504  15.078  0.4308 -0.0832 -0.3301
  289MPD2    C2 4357   2.923   1.574  15.033  0.6000  0.1065  0.8020
  289MPD2    C3 4358   2.799   1.516  15.033  0.4204  0.4994 -0.6552
  289MPD2    C4 4359   2.783   1.377  15.057  0.3615 -0.0011  0.1789
  289MPD2    C5 4360   2.895   1.315  15.110  0.1919 -0.4409 -0.3296
  289MPD2     H 4361   2.930   1.678  15.004 -0.5894  0.2864  1.1643
  289MPD2    H1 4362   2.698   1.315  15.030  0.4174 -0.8176  1.8927
  289MPD2    H2 4363   3.099   1.332  15.175  0.5724  1.0858 -0.8288
  289MPD2    H3 4364   2.903   1.217  15.154 -1.6909 -1.3089 -1.9164
  289MPD2     N 4365   2.689   1.585  14.979  0.7045  0.1819 -0.0682
  289MPD2    H5 4366   2.603   1.535  14.958  1.1291  0.2282 -1.9395
  289MPD2    N1 4367   3.157   1.562  15.091  0.5598 -0.5988 -0.4133
  289MPD2    H7 4368   3.235   1.500  15.110 -0.0539 -1.2212  0.1137
  290TMC3    C1 4369   2.618   1.756  14.842  0.3508 -0.1856 -0.0691
  290TMC3    C2 4370   2.594   1.888  14.842 -0.1594 -0.0195 -0.0422
  290TMC3    C3 4371   2.589   1.959  14.726  0.5938 -0.5185 -0.2832
  290TMC3    C4 4372   2.647   1.688  14.728 -0.1953  0.0092  0.2872
  290TMC3    C5 4373   2.635   1.757  14.613 -0.2632  1.1094 -0.0703
  290TMC3    C6 4374   2.613   1.895  14.610  0.1952  0.4936  0.0298
  290TMC3     C 4375   2.685   1.718  14.960 -0.5303 -0.2416  0.0134
  290TMC3     O 4376   2.740   1.808  15.019 -0.1062 -0.1338 -0.5773
  290TMC3     H 4377   2.573   1.931  14.939  0.3217 -1.1583  0.5679
  290TMC3    H1 4378   2.671   1.583  14.726  1.1851  0.3328 -0.4860
  290TMC3    H2 4379   2.613   1.943  14.513 -1.2107 -1.2968 -0.8350
  290TMC3    C7 4380   2.662   1.701  14.478  0.3615 -0.4204  0.2132
  290TMC3    C8 4381   2.536   2.092  14.725 -0.5440  0.3547 -0.3329
  290TMC3    O1 4382   2.713   1.777  14.396 -0.1536 -0.1319  0.1100
  290TMC3    O2 4383   2.546   2.157  14.827  0.4013 -0.4066  0.1082
  291MPD2     C 4384   1.505   1.219   0.372  0.1470  0.5510 -0.1410
  291MPD2    C1 4385   1.538   1.126   0.279  0.5924 -0.1640 -0.1775
  291MPD2    C2 4386   1.643   1.038   0.300 -0.2318 -0.5101 -0.6387
  291MPD2    C3 4387   1.726   1.069   0.412 -0.4142 -0.0868 -0.4254
  291MPD2    C4 4388   1.681   1.152   0.506  0.1720 -0.6231  0.1384
  291MPD2    C5 4389   1.581   1.237   0.482 -0.4875 -0.4991  0.8873
  291MPD2     H 4390   1.681   0.977   0.219 -0.5913 -1.1596 -0.3229
  291MPD2    H1 4391   1.743   1.180   0.590 -0.4976  0.3596  0.3154
  291MPD2    H2 4392   1.427   1.294   0.363 -0.0659  0.3105 -0.3252
  291MPD2    H3 4393   1.547   1.322   0.541 -2.8416 -0.6285 -0.2375
  291MPD2     N 4394   1.847   1.003   0.443 -0.3630 -0.1931 -0.6192
  291MPD2    H5 4395   1.907   1.048   0.512 -0.3897 -0.3540 -0.4920
  291MPD2    N1 4396   1.472   1.105   0.162 -0.4136 -0.5478 -0.3677
  291MPD2    H7 4397   1.502   1.031   0.100  0.0689 -1.2309  0.6940
  292TMC3    C1 4398   1.326   1.147  17.689 -0.2278 -0.1598 -0.1661
  292TMC3    C2 4399   1.199   1.198  17.650 -0.5887 -0.0873 -0.1127
  292TMC3    C3 4400   1.155   1.158  17.530 -0.7033 -0.0846 -0.2859
  292TMC3    C4 4401   1.394   1.070  17.604  0.1698 -0.3728  0.0279
  292TMC3    C5 4402   1.341   1.023  17.487  0.0906  0.2929  0.3412
  292TMC3    C6 4403   1.215   1.069  17.452  0.2086  0.1670 -0.1494
  292TMC3     C 4404   1.369   1.186   0.110 -0.4297  0.1527 -0.0537
  292TMC3     O 4405   1.310   1.282   0.160 -0.8909  0.0718  0.0524
  292TMC3     H 4406   1.134   1.264   0.001 -0.0152  0.1225  0.3015
  292TMC3    H1 4407   1.486   1.017  17.626 -1.4229 -2.2212  2.2772
  292TMC3    H2 4408   1.159   1.020  17.373  0.2824  0.9101 -0.6573
  292TMC3    C7 4409   1.415   0.912  17.421 -0.0624  0.2194  0.4717
  292TMC3    C8 4410   1.011   1.142  17.536  0.3442 -0.0197  0.3439
  292TMC3    O1 4411   1.470   0.824  17.491  0.1806 -0.1124  0.0349
  292TMC3    O2 4412   0.938   1.238  17.561 -0.0075 -0.0999 -0.4928
  293MPD2     C 4413   3.891   3.133  12.797 -0.1363  0.0504 -0.4434
  293MPD2    C1 4414   3.849   3.025  12.863 -0.4912 -0.5337  0.0052
  293MPD2    C2 4415   3.879   3.028  12.999  0.9515 -0.6580  0.2040
  293MPD2    C3 4416   3.974   3.117  13.054 -0.2638  0.0013  0.5594
  293MPD2    C4 4417   4.019   3.222  12.976 -0.7753 -0.1118 -0.3269
  293MPD2    C5 4418   3.972   3.229  12.846  0.3496  0.4196 -0.0987
  293MPD2     H 4419   3.828   2.953  13.058  0.9357 -0.2083  0.7553
  293MPD2    H1 4420   4.091   3.297  13.007 -0.4314  0.2026 -1.8646
  293MPD2    H2 4421   3.860   3.155  12.695 -3.2414  2.3614  1.0002
  293MPD2    H3 4422   4.004   3.310  12.781  0.0876 -1.7604 -2.8954
  293MPD2     N 4423   4.021   3.111  13.187  0.3651 -0.8054 -0.0773
  293MPD2    H5 4424   3.993   3.033  13.246  1.4044 -0.1440  1.2967
  293MPD2    N1 4425   3.775   2.931  12.791 -0.0092 -0.0555 -0.4101
  293MPD2    H7 4426   3.755   2.954  12.695 -1.1550 -0.4111 -0.2606
  294TMC3    C1 4427   3.641   2.754  12.736  0.1568  0.1874 -0.7090
  294TMC3    C2 4428   3.659   2.617  12.737 -0.1532  0.0420  0.4847
  294TMC3    C3 4429   3.639   2.555  12.624  0.2001 -0.5143 -0.3800
  294TMC3    C4 4430   3.605   2.827  12.628 -0.1080 -0.3203  0.4610
  294TMC3    C5 4431   3.584   2.755  12.513  0.4457 -0.5461  1.0183
  294TMC3    C6 4432   3.613   2.623  12.505 -0.2084 -0.0319 -0.1558
  294TMC3     C 4433   3.722   2.813  12.834 -0.2470 -0.0849  0.4159
  294TMC3     O 4434   3.727   2.765  12.946 -0.1887 -0.2578 -0.4267
  294TMC3     H 4435   3.675   2.557  12.826 -1.5310 -1.8708 -0.5434
  294TMC3    H1 4436   3.568   2.928  12.629  0.0902 -0.2194 -1.1484
  294TMC3    H2 4437   3.594   2.561  12.418 -1.9457 -0.7080  0.7109
  294TMC3    C7 4438   3.561   2.836  12.397 -0.2186 -0.4366  0.5682
  294TMC3    C8 4439   3.688   2.421  12.625  0.3005  0.7377  0.3852
  294TMC3    O1 4440   3.504   2.943  12.414  0.9194  0.0214 -0.3915
  294TMC3    O2 4441   3.783   2.391  12.696  0.1675  0.5382  0.3266
  295MPD2     C 4442   4.035   1.753   1.105  0.7782 -0.4601 -0.5018
  295MPD2    C1 4443   4.087   1.851   1.023  0.6369 -0.1712  0.1072
  295MPD2    C2 4444   4.079   1.983   1.060 -0.6446 -0.8465 -0.9459
  295MPD2    C3 4445   4.015   2.019   1.177  0.6185  0.4563 -0.6035
  295MPD2    C4 4446   3.966   1.918   1.260  0.1580  0.3013  0.3426
  295MPD2    C5 4447   3.979   1.785   1.225 -0.5968  0.1315 -0.6345
  295MPD2     H 4448   4.125   2.055   0.995 -3.6107  0.8344 -1.1942
  295MPD2    H1 4449   3.914   1.946   1.351  1.5225  0.5633  1.0378
  295MPD2    H2 4450   4.034   1.649   1.075 -1.3180 -1.1630  2.0528
  295MPD2    H3 4451   3.930   1.712   1.288 -1.1113  0.4946 -0.6172
  295MPD2     N 4452   4.007   2.149   1.236 -0.3993  1.1161 -0.0885
  295MPD2    H5 4453   3.980   2.166   1.332 -3.6231 -0.0686 -0.7969
  295MPD2    N1 4454   4.159   1.824   0.906  1.1965  0.5661  0.3785
  295MPD2    H7 4455   4.198   1.904   0.858 -2.4277  1.4774 -1.0645
  296TMC3    C1 4456   4.033   2.376   1.255 -0.6980 -0.6304 -0.0302
  296TMC3    C2 4457   4.094   2.492   1.210 -0.0063 -0.0772  0.6799
  296TMC3    C3 4458   4.074   2.606   1.280  0.2211  0.2992  0.0984
  296TMC3    C4 4459   3.936   2.379   1.358 -0.4362  0.4075  0.1726
  296TMC3    C5 4460   3.926   2.490   1.427  0.3484 -0.3401  0.8414
  296TMC3    C6 4461   3.982   2.607   1.386 -0.5606  0.2895 -0.5581
  296TMC3     C 4462   4.044   2.260   1.169 -0.5099  0.5050  0.1547
  296TMC3     O 4463   4.096   2.283   1.057 -0.7956 -0.3045  0.1909
  296TMC3     H 4464   4.170   2.499   1.133 -0.3035  1.3768  0.5182
  296TMC3    H1 4465   3.879   2.292   1.388 -0.7290  1.0254  1.4060
  296TMC3    H2 4466   3.971   2.703   1.435 -2.3116 -0.0925 -0.2152
  296TMC3    C7 4467   3.860   2.487   1.554 -0.0049 -0.1285  0.2004
  296TMC3    C8 4468   4.195   2.677   1.320  0.2103 -0.2596  0.2718
  296TMC3    O1 4469   3.821   2.601   1.589 -0.3004 -0.1995  0.0695
  296TMC3    O2 4470   4.281   2.617   1.383  0.0589 -0.4321 -0.1711
  297MPD2     C 4471   1.526   3.583  16.471 -0.2237 -0.5267  0.2046
  297MPD2    C1 4472   1.515   3.694  16.394 -0.2520  0.3511 -0.5365
  297MPD2    C2 4473   1.629   3.767  16.367 -0.4213 -0.2564 -0.3167
  297MPD2    C3 4474   1.757   3.732  16.413  0.5484 -0.2577  0.1380
  297MPD2    C4 4475   1.766   3.622  16.500  0.0247 -0.5262  0.1658
  297MPD2    C5 4476   1.644   3.551  16.533 -0.8790 -0.2250  0.5927
  297MPD2     H 4477   1.615   3.854  16.304  1.0772 -0.1794 -0.5509
  297MPD2    H1 4478   1.859   3.593  16.547  1.7744  0.0776 -2.9150
  297MPD2    H2 4479   1.447   3.512  16.488  1.0151 -1.9602 -0.0448
  297MPD2    H3 4480   1.643   3.467  16.602  1.0521  0.1198  1.0505
  297MPD2     N 4481   1.863   3.808  16.361  0.2886  0.5961  0.0014
  297MPD2    H5 4482   1.833   3.898  16.324 -1.0286  1.3441  2.8436
  297MPD2    N1 4483   1.394   3.733  16.323 -0.3487 -0.2586 -0.7132
  297MPD2    H7 4484   1.405   3.804  16.252 -0.8731  0.2371 -0.2964
  298TMC3    C1 4485   1.151   3.756  16.284 -0.3837 -0.5118  0.3232
  298TMC3    C2 4486   1.176   3.842  16.176 -0.1026  0.2713 -0.5802
  298TMC3    C3 4487   1.071   3.918  16.138 -0.3297 -0.6731 -0.4244
  298TMC3    C4 4488   1.026   3.734  16.331  0.4579  0.3579 -0.8709
  298TMC3    C5 4489   0.928   3.816  16.288 -0.3368  0.1353  0.8861
  298TMC3    C6 4490   0.947   3.913  16.190  0.3975 -0.5083  0.0096
  298TMC3     C 4491   1.264   3.693  16.350  0.0434 -0.3165 -0.2570
  298TMC3     O 4492   1.231   3.626  16.450  0.1111 -0.4741  0.0474
  298TMC3     H 4493   1.275   3.854  16.133 -0.2208 -1.1253 -1.2428
  298TMC3    H1 4494   0.991   3.664  16.406 -1.4635  1.2767 -0.9183
  298TMC3    H2 4495   0.872   3.980  16.151 -0.4615 -1.2775  0.3422
  298TMC3    C7 4496   0.841   3.848  16.392  0.5962 -0.1890 -0.2807
  298TMC3    C8 4497   1.085   3.993  16.012  0.0752  0.1002 -0.3032
  298TMC3    O1 4498   0.885   3.853  16.504 -0.1278  0.1399  0.9715
  298TMC3    O2 4499   0.996   4.070  15.974  0.4542  0.2400  0.5091
  299MPD2     C 4500   2.249   3.194  10.704 -0.6151  0.7005  0.3195
  299MPD2    C1 4501   2.282   3.314  10.650  0.2967  0.6370 -0.3753
  299MPD2    C2 4502   2.224   3.352  10.533  0.2413  0.4989 -0.1202
  299MPD2    C3 4503   2.139   3.272  10.462  0.3827 -0.3026 -0.2428
  299MPD2    C4 4504   2.109   3.149  10.519 -0.2901  0.4303 -0.1217
  299MPD2    C5 4505   2.158   3.112  10.641 -0.2941 -0.8637  0.2940
  299MPD2     H 4506   2.234   3.456  10.504  1.0447  0.3707 -0.2991
  299MPD2    H1 4507   2.043   3.079  10.468 -0.7693  0.4179  0.5171
  299MPD2    H2 4508   2.278   3.167  10.805 -0.1341 -1.4472 -0.3914
  299MPD2    H3 4509   2.123   3.018  10.683  1.1980 -0.5343  2.2809
  299MPD2     N 4510   2.080   3.302  10.341  0.5500 -0.1872 -0.5272
  299MPD2    H5 4511   2.018   3.230  10.304 -0.0530  0.4486 -0.7499
  299MPD2    N1 4512   2.362   3.400  10.730  0.6520  0.1415 -0.2941
  299MPD2    H7 4513   2.365   3.371  10.827  0.0536 -0.5861 -0.4936
  300TMC3    C1 4514   1.976   3.449  10.184  0.1397 -0.6638 -0.0417
  300TMC3    C2 4515   1.934   3.579  10.183  0.8262  0.1398 -0.4952
  300TMC3    C3 4516   1.810   3.616  10.138  0.2016  0.0336  0.8414
  300TMC3    C4 4517   1.889   3.347  10.154 -0.4820  0.0727 -0.7087
  300TMC3    C5 4518   1.763   3.389  10.128 -0.0882  0.2630  0.2894
  300TMC3    C6 4519   1.722   3.516  10.105 -0.2965 -0.2677 -0.3571
  300TMC3     C 4520   2.089   3.417  10.269  0.2155  0.0732 -0.6105
  300TMC3     O 4521   2.155   3.520  10.287  0.1864 -0.6172 -0.2325
  300TMC3     H 4522   2.009   3.657  10.190  1.9326 -1.1237  1.7353
  300TMC3    H1 4523   1.931   3.248  10.147  1.5824  0.8381  0.8684
  300TMC3    H2 4524   1.616   3.538  10.101 -0.4790 -1.4583 -1.6291
  300TMC3    C7 4525   1.673   3.276  10.128  0.5439 -0.3170 -0.1770
  300TMC3    C8 4526   1.752   3.744  10.161  0.4264  0.5739 -0.1566
  300TMC3    O1 4527   1.706   3.177  10.063 -0.8603 -0.5454  0.3076
  300TMC3    O2 4528   1.695   3.805  10.069  0.6376  0.3989  0.4093
  301MPD2     C 4529   0.566   0.141   1.432  0.4436 -0.3234 -0.5509
  301MPD2    C1 4530   0.502   0.097   1.316  0.2229  0.2191  0.3284
  301MPD2    C2 4531   0.487   4.691   1.292  0.3789 -0.2084  0.9079
  301MPD2    C3 4532   0.550   4.594   1.371  0.0727 -0.3642 -0.3454
  301MPD2    C4 4533   0.623   4.639   1.480 -0.0111 -0.5754 -0.3478
  301MPD2    C5 4534   0.617   0.044   1.522 -0.4031 -0.5325 -0.0887
  301MPD2     H 4535   0.429   4.663   1.205 -0.4957 -0.0077  1.4328
  301MPD2    H1 4536   0.667   4.564   1.545 -1.6407 -1.4445 -0.2573
  301MPD2    H2 4537   0.571   0.244   1.463  2.5413 -0.5321 -0.2013
  301MPD2    H3 4538   0.652   0.067   1.622  1.7771  0.2958 -1.0577
  301MPD2     N 4539   0.562   4.453   1.331 -0.1887  0.3858 -0.2964
  301MPD2    H5 4540   0.592   4.388   1.403 -0.3539  0.9780  0.3052
  301MPD2    N1 4541   0.459   0.190   1.219  0.1469  0.1110 -0.3173
  301MPD2    H7 4542   0.425   0.145   1.134  2.1950 -2.1591  0.0437
  302TMC3    C1 4543   0.520   4.258   1.203 -0.0266  0.3694 -0.5301
  302TMC3    C2 4544   0.600   4.178   1.280  0.3708 -0.3031 -0.6762
  302TMC3    C3 4545   0.581   4.046   1.262  0.4860  0.6177 -0.3366
  302TMC3    C4 4546   0.430   4.210   1.110  0.1636  0.7637  0.0863
  302TMC3    C5 4547   0.418   4.076   1.095  0.5079  0.2317 -0.7329
  302TMC3    C6 4548   0.495   3.991   1.169 -0.0721 -0.3094  0.1356
  302TMC3     C 4549   0.524   4.404   1.203 -0.6682  0.9708  0.2284
  302TMC3     O 4550   0.473   4.469   1.110 -0.2553  0.2023 -0.5609
  302TMC3     H 4551   0.674   4.218   1.349  1.2048 -0.9639 -1.1955
  302TMC3    H1 4552   0.385   4.281   1.041 -1.5186 -2.5083 -2.1343
  302TMC3    H2 4553   0.501   3.884   1.157 -1.2405 -0.5144  1.4813
  302TMC3    C7 4554   0.390   4.023   0.967 -0.0472  0.1124  0.5727
  302TMC3    C8 4555   0.652   3.952   1.338  0.3497  1.2760  0.5096
  302TMC3    O1 4556   0.440   3.921   0.925 -0.3040  0.5828 -0.2882
  302TMC3    O2 4557   0.673   3.842   1.289  0.4830 -0.3625  0.1257
  303MPD2     C 4558   3.672   3.432  10.970  0.1294 -0.3100  0.3152
  303MPD2    C1 4559   3.680   3.296  10.967 -0.8316 -0.4108  0.1667
  303MPD2    C2 4560   3.688   3.229  10.848 -0.8552  0.5605 -0.2077
  303MPD2    C3 4561   3.684   3.297  10.726  0.4662 -0.1345  0.4163
  303MPD2    C4 4562   3.683   3.435  10.732  0.3269 -1.0206 -0.6247
  303MPD2    C5 4563   3.681   3.504  10.851 -0.7125  0.1237 -0.2677
  303MPD2     H 4564   3.683   3.121  10.848  0.7138  0.4870 -0.3553
  303MPD2    H1 4565   3.682   3.493  10.641 -1.6743  1.1556  0.7867
  303MPD2    H2 4566   3.667   3.493  11.060 -0.4826 -0.0193  0.0846
  303MPD2    H3 4567   3.680   3.612  10.843 -0.0197  0.1400 -0.1825
  303MPD2     N 4568   3.680   3.233  10.599  0.8573  1.1945  0.7138
  303MPD2    H5 4569   3.695   3.297  10.522  1.1114 -1.3673 -1.3533
  303MPD2    N1 4570   3.676   3.238  11.097 -0.5254 -1.2969  0.5700
  303MPD2    H7 4571   3.654   3.297  11.176 -0.0097  0.5139 -0.6366
  304TMC3    C1 4572   3.725   3.083  11.267  0.0182  0.9481 -0.2458
  304TMC3    C2 4573   3.620   3.115  11.349  0.4654 -0.0120  0.0409
  304TMC3    C3 4574   3.617   3.045  11.468  0.0957 -0.1775  0.4456
  304TMC3    C4 4575   3.825   2.990  11.294  0.0922 -0.1046  0.4258
  304TMC3    C5 4576   3.821   2.931  11.420  0.0533 -0.2887  0.5458
  304TMC3    C6 4577   3.717   2.958  11.501 -0.5006 -0.8320 -0.3188
  304TMC3     C 4578   3.724   3.110  11.125 -0.3115  0.3179  0.2392
  304TMC3     O 4579   3.759   3.027  11.042  0.1049  0.6288  0.1893
  304TMC3     H 4580   3.534   3.166  11.307 -0.4328 -1.4229  0.1425
  304TMC3    H1 4581   3.906   2.978  11.223 -0.8376  1.9649 -0.9741
  304TMC3    H2 4582   3.712   2.923  11.604  2.8932 -2.4972 -0.7179
  304TMC3    C7 4583   3.842   2.791  11.417  0.5562  0.4453 -0.1168
  304TMC3    C8 4584   3.487   2.992  11.500 -0.0847 -0.0457 -0.1850
  304TMC3    O1 4585   3.742   2.731  11.452 -0.2999 -0.1228  0.1006
  304TMC3    O2 4586   3.395   3.071  11.508 -0.3046 -0.4013  0.2602
  305MPD2     C 4587   2.631   0.316  14.180  0.3281  0.1948 -0.7214
  305MPD2    C1 4588   2.571   0.194  14.202  0.4092  0.3261 -0.0231
  305MPD2    C2 4589   2.530   0.115  14.095 -0.5774  0.1114 -0.0677
  305MPD2    C3 4590   2.575   0.147  13.969 -0.0894  0.1577 -0.2104
  305MPD2    C4 4591   2.658   0.258  13.953  0.3160  0.4797  0.3128
  305MPD2    C5 4592   2.670   0.350  14.054 -0.0235  0.1166  0.4318
  305MPD2     H 4593   2.477   0.021  14.107 -0.4583  0.0876  0.2934
  305MPD2    H1 4594   2.711   0.278  13.861 -2.5532 -0.1774 -1.4901
  305MPD2    H2 4595   2.641   0.394  14.255 -3.9190  1.3495 -1.3298
  305MPD2    H3 4596   2.731   0.438  14.037 -0.4504 -0.0137 -1.7881
  305MPD2     N 4597   2.552   0.076  13.851  0.2148 -0.1921  0.2538
  305MPD2    H5 4598   2.599   0.098  13.764  0.0493 -1.6085 -0.2005
  305MPD2    N1 4599   2.546   0.165  14.339 -0.0797  0.3130 -0.0399
  305MPD2    H7 4600   2.581   0.230  14.409  0.4208  0.0550 -0.0458
  306TMC3    C1 4601   2.484   0.059  14.531 -0.3930  0.2460 -0.3874
  306TMC3    C2 4602   2.539   4.681  14.596 -0.5929 -0.4078  0.6878
  306TMC3    C3 4603   2.531   4.690  14.732 -0.1611 -0.5195  0.3194
  306TMC3    C4 4604   2.418   0.170  14.585  0.3616 -0.8760  0.0875
  306TMC3    C5 4605   2.418   0.166  14.722  0.0980 -0.6708  0.1937
  306TMC3    C6 4606   2.477   0.067  14.803 -0.0202  0.2365  1.1096
  306TMC3     C 4607   2.485   0.049  14.389  0.7827 -0.1904  0.3598
  306TMC3     O 4608   2.435   4.679  14.330 -0.6558 -0.1209  0.3288
  306TMC3     H 4609   2.572   4.588  14.550 -0.9984  0.4167 -1.2161
  306TMC3    H1 4610   2.359   0.245  14.534  0.3898 -1.7976 -1.2880
  306TMC3    H2 4611   2.462   0.047  14.909  1.5694 -2.0313  0.9057
  306TMC3    C7 4612   2.366   0.281  14.797 -0.8444  0.2361  0.0748
  306TMC3    C8 4613   2.622   4.607  14.807 -0.6438  0.3248 -0.2474
  306TMC3    O1 4614   2.280   0.354  14.750 -0.0895  0.7791  0.9808
  306TMC3    O2 4615   2.641   4.490  14.781 -0.6151  0.7178 -0.3257
  307MPD2     C 4616   0.600   2.248   0.605  0.9412 -0.1513 -0.1023
  307MPD2    C1 4617   0.605   2.394   0.610 -0.3579  0.5469 -0.1891
  307MPD2    C2 4618   0.582   2.456   0.731 -0.3351  0.1990 -0.9289
  307MPD2    C3 4619   0.546   2.380   0.846 -0.6427 -0.6688 -0.2990
  307MPD2    C4 4620   0.547   2.245   0.841  0.4026 -0.0334 -0.5777
  307MPD2    C5 4621   0.576   2.176   0.723 -0.0481 -0.0006  0.3263
  307MPD2     H 4622   0.592   2.563   0.746  1.5298  0.0805 -1.3222
  307MPD2    H1 4623   0.513   2.185   0.925 -0.0991  0.1877 -0.6258
  307MPD2    H2 4624   0.615   2.195   0.511 -1.1322 -1.2825  0.1870
  307MPD2    H3 4625   0.568   2.068   0.721  0.2400 -0.0633  2.1665
  307MPD2     N 4626   0.515   2.455   0.960  0.1807  0.4194 -0.1974
  307MPD2    H5 4627   0.527   2.556   0.960 -0.3289  0.4763 -0.4687
  307MPD2    N1 4628   0.623   2.473   0.491 -0.4753 -0.0648  0.1314
  307MPD2    H7 4629   0.623   2.574   0.500  0.7549 -0.1481  0.9388
  308TMC3    C1 4630   0.171   2.574   1.228  0.4158 -0.0727 -0.4696
  308TMC3    C2 4631   0.206   2.701   1.202  0.2574 -0.7415 -0.5038
  308TMC3    C3 4632   0.331   2.736   1.156  0.2603 -0.2589  0.4667
  308TMC3    C4 4633   0.262   2.478   1.198  0.1791 -0.0639 -0.9937
  308TMC3    C5 4634   0.384   2.508   1.151  0.1331 -0.0411  0.1401
  308TMC3    C6 4635   0.427   2.639   1.133 -0.4551 -0.5087 -0.2008
  308TMC3     C 4636   0.033   2.526   1.225  0.1016 -0.5729  0.1229
  308TMC3     O 4637   0.012   2.407   1.253  0.0516 -0.1403 -0.2091
  308TMC3     H 4638   0.136   2.776   1.236 -0.6415 -0.7587 -2.2947
  308TMC3    H1 4639   0.236   2.373   1.210 -1.8134  0.5331  0.0189
  308TMC3    H2 4640   0.532   2.659   1.114 -0.3842 -0.0187  0.6992
  308TMC3    C7 4641   0.447   2.405   1.076 -0.0822 -0.1747  0.3444
  308TMC3    C8 4642   0.378   2.851   1.222 -0.9163  0.1056 -0.1645
  308TMC3    O1 4643   0.416   2.286   1.091  0.0365 -0.2933  0.6814
  308TMC3    O2 4644   0.364   2.858   1.340 -0.0433  0.1034  0.2686
  309MPD2     C 4645   4.409   2.809  17.320 -0.2302  0.5773  0.4209
  309MPD2    C1 4646   4.336   2.862  17.212  0.1432  0.1043 -0.0919
  309MPD2    C2 4647   4.241   2.956  17.252  0.8094 -0.0281 -0.7342
  309MPD2    C3 4648   4.239   3.009  17.380 -0.0738 -0.6843  0.2159
  309MPD2    C4 4649   4.322   2.963  17.477  0.0580  0.5518  0.7661
  309MPD2    C5 4650   4.405   2.861  17.443 -0.0273 -0.2999  0.5105
  309MPD2     H 4651   4.177   2.982  17.168 -0.2392 -0.3812 -0.0502
  309MPD2    H1 4652   4.325   2.996  17.581 -0.7659 -1.2695  1.3654
  309MPD2    H2 4653   4.490   2.740  17.301 -1.2640  0.1097 -2.3116
  309MPD2    H3 4654   4.471   2.823  17.520 -0.5222  1.2035  1.6877
  309MPD2     N 4655   4.160   3.117  17.419  0.1212  1.0573 -0.2969
  309MPD2    H5 4656   4.178   3.139  17.516 -1.9615 -0.2198  0.3612
  309MPD2    N1 4657   4.354   2.828  17.072  0.9921  0.0768 -0.1643
  309MPD2    H7 4658   4.287   2.867  17.007  0.9295  0.9808  0.4483
  310TMC3    C1 4659   4.489   2.749  16.889 -0.5365 -0.8864  0.6679
  310TMC3    C2 4660   4.418   2.828  16.793  0.4103 -0.7139 -0.3584
  310TMC3    C3 4661   4.458   2.830  16.662  0.2693  0.5190  0.2633
  310TMC3    C4 4662   4.608   2.690  16.848  0.5348 -0.1746 -0.4586
  310TMC3    C5 4663   4.641   2.699  16.716 -0.5496  0.0254 -0.1849
  310TMC3    C6 4664   4.573   2.764  16.622 -0.5809  0.2457 -0.0347
  310TMC3     C 4665   4.473   2.761  17.033  0.0099  0.1242 -0.5003
  310TMC3     O 4666   4.576   2.731  17.091  0.7334 -0.4161  0.0750
  310TMC3     H 4667   4.336   2.890  16.827  0.8598 -0.9878  1.1936
  310TMC3    H1 4668   4.651   2.604  16.897 -0.0311  0.5440  1.2832
  310TMC3    H2 4669   4.620   2.773  16.524 -0.7449  0.7839 -0.0649
  310TMC3    C7 4670   0.041   2.642  16.671  0.3689 -0.2707 -0.5840
  310TMC3    C8 4671   4.374   2.905  16.564 -0.2455  0.3675 -0.0101
  310TMC3    O1 4672   0.048   2.598  16.553  0.3271 -0.0990  0.0171
  310TMC3    O2 4673   4.416   2.907  16.445  0.3544  0.4612 -0.1019
  311MPD2     C 4674   1.572   4.351  12.888 -0.5288 -0.2561 -0.4279
  311MPD2    C1 4675   1.572   4.484  12.855 -0.0776 -0.2559  0.4329
  311MPD2    C2 4676   1.452   4.558  12.868  0.3349  0.1555 -0.1094
  311MPD2    C3 4677   1.335   4.496  12.915 -0.0233  0.0509 -0.2940
  311MPD2    C4 4678   1.340   4.360  12.934  0.0334  0.4551 -0.0405
  311MPD2    C5 4679   1.453   4.290  12.913 -0.7425  0.3588 -1.1798
  311MPD2     H 4680   1.465   4.665  12.858  2.1903  0.0838  1.5156
  311MPD2    H1 4681   1.254   4.305  12.970 -0.5784 -0.7179 -3.2323
  311MPD2    H2 4682   1.654   4.281  12.875 -1.0568 -1.0095  0.3082
  311MPD2    H3 4683   1.438   4.186  12.940 -0.3231  0.3286 -1.0630
  311MPD2     N 4684   1.221   4.580  12.919  0.0114 -0.4686  1.0227
  311MPD2    H5 4685   1.235   4.670  12.875 -1.7241 -1.2860 -1.2000
  311MPD2    N1 4686   1.696   4.558  12.845 -0.2009 -0.2124 -0.2575
  311MPD2    H7 4687   1.689   4.646  12.795  1.5719  0.4647  0.6819
  312TMC3    C1 4688   0.991   4.643  12.924 -0.1261  1.3317 -0.2653
  312TMC3    C2 4689   0.861   4.600  12.906  0.1765 -0.0629  0.3422
  312TMC3    C3 4690   0.766   4.688  12.874 -0.4769  0.8142 -0.2690
  312TMC3    C4 4691   1.017   0.054  12.905 -0.3723  0.4747  0.0975
  312TMC3    C5 4692   0.914   0.140  12.897  0.3901 -0.0751  0.1078
  312TMC3    C6 4693   0.791   0.095  12.864 -0.2119  0.0143 -0.4788
  312TMC3     C 4694   1.095   4.544  12.952 -0.2918 -0.2935 -0.5659
  312TMC3     O 4695   1.050   4.447  13.009 -0.4141 -0.3580 -0.1425
  312TMC3     H 4696   0.850   4.492  12.898 -1.4820  0.0098  1.7253
  312TMC3    H1 4697   1.117   0.086  12.928 -0.4945  0.4747  0.6363
  312TMC3    H2 4698   0.711   0.168  12.868 -1.4301 -1.3048 -0.6557
  312TMC3    C7 4699   0.947   0.273  12.855  0.4769  0.4671  0.3036
  312TMC3    C8 4700   0.649   4.637  12.805  0.0670  0.6254  0.1760
  312TMC3    O1 4701   0.885   0.317  12.760 -0.0216  0.0359 -0.5611
  312TMC3    O2 4702   0.640   4.517  12.812  0.4765 -0.5266  0.1851
  313MPD2     C 4703   1.447   4.116  11.221 -0.2902  1.3825 -0.1028
  313MPD2    C1 4704   1.310   4.110  11.222  0.4474 -0.2763 -0.5700
  313MPD2    C2 4705   1.247   4.017  11.140 -0.2155 -0.6468 -0.3424
  313MPD2    C3 4706   1.310   3.944  11.039 -0.4176 -0.2503  0.3377
  313MPD2    C4 4707   1.446   3.949  11.045 -0.2349 -0.3164  0.6342
  313MPD2    C5 4708   1.511   4.036  11.129 -0.6827 -0.5025 -0.0880
  313MPD2     H 4709   1.142   3.988  11.144 -0.7673  1.2197 -1.5182
  313MPD2    H1 4710   1.513   3.892  10.982  1.4171  0.9335  1.2560
  313MPD2    H2 4711   1.502   4.185  11.284  1.0546  1.4299 -1.3404
  313MPD2    H3 4712   1.619   4.042  11.125 -0.5619 -1.3933  1.4900
  313MPD2     N 4713   1.241   3.860  10.955  0.2689  0.4576  0.0374
  313MPD2    H5 4714   1.141   3.853  10.970  0.3132  0.6763  0.4463
  313MPD2    N1 4715   1.235   4.188  11.306  0.3341 -0.6498  0.0321
  313MPD2    H7 4716   1.139   4.200  11.275  0.6942  0.8286 -0.5217
  314TMC3    C1 4717   1.194   4.338  11.478 -0.0216  0.0210  0.1849
  314TMC3    C2 4718   1.260   4.446  11.522 -0.0984  0.4325 -0.5547
  314TMC3    C3 4719   1.198   4.567  11.497 -0.7401  0.3653 -0.1960
  314TMC3    C4 4720   1.069   4.352  11.426  0.4275  0.1461  0.0644
  314TMC3    C5 4721   1.010   4.473  11.403 -0.4668 -0.5721 -0.7347
  314TMC3    C6 4722   1.077   4.586  11.439 -0.3802  0.1738 -0.1446
  314TMC3     C 4723   1.278   4.243  11.423 -0.0106  0.1377  0.2423
  314TMC3     O 4724   1.383   4.227  11.488 -0.8239 -0.1421 -0.2146
  314TMC3     H 4725   1.362   4.433  11.555 -0.2220  1.1662  0.1235
  314TMC3    H1 4726   1.019   4.265  11.386 -0.7173  0.7448  0.2205
  314TMC3    H2 4727   1.032   4.684  11.435 -1.5064 -0.4153 -1.6355
  314TMC3    C7 4728   0.920   4.474  11.291  0.7308 -0.0612 -0.1563
  314TMC3    C8 4729   1.283   4.677  11.489  0.1778  0.1644 -0.2925
  314TMC3    O1 4730   0.821   4.399  11.295 -0.0033  0.0439 -0.0896
  314TMC3    O2 4731   1.251   0.043  11.416  0.8421 -0.0465  0.1031
  315MPD2     C 4732   0.937   3.229  17.632  0.5536  0.2129  0.4468
  315MPD2    C1 4733   1.039   3.287   0.001 -0.6592 -0.4747 -0.3809
  315MPD2    C2 4734   1.123   3.379  17.648  0.9874  0.1576  0.5884
  315MPD2    C3 4735   1.113   3.405  17.512 -0.4313  0.5486 -0.2671
  315MPD2    C4 4736   1.010   3.348  17.440  0.3060  0.0161 -0.1004
  315MPD2    C5 4737   0.915   3.264  17.501 -0.2325  0.1040 -0.3237
  315MPD2     H 4738   1.206   3.416   0.002  1.6604 -0.4755  0.0523
  315MPD2    H1 4739   1.000   3.368  17.334  1.2932 -0.9004 -0.3603
  315MPD2    H2 4740   0.876   3.152  17.679 -0.6275 -0.1272 -1.6438
  315MPD2    H3 4741   0.849   3.209  17.434  0.0271  0.1556 -0.6207
  315MPD2     N 4742   1.215   3.495  17.460  0.3048 -0.2447  0.6233
  315MPD2    H5 4743   1.298   3.515  17.515  0.0069 -0.7163  1.2445
  315MPD2    N1 4744   1.064   3.258   0.139 -0.3430 -0.0574 -0.2397
  315MPD2    H7 4745   1.137   3.314   0.181 -0.3795 -1.0605  1.1739
  316TMC3    C1 4746   1.303   3.672  17.363 -0.7137  1.0447  0.2608
  316TMC3    C2 4747   1.438   3.636  17.398  0.2435 -0.4568 -0.6558
  316TMC3    C3 4748   1.513   3.748  17.425  0.3502  0.2885 -0.2713
  316TMC3    C4 4749   1.259   3.799  17.346 -0.2792 -0.4438 -0.3633
  316TMC3    C5 4750   1.346   3.903  17.363 -0.0618  0.4147 -0.0400
  316TMC3    C6 4751   1.473   3.879  17.410  0.4377 -0.0364 -0.4294
  316TMC3     C 4752   1.200   3.578  17.352 -0.0427  0.5793 -0.2701
  316TMC3     O 4753   1.106   3.591  17.274  0.3705  0.5356 -0.5706
  316TMC3     H 4754   1.467   3.533  17.408 -2.4088 -1.1198  0.3776
  316TMC3    H1 4755   1.156   3.823  17.323 -0.6575 -0.9165  0.8016
  316TMC3    H2 4756   1.531   3.969  17.430 -1.6960  1.4533 -0.9689
  316TMC3    C7 4757   1.288   4.027  17.417 -0.0985 -0.3583 -0.0730
  316TMC3    C8 4758   1.648   3.728  17.480 -0.0535 -0.3909 -0.4943
  316TMC3    O1 4759   1.335   4.065  17.519 -0.2517 -0.0422 -0.1086
  316TMC3    O2 4760   1.729   3.814  17.445  0.5553  0.2324 -0.4556
  317MPD2     C 4761   2.549   2.008  13.172 -0.2069 -0.6678 -0.8866
  317MPD2    C1 4762   2.575   1.888  13.115 -0.1737 -0.0167 -0.2153
  317MPD2    C2 4763   2.686   1.815  13.162 -0.1557 -0.5967  0.4232
  317MPD2    C3 4764   2.765   1.859  13.269 -0.2571  0.6890 -0.0215
  317MPD2    C4 4765   2.752   1.992  13.300 -0.4459 -0.9811  0.0787
  317MPD2    C5 4766   2.639   2.067  13.258  0.2553  0.5785  0.2121
  317MPD2     H 4767   2.696   1.709  13.143  1.1824 -0.7716  2.0785
  317MPD2    H1 4768   2.830   2.036  13.362 -1.5006 -1.0015  1.4098
  317MPD2    H2 4769   2.458   2.063  13.151  1.2200  0.8393 -3.0986
  317MPD2    H3 4770   2.628   2.171  13.283 -1.6805  0.3701  0.1696
  317MPD2     N 4771   2.868   1.772  13.305  0.2038 -0.6197 -0.3469
  317MPD2    H5 4772   2.876   1.685  13.253  0.8642 -1.3352  0.9661
  317MPD2    N1 4773   2.491   1.829  13.017 -0.0505 -0.9058 -0.5932
  317MPD2    H7 4774   2.528   1.744  12.976 -1.2736 -1.7153 -0.0021
  318TMC3    C1 4775   2.964   1.637  13.474  0.3932  1.0101  0.0757
  318TMC3    C2 4776   2.905   1.523  13.427  0.6119  0.4290 -0.5339
  318TMC3    C3 4777   2.971   1.395  13.439  0.0646 -0.0917 -0.1515
  318TMC3    C4 4778   3.069   1.622  13.558 -0.1610 -0.2493 -0.0539
  318TMC3    C5 4779   3.135   1.504  13.571 -0.3706  0.2310 -0.4644
  318TMC3    C6 4780   3.095   1.395  13.498 -0.1367  0.0061 -0.1104
  318TMC3     C 4781   2.932   1.771  13.423  0.0533  0.0207 -0.3203
  318TMC3     O 4782   2.947   1.864  13.498  0.0167 -0.0124  0.1153
  318TMC3     H 4783   2.819   1.528  13.360  1.8206  0.6763 -2.0732
  318TMC3    H1 4784   3.113   1.713  13.597 -0.7982 -0.3006  0.7904
  318TMC3    H2 4785   3.160   1.309  13.485 -1.8623 -1.2910 -0.1779
  318TMC3    C7 4786   3.246   1.492  13.658  0.0282 -0.8915 -0.5388
  318TMC3    C8 4787   2.940   1.293  13.342 -0.6379  0.4760  0.2880
  318TMC3    O1 4788   3.288   1.600  13.694 -0.0039 -0.7650  0.5321
  318TMC3    O2 4789   3.035   1.235  13.294 -0.0891  0.5658 -0.3866
  319MPD2     C 4790   3.757   2.769  16.797  0.1854  0.2880 -0.1170
  319MPD2    C1 4791   3.650   2.700  16.864  0.2250  0.2598 -0.4552
  319MPD2    C2 4792   3.617   2.576  16.814  0.2313 -0.3226  0.3157
  319MPD2    C3 4793   3.669   2.530  16.694 -0.0278  0.0484  0.0627
  319MPD2    C4 4794   3.773   2.605  16.634 -0.2614 -0.3936  0.0048
  319MPD2    C5 4795   3.816   2.718  16.686 -0.0506 -0.5324  0.0546
  319MPD2     H 4796   3.532   2.521  16.853  0.2789 -0.8286 -0.2931
  319MPD2    H1 4797   3.823   2.567  16.546 -1.0090 -2.0110  0.2705
  319MPD2    H2 4798   3.811   2.854  16.838  1.0522  0.2753 -1.2374
  319MPD2    H3 4799   3.892   2.776  16.634 -2.9204  1.6827 -1.6428
  319MPD2     N 4800   3.618   2.407  16.638 -0.2235 -0.0037 -0.4090
  319MPD2    H5 4801   3.655   2.396  16.545 -0.0143 -0.4454 -0.2747
  319MPD2    N1 4802   3.569   2.761  16.965  0.5867 -0.8913 -0.8115
  319MPD2    H7 4803   3.494   2.703  17.001  1.2111 -0.6883  0.7856
  320TMC3    C1 4804   3.453   2.254  16.590  0.4785 -0.2889 -0.5926
  320TMC3    C2 4805   3.414   2.344  16.491 -0.0375  0.7163  0.4823
  320TMC3    C3 4806   3.288   2.333  16.437 -0.2719  0.3102 -0.3331
  320TMC3    C4 4807   3.356   2.168  16.644  0.1779  0.2929 -0.5687
  320TMC3    C5 4808   3.234   2.153  16.581 -0.3855  0.0514  0.2947
  320TMC3    C6 4809   3.199   2.231  16.477  0.3252 -0.2265  0.4205
  320TMC3     C 4810   3.541   2.310  16.694  0.5560 -0.1778  1.4321
  320TMC3     O 4811   3.522   2.288  16.813 -0.5856  0.0436  0.1379
  320TMC3     H 4812   3.474   2.431  16.469  1.6946 -0.4081  0.8106
  320TMC3    H1 4813   3.387   2.105  16.727  0.2172  0.6607 -0.3096
  320TMC3    H2 4814   3.101   2.216  16.434  0.1105  2.3134  0.0448
  320TMC3    C7 4815   3.154   2.035  16.599 -0.0347  0.5311 -0.5646
  320TMC3    C8 4816   3.237   2.461  16.391 -0.0601  0.0734 -0.1363
  320TMC3    O1 4817   3.055   2.019  16.529 -0.9226  0.0385  0.5234
  320TMC3    O2 4818   3.312   2.559  16.381  0.1183 -0.3893 -0.1249
  321TMC3    C1 4819   3.468   2.935  17.085 -0.2797 -0.0030 -1.0590
  321TMC3    C2 4820   3.398   2.840  17.156  0.1355  0.7918  0.3019
  321TMC3    C3 4821   3.375   2.882  17.289  0.4141  0.2232  0.2621
  321TMC3    C4 4822   3.484   3.064  17.128  0.1273  0.3577  1.1620
  321TMC3    C5 4823   3.467   3.099  17.262 -0.0204  0.3789  0.5138
  321TMC3    C6 4824   3.403   3.007  17.340 -0.4843  0.2581 -0.4407
  321TMC3     C 4825   3.568   2.898  16.986 -0.2562  0.7471  0.4423
  321TMC3     O 4826   3.642   2.988  16.938  0.7934  0.4991  0.4732
  321TMC3     H 4827   3.360   2.749  17.110  1.2164 -0.8844  2.7290
  321TMC3    H1 4828   3.534   3.139  17.068  0.5303 -2.3095 -1.8255
  321TMC3    H2 4829   3.398   3.031  17.446  1.8004  0.3179 -0.3409
  321TMC3    C7 4830   3.595   3.117  17.325 -0.4815 -0.3611 -0.1716
  321TMC3    C8 4831   3.413   2.780  17.386 -0.0281 -0.1828 -0.5337
  321TMC3    O1 4832   3.687   3.064  17.267 -0.5598  0.8181 -0.1321
  321TMC3    O2 4833   3.435   2.811  17.504  0.3601  0.2124 -0.2107
  322MPD2     C 4834   2.226   4.168  13.616 -0.2896 -0.2885  0.3142
  322MPD2    C1 4835   2.330   4.125  13.693  0.0086 -0.5722  0.2608
  322MPD2    C2 4836   2.354   3.991  13.714 -0.7380  0.4327  0.7967
  322MPD2    C3 4837   2.279   3.898  13.649  0.7853  0.4045  0.0401
  322MPD2    C4 4838   2.172   3.937  13.572 -0.2433  0.2280  0.1078
  322MPD2    C5 4839   2.146   4.072  13.549  0.7769 -0.1955 -0.4817
  322MPD2     H 4840   2.431   3.959  13.783 -0.8616  0.6803  1.0518
  322MPD2    H1 4841   2.119   3.863  13.513  1.8084  1.3392 -3.1243
  322MPD2    H2 4842   2.211   4.274  13.601  1.8522  0.2970  2.2979
  322MPD2    H3 4843   2.058   4.103  13.494 -1.2937 -1.3834  2.1203
  322MPD2     N 4844   2.314   3.769  13.670  0.2554  0.0870 -0.3435
  322MPD2    H5 4845   2.380   3.750  13.745  1.3410 -1.4822 -1.6968
  322MPD2    N1 4846   2.414   4.236  13.743  0.1213  0.1878  0.6312
  322MPD2    H7 4847   2.368   4.327  13.746  1.5385  1.0319 -2.4136
  323TMC3    C1 4848   2.618   4.340  13.815 -0.6046  0.2110  0.2883
  323TMC3    C2 4849   2.741   4.361  13.763  0.0817 -0.2466 -0.4594
  323TMC3    C3 4850   2.818   4.457  13.820 -0.0066 -0.5786  0.2498
  323TMC3    C4 4851   2.575   4.400  13.927  0.4845  0.2943 -0.2594
  323TMC3    C5 4852   2.664   4.485  13.993 -0.4417 -0.5823 -0.8241
  323TMC3    C6 4853   2.784   4.520  13.934 -0.3417 -0.4362 -0.3245
  323TMC3     C 4854   2.546   4.220  13.775 -0.2919 -0.2714  0.3256
  323TMC3     O 4855   2.609   4.118  13.753 -0.4369 -0.2924 -0.2843
  323TMC3     H 4856   2.767   4.304  13.675 -0.8940  0.5921 -1.2994
  323TMC3    H1 4857   2.479   4.367  13.967 -1.0458 -0.0908 -4.2563
  323TMC3    H2 4858   2.843   4.596  13.984  0.1419 -0.2504 -1.1888
  323TMC3    C7 4859   2.663   4.470  14.144 -0.0489  0.4898  0.6103
  323TMC3    C8 4860   2.954   4.466  13.781 -0.0402  0.0866 -0.2610
  323TMC3    O1 4861   2.593   4.382  14.189  0.5046 -0.7828  0.6589
  323TMC3    O2 4862   3.027   4.510  13.868  0.2775 -0.2007  0.1556
  324MPD2     C 4863   4.084   0.349  13.955 -0.2071 -0.2570 -0.0657
  324MPD2    C1 4864   4.064   0.426  14.062  0.1501  0.7873  1.1591
  324MPD2    C2 4865   3.935   0.465  14.084  0.8228 -0.0617  0.1102
  324MPD2    C3 4866   3.826   0.429  14.002  0.5138 -1.1359 -0.1312
  324MPD2    C4 4867   3.853   0.348  13.894 -0.0800  0.9256 -0.2717
  324MPD2    C5 4868   3.985   0.314  13.870  0.0691  1.2834  0.4500
  324MPD2     H 4869   3.924   0.534  14.166 -0.5151  0.5832 -0.6025
  324MPD2    H1 4870   3.783   0.303  13.825  0.1230  1.0207 -0.5383
  324MPD2    H2 4871   4.178   0.298  13.938  1.1395  2.2717 -0.0827
  324MPD2    H3 4872   4.005   0.243  13.790 -0.0473  0.7673  0.8745
  324MPD2     N 4873   3.696   0.483  14.018  0.0425  0.1877  0.2678
  324MPD2    H5 4874   3.623   0.445  13.958 -1.6040  2.1560  1.0320
  324MPD2    N1 4875   4.175   0.472  14.150  0.4613 -0.4195 -0.1333
  324MPD2    H7 4876   4.150   0.522  14.235 -2.5042 -0.0929 -1.1761
  325TMC3    C1 4877   3.537   0.640  14.086 -0.2286 -0.0821 -0.0450
  325TMC3    C2 4878   3.442   0.570  14.014  0.1545  0.9519 -0.1736
  325TMC3    C3 4879   3.337   0.641  13.967 -0.1270  0.0672  0.2745
  325TMC3    C4 4880   3.526   0.774  14.120  0.1907 -0.3135  0.2649
  325TMC3    C5 4881   3.413   0.837  14.071 -0.0853 -0.3093 -0.0483
  325TMC3    C6 4882   3.321   0.775  13.998  0.4947  0.7084  0.5682
  325TMC3     C 4883   3.663   0.580  14.116 -0.1050 -0.2035 -0.7241
  325TMC3     O 4884   3.732   0.640  14.193 -0.0099  0.0001 -0.1713
  325TMC3     H 4885   3.438   0.462  14.005  0.5966  0.9111  0.1018
  325TMC3    H1 4886   3.606   0.831  14.167  0.3301 -0.1269 -0.1957
  325TMC3    H2 4887   3.236   0.828  13.956 -0.1847 -0.3975  0.5187
  325TMC3    C7 4888   3.393   0.976  14.089  0.8673 -0.1251  0.5029
  325TMC3    C8 4889   3.232   0.566  13.897  0.0655  0.1441 -0.2238
  325TMC3    O1 4890   3.318   1.029  14.010 -0.5003  0.3725  0.0668
  325TMC3    O2 4891   3.278   0.459  13.855  0.6615 -0.2267  0.1057
  326MPD2     C 4892   0.761   1.403  11.625 -0.8131 -0.0648 -0.2311
  326MPD2    C1 4893   0.734   1.434  11.494  0.1548 -0.9118  0.1541
  326MPD2    C2 4894   0.825   1.495  11.410 -0.1648 -0.1929  0.5854
  326MPD2    C3 4895   0.947   1.535  11.466 -0.1580  0.0470 -0.4767
  326MPD2    C4 4896   0.969   1.508  11.599  0.1570 -0.8293 -0.3980
  326MPD2    C5 4897   0.875   1.454  11.682 -0.1906 -0.2966  0.5631
  326MPD2     H 4898   0.805   1.512  11.305  0.6243 -2.5330  0.0685
  326MPD2    H1 4899   1.061   1.539  11.647 -0.9100  1.5685  0.0745
  326MPD2    H2 4900   0.690   1.347  11.685  1.0939 -1.0503  1.1134
  326MPD2    H3 4901   0.900   1.440  11.786 -0.2640 -1.6485  0.3949
  326MPD2     N 4902   1.058   1.586  11.396 -0.6771 -0.2890  0.7056
  326MPD2    H5 4903   1.143   1.610  11.446 -0.4315 -0.8556  0.5658
  326MPD2    N1 4904   0.620   1.386  11.426 -0.7180  0.0464  0.1358
  326MPD2    H7 4905   0.614   1.412  11.329 -0.8336  1.6342  0.5750
  327TMC3    C1 4906   0.461   1.226  11.370 -0.5559 -0.4597  0.1286
  327TMC3    C2 4907   0.354   1.290  11.317  0.3620  0.4970 -0.4453
  327TMC3    C3 4908   0.327   1.290  11.185 -0.0766 -0.2682 -0.3504
  327TMC3    C4 4909   0.552   1.163  11.289  0.4711  0.4057 -0.1416
  327TMC3    C5 4910   0.529   1.158  11.158 -0.4796 -0.4581 -0.1917
  327TMC3    C6 4911   0.409   1.208  11.109 -0.6370 -0.2375 -0.0578
  327TMC3     C 4912   0.522   1.303  11.481 -0.3638 -0.0283 -0.1737
  327TMC3     O 4913   0.480   1.289  11.593 -0.4738 -0.2931  0.3206
  327TMC3     H 4914   0.302   1.358  11.384 -0.5125 -2.8586  2.2529
  327TMC3    H1 4915   0.643   1.118  11.329  0.1353  1.2034  1.4898
  327TMC3    H2 4916   0.385   1.212  11.003  2.3640  3.5137 -0.5701
  327TMC3    C7 4917   0.641   1.183  11.069  0.4913  0.0509 -0.0529
  327TMC3    C8 4918   0.309   1.417  11.119  0.0501 -0.2861  0.1866
  327TMC3    O1 4919   0.614   1.206  10.952 -0.2707 -0.4118  0.5534
  327TMC3    O2 4920   0.384   1.436  11.022  0.3332  0.1895 -0.8673
  328MPD2     C 4921   3.193   0.990   0.262 -0.3757 -0.0260 -0.2294
  328MPD2    C1 4922   3.150   0.997   0.132  0.3605  0.9118 -0.0070
  328MPD2    C2 4923   3.121   1.120   0.071 -0.0396  0.2624  0.2290
  328MPD2    C3 4924   3.140   1.244   0.141  0.4040 -0.2456 -0.3088
  328MPD2    C4 4925   3.172   1.232   0.277 -0.0001  0.4839 -0.0171
  328MPD2    C5 4926   3.195   1.104   0.336 -0.1035 -0.4795  0.4962
  328MPD2     H 4927   3.097   1.124  17.671  0.9149 -3.3143 -0.1206
  328MPD2    H1 4928   3.170   1.318   0.341 -2.7557 -0.2271  0.8420
  328MPD2    H2 4929   3.208   0.889   0.298  0.6348 -0.0706 -0.7750
  328MPD2    H3 4930   3.206   1.089   0.443  1.6697  0.1714  0.4143
  328MPD2     N 4931   3.108   1.370   0.087 -0.4309 -0.1585  0.4637
  328MPD2    H5 4932   3.121   1.451   0.146 -0.4739  1.0509 -1.1869
  328MPD2    N1 4933   3.153   0.864   0.076  0.3552 -0.1610 -1.0492
  328MPD2    H7 4934   3.149   0.782   0.135 -0.2686  0.3663 -0.3590
  329TMC3    C1 4935   3.122   0.725  17.587  1.4134 -0.2033  0.5369
  329TMC3    C2 4936   3.036   0.647  17.653  0.2348  0.8430  1.0559
  329TMC3    C3 4937   3.001   0.531  17.585  0.5138 -0.3659  0.5588
  329TMC3    C4 4938   3.170   0.697  17.464 -0.4948  0.2453  0.3722
  329TMC3    C5 4939   3.130   0.586  17.403  0.0893 -0.4826  0.7335
  329TMC3    C6 4940   3.043   0.501  17.456  0.2642  0.1409  1.1680
  329TMC3     C 4941   3.185   0.852  17.649  0.3689  0.6220  0.7010
  329TMC3     O 4942   3.216   0.945  17.575 -0.6268 -0.6719  0.6312
  329TMC3     H 4943   2.999   0.670   0.046 -0.5695  2.1904  0.4321
  329TMC3    H1 4944   3.243   0.770  17.430 -1.0154 -0.7335 -2.8461
  329TMC3    H2 4945   3.038   0.403  17.411 -1.1001  0.8390 -0.1882
  329TMC3    C7 4946   3.186   0.563  17.273  0.4689 -1.1358 -0.0439
  329TMC3    C8 4947   2.896   0.451  17.635 -0.0064 -0.5535 -0.4486
  329TMC3    O1 4948   3.203   0.666  17.203 -0.2813  0.5909  0.0840
  329TMC3    O2 4949   2.879   0.345  17.577  0.4988  0.6552  0.1934
  330TMC3    C1 4950   1.060   0.812   9.438  0.3280  0.2701 -1.3638
  330TMC3    C2 4951   1.136   0.699   9.438  0.2504  0.1455 -0.1343
  330TMC3    C3 4952   1.171   0.642   9.319  0.5735  0.1804 -0.1541
  330TMC3    C4 4953   1.045   0.886   9.321  0.2381 -0.2778 -0.2798
  330TMC3    C5 4954   1.086   0.828   9.204 -0.8709 -0.7125 -0.7211
  330TMC3    C6 4955   1.153   0.704   9.200  0.0695  0.9118  0.1189
  330TMC3     C 4956   0.994   0.852   9.565  0.1073 -0.5797  1.0301
  330TMC3     O 4957   1.032   0.785   9.662 -0.2114  0.1136  0.3279
  330TMC3     H 4958   1.161   0.642   9.527  0.6734  0.9837  0.2786
  330TMC3    H1 4959   1.015   0.989   9.334  0.4361 -0.6190  3.0448
  330TMC3    H2 4960   1.193   0.658   9.110  0.0198 -1.4823  1.3130
  330TMC3    C7 4961   1.094   0.923   9.101 -0.2973 -0.3200 -0.2632
  330TMC3    C8 4962   1.230   0.512   9.317  0.1626 -0.5103 -0.9591
  330TMC3    O1 4963   0.991   0.992   9.086 -0.4152  0.2947  0.6609
  330TMC3    O2 4964   1.291   0.469   9.218  0.3621 -0.0708  0.1471
  331MPD2     C 4965   3.824   4.636  13.123  0.0654 -0.8044  0.7123
  331MPD2    C1 4966   3.917   4.548  13.070  0.0356  0.3620  0.0283
  331MPD2    C2 4967   3.877   4.421  13.038 -0.5511 -0.5054 -0.0536
  331MPD2    C3 4968   3.741   4.378  13.044  0.1316 -0.0064 -0.0693
  331MPD2    C4 4969   3.647   4.469  13.099  0.5155 -0.8170  0.3885
  331MPD2    C5 4970   3.693   4.594  13.139  0.5986 -0.9904 -0.5887
  331MPD2     H 4971   3.954   4.355  13.000  0.5646 -0.2956  1.8545
  331MPD2    H1 4972   3.544   4.439  13.114 -0.1107  2.2531  2.0530
  331MPD2    H2 4973   3.862   0.004  13.162 -0.6194  0.4027 -1.5912
  331MPD2    H3 4974   3.622   4.665  13.180 -0.5529 -1.4859 -1.7563
  331MPD2     N 4975   3.707   4.247  12.997  0.2545 -0.2827  0.2810
  331MPD2    H5 4976   3.777   4.178  12.971 -1.1570 -1.8134  0.5523
  331MPD2    N1 4977   4.045   4.606  13.041 -0.1750  0.4091  0.1048
  331MPD2    H7 4978   4.049   4.708  13.044  0.3993  0.3792  0.2700
  332TMC3    C1 4979   3.585   4.112  12.874  0.4069  0.2683 -0.3270
  332TMC3    C2 4980   3.578   4.167  12.748  0.1537  0.0179  1.1675
  332TMC3    C3 4981   3.664   4.131  12.650 -0.5323 -0.1979  0.4200
  332TMC3    C4 4982   3.682   4.016  12.900 -0.5987 -1.0156  0.1593
  332TMC3    C5 4983   3.767   3.973  12.804  0.5790  0.0809  0.1059
  332TMC3    C6 4984   3.759   4.035  12.677 -0.5224 -0.3354  0.5704
  332TMC3     C 4985   3.582   4.208  12.969 -0.0905 -0.0549  0.3105
  332TMC3     O 4986   3.484   4.278  12.974  0.3722  0.7732 -0.5049
  332TMC3     H 4987   3.515   4.254  12.732  2.0847  0.8665 -1.8735
  332TMC3    H1 4988   3.696   3.981  13.002 -0.1405 -2.2284 -0.3272
  332TMC3    H2 4989   3.836   4.010  12.604 -0.9394 -0.8737  0.3184
  332TMC3    C7 4990   3.871   3.880  12.833 -0.2101 -0.1299  0.2414
  332TMC3    C8 4991   3.696   4.206  12.529 -0.6163  0.0617 -0.7821
  332TMC3    O1 4992   3.857   3.815  12.935 -0.5237  0.0482  0.1456
  332TMC3    O2 4993   3.795   4.184  12.460 -0.1218  0.3579  0.3114
  333MPD2     C 4994   3.780   0.445  10.746 -0.2421 -0.1542 -0.0505
  333MPD2    C1 4995   3.858   0.332  10.721 -0.5573 -0.8744  0.1293
  333MPD2    C2 4996   3.812   0.205  10.771  0.3825  0.5322 -0.3661
  333MPD2    C3 4997   3.693   0.197  10.843 -0.3187  0.2745  0.0022
  333MPD2    C4 4998   3.636   0.309  10.886  0.3126 -0.2541 -0.0583
  333MPD2    C5 4999   3.670   0.431  10.830  0.4242  0.7542 -0.0758
  333MPD2     H 5000   3.864   0.111  10.753 -1.5599 -0.8613  1.4414
  333MPD2    H1 5001   3.550   0.318  10.951 -0.2243  1.5154 -1.0062
  333MPD2    H2 5002   3.821   0.537  10.707  0.1245 -0.1324  0.3798
  333MPD2    H3 5003   3.610   0.514  10.864 -1.5697 -0.1130 -1.4655
  333MPD2     N 5004   3.649   0.070  10.890 -0.7510  0.2482  0.7478
  333MPD2    H5 5005   3.704   4.711  10.887 -1.0067  0.1591 -2.1344
  333MPD2    N1 5006   3.976   0.349  10.650  0.1621  0.0453  0.3233
  333MPD2    H7 5007   4.002   0.445  10.632  0.8447 -0.0862  0.6104
  334TMC3    C1 5008   4.203   0.331  10.621  0.1533  0.6161  0.2643
  334TMC3    C2 5009   4.308   0.267  10.551  0.5513 -0.3243  0.6959
  334TMC3    C3 5010   4.439   0.303  10.583  0.0505 -0.4906  0.1697
  334TMC3    C4 5011   4.220   0.444  10.692  0.1068 -0.7173 -0.3318
  334TMC3    C5 5012   4.349   0.487  10.707  0.3032  0.7904 -0.5798
  334TMC3    C6 5013   4.458   0.407  10.668  0.2353  0.6943  0.8000
  334TMC3     C 5014   4.077   0.255  10.645 -0.1778  0.1445  0.6023
  334TMC3     O 5015   4.080   0.135  10.675  0.2724  0.2046 -0.4381
  334TMC3     H 5016   4.294   0.177  10.494 -0.3457  0.0677  0.2957
  334TMC3    H1 5017   4.140   0.504  10.734  0.8821  1.1092 -1.4164
  334TMC3    H2 5018   4.558   0.438  10.694 -0.0027  2.4544 -0.3798
  334TMC3    C7 5019   4.368   0.603  10.792  0.0524  0.9655  0.1765
  334TMC3    C8 5020   4.551   0.255  10.507  0.1096 -0.2628 -0.0872
  334TMC3    O1 5021   4.464   0.613  10.873  0.1791 -0.3588  0.2723
  334TMC3    O2 5022   4.514   0.188  10.412 -0.5897 -0.2786  0.0621
  335TMC3    C1 5023   3.819   1.564  17.340 -0.3515 -0.8715  0.2337
  335TMC3    C2 5024   3.770   1.464  17.257 -0.2537  0.0544 -0.4219
  335TMC3    C3 5025   3.842   1.431  17.146  0.5713  0.0704 -0.1046
  335TMC3    C4 5026   3.939   1.632  17.313  0.8724 -0.5437 -0.0675
  335TMC3    C5 5027   4.016   1.574  17.217  0.2995 -0.3046  0.6853
  335TMC3    C6 5028   3.967   1.484  17.129 -0.1897  0.6165 -0.2359
  335TMC3     C 5029   3.737   1.616  17.448 -0.9620  0.0095 -0.3336
  335TMC3     O 5030   3.648   1.550  17.497  0.1022 -0.1525  0.1394
  335TMC3     H 5031   3.675   1.416  17.275  0.8341 -1.3222  1.6844
  335TMC3    H1 5032   3.996   1.695  17.380 -1.9867 -1.8592  3.5566
  335TMC3    H2 5033   4.024   1.436  17.050 -1.5276 -2.1632  0.4973
  335TMC3    C7 5034   4.150   1.618  17.189 -0.8806 -0.0309  0.0441
  335TMC3    C8 5035   3.808   1.313  17.065  0.8392  0.0221 -0.3298
  335TMC3    O1 5036   4.218   1.546  17.116 -0.3159 -0.1443 -0.0769
  335TMC3    O2 5037   3.882   1.296  16.970  0.7987  0.0729 -0.1171
  336MPD2     C 5038   3.579   3.821  16.654 -0.1756  0.2953 -0.3049
  336MPD2    C1 5039   3.563   3.791  16.521 -0.0427  0.4382  0.0927
  336MPD2    C2 5040   3.552   3.660  16.482 -0.3490  0.0048 -0.5272
  336MPD2    C3 5041   3.572   3.553  16.576 -0.1055  0.5474 -0.0015
  336MPD2    C4 5042   3.590   3.583  16.710 -0.4152 -0.2081 -0.0080
  336MPD2    C5 5043   3.598   3.718  16.745  0.0338 -0.1757 -0.3605
  336MPD2     H 5044   3.526   3.639  16.378 -0.0131  1.3918 -0.8929
  336MPD2    H1 5045   3.616   3.507  16.784  2.6621 -0.0106 -0.8764
  336MPD2    H2 5046   3.585   3.923  16.689 -0.0528 -0.0757  0.7541
  336MPD2    H3 5047   3.595   3.739  16.851  1.4517 -1.3957 -0.0838
  336MPD2     N 5048   3.569   3.417  16.531 -0.1871 -0.0514 -0.4339
  336MPD2    H5 5049   3.589   3.344  16.599  1.6941  2.7110  1.9722
  336MPD2    N1 5050   3.543   3.889  16.425 -0.3584  0.0883  0.1111
  336MPD2    H7 5051   3.514   3.848  16.337 -1.2169  0.0133  0.4195
  337TMC3    C1 5052   3.516   4.085  16.318  0.2457 -0.4478 -0.3212
  337TMC3    C2 5053   3.390   4.131  16.293  0.4039  0.5682  0.2466
  337TMC3    C3 5054   3.339   4.112  16.161 -0.4047  0.1106 -0.4937
  337TMC3    C4 5055   3.600   4.031  16.218 -0.1765 -0.5388  0.4087
  337TMC3    C5 5056   3.550   4.028  16.090  0.1468 -0.8155  0.3548
  337TMC3    C6 5057   3.419   4.062  16.065  0.2316 -0.3831 -0.2412
  337TMC3     C 5058   3.538   4.028  16.445  0.1514  0.5562  0.0340
  337TMC3     O 5059   3.573   4.107  16.533 -0.7764 -0.0872  0.0691
  337TMC3     H 5060   3.329   4.152  16.380 -0.9018  0.2042 -0.5763
  337TMC3    H1 5061   3.705   4.019  16.243  0.4267  2.6941 -0.5660
  337TMC3    H2 5062   3.385   4.049  15.963 -2.6338 -0.3716  0.6980
  337TMC3    C7 5063   3.625   3.969  15.976 -0.3671 -0.5348 -0.0428
  337TMC3    C8 5064   3.201   4.164  16.138 -0.4181 -0.2313 -0.0586
  337TMC3    O1 5065   3.566   3.973  15.868 -0.6517 -0.4687  0.2629
  337TMC3    O2 5066   3.146   4.233  16.228  0.7516 -0.0155  0.3691
  338MPD2     C 5067   4.657   3.239   0.990  0.2908 -0.5059 -0.0805
  338MPD2    C1 5068   4.551   3.318   0.954  0.5863  0.0831  0.4357
  338MPD2    C2 5069   4.560   3.456   0.929  1.0516  0.1789  0.3972
  338MPD2    C3 5070   4.680   3.519   0.952  0.1361  0.9011  0.3272
  338MPD2    C4 5071   0.054   3.441   1.000 -0.0791  0.2163  0.3234
  338MPD2    C5 5072   0.046   3.307   1.015  0.4624  0.3321  0.1422
  338MPD2     H 5073   4.472   3.502   0.885  2.7268  2.0587 -0.9621
  338MPD2    H1 5074   0.157   3.475   1.010 -0.8765  3.1874 -1.5859
  338MPD2    H2 5075   4.646   3.137   1.023  2.0697  0.0019  2.1028
  338MPD2    H3 5076   0.128   3.259   1.067 -0.9260 -0.3626  1.6667
  338MPD2     N 5077   4.695   3.666   0.936  0.1682 -0.3306  0.4015
  338MPD2    H5 5078   4.611   3.710   0.900  0.0886 -1.5394 -0.8813
  338MPD2    N1 5079   4.429   3.265   0.911 -0.3395  0.1330 -0.1098
  338MPD2    H7 5080   4.358   3.332   0.886 -0.5278  0.5404  1.4913
  339TMC3    C1 5081   0.054   3.883   0.950 -0.2277 -0.1418 -0.3022
  339TMC3    C2 5082   0.059   3.959   1.065 -0.2690 -0.3154 -0.1360
  339TMC3    C3 5083   4.719   4.075   1.061  0.2667 -0.1946 -0.1215
  339TMC3    C4 5084   4.709   3.923   0.844  0.5863 -0.4015  0.1923
  339TMC3    C5 5085   4.651   4.048   0.842  0.1830  0.2881 -0.4156
  339TMC3    C6 5086   4.646   4.122   0.956  1.1234 -0.5279  0.8938
  339TMC3     C 5087   0.073   3.742   0.976 -0.4028 -0.0007 -0.6919
  339TMC3     O 5088   0.181   3.706   1.023  0.0644 -0.7644  0.1903
  339TMC3     H 5089   0.106   3.925   1.156 -2.0155 -0.8551  0.5615
  339TMC3    H1 5090   0.010   3.877   0.750 -1.1900 -0.3033 -0.3756
  339TMC3    H2 5091   4.612   4.225   0.963 -0.1349 -0.8549 -0.2787
  339TMC3    C7 5092   4.559   4.085   0.735  0.1262 -1.0137 -0.5983
  339TMC3    C8 5093   4.689   4.126   1.189 -0.9544 -0.1948  0.4331
  339TMC3    O1 5094   4.510   4.194   0.747  0.2110 -0.0563 -0.9292
  339TMC3    O2 5095   0.058   4.150   1.261 -0.5617 -0.0645  0.0777
  340MPD2     C 5096   3.564   2.150  10.152  0.9217 -0.2032 -0.8327
  340MPD2    C1 5097   3.594   2.018  10.133 -0.2622  0.9755  0.2580
  340MPD2    C2 5098   3.627   1.943  10.251 -0.1066  0.1405 -0.1492
  340MPD2    C3 5099   3.635   2.006  10.372 -0.0011  0.1143 -0.8118
  340MPD2    C4 5100   3.608   2.141  10.383 -0.4444 -0.1327  0.1107
  340MPD2    C5 5101   3.568   2.212  10.275  0.2541 -0.0390 -0.6760
  340MPD2     H 5102   3.642   1.837  10.241  0.7159  0.0931  1.5231
  340MPD2    H1 5103   3.623   2.201  10.472 -0.1604  1.7343 -1.2163
  340MPD2    H2 5104   3.551   2.206  10.060  0.2622 -1.2998 -1.4109
  340MPD2    H3 5105   3.547   2.318  10.290  1.2760  0.2841 -1.5195
  340MPD2     N 5106   3.681   1.941  10.487  0.1522 -0.0538  0.4167
  340MPD2    H5 5107   3.681   1.998  10.572  1.7284  1.8479 -0.8570
  340MPD2    N1 5108   3.604   1.964   9.998  0.7424  0.1844  0.5385
  340MPD2    H7 5109   3.583   2.032   9.926 -0.2036  0.2010  0.8264
  341TMC3    C1 5110   3.653   1.814   9.822  0.5679 -0.4610  0.5619
  341TMC3    C2 5111   3.623   1.688   9.777 -0.7727 -0.6141 -0.6273
  341TMC3    C3 5112   3.642   1.666   9.648 -0.2052 -0.3570  0.7499
  341TMC3    C4 5113   3.694   1.914   9.732 -0.8737  1.1309 -0.9181
  341TMC3    C5 5114   3.711   1.882   9.601  0.2458  0.5347 -0.2691
  341TMC3    C6 5115   3.694   1.751   9.554  0.3498 -0.6856  1.0596
  341TMC3     C 5116   3.646   1.837   9.962 -0.2675  0.7756 -0.2746
  341TMC3     O 5117   3.678   1.736  10.025  0.4290  0.5544 -0.3016
  341TMC3     H 5118   3.572   1.617   9.840 -1.8847  0.7451  0.0167
  341TMC3    H1 5119   3.710   2.015   9.769  0.2475  0.2630  0.9870
  341TMC3    H2 5120   3.698   1.733   9.447  2.1893 -0.1441  1.0435
  341TMC3    C7 5121   3.786   1.987   9.528 -0.0383  0.5706  0.0887
  341TMC3    C8 5122   3.641   1.528   9.618  0.0271  0.6733  0.0259
  341TMC3    O1 5123   3.756   2.106   9.552 -0.3470 -0.1603 -0.1870
  341TMC3    O2 5124   3.619   1.447   9.708 -0.0754 -0.4694  0.1811
  342MPD2     C 5125   1.673   4.407  16.620  0.7780  0.0193  0.1023
  342MPD2    C1 5126   1.725   4.362  16.740  0.5473 -0.5265 -0.5725
  342MPD2    C2 5127   1.691   4.436  16.849  0.8679  0.3018  0.5988
  342MPD2    C3 5128   1.608   4.549  16.831 -0.7238 -0.3800 -0.4604
  342MPD2    C4 5129   1.567   4.591  16.711 -0.6821 -0.3108  0.2338
  342MPD2    C5 5130   1.593   4.513  16.601  0.0170 -0.4726  1.0484
  342MPD2     H 5131   1.728   4.395  16.942  0.8687 -1.4645 -0.1762
  342MPD2    H1 5132   1.495   4.672  16.704 -0.6870 -0.2528  0.8884
  342MPD2    H2 5133   1.697   4.370  16.521 -0.3620  0.7220 -0.4365
  342MPD2    H3 5134   1.548   4.534  16.505  1.0397 -1.4107  0.3633
  342MPD2     N 5135   1.569   4.628  16.938  0.1226 -0.1569  0.1380
  342MPD2    H5 5136   1.519   4.711  16.907 -0.4422 -0.4207  0.3370
  342MPD2    N1 5137   1.810   4.247  16.755  0.1331 -0.5096  0.5398
  342MPD2    H7 5138   1.853   4.219  16.842  0.9318  0.8987  0.6012
  343TMC3    C1 5139   1.913   4.044  16.706  0.2158 -0.2460 -0.0049
  343TMC3    C2 5140   2.018   4.056  16.795 -0.0777 -0.0156  0.0761
  343TMC3    C3 5141   2.046   3.943  16.869 -0.0592  0.6469  0.3749
  343TMC3    C4 5142   1.833   3.934  16.691  0.2618 -0.4147  0.8519
  343TMC3    C5 5143   1.850   3.833  16.792  0.6119  0.9269  0.3581
  343TMC3    C6 5144   1.964   3.832  16.867  0.1886 -0.1764 -0.4854
  343TMC3     C 5145   1.840   4.155  16.657  0.1912 -0.0920  0.2270
  343TMC3     O 5146   1.775   4.145  16.554  0.1271  0.1535  1.0263
  343TMC3     H 5147   2.067   4.150  16.818  0.0684 -0.1694  0.4011
  343TMC3    H1 5148   1.746   3.935  16.627 -0.0802 -0.2197  1.3244
  343TMC3    H2 5149   1.970   3.764  16.952  2.1127 -1.2736 -1.5000
  343TMC3    C7 5150   1.749   3.730  16.816  0.1636  0.4854  0.2985
  343TMC3    C8 5151   2.174   3.940  16.930  0.5610 -0.0073 -0.0179
  343TMC3    O1 5152   1.784   3.625  16.872 -0.1258 -0.5056  0.2710
  343TMC3    O2 5153   2.215   4.049  16.971 -0.0155  0.1915 -0.1995
  344MPD2     C 5154   2.953   4.011  10.765  0.0695 -0.8818  0.3802
  344MPD2    C1 5155   2.903   3.909  10.683 -0.1584 -0.0684 -0.1071
  344MPD2    C2 5156   2.911   3.917  10.547  0.2459 -0.4472 -0.4266
  344MPD2    C3 5157   2.982   4.019  10.492  0.3145 -0.4866 -0.1425
  344MPD2    C4 5158   3.040   4.115  10.571  0.0941 -0.5356  1.0506
  344MPD2    C5 5159   3.026   4.116  10.705 -0.2857  0.5453  0.6722
  344MPD2     H 5160   2.854   3.846  10.488  0.2160 -1.8035  1.2617
  344MPD2    H1 5161   3.093   4.199  10.529 -2.8046 -0.4020 -2.3287
  344MPD2    H2 5162   2.938   4.015  10.873  1.6971 -1.2987  0.6120
  344MPD2    H3 5163   3.074   4.202  10.750 -0.5059 -0.0128  1.9839
  344MPD2     N 5164   2.988   4.038  10.349  0.0362  0.0186 -0.0385
  344MPD2    H5 5165   3.046   4.114  10.315  1.8476 -1.0920  0.6082
  344MPD2    N1 5166   2.818   3.799  10.733  0.0062  0.3211 -0.7520
  344MPD2    H7 5167   2.798   3.716  10.678 -3.2888  1.2695 -0.9748
  345TMC3    C1 5168   2.945   4.025  10.126 -0.0661 -0.4700  0.0538
  345TMC3    C2 5169   3.070   4.005  10.077  0.4208  0.5940  0.7095
  345TMC3    C3 5170   3.104   4.061   9.956 -0.3609  0.2033  0.4379
  345TMC3    C4 5171   2.857   4.109  10.068 -0.4189  0.1965 -0.3494
  345TMC3    C5 5172   2.894   4.168   9.949 -0.2214 -0.7005 -0.6130
  345TMC3    C6 5173   3.013   4.134   9.882 -0.2682  0.4663 -0.0241
  345TMC3     C 5174   2.909   3.975  10.257  0.4452 -0.3674 -0.2704
  345TMC3     O 5175   2.834   3.878  10.264 -1.0933 -0.1704 -0.2189
  345TMC3     H 5176   3.140   3.946  10.136  0.3421  0.6257  0.8340
  345TMC3    H1 5177   2.771   4.128  10.129 -2.2130 -2.8943 -1.8878
  345TMC3    H2 5178   3.027   4.174   9.783 -1.2322 -0.7631 -0.6616
  345TMC3    C7 5179   2.858   4.306   9.929 -0.5996  0.2116 -0.5397
  345TMC3    C8 5180   3.240   4.092   9.926 -0.0804  0.4149 -0.0463
  345TMC3    O1 5181   2.933   4.373   9.861 -0.9730 -0.1946 -0.1372
  345TMC3    O2 5182   3.321   4.107  10.015  0.0217 -0.1279  0.5111
  346MPD2     C 5183   2.917   0.793  14.367 -0.1606 -0.3477 -0.2471
  346MPD2    C1 5184   2.944   0.928  14.344  0.3284 -0.3053 -0.8785
  346MPD2    C2 5185   2.927   1.014  14.454  0.1489  0.2848 -0.1934
  346MPD2    C3 5186   2.941   0.960  14.582  0.3531 -0.8136 -0.4573
  346MPD2    C4 5187   2.929   0.821  14.607 -0.3309  0.1633  0.1965
  346MPD2    C5 5188   2.909   0.742  14.494 -0.0422  0.0886 -0.9282
  346MPD2     H 5189   2.936   1.120  14.432 -0.6593 -0.0822 -2.3041
  346MPD2    H1 5190   2.915   0.782  14.707  0.4047  1.3431  0.7628
  346MPD2    H2 5191   2.909   0.726  14.282 -1.4713 -1.1124  0.4878
  346MPD2    H3 5192   2.900   0.634  14.503  0.4329  0.0648 -0.7198
  346MPD2     N 5193   2.965   1.048  14.691  0.0063  0.7675  0.4274
  346MPD2    H5 5194   2.958   1.146  14.669 -0.3971  0.3682 -1.2114
  346MPD2    N1 5195   2.949   0.982  14.216  0.3083 -0.1401  0.3277
  346MPD2    H7 5196   2.956   1.083  14.213 -1.0114 -0.0698 -0.0419
  347TMC3    C1 5197   3.094   1.130  14.870  0.0806 -0.5793 -0.1049
  347TMC3    C2 5198   3.168   1.209  14.787  0.5624 -0.5149 -0.0939
  347TMC3    C3 5199   3.300   1.239  14.803 -0.4263  0.0142 -0.6173
  347TMC3    C4 5200   3.151   1.095  14.987 -0.1915 -0.0766  0.5318
  347TMC3    C5 5201   3.284   1.129  15.007  0.8866  0.7419  0.2434
  347TMC3    C6 5202   3.361   1.190  14.916  0.1523 -0.7216  0.9245
  347TMC3     C 5203   3.030   1.021  14.811  0.0967 -0.1682  1.1038
  347TMC3     O 5204   3.066   0.915  14.860 -0.0064  1.0140 -0.0880
  347TMC3     H 5205   3.121   1.235  14.693 -0.8366 -1.9780  0.1916
  347TMC3    H1 5206   3.101   1.022  15.050 -0.5054 -0.5695 -0.2730
  347TMC3    H2 5207   3.461   1.228  14.932 -0.4486  1.3171 -0.1043
  347TMC3    C7 5208   3.337   1.082  15.137 -0.3984 -0.4133 -0.5649
  347TMC3    C8 5209   3.377   1.225  14.681  0.2419  0.2285  0.8398
  347TMC3    O1 5210   3.258   1.079  15.230 -0.0762  0.2728  0.2595
  347TMC3    O2 5211   3.448   1.122  14.671  0.7573 -0.7162  0.4112
  348MPD2     C 5212   1.956   0.595  12.308  0.0542  0.8517 -0.3671
  348MPD2    C1 5213   1.885   0.520  12.224 -0.8912 -0.6104 -0.5593
  348MPD2    C2 5214   1.824   0.583  12.114  0.4369 -0.3181 -0.5888
  348MPD2    C3 5215   1.830   0.723  12.100 -0.1581  0.1293  0.1412
  348MPD2    C4 5216   1.900   0.797  12.188  0.1472 -0.2986  0.5679
  348MPD2    C5 5217   1.976   0.731  12.285 -0.1615 -0.0962 -0.0659
  348MPD2     H 5218   1.772   0.522  12.040 -0.6523  1.5698 -1.3817
  348MPD2    H1 5219   1.912   0.904  12.180  0.0325 -0.4027 -0.9094
  348MPD2    H2 5220   2.006   0.547  12.391 -0.8911  0.6146  0.0761
  348MPD2    H3 5221   2.033   0.791  12.355  0.1521 -1.2572  0.6675
  348MPD2     N 5222   1.765   0.773  11.983  0.3184 -0.3480  0.0451
  348MPD2    H5 5223   1.741   0.701  11.916  1.0725 -2.0386  1.5866
  348MPD2    N1 5224   1.894   0.378  12.232  0.3284  0.1781 -0.0497
  348MPD2    H7 5225   1.858   0.327  12.152  0.9025 -0.2227 -0.0577
  349TMC3    C1 5226   2.004   0.183  12.269 -0.4825  0.3053  0.0664
  349TMC3    C2 5227   1.976   0.076  12.344 -0.2555  0.4025 -0.0826
  349TMC3    C3 5228   1.995   4.683  12.284 -0.5863  0.0027 -0.7994
  349TMC3    C4 5229   2.043   0.179  12.142  0.7309  0.1966 -0.2818
  349TMC3    C5 5230   2.056   0.057  12.080 -0.1552 -0.0692 -0.2928
  349TMC3    C6 5231   2.030   4.668  12.155  0.3027  0.3953 -0.3541
  349TMC3     C 5232   1.970   0.309  12.325 -0.1511 -0.2202 -0.2109
  349TMC3     O 5233   1.998   0.327  12.443 -0.3636  0.0820  0.5593
  349TMC3     H 5234   1.943   0.086  12.447  0.2415 -1.2722  0.2497
  349TMC3    H1 5235   2.085   0.264  12.090  2.4291 -0.1092  0.5752
  349TMC3    H2 5236   2.053   4.572  12.111 -1.2664 -0.4879  0.7464
  349TMC3    C7 5237   2.135   0.044  11.958  0.3303  0.2992 -0.3531
  349TMC3    C8 5238   1.988   4.573  12.375  0.1286 -0.1273  0.2395
  349TMC3    O1 5239   2.201   4.670  11.966 -0.1586 -0.1366 -0.1392
  349TMC3    O2 5240   1.918   4.593  12.475  0.5174 -0.3797  0.2204
  350MPD2     C 5241   1.216   3.211  10.070  0.2960 -0.0243  0.2593
  350MPD2    C1 5242   1.140   3.155  10.173 -0.6762  0.1057 -0.7281
  350MPD2    C2 5243   1.119   3.242  10.281 -0.6362  0.1106  0.2711
  350MPD2    C3 5244   1.180   3.358  10.294 -0.0842 -0.2080  0.0533
  350MPD2    C4 5245   1.275   3.394  10.201  0.0379  0.0623 -0.0993
  350MPD2    C5 5246   1.291   3.324  10.086  0.0726 -0.6743 -0.1526
  350MPD2     H 5247   1.052   3.215  10.362 -2.3055 -0.3719 -1.2654
  350MPD2    H1 5248   1.325   3.490  10.204 -1.4366  0.8589 -1.0734
  350MPD2    H2 5249   1.222   3.157   9.976  0.9716  0.7383 -0.1282
  350MPD2    H3 5250   1.349   3.378  10.011  0.4766  0.2795  0.8425
  350MPD2     N 5251   1.140   3.439  10.406 -0.2564 -0.0701  0.1800
  350MPD2    H5 5252   1.059   3.408  10.458  0.2772  0.8763  1.5506
  350MPD2    N1 5253   1.074   3.028  10.175  0.1918  0.5525 -0.5287
  350MPD2    H7 5254   1.017   3.009  10.257  1.4257 -2.8748 -0.4708
  351TMC3    C1 5255   0.992   2.836  10.098 -0.3969 -0.1241  0.0139
  351TMC3    C2 5256   1.019   2.711  10.039  0.2936 -0.4773  0.0830
  351TMC3    C3 5257   0.914   2.622  10.028  0.6356  0.6589  0.1613
  351TMC3    C4 5258   0.868   2.867  10.141 -0.4293 -0.0470 -0.9300
  351TMC3    C5 5259   0.772   2.774  10.128 -0.4634  0.2178 -0.1221
  351TMC3    C6 5260   0.791   2.643  10.081 -0.2995 -0.2230 -0.4064
  351TMC3     C 5261   1.096   2.928  10.085 -0.7134  0.0128 -0.4408
  351TMC3     O 5262   1.183   2.912   9.997 -0.2475  0.0850  0.3804
  351TMC3     H 5263   1.117   2.693   9.997  0.3970 -1.9801  0.9887
  351TMC3    H1 5264   0.833   2.966  10.170 -1.7071 -1.0572  0.9717
  351TMC3    H2 5265   0.714   2.572  10.055  1.2936 -1.9763 -0.3253
  351TMC3    C7 5266   0.641   2.814  10.177  0.0701  0.5719 -0.4655
  351TMC3    C8 5267   0.942   2.506   9.945 -0.2995  0.0288 -0.6322
  351TMC3    O1 5268   0.625   2.916  10.240 -0.1493 -0.1027 -0.7032
  351TMC3    O2 5269   1.051   2.454   9.950 -0.2767 -0.4856  0.3585
  352MPD2     C 5270   0.016   1.083   0.756  0.9074  0.6879  0.0578
  352MPD2    C1 5271   4.694   0.998   0.845 -0.4846  0.2863 -0.2341
  352MPD2    C2 5272   0.056   0.898   0.894  0.0049  0.3307 -0.0874
  352MPD2    C3 5273   0.188   0.889   0.863  0.7044  0.7691 -0.2929
  352MPD2    C4 5274   0.237   0.981   0.771  0.7065  0.0263 -0.8726
  352MPD2    C5 5275   0.147   1.064   0.714 -0.0344 -1.4299  0.3609
  352MPD2     H 5276   0.008   0.823   0.956  0.1882  0.8187  0.6397
  352MPD2    H1 5277   0.342   0.980   0.744  0.4590  1.6075 -1.9216
  352MPD2    H2 5278   4.675   1.154   0.709  0.8978  0.3295 -0.4685
  352MPD2    H3 5279   0.191   1.136   0.645 -5.0276 -0.3291 -1.6676
  352MPD2     N 5280   0.274   0.781   0.900 -0.0283 -0.2289  0.0230
  352MPD2    H5 5281   0.370   0.787   0.865  0.5486 -1.6713  1.3636
  352MPD2    N1 5282   4.560   1.029   0.893  0.1352  0.0331 -0.2236
  352MPD2    H7 5283   4.508   1.096   0.837  0.6919  1.8748  1.4744
  353TMC3    C1 5284   0.343   0.577   0.989 -0.2327 -0.8163 -0.0149
  353TMC3    C2 5285   0.369   0.505   1.103 -0.2483 -0.4914 -0.6270
  353TMC3    C3 5286   0.432   0.381   1.096  0.2351  0.2193  0.7004
  353TMC3    C4 5287   0.367   0.527   0.865  0.8909 -0.9700 -0.0916
  353TMC3    C5 5288   0.427   0.400   0.860  0.1666 -0.0067  0.7073
  353TMC3    C6 5289   0.454   0.327   0.975  0.3379  0.4423 -0.2426
  353TMC3     C 5290   0.247   0.681   0.991  0.5323 -0.1850  0.1405
  353TMC3     O 5291   0.158   0.675   1.068  0.7797  0.4938 -0.0623
  353TMC3     H 5292   0.344   0.542   1.201  4.8665  0.4152  0.3390
  353TMC3    H1 5293   0.336   0.588   0.781  2.6688  1.8678  1.3449
  353TMC3    H2 5294   0.490   0.226   0.960  0.4845  0.7947 -2.2388
  353TMC3    C7 5295   0.386   0.324   0.744 -0.3373  0.0622  0.6641
  353TMC3    C8 5296   0.471   0.325   1.226  0.1366 -0.2231  0.6262
  353TMC3    O1 5297   0.383   0.204   0.759 -0.0312  0.0611 -0.1229
  353TMC3    O2 5298   0.480   0.408   1.317 -0.4658  0.2796 -0.4920
  354TMC3    C1 5299   0.633   1.959  13.690 -0.2827 -0.6238  0.4684
  354TMC3    C2 5300   0.739   2.038  13.723 -0.5507  0.6030  0.4160
  354TMC3    C3 5301   0.745   2.165  13.663 -0.1121  0.3404 -0.9850
  354TMC3    C4 5302   0.521   2.005  13.617  0.2058 -0.0999 -0.5954
  354TMC3    C5 5303   0.529   2.138  13.569  0.3709  0.2610  0.4891
  354TMC3    C6 5304   0.637   2.216  13.600 -0.1786 -0.1538  0.8774
  354TMC3     C 5305   0.628   1.820  13.729  0.1588 -0.0422 -0.5491
  354TMC3     O 5306   0.563   1.743  13.662  0.1082  0.1851 -1.0342
  354TMC3     H 5307   0.830   2.005  13.772 -0.3063  1.1261  0.3074
  354TMC3    H1 5308   0.447   1.938  13.577 -2.2477  1.4801  1.3133
  354TMC3    H2 5309   0.635   2.320  13.567  2.8377 -0.9681 -1.9310
  354TMC3    C7 5310   0.478   2.151  13.434 -0.3947  0.2754  0.1368
  354TMC3    C8 5311   0.866   2.198  13.595  0.3913  0.0220 -0.3305
  354TMC3    O1 5312   0.417   2.248  13.401  0.1865 -0.2578 -0.1020
  354TMC3    O2 5313   0.974   2.168  13.647  0.1825 -0.3724 -0.1731
  355MPD2     C 5314   1.060   2.206  11.633  0.2915 -0.2990  0.1241
  355MPD2    C1 5315   1.009   2.325  11.687 -0.5440 -0.0809  0.7461
  355MPD2    C2 5316   1.102   2.411  11.740 -0.4208 -0.2023  0.1612
  355MPD2    C3 5317   1.236   2.375  11.761  0.2253  0.2188  0.5650
  355MPD2    C4 5318   1.280   2.252  11.716 -0.1719 -0.0820 -0.2669
  355MPD2    C5 5319   1.189   2.175  11.650 -0.2884 -0.0305  0.0140
  355MPD2     H 5320   1.057   2.498  11.785 -2.2281 -1.7228  1.2732
  355MPD2    H1 5321   1.381   2.219  11.735 -0.7343 -2.5329 -1.5656
  355MPD2    H2 5322   1.001   2.132  11.580  0.3985  0.7613 -1.4746
  355MPD2    H3 5323   1.214   2.077  11.612 -1.6825 -0.3070 -0.1694
  355MPD2     N 5324   1.321   2.465  11.823  0.1915 -0.2387  1.1221
  355MPD2    H5 5325   1.419   2.439  11.829 -0.8552 -4.1548  1.4061
  355MPD2    N1 5326   0.865   2.337  11.679 -0.2539 -0.6175 -0.2699
  355MPD2    H7 5327   0.816   2.250  11.660  2.3161 -2.7460  2.9281
  356TMC3    C1 5328   1.406   2.659  11.919  0.4442 -0.0800 -0.1028
  356TMC3    C2 5329   1.508   2.667  11.832  0.8440 -0.2288 -0.0558
  356TMC3    C3 5330   1.597   2.769  11.858  0.1763 -0.6669  0.0534
  356TMC3    C4 5331   1.384   2.732  12.031 -0.4058 -0.4909  0.8413
  356TMC3    C5 5332   1.486   2.823  12.070 -0.1252 -0.2107  0.3818
  356TMC3    C6 5333   1.593   2.842  11.979  0.5567 -0.8702 -0.3074
  356TMC3     C 5334   1.290   2.586  11.871 -0.5407  0.4305 -0.4854
  356TMC3     O 5335   1.187   2.641  11.895  0.4110 -0.1533  0.1734
  356TMC3     H 5336   1.518   2.604  11.745  1.5714  1.3917 -1.1431
  356TMC3    H1 5337   1.298   2.709  12.093 -1.1917 -1.4868 -0.5999
  356TMC3    H2 5338   1.673   2.911  12.005 -0.3976 -0.8321  2.5113
  356TMC3    C7 5339   1.481   2.881  12.201 -0.2621  0.1384 -0.6139
  356TMC3    C8 5340   1.655   2.817  11.733  0.0330 -0.2167 -1.0767
  356TMC3    O1 5341   1.396   2.838  12.280  0.2417  0.1619  0.3665
  356TMC3    O2 5342   1.622   2.760  11.629 -0.3989 -0.4026  0.6424
  357MPD2     C 5343   0.921   2.993   1.243  0.3067  0.2433  0.0506
  357MPD2    C1 5344   1.005   2.952   1.344 -0.1584  0.1664 -0.3477
  357MPD2    C2 5345   0.974   2.981   1.480  0.4722 -0.5388  0.1252
  357MPD2    C3 5346   0.863   3.058   1.513  0.1353 -0.5945 -0.1894
  357MPD2    C4 5347   0.785   3.101   1.408 -0.0924 -0.4454  0.0395
  357MPD2    C5 5348   0.817   3.073   1.272  0.3964 -0.2005  0.1714
  357MPD2     H 5349   1.033   2.939   1.561  0.0658 -0.8743  0.2466
  357MPD2    H1 5350   0.699   3.165   1.424  0.3270 -0.1318  1.1256
  357MPD2    H2 5351   0.939   2.971   1.139 -0.3357 -0.0537  0.0010
  357MPD2    H3 5352   0.756   3.120   1.195  1.2635  0.3617 -0.1693
  357MPD2     N 5353   0.832   3.108   1.640  0.1338  0.0992  0.0453
  357MPD2    H5 5354   0.739   3.149   1.639 -1.1633 -2.8497 -1.2104
  357MPD2    N1 5355   1.122   2.877   1.308  0.3788 -0.1236 -0.3542
  357MPD2    H7 5356   1.137   2.847   1.212  1.9843  2.2886 -0.8514
  358TMC3    C1 5357   1.327   2.764   1.349 -0.0246  0.3887 -0.2934
  358TMC3    C2 5358   1.287   2.654   1.276  0.0433 -0.8410  0.4226
  358TMC3    C3 5359   1.384   2.557   1.262 -0.2384  0.0239  0.0440
  358TMC3    C4 5360   1.437   2.765   1.433  0.0614  0.3688  0.0998
  358TMC3    C5 5361   1.518   2.651   1.427 -0.5027 -0.1327 -0.6489
  358TMC3    C6 5362   1.488   2.544   1.349 -0.3855  0.3116 -0.5810
  358TMC3     C 5363   1.220   2.844   1.397 -0.0711  0.2400  0.1672
  358TMC3     O 5364   1.243   2.885   1.509  0.6290 -0.3006 -0.0509
  358TMC3     H 5365   1.198   2.653   1.214 -0.1242 -4.0870  0.6947
  358TMC3    H1 5366   1.479   2.859   1.468  3.3149 -1.3259  0.7478
  358TMC3    H2 5367   1.572   2.480   1.324  0.0418  0.9714 -0.8065
  358TMC3    C7 5368   1.647   2.654   1.503 -0.0592  0.1742 -0.4956
  358TMC3    C8 5369   1.345   2.448   1.176  0.1680 -0.0382 -0.4642
  358TMC3    O1 5370   1.737   2.578   1.475  0.8544 -0.1167  0.3378
  358TMC3    O2 5371   1.264   2.462   1.085 -0.1943 -0.7840  0.6990
  359MPD2     C 5372   1.199   1.748  12.645  0.5867 -0.5426  0.1143
  359MPD2    C1 5373   1.250   1.634  12.698  0.3116 -0.2114  0.4399
  359MPD2    C2 5374   1.160   1.539  12.753 -0.4190 -0.3145 -0.6472
  359MPD2    C3 5375   1.027   1.558  12.758  0.0474 -0.6801  0.4631
  359MPD2    C4 5376   0.982   1.678  12.703 -0.0849 -0.3210  0.2661
  359MPD2    C5 5377   1.066   1.764  12.642 -0.4351  0.4536 -0.5776
  359MPD2     H 5378   1.202   1.443  12.781  1.4315  0.4131 -0.9796
  359MPD2    H1 5379   0.875   1.692  12.694 -0.2487 -0.7284  1.7043
  359MPD2    H2 5380   1.258   1.823  12.593 -2.6529 -0.2453 -3.1210
  359MPD2    H3 5381   1.027   1.848  12.587 -0.4283 -0.2992 -1.7346
  359MPD2     N 5382   0.939   1.464  12.804 -0.2156  0.9001  0.0824
  359MPD2    H5 5383   0.850   1.462  12.755  0.0967  0.9437 -0.4851
  359MPD2    N1 5384   1.386   1.598  12.692 -0.0117  0.1904  0.0242
  359MPD2    H7 5385   1.419   1.513  12.737  0.1740  0.4000  0.2853
  360TMC3    C1 5386   1.594   1.601  12.605  0.7311 -0.4318 -0.2841
  360TMC3    C2 5387   1.673   1.683  12.530  1.1416 -0.3461 -0.4554
  360TMC3    C3 5388   1.699   1.654  12.395  0.1635  0.2606 -0.5293
  360TMC3    C4 5389   1.570   1.475  12.552  0.7521  0.2144  1.2435
  360TMC3    C5 5390   1.597   1.447  12.420  0.1671  0.1024 -0.0496
  360TMC3    C6 5391   1.649   1.541  12.333 -0.0280 -0.1974  0.1109
  360TMC3     C 5392   1.480   1.673  12.638  0.2817 -0.1308  0.3400
  360TMC3     O 5393   1.475   1.787  12.597  0.8416  0.3778  0.3891
  360TMC3     H 5394   1.693   1.784  12.562  1.2644  0.8350 -4.2307
  360TMC3    H1 5395   1.514   1.401  12.608 -0.5904 -2.1847 -3.2763
  360TMC3    H2 5396   1.655   1.527  12.225 -2.2922  0.7534 -0.1430
  360TMC3    C7 5397   1.555   1.317  12.362 -0.0891 -0.3480  0.4050
  360TMC3    C8 5398   1.749   1.758  12.309 -0.5519  0.5008  0.4561
  360TMC3    O1 5399   1.526   1.225  12.434  0.1231 -0.4727  0.4062
  360TMC3    O2 5400   1.708   1.876  12.313 -0.5413  0.1425  0.2268
  361MPD2     C 5401   2.881   4.690  17.171  0.0155 -0.0305  0.0551
  361MPD2    C1 5402   2.921   0.030  17.290 -0.7658 -0.9192 -0.3580
  361MPD2    C2 5403   3.049   0.008  17.336  0.8729  0.2084 -0.6339
  361MPD2    C3 5404   3.124   4.629  17.283 -0.3585  0.2146  0.1633
  361MPD2    C4 5405   3.081   4.566  17.169 -0.6084 -0.7184 -0.1660
  361MPD2    C5 5406   2.963   4.592  17.116  0.0110  0.1464 -0.4439
  361MPD2     H 5407   3.077   0.064  17.424  0.8507 -0.7309 -0.0327
  361MPD2    H1 5408   3.143   4.498  17.112  1.1461  0.1585  0.7002
  361MPD2    H2 5409   2.789   4.708  17.115  0.9969 -1.0347 -1.8563
  361MPD2    H3 5410   2.939   4.547  17.020  1.4887 -1.4608 -0.0752
  361MPD2     N 5411   3.243   4.581  17.345  0.2670 -0.4993 -0.3041
  361MPD2    H5 5412   3.289   4.508  17.292 -1.0131 -0.7198 -1.1165
  361MPD2    N1 5413   2.834   0.122  17.343 -0.0512  0.0004  0.2007
  361MPD2    H7 5414   2.866   0.179  17.421  0.0821  0.0417  0.1154
  362TMC3    C1 5415   2.639   0.249  17.377 -0.2221  0.2794  0.2745
  362TMC3    C2 5416   2.509   0.240  17.422 -0.0097 -0.3783  0.0094
  362TMC3    C3 5417   2.429   0.348  17.413 -0.6123  0.8826 -0.1860
  362TMC3    C4 5418   2.684   0.368  17.326  0.0888  0.5793 -0.1622
  362TMC3    C5 5419   2.593   0.473  17.313  0.0908  0.7130  0.5907
  362TMC3    C6 5420   2.466   0.469  17.357 -0.1727 -0.7647 -0.6972
  362TMC3     C 5421   2.701   0.136  17.312 -0.6901  0.0286  0.1054
  362TMC3     O 5422   2.625   0.062  17.255  0.0926 -0.2181 -0.0599
  362TMC3     H 5423   2.466   0.149  17.462 -2.9461  1.2650  0.6178
  362TMC3    H1 5424   2.780   0.377  17.278 -0.4618  1.7372 -1.0513
  362TMC3    H2 5425   2.394   0.545  17.328 -0.3021 -0.2995  0.8399
  362TMC3    C7 5426   2.639   0.597  17.253  0.8898 -0.3915  0.0611
  362TMC3    C8 5427   2.291   0.342  17.459 -0.0264  0.2060  0.1845
  362TMC3    O1 5428   2.565   0.699  17.269 -0.1535  0.8579  0.5136
  362TMC3    O2 5429   2.248   0.231  17.480  0.0625 -0.2233 -0.1285
  363TMC3    C1 5430   1.094   2.305   9.467  0.2837 -0.0746  0.0623
  363TMC3    C2 5431   1.178   2.240   9.552  0.4815  0.1284  0.3360
  363TMC3    C3 5432   1.245   2.313   9.649 -0.6136  0.3036  0.1999
  363TMC3    C4 5433   1.074   2.437   9.481 -0.1350  0.6540 -0.5745
  363TMC3    C5 5434   1.140   2.505   9.582 -0.9334  0.0548  0.4346
  363TMC3    C6 5435   1.220   2.444   9.665  0.4098 -0.5668 -0.1823
  363TMC3     C 5436   1.030   2.230   9.365 -0.0764  0.7496 -0.2895
  363TMC3     O 5437   1.082   2.123   9.342 -0.1934  0.1335 -0.1892
  363TMC3     H 5438   1.191   2.132   9.550  0.4851  0.1837 -2.9850
  363TMC3    H1 5439   1.025   2.489   9.400 -0.5843  1.0236 -0.0643
  363TMC3    H2 5440   1.264   2.493   9.751 -1.3462 -2.6064  1.8915
  363TMC3    C7 5441   1.095   2.642   9.609  0.3220  0.5298  0.3996
  363TMC3    C8 5442   1.321   2.247   9.754 -0.2466 -0.0547  0.3684
  363TMC3    O1 5443   0.983   2.683   9.572  0.6693  0.0969 -0.1011
  363TMC3    O2 5444   1.325   2.312   9.859 -0.1120 -0.3313 -0.0857
  364MPD2     C 5445   0.117   1.895  11.056 -0.4690 -0.4522 -0.0733
  364MPD2    C1 5446   0.220   1.831  11.000  1.1368  0.2799  0.3013
  364MPD2    C2 5447   0.257   1.711  11.052  0.0787  0.4192  0.5466
  364MPD2    C3 5448   0.178   1.635  11.135  0.2357 -0.5162 -0.1649
  364MPD2    C4 5449   0.062   1.689  11.181  0.6696 -0.8721  0.4571
  364MPD2    C5 5450   0.033   1.825  11.145  0.0966 -0.9710  0.5654
  364MPD2     H 5451   0.348   1.662  11.018  0.2542 -0.0275  1.6628
  364MPD2    H1 5452   4.712   1.638  11.240  0.1108 -2.5255 -1.6926
  364MPD2    H2 5453   0.083   1.993  11.024 -0.6184 -0.8578 -1.1677
  364MPD2    H3 5454   4.664   1.869  11.172 -0.9593 -3.2029  0.5223
  364MPD2     N 5455   0.211   1.499  11.175 -0.0807 -0.4323 -0.1343
  364MPD2    H5 5456   0.158   1.447  11.245 -1.0209 -1.2275 -1.4467
  364MPD2    N1 5457   0.293   1.906  10.906 -0.3538  0.4678 -0.0373
  364MPD2    H7 5458   0.266   1.999  10.877  0.4367  1.1186  1.3043
  365TMC3    C1 5459   0.470   1.959  10.762  0.8572 -0.7404 -0.5854
  365TMC3    C2 5460   0.518   1.910  10.642  0.3453  0.1192 -0.2750
  365TMC3    C3 5461   0.547   2.004  10.550 -0.1597  0.3107  0.3353
  365TMC3    C4 5462   0.443   2.091  10.787  0.0495 -0.3322  0.2725
  365TMC3    C5 5463   0.476   2.183  10.693 -0.8970  0.4718 -0.0160
  365TMC3    C6 5464   0.526   2.142  10.568 -0.2130 -1.3334 -0.1846
  365TMC3     C 5465   0.396   1.857  10.840 -0.7483 -0.1978 -0.2127
  365TMC3     O 5466   0.438   1.743  10.831  0.8930  0.4721  0.2449
  365TMC3     H 5467   0.533   1.803  10.632 -0.1871 -0.2821  3.1949
  365TMC3    H1 5468   0.419   2.127  10.886 -0.4985 -0.3116  0.1313
  365TMC3    H2 5469   0.563   2.213  10.494 -0.0253 -0.8919  0.3361
  365TMC3    C7 5470   0.415   2.313  10.700 -0.0668 -0.2985  0.0680
  365TMC3    C8 5471   0.615   1.968  10.429  0.1219  0.5015 -0.2902
  365TMC3    O1 5472   0.465   2.399  10.629 -0.2991 -0.2169 -0.0964
  365TMC3    O2 5473   0.599   2.050  10.339 -0.2763 -0.7655  0.1454
  366MPD2     C 5474   3.384   2.693  15.598  0.2608 -0.2168 -0.7763
  366MPD2    C1 5475   3.313   2.809  15.573  0.5624  0.1846  0.0351
  366MPD2    C2 5476   3.314   2.877  15.451 -0.6573 -0.3372 -0.3718
  366MPD2    C3 5477   3.397   2.828  15.354 -0.0874  0.2614  0.0301
  366MPD2    C4 5478   3.477   2.721  15.388  0.4633 -0.7956 -0.7576
  366MPD2    C5 5479   3.462   2.649  15.499 -0.1429  0.0532  0.1677
  366MPD2     H 5480   3.259   2.971  15.450  0.2224  0.2023  1.0864
  366MPD2    H1 5481   3.534   2.676  15.308 -0.2664  0.3380 -1.9186
  366MPD2    H2 5482   3.366   2.624  15.680 -2.1679  1.1023 -0.1882
  366MPD2    H3 5483   3.525   2.563  15.518 -0.2550 -0.3660 -1.3732
  366MPD2     N 5484   3.421   2.910  15.238 -0.2685  0.5993  0.3557
  366MPD2    H5 5485   3.508   2.896  15.188  0.7551  0.7625  2.0960
  366MPD2    N1 5486   3.243   2.867  15.674 -0.0081 -0.2668  0.3425
  366MPD2    H7 5487   3.182   2.945  15.651  2.7656  1.9346  0.4596
  367TMC3    C1 5488   3.186   2.941  15.884 -0.2039 -0.3946 -0.1355
  367TMC3    C2 5489   3.277   3.024  15.941 -0.2959  0.3158 -0.7725
  367TMC3    C3 5490   3.234   3.149  15.974 -0.2272  0.4044  0.4794
  367TMC3    C4 5491   3.069   2.985  15.840  0.4262 -0.2374 -0.4739
  367TMC3    C5 5492   3.030   3.113  15.871  0.6447  0.4593  0.3585
  367TMC3    C6 5493   3.115   3.198  15.939  0.1012  0.2410 -0.5609
  367TMC3     C 5494   3.261   2.843  15.806 -0.2752 -0.5494  0.2286
  367TMC3     O 5495   3.330   2.763  15.867 -0.2265 -0.2695  0.3899
  367TMC3     H 5496   3.379   2.988  15.951 -0.4362  0.3326  0.8205
  367TMC3    H1 5497   3.002   2.915  15.790 -0.9765 -1.5500  3.2152
  367TMC3    H2 5498   3.086   3.288  15.992 -1.1289 -0.4763 -0.0187
  367TMC3    C7 5499   2.930   3.177  15.794 -0.0567 -0.0720 -0.2983
  367TMC3    C8 5500   3.339   3.243  15.981 -0.8809 -0.2481 -0.4513
  367TMC3    O1 5501   2.912   3.293  15.828  0.1611  0.1032 -0.7937
  367TMC3    O2 5502   3.441   3.214  16.042  0.0073 -0.0096 -0.2047
  368MPD2     C 5503   4.142   0.650  13.297 -0.0539 -0.7224  0.4405
  368MPD2    C1 5504   4.179   0.699  13.173  0.3255 -0.1025 -0.5046
  368MPD2    C2 5505   4.316   0.699  13.141  0.5969 -0.3114 -0.6210
  368MPD2    C3 5506   4.406   0.652  13.238  0.1252  0.4331 -0.1582
  368MPD2    C4 5507   4.368   0.606  13.356 -0.1321  0.2015 -0.3047
  368MPD2    C5 5508   4.233   0.604  13.391  0.2644  0.7738  0.3326
  368MPD2     H 5509   4.345   0.748  13.049  2.7726  0.5293  0.4927
  368MPD2    H1 5510   4.438   0.572  13.432  0.0257  0.0056 -0.5368
  368MPD2    H2 5511   4.037   0.647  13.322 -0.2991  0.7058 -0.3822
  368MPD2    H3 5512   4.214   0.573  13.493 -0.6323  0.4578  0.0655
  368MPD2     N 5513   4.546   0.641  13.210  0.3391 -0.5332  0.4443
  368MPD2    H5 5514   4.598   0.579  13.271 -1.4486  0.8729  3.3491
  368MPD2    N1 5515   4.071   0.731  13.090 -0.6109  0.7505  0.0362
  368MPD2    H7 5516   3.979   0.743  13.129  0.0364 -0.5876  1.9618
  369TMC3    C1 5517   3.959   0.801  12.882 -0.1550  0.4327  0.2295
  369TMC3    C2 5518   3.979   0.842  12.750 -0.4884 -0.3238 -0.5386
  369TMC3    C3 5519   3.875   0.847  12.663  1.0582  0.3660  0.9812
  369TMC3    C4 5520   3.830   0.762  12.908 -0.0085  0.2092 -0.9733
  369TMC3    C5 5521   3.722   0.767  12.818  0.0275  0.4332  0.1948
  369TMC3    C6 5522   3.743   0.816  12.695  0.3867  0.4286  0.8866
  369TMC3     C 5523   4.082   0.762  12.956  0.0742  0.1280  0.1305
  369TMC3     O 5524   4.179   0.756  12.883  0.1172 -0.1915  0.0298
  369TMC3     H 5525   4.071   0.891  12.721 -0.1201 -0.2966  0.6439
  369TMC3    H1 5526   3.809   0.725  13.008  1.3293 -1.1596 -1.1955
  369TMC3    H2 5527   3.669   0.834  12.618 -1.4140 -1.7781  2.1199
  369TMC3    C7 5528   3.609   0.682  12.829  0.1752  0.8058 -0.6210
  369TMC3    C8 5529   3.910   0.868  12.525  0.1332 -0.5774  0.6537
  369TMC3    O1 5530   3.616   0.604  12.924 -0.5328 -0.3046 -0.0911
  369TMC3    O2 5531   3.843   0.926  12.440  0.4513 -0.1392  0.1843
  370TMC3    C1 5532   3.951   0.834  16.623  0.7713  0.2582  0.0017
  370TMC3    C2 5533   3.944   0.757  16.737 -0.0382  0.7036  0.4504
  370TMC3    C3 5534   3.861   0.650  16.737  0.0693 -0.2735  0.1832
  370TMC3    C4 5535   3.874   0.824  16.514 -0.2645 -0.5823  0.8735
  370TMC3    C5 5536   3.800   0.705  16.509 -0.9398  0.4011  0.7465
  370TMC3    C6 5537   3.793   0.616  16.622  0.2731 -0.4417 -0.1251
  370TMC3     C 5538   4.071   0.916  16.625  0.1011  0.1727 -0.0992
  370TMC3     O 5539   4.167   0.883  16.690  0.3590  0.0539 -0.4116
  370TMC3     H 5540   4.012   0.775  16.820 -0.6826  2.1393  0.6666
  370TMC3    H1 5541   3.895   0.876  16.421 -2.9418 -0.8030  0.1431
  370TMC3    H2 5542   3.737   0.524  16.606  0.0880 -0.4157  0.3663
  370TMC3    C7 5543   3.760   0.662  16.374 -0.1775  0.1712 -0.1587
  370TMC3    C8 5544   3.896   0.542  16.836  0.5245  0.8489 -0.1636
  370TMC3    O1 5545   3.734   0.751  16.291 -0.4077 -0.7414 -0.2619
  370TMC3    O2 5546   3.909   0.430  16.786  0.3929 -0.4395  0.0294
  371TMC3    C1 5547   0.295   4.088  15.375 -0.7204 -0.8512 -0.4923
  371TMC3    C2 5548   0.181   4.063  15.442 -0.1947  0.4365 -0.4181
  371TMC3    C3 5549   0.092   4.163  15.440 -0.3187  0.3032  0.1293
  371TMC3    C4 5550   0.319   4.207  15.313  0.0782 -0.2445  0.1375
  371TMC3    C5 5551   0.221   4.298  15.300 -0.3146  0.0512  0.0845
  371TMC3    C6 5552   0.108   4.279  15.370  0.5303 -0.2557  0.0964
  371TMC3     C 5553   0.415   3.998  15.384 -0.1020 -0.2138  0.4626
  371TMC3     O 5554   0.514   4.040  15.330 -0.0340 -0.8557  0.3999
  371TMC3     H 5555   0.158   3.967  15.487 -0.6806  0.5573 -0.4041
  371TMC3    H1 5556   0.406   4.223  15.251 -0.6538  1.4550 -0.4507
  371TMC3    H2 5557   0.027   4.352  15.376  1.4887  1.0114 -2.4388
  371TMC3    C7 5558   0.250   4.413  15.208 -0.3720  0.1863 -0.5911
  371TMC3    C8 5559   4.681   4.128  15.491  0.4569 -0.1233  0.0832
  371TMC3    O1 5560   0.368   4.439  15.187  0.4073  0.5331  0.1469
  371TMC3    O2 5561   4.658   4.011  15.509 -0.0082  0.1524  0.6477
  372MPD2     C 5562   0.857   0.863  14.165 -0.5197 -0.2830 -0.3898
  372MPD2    C1 5563   0.854   0.729  14.200 -0.1963  0.4422 -0.8693
  372MPD2    C2 5564   0.799   0.640  14.109  0.0634  0.0771 -0.6015
  372MPD2    C3 5565   0.763   0.677  13.980 -0.0840 -0.4540 -0.6254
  372MPD2    C4 5566   0.787   0.804  13.942  0.4925  0.3276  0.2716
  372MPD2    C5 5567   0.820   0.894  14.039 -1.0768 -0.4112 -0.0018
  372MPD2     H 5568   0.778   0.537  14.136 -0.4982  0.4821  0.5255
  372MPD2    H1 5569   0.797   0.843  13.840 -0.5842 -1.3211 -0.4496
  372MPD2    H2 5570   0.901   0.945  14.221  1.7076 -1.3664 -0.5561
  372MPD2    H3 5571   0.852   0.993  14.009  0.7159 -0.7572  0.7978
  372MPD2     N 5572   0.727   0.580  13.890  0.3704 -0.5456  0.6865
  372MPD2    H5 5573   0.720   0.483  13.919 -2.2051 -0.5695 -0.0293
  372MPD2    N1 5574   0.905   0.681  14.328 -0.2690  0.3076 -0.5836
  372MPD2    H7 5575   0.886   0.584  14.351  1.5103  0.1880  0.3626
  373TMC3    C1 5576   0.639   0.511  13.679  0.2354 -0.4598  0.2931
  373TMC3    C2 5577   0.521   0.515  13.611  0.3561  0.4482 -0.7107
  373TMC3    C3 5578   0.478   0.406  13.535  0.0135  0.2073 -0.0269
  373TMC3    C4 5579   0.717   0.398  13.684 -0.4250  0.6026  0.1013
  373TMC3    C5 5580   0.689   0.307  13.586  0.1231 -0.3705 -0.4526
  373TMC3    C6 5581   0.575   0.314  13.508  0.0824 -0.0974 -0.3924
  373TMC3     C 5582   0.656   0.616  13.780 -0.5465 -0.8744  0.3350
  373TMC3     O 5583   0.602   0.719  13.752 -0.3968  0.8297  0.0288
  373TMC3     H 5584   0.451   0.580  13.663  0.4017  1.8793 -2.4637
  373TMC3    H1 5585   0.810   0.397  13.739  0.2330 -1.5856 -1.0266
  373TMC3    H2 5586   0.557   0.226  13.448 -0.6776 -0.7756  0.8347
  373TMC3    C7 5587   0.753   0.178  13.595 -0.1415  0.4662 -0.2271
  373TMC3    C8 5588   0.361   0.342  13.586 -0.2824  0.9561  0.5634
  373TMC3    O1 5589   0.694   0.080  13.563 -0.3791  0.3448  0.2418
  373TMC3    O2 5590   0.376   0.223  13.604  0.3529 -0.5842  0.0591
  374TMC3    C1 5591   0.156   0.634  10.606  0.3488 -0.6335 -0.1971
  374TMC3    C2 5592   0.268   0.591  10.542 -0.0206  0.1676 -0.0571
  374TMC3    C3 5593   0.276   0.623  10.405 -0.7840  0.2794 -0.0223
  374TMC3    C4 5594   0.058   0.703  10.544  0.0318 -0.3765  0.3672
  374TMC3    C5 5595   0.057   0.719  10.407 -0.1621 -0.2232  0.1023
  374TMC3    C6 5596   0.169   0.682  10.333 -0.2296  0.1183 -0.6000
  374TMC3     C 5597   0.141   0.605  10.749  0.1445 -0.5718 -0.2921
  374TMC3     O 5598   0.059   0.666  10.816  0.2027 -0.4866 -0.1410
  374TMC3     H 5599   0.347   0.530  10.584 -1.6433 -1.9487 -0.0765
  374TMC3    H1 5600   4.700   0.734  10.604 -0.5772 -0.7453 -0.3100
  374TMC3    H2 5601   0.175   0.718  10.231 -0.5150 -2.5712 -1.5428
  374TMC3    C7 5602   4.658   0.765  10.343  0.5572  0.3153  0.2220
  374TMC3    C8 5603   0.406   0.648  10.340  0.1932  0.0906  0.6045
  374TMC3    O1 5604   4.558   0.769  10.414 -0.2963 -0.4121  0.2744
  374TMC3    O2 5605   0.398   0.685  10.224  0.2489  0.5672  0.0007
  375MPD2     C 5606   0.763   1.541  17.016 -0.3722 -0.5105 -0.3954
  375MPD2    C1 5607   0.687   1.427  16.985 -0.3621 -0.4800 -0.4151
  375MPD2    C2 5608   0.750   1.313  16.933 -0.8774  0.1147 -0.5083
  375MPD2    C3 5609   0.886   1.313  16.929  0.5117 -0.5471 -0.1486
  375MPD2    C4 5610   0.962   1.423  16.960 -0.5544  0.5300 -0.1663
  375MPD2    C5 5611   0.898   1.534  17.006 -1.0189 -0.4331 -0.1078
  375MPD2     H 5612   0.693   1.223  16.915 -1.1930  0.4009 -0.9508
  375MPD2    H1 5613   1.068   1.417  16.937 -0.4193 -1.8063  1.0470
  375MPD2    H2 5614   0.732   1.633  17.064 -0.2340 -0.5719 -0.1866
  375MPD2    H3 5615   0.954   1.623  17.033 -0.2661 -0.8305 -0.3808
  375MPD2     N 5616   0.960   1.197  16.887  0.1138  0.6855  0.5830
  375MPD2    H5 5617   1.059   1.217  16.880 -0.1065  1.3134 -0.6503
  375MPD2    N1 5618   0.545   1.431  16.994 -0.1851 -0.0215 -0.5681
  375MPD2    H7 5619   0.500   1.344  16.970 -2.9013  1.4468 -0.7669
  376TMC3    C1 5620   1.008   1.015  16.761  0.2447  0.9213 -0.6332
  376TMC3    C2 5621   1.139   1.038  16.785  1.5483  0.4627 -0.4512
  376TMC3    C3 5622   1.228   1.009  16.683  0.5596 -0.0618 -0.3263
  376TMC3    C4 5623   0.968   0.971  16.632 -0.3607  1.0021 -0.2494
  376TMC3    C5 5624   1.059   0.942  16.529  0.2489 -0.0546  0.0653
  376TMC3    C6 5625   1.192   0.972  16.558  0.6218 -0.2826  0.1299
  376TMC3     C 5626   0.911   1.082  16.844 -0.2673  0.6032 -0.6548
  376TMC3     O 5627   0.797   1.044  16.838  0.1013 -1.3023 -0.1341
  376TMC3     H 5628   1.169   1.066  16.885 -0.8430 -0.3415  0.5134
  376TMC3    H1 5629   0.863   0.980  16.606 -0.3556  2.5534  0.2429
  376TMC3    H2 5630   1.269   0.973  16.482  0.2163  0.4516 -0.2787
  376TMC3    C7 5631   1.028   0.980  16.396  0.1414 -0.4809  0.0676
  376TMC3    C8 5632   1.366   1.004  16.712  0.6183  0.0420  0.3675
  376TMC3    O1 5633   1.068   1.087  16.346  0.3432  0.4797 -0.1410
  376TMC3    O2 5634   1.399   0.926  16.802 -0.5005 -0.4108 -0.3913
  377MPD2     C 5635   3.233   0.686  12.144 -0.8348  0.2631 -0.5299
  377MPD2    C1 5636   3.273   0.598  12.240  0.5175  0.5027 -0.1759
  377MPD2    C2 5637   3.184   0.532  12.327 -1.1561 -0.5472  0.0865
  377MPD2    C3 5638   3.050   0.568  12.317 -0.0720  0.5729 -0.3591
  377MPD2    C4 5639   3.012   0.672  12.234 -0.1336 -0.1254 -0.4748
  377MPD2    C5 5640   3.101   0.729  12.147  0.9891  0.4105 -0.2692
  377MPD2     H 5641   3.220   0.456  12.396  0.1944  0.5114  0.5590
  377MPD2    H1 5642   2.906   0.693  12.229 -0.1237  0.2328  1.0083
  377MPD2    H2 5643   3.304   0.738  12.080  0.4794 -1.0298 -0.1344
  377MPD2    H3 5644   3.070   0.812  12.085  2.5746  1.9974  1.0679
  377MPD2     N 5645   2.955   0.514  12.400  0.6821  0.0019 -0.0622
  377MPD2    H5 5646   2.859   0.547  12.399 -0.5493 -3.5239 -1.3212
  377MPD2    N1 5647   3.411   0.586  12.252 -0.4650  0.3638  0.2530
  377MPD2    H7 5648   3.474   0.627  12.183  0.7727 -0.4201  0.9218
  378TMC3    C1 5649   3.805   0.548  12.179 -0.3918  0.7957  0.0256
  378TMC3    C2 5650   3.668   0.554  12.198 -1.1063  0.3605 -0.1548
  378TMC3    C3 5651   3.622   0.522  12.326 -0.5377 -1.0597  0.4085
  378TMC3    C4 5652   3.895   0.521  12.280  0.0065 -0.2118  0.3532
  378TMC3    C5 5653   3.846   0.507  12.411 -0.2811 -0.4326 -0.6204
  378TMC3    C6 5654   3.707   0.503  12.433  1.1573  0.4478 -0.1148
  378TMC3     C 5655   3.853   0.562  12.042 -0.4195  0.0628  0.0221
  378TMC3     O 5656   3.768   0.594  11.958 -0.7130 -0.1119  0.6343
  378TMC3     H 5657   3.605   0.549  12.110  0.1274  0.2016 -1.0345
  378TMC3    H1 5658   4.001   0.532  12.262 -0.0796  0.9731  0.5896
  378TMC3    H2 5659   3.666   0.491  12.533  2.3853  2.4004  0.6188
  378TMC3    C7 5660   3.936   0.477  12.520  0.3286 -0.0475 -0.2884
  378TMC3    C8 5661   3.480   0.529  12.357 -0.3292 -0.0515  0.5934
  378TMC3    O1 5662   3.890   0.510  12.629  0.3072 -0.4186  0.2099
  378TMC3    O2 5663   3.443   0.480  12.462 -1.0738  0.2421 -0.5976
  379MPD2     C 5664   3.957   3.180  16.429 -0.0995  0.1049  0.2548
  379MPD2    C1 5665   4.084   3.172  16.368 -0.1740 -0.2399 -0.1800
  379MPD2    C2 5666   4.187   3.101  16.427 -0.3610  0.1373  0.1305
  379MPD2    C3 5667   4.165   3.033  16.544 -0.1091  0.5088 -0.0273
  379MPD2    C4 5668   4.044   3.066  16.615 -0.2073 -0.0935 -0.5796
  379MPD2    C5 5669   3.942   3.137  16.556 -0.4910  0.8868 -0.2443
  379MPD2     H 5670   4.279   3.098  16.370 -0.8395 -2.1176 -0.5199
  379MPD2    H1 5671   4.022   3.024  16.713  0.5775  0.2116 -0.2708
  379MPD2    H2 5672   3.879   3.242  16.389  0.6129 -0.8521 -2.6279
  379MPD2    H3 5673   3.854   3.156  16.617  1.7588  0.6419  3.0999
  379MPD2     N 5674   4.257   2.953  16.618  0.1403  0.2602 -0.2044
  379MPD2    H5 5675   4.227   2.939  16.714 -0.9541 -0.5946 -0.6704
  379MPD2    N1 5676   4.083   3.230  16.242  0.0427  0.3607 -0.3197
  379MPD2    H7 5677   4.001   3.286  16.224  0.4102  0.6377 -1.1081
  380TMC3    C1 5678   4.129   3.317  16.022 -1.0998  0.7887  0.4685
  380TMC3    C2 5679   4.210   3.340  15.913 -0.4222  0.4806 -0.3847
  380TMC3    C3 5680   4.157   3.403  15.802  0.1866  0.1437 -1.2261
  380TMC3    C4 5681   4.001   3.360  16.025  0.0264 -0.3620 -0.3268
  380TMC3    C5 5682   3.958   3.430  15.912  0.4530  0.2468  0.5089
  380TMC3    C6 5683   4.026   3.441  15.792  0.7803 -0.0365 -0.8128
  380TMC3     C 5684   4.179   3.244  16.141 -0.3357  0.0408 -0.6748
  380TMC3     O 5685   4.294   3.196  16.145 -0.0875  0.1154  0.8846
  380TMC3     H 5686   4.313   3.308  15.924 -0.8018 -0.4548  0.5017
  380TMC3    H1 5687   3.943   3.341  16.115 -1.1882  0.0202 -1.0395
  380TMC3    H2 5688   3.985   3.502  15.713  0.2211  1.1021  0.3607
  380TMC3    C7 5689   3.821   3.473  15.928  0.0264  0.4735 -0.8341
  380TMC3    C8 5690   4.232   3.470  15.696  0.2842 -0.2254  0.6475
  380TMC3    O1 5691   3.769   3.462  16.041  0.4210 -0.5695 -0.0049
  380TMC3    O2 5692   4.168   3.523  15.608  0.0439 -0.1971 -0.5695
  381TMC3    C1 5693   3.893   4.489  16.394 -0.2330  1.1421 -0.0480
  381TMC3    C2 5694   3.989   4.582  16.368  0.1590 -0.9570 -0.4768
  381TMC3    C3 5695   4.006   4.682  16.458  0.3783 -0.1477  0.2554
  381TMC3    C4 5696   3.822   4.484  16.506  0.2155 -0.0229 -0.1928
  381TMC3    C5 5697   3.854   4.580  16.598 -0.6314 -0.3126  0.0148
  381TMC3    C6 5698   3.947   4.675  16.585  0.5988 -0.2747  0.0211
  381TMC3     C 5699   3.831   4.426  16.276 -0.0814  0.1591  0.2320
  381TMC3     O 5700   3.910   4.392  16.188 -0.7319  0.0658 -0.0105
  381TMC3     H 5701   4.042   4.600  16.275  0.8840 -2.1730 -0.2933
  381TMC3    H1 5702   3.747   4.409  16.526 -0.2584  0.7392  0.8342
  381TMC3    H2 5703   3.967   0.021  16.663  1.2825 -0.6444  0.1844
  381TMC3    C7 5704   3.820   4.537  16.734 -0.1192 -0.0895 -0.6555
  381TMC3    C8 5705   4.034   0.086  16.404  0.3448 -0.6758 -0.2377
  381TMC3    O1 5706   3.803   4.414  16.749  0.2295 -0.0357 -0.2088
  381TMC3    O2 5707   4.021   0.096  16.283 -0.1938  0.1602  0.6417
  382MPD2     C 5708   3.708   2.388   0.232 -0.6034 -0.2937  0.0208
  382MPD2    C1 5709   3.596   2.451   0.286  0.0315  0.1620  0.1844
  382MPD2    C2 5710   3.513   2.379   0.365 -0.5705  0.2366  0.8313
  382MPD2    C3 5711   3.537   2.249   0.401  0.0051 -0.0973  0.2734
  382MPD2    C4 5712   3.650   2.183   0.358  0.6809 -0.5493  0.2966
  382MPD2    C5 5713   3.733   2.257   0.279 -0.1504  0.7424  0.5759
  382MPD2     H 5714   3.422   2.428   0.396 -0.6914  1.0744 -0.8285
  382MPD2    H1 5715   3.676   2.081   0.386 -0.6421 -0.8735  0.3759
  382MPD2    H2 5716   3.787   2.440   0.180 -1.3195 -1.3215 -2.0936
  382MPD2    H3 5717   3.834   2.226   0.255  0.2070  2.1281  0.3004
  382MPD2     N 5718   3.436   2.168   0.467  0.1089 -0.2394 -0.6427
  382MPD2    H5 5719   3.461   2.070   0.461  0.7649 -0.2385  1.7623
  382MPD2    N1 5720   3.548   2.567   0.234  0.1933  0.4688 -0.1180
  382MPD2    H7 5721   3.458   2.598   0.270  0.3978  1.0439 -0.1061
  383TMC3    C1 5722   3.257   2.104   0.603  0.1247 -0.0464  0.7598
  383TMC3    C2 5723   3.196   2.024   0.504 -0.0648  0.0359  0.6524
  383TMC3    C3 5724   3.097   1.942   0.544 -0.0507 -0.3333  0.9250
  383TMC3    C4 5725   3.217   2.099   0.728  0.7193  0.1041 -0.2320
  383TMC3    C5 5726   3.116   2.016   0.764 -0.0620  0.0890  0.3548
  383TMC3    C6 5727   3.056   1.935   0.675 -0.6957  0.0189  0.0175
  383TMC3     C 5728   3.338   2.217   0.552 -0.3372  0.3215  0.9377
  383TMC3     O 5729   3.331   2.330   0.596 -0.1718 -0.8662 -0.2614
  383TMC3     H 5730   3.227   2.034   0.400 -1.5068  0.2983  0.2436
  383TMC3    H1 5731   3.275   2.149   0.805  2.0056 -1.5095 -0.1612
  383TMC3    H2 5732   2.978   1.864   0.702 -1.5873  0.1809 -2.0693
  383TMC3    C7 5733   3.045   2.025   0.897  0.4193 -1.0033  0.3290
  383TMC3    C8 5734   2.993   1.898   0.448 -0.5735 -0.7659  0.3657
  383TMC3    O1 5735   2.990   1.924   0.941  0.6036  0.2092 -0.0516
  383TMC3    O2 5736   2.959   1.977   0.360  0.2217 -0.1660  0.5157
  384MPD2     C 5737   4.595   3.750  11.988 -0.3671 -0.0508  0.3783
  384MPD2    C1 5738   4.599   3.673  12.105  0.2414  0.2871  0.7553
  384MPD2    C2 5739   4.682   3.566  12.111 -0.5548  0.6992 -0.1585
  384MPD2    C3 5740   0.033   3.532  12.005  0.3078 -0.1905  0.0769
  384MPD2    C4 5741   0.017   3.602  11.884  0.3800 -0.0753 -0.1169
  384MPD2    C5 5742   4.658   3.709  11.880 -0.2543 -0.0560  0.1554
  384MPD2     H 5743   4.690   3.514  12.206 -1.5229 -0.7631 -0.8626
  384MPD2    H1 5744   0.062   3.578  11.789 -0.6210 -1.5683 -0.2078
  384MPD2    H2 5745   4.527   3.833  11.978  0.3585  0.7973  2.4920
  384MPD2    H3 5746   4.654   3.767  11.788  0.3782 -1.7047 -0.9229
  384MPD2     N 5747   0.104   3.409  12.005 -0.3833 -0.7059  0.1695
  384MPD2    H5 5748   0.158   3.376  11.926  0.4534 -0.7881  0.7741
  384MPD2    N1 5749   4.532   3.704  12.232 -0.2901  0.2962  0.0175
  384MPD2    H7 5750   4.565   3.647  12.309  0.0588 -0.0489 -0.3838
  385TMC3    C1 5751   0.226   3.237  12.098 -0.3704  0.2300 -0.2820
  385TMC3    C2 5752   0.170   3.149  12.010 -0.3289  0.3879  0.0908
  385TMC3    C3 5753   0.169   3.012  12.042  0.1812  0.5683  0.3070
  385TMC3    C4 5754   0.280   3.185  12.213  0.1575  0.1482  0.3641
  385TMC3    C5 5755   0.275   3.048  12.240 -0.5356 -0.5149  0.1822
  385TMC3    C6 5756   0.217   2.959  12.159  0.2968  0.3738  0.2652
  385TMC3     C 5757   0.146   3.357  12.121 -0.2509  0.3045  0.4879
  385TMC3     O 5758   0.146   3.397  12.239  0.1399  0.0675  0.1448
  385TMC3     H 5759   0.115   3.177  11.921 -1.1139 -0.0243  0.4473
  385TMC3    H1 5760   0.317   3.257  12.285  0.7487 -0.8892  1.0997
  385TMC3    H2 5761   0.198   2.856  12.187 -1.4820  0.1112 -1.9032
  385TMC3    C7 5762   0.221   3.044  12.376  0.3682 -0.0395  0.3418
  385TMC3    C8 5763   0.090   2.923  11.957 -0.2615  0.1259  0.1883
  385TMC3    O1 5764   0.235   2.938  12.431 -0.3339  0.3381 -0.1478
  385TMC3    O2 5765   0.128   2.912  11.844  0.2338 -0.4736 -0.1244
  386TMC3    C1 5766   0.292   0.443  11.773 -0.4087  0.3196  0.7966
  386TMC3    C2 5767   0.387   0.460  11.673  0.2651 -1.1639 -0.0969
  386TMC3    C3 5768   0.339   0.490  11.543 -0.2059  0.5793  0.3959
  386TMC3    C4 5769   0.160   0.444  11.746  0.0239  0.2796  0.3861
  386TMC3    C5 5770   0.113   0.470  11.620 -0.1750  0.6960  0.4369
  386TMC3    C6 5771   0.203   0.480  11.512 -0.3187  0.4397 -0.5504
  386TMC3     C 5772   0.333   0.492  11.901  0.8470 -0.2131 -0.1190
  386TMC3     O 5773   0.250   0.547  11.972 -0.0574  0.2676 -0.1535
  386TMC3     H 5774   0.490   0.492  11.690 -0.5257  2.3840 -2.0204
  386TMC3    H1 5775   0.097   0.445  11.834 -0.2115  2.0568  0.2146
  386TMC3    H2 5776   0.168   0.492  11.409 -2.4675  0.9032  0.2265
  386TMC3    C7 5777   4.702   0.532  11.613 -0.4320 -0.1577 -0.3674
  386TMC3    C8 5778   0.364   0.623  11.500  0.1811  0.4524 -0.1413
  386TMC3    O1 5779   4.652   0.563  11.721 -0.0378  0.3402  0.4072
  386TMC3    O2 5780   0.352   0.712  11.585 -0.4429 -0.0029  0.3009
  387MPD2     C 5781   2.627   0.818   9.408  0.0413 -0.4814  1.0609
  387MPD2    C1 5782   2.714   0.886   9.492 -0.2314  0.0204 -0.2227
  387MPD2    C2 5783   2.809   0.808   9.557 -0.6158 -0.7028  0.0431
  387MPD2    C3 5784   2.810   0.672   9.552  0.8911 -0.0795 -0.5602
  387MPD2    C4 5785   2.734   0.602   9.463 -0.2372  0.0018  0.8629
  387MPD2    C5 5786   2.650   0.685   9.389 -0.5509  0.3282  0.6806
  387MPD2     H 5787   2.857   0.860   9.640 -0.3358 -2.0832  0.7396
  387MPD2    H1 5788   2.726   0.494   9.457 -1.6529  0.2563 -1.7141
  387MPD2    H2 5789   2.544   0.867   9.359  1.8141 -0.0725 -1.5059
  387MPD2    H3 5790   2.576   0.628   9.335 -2.2179  4.7414 -1.6338
  387MPD2     N 5791   2.897   0.613   9.652  0.6679  0.6597 -0.3646
  387MPD2    H5 5792   2.961   0.669   9.706  1.1980 -0.6966  0.4116
  387MPD2    N1 5793   2.693   1.016   9.530  0.2612 -0.3765  0.2200
  387MPD2    H7 5794   2.741   1.042   9.616  0.4214 -0.3801  0.1322
  388TMC3    C1 5795   2.582   1.227   9.545  0.1220  0.2100 -0.1136
  388TMC3    C2 5796   2.481   1.309   9.502  0.3502 -0.0936  0.1029
  388TMC3    C3 5797   2.444   1.405   9.601 -0.5902  0.0860  0.4676
  388TMC3    C4 5798   2.623   1.226   9.675 -0.1790 -0.0901 -0.4307
  388TMC3    C5 5799   2.554   1.294   9.765  0.6730  0.4355 -0.2117
  388TMC3    C6 5800   2.468   1.390   9.732  0.0757  0.2186 -0.7475
  388TMC3     C 5801   2.618   1.110   9.459  0.0608  0.9125 -0.7055
  388TMC3     O 5802   2.593   1.112   9.337  0.5430 -0.2348 -0.0466
  388TMC3     H 5803   2.458   1.327   9.398 -1.4469 -1.8625  0.1932
  388TMC3    H1 5804   2.720   1.185   9.701  0.2456  1.6133  0.7161
  388TMC3    H2 5805   2.407   1.439   9.807  1.2069  0.4143  0.0590
  388TMC3    C7 5806   2.613   1.304   9.898 -0.2314  0.3637 -0.3858
  388TMC3    C8 5807   2.332   1.488   9.554 -0.3042 -0.1314 -0.7389
  388TMC3    O1 5808   2.646   1.408   9.955  0.3645  0.4668 -0.8145
  388TMC3    O2 5809   2.293   1.469   9.440 -0.1926 -0.0368 -0.7387
  389MPD2     C 5810   2.059   3.866  11.535  0.1374 -0.5980  0.1930
  389MPD2    C1 5811   1.994   3.809  11.426  0.2340  0.0589  0.5502
  389MPD2    C2 5812   1.900   3.707  11.438  0.1223 -0.3163 -0.2903
  389MPD2    C3 5813   1.864   3.666  11.565 -0.6919 -0.5832 -0.2495
  389MPD2    C4 5814   1.911   3.741  11.675 -0.5490  0.3854 -0.8384
  389MPD2    C5 5815   2.016   3.833  11.661  0.5939  0.2168 -0.3450
  389MPD2     H 5816   1.853   3.655  11.356 -0.1208 -2.2190  1.0781
  389MPD2    H1 5817   1.878   3.715  11.775  0.5968  4.3843  0.6038
  389MPD2    H2 5818   2.138   3.939  11.521  0.1472 -0.2801  1.9399
  389MPD2    H3 5819   2.079   3.859  11.745 -0.0886 -0.7165  0.4601
  389MPD2     N 5820   1.777   3.554  11.584  0.2640 -0.1612  0.6248
  389MPD2    H5 5821   1.735   3.556  11.677  0.1898  1.6057  0.5504
  389MPD2    N1 5822   2.015   3.878  11.301  0.0708 -0.1001  0.1587
  389MPD2    H7 5823   2.076   3.959  11.306  3.0720 -2.3398 -0.2059
  390TMC3    C1 5824   1.628   3.373  11.539 -0.6877  0.0238 -0.1217
  390TMC3    C2 5825   1.587   3.388  11.666  0.8700  0.1117 -0.3056
  390TMC3    C3 5826   1.456   3.400  11.698  0.5152  0.3387  0.7086
  390TMC3    C4 5827   1.544   3.360  11.435 -0.3071  0.2107 -0.3169
  390TMC3    C5 5828   1.410   3.367  11.459 -0.2075 -0.7037  0.4659
  390TMC3    C6 5829   1.365   3.390  11.593  0.8322 -0.2062 -0.4138
  390TMC3     C 5830   1.742   3.455  11.496  1.5029 -0.3922 -0.0746
  390TMC3     O 5831   1.794   3.436  11.384  0.5650 -0.2856  0.0369
  390TMC3     H 5832   1.665   3.386  11.742 -0.9547  0.4208  1.5841
  390TMC3    H1 5833   1.590   3.343  11.338 -2.0097 -1.8926 -0.7677
  390TMC3    H2 5834   1.260   3.384  11.620  0.6584 -0.1988 -1.1003
  390TMC3    C7 5835   1.329   3.286  11.381 -0.2554 -0.3101 -0.7776
  390TMC3    C8 5836   1.410   3.325  11.815 -0.3004  0.1656  0.1167
  390TMC3    O1 5837   1.391   3.213  11.310  0.3557 -0.3446 -0.1145
  390TMC3    O2 5838   1.448   3.209  11.820  0.2501 -0.3658 -0.0333
  391MPD2     C 5839   1.385   0.493  11.547 -0.9719  0.7599  0.3162
  391MPD2    C1 5840   1.461   0.585  11.483  0.5246  0.0588 -0.9833
  391MPD2    C2 5841   1.446   0.622  11.351 -0.6744  0.1867  0.5231
  391MPD2    C3 5842   1.339   0.564  11.283  0.7540  0.1078  0.0871
  391MPD2    C4 5843   1.253   0.476  11.347 -0.7476  0.6032 -0.3532
  391MPD2    C5 5844   1.281   0.439  11.479  0.1658 -0.2252 -0.4242
  391MPD2     H 5845   1.500   0.701  11.301 -0.4704 -0.2499  0.0546
  391MPD2    H1 5846   1.162   0.435  11.304 -0.8015 -2.0470  2.2467
  391MPD2    H2 5847   1.398   0.469  11.652 -2.1598  0.5854  0.4197
  391MPD2    H3 5848   1.222   0.364  11.532  0.5091 -0.0812  0.1579
  391MPD2     N 5849   1.329   0.604  11.147 -0.9735 -0.1656  0.0965
  391MPD2    H5 5850   1.395   0.673  11.112 -1.3185  0.7365  1.2209
  391MPD2    N1 5851   1.566   0.637  11.567  0.6126  0.1883  0.2602
  391MPD2    H7 5852   1.565   0.636  11.669 -0.1922 -0.2004  0.2433
  392TMC3    C1 5853   1.236   0.634  10.925 -0.6211  0.3486  0.3985
  392TMC3    C2 5854   1.123   0.642  10.849 -0.4144  0.0896  0.7482
  392TMC3    C3 5855   1.138   0.653  10.711  0.2271 -0.4962 -0.2282
  392TMC3    C4 5856   1.357   0.667  10.871 -0.1473 -0.5363 -0.3304
  392TMC3    C5 5857   1.368   0.699  10.741  0.0541  0.1168 -0.2080
  392TMC3    C6 5858   1.257   0.695  10.655  0.0125  0.4738  1.3650
  392TMC3     C 5859   1.220   0.586  11.062  0.4009  0.3364 -0.0959
  392TMC3     O 5860   1.105   0.554  11.095  0.2428  0.3555 -0.3833
  392TMC3     H 5861   1.023   0.625  10.885 -0.6437  1.1296  0.6226
  392TMC3    H1 5862   1.445   0.667  10.934 -1.6153  1.0040  1.7356
  392TMC3    H2 5863   1.252   0.728  10.552 -1.5921  0.0605  1.3108
  392TMC3    C7 5864   1.497   0.756  10.710 -0.5193  0.0086 -0.1708
  392TMC3    C8 5865   1.009   0.644  10.633  0.3513  0.5049 -0.4685
  392TMC3    O1 5866   1.564   0.785  10.801 -0.0407 -0.2102 -0.1616
  392TMC3    O2 5867   0.914   0.599  10.695  0.1439 -0.1763 -0.3553
  393TMC3    C1 5868   0.046   3.666  10.997  0.5274 -0.5655  0.0534
  393TMC3    C2 5869   4.693   3.665  11.103  0.3664  0.2530  0.1223
  393TMC3    C3 5870   4.713   3.566  11.195  0.1375 -0.2536  1.3160
  393TMC3    C4 5871   0.158   3.591  10.980  0.3231 -0.0185  0.1088
  393TMC3    C5 5872   0.188   3.503  11.075  0.8367 -0.2392  0.6271
  393TMC3    C6 5873   0.100   3.486  11.178 -0.3506 -0.4027 -0.3026
  393TMC3     C 5874   0.001   3.740  10.875 -0.4659 -0.1829  0.1273
  393TMC3     O 5875   0.092   3.768  10.798 -0.7336 -0.6912 -0.2236
  393TMC3     H 5876   4.615   3.739  11.117  0.5287  0.5253 -0.3998
  393TMC3    H1 5877   0.213   3.584  10.886 -2.9593 -0.3800 -1.7634
  393TMC3    H2 5878   0.093   3.393  11.233  0.9974 -0.5371 -0.3560
  393TMC3    C7 5879   0.276   3.399  11.039  0.1776 -0.3943  0.8995
  393TMC3    C8 5880   4.598   3.531  11.281  0.7318 -0.5883 -0.2573
  393TMC3    O1 5881   0.237   3.286  11.066 -0.2553  0.6149 -0.2761
  393TMC3    O2 5882   4.515   3.616  11.305 -0.1832  0.1951 -0.2434
  394TMC3    C1 5883   1.991   3.940  11.081  0.5983 -0.0059 -0.2518
  394TMC3    C2 5884   1.895   3.953  10.984  0.3339  0.2709  0.2526
  394TMC3    C3 5885   1.917   4.023  10.872 -1.0354  0.2785 -0.6220
  394TMC3    C4 5886   2.108   4.005  11.070  0.8849 -0.3643 -0.0434
  394TMC3    C5 5887   2.123   4.090  10.965 -0.4777  0.0758 -0.2814
  394TMC3    C6 5888   2.037   4.090  10.865  0.6882  0.5356 -0.0317
  394TMC3     C 5889   1.948   3.851  11.184  0.2218  0.1351 -0.2419
  394TMC3     O 5890   1.871   3.761  11.148 -0.2628  0.5474 -0.2028
  394TMC3     H 5891   1.801   3.900  10.993  2.0854 -2.4849  2.4462
  394TMC3    H1 5892   2.175   3.989  11.153  0.5705 -0.3126  0.2216
  394TMC3    H2 5893   2.059   4.136  10.770  0.9337  0.6362  0.0739
  394TMC3    C7 5894   2.256   4.115  10.917 -0.2792 -0.2151  0.5150
  394TMC3    C8 5895   1.832   3.989  10.753  0.3400 -0.1579  0.3104
  394TMC3    O1 5896   2.316   4.215  10.958  0.1578 -0.4411  0.2099
  394TMC3    O2 5897   1.769   3.885  10.756 -0.1057  0.4485 -0.1856
  395TMC3    C1 5898   1.224   1.625  14.880  0.1166 -0.6085  0.3374
  395TMC3    C2 5899   1.154   1.544  14.962  0.4532 -0.3626  0.2121
  395TMC3    C3 5900   1.185   1.542  15.096  0.2317 -0.4016 -0.1843
  395TMC3    C4 5901   1.310   1.721  14.920 -0.3251 -0.4677  0.0747
  395TMC3    C5 5902   1.342   1.716  15.052  0.4033  0.1123  0.1786
  395TMC3    C6 5903   1.276   1.635  15.140  0.2635 -0.6163 -0.4918
  395TMC3     C 5904   1.166   1.643  14.745 -0.6826 -0.2218 -0.4037
  395TMC3     O 5905   1.137   1.764  14.723  0.3167  0.3227  0.1785
  395TMC3     H 5906   1.082   1.474  14.921 -0.7968  0.8693  0.3069
  395TMC3    H1 5907   1.361   1.772  14.839 -2.1764  0.1718 -0.7153
  395TMC3    H2 5908   1.317   1.631  15.240  0.0799  0.6013 -0.3738
  395TMC3    C7 5909   1.458   1.788  15.100  0.1100  0.3825  0.7250
  395TMC3    C8 5910   1.153   1.436  15.185  0.1145  0.6450  0.6487
  395TMC3    O1 5911   1.476   1.782  15.224  0.5846  0.0267 -0.1368
  395TMC3    O2 5912   1.152   1.471  15.306 -0.2331  0.5343 -0.4888
  396MPD2     C 5913   1.178   2.030  17.459  0.2158 -0.0629  0.2728
  396MPD2    C1 5914   1.310   2.024  17.429 -0.3237 -0.3810 -0.4548
  396MPD2    C2 5915   1.351   2.084  17.307  0.3763 -0.1205  0.0561
  396MPD2    C3 5916   1.256   2.152  17.223 -0.3305  0.1562  0.0259
  396MPD2    C4 5917   1.124   2.161  17.263 -0.2188  0.8387  0.5905
  396MPD2    C5 5918   1.092   2.095  17.372  0.0960 -0.4837 -0.0896
  396MPD2     H 5919   1.456   2.078  17.281  0.8659  2.0773  1.5821
  396MPD2    H1 5920   1.042   2.202  17.205 -0.6604  0.2353  0.7821
  396MPD2    H2 5921   1.139   1.992  17.552  0.5773 -2.7346 -0.6622
  396MPD2    H3 5922   0.986   2.091  17.399 -0.0943  0.7032 -0.7073
  396MPD2     N 5923   1.300   2.217  17.094 -0.0448  0.3609 -0.2442
  396MPD2    H5 5924   1.401   2.224  17.084  0.0029 -0.6772 -0.4889
  396MPD2    N1 5925   1.390   1.941  17.513  0.2106  0.1164  0.2919
  396MPD2    H7 5926   1.344   1.899  17.593  3.0663 -1.0574  1.2960
  397TMC3    C1 5927   1.571   1.808  17.590  0.0282 -0.9099 -0.5423
  397TMC3    C2 5928   1.703   1.812  17.576  0.1553  0.1129  0.4571
  397TMC3    C3 5929   1.772   1.825  17.694  0.1042 -0.4707 -0.2877
  397TMC3    C4 5930   1.515   1.817   0.010  0.7283 -0.4172 -0.1304
  397TMC3    C5 5931   1.588   1.819   0.120  0.4536  0.4568  0.6254
  397TMC3    C6 5932   1.719   1.807   0.113 -0.0411 -0.0145  0.3181
  397TMC3     C 5933   1.520   1.908  17.494  1.1743 -0.3821 -0.5453
  397TMC3     O 5934   1.602   1.972  17.426 -0.6256  0.4369  0.8091
  397TMC3     H 5935   1.756   1.817  17.482  1.3738 -2.1596  1.0082
  397TMC3    H1 5936   1.407   1.825   0.020  0.6841 -0.3973 -0.5834
  397TMC3    H2 5937   1.784   1.795   0.198  1.5220 -0.4299 -0.9292
  397TMC3    C7 5938   1.511   1.793   0.241  0.5436 -0.2119 -0.3603
  397TMC3    C8 5939   1.879   1.912  17.690 -0.0296  0.8471 -0.0962
  397TMC3    O1 5940   1.411   1.719   0.239 -0.0678 -0.1400  0.0761
  397TMC3    O2 5941   1.934   1.945   0.092 -0.6112  0.6512 -0.3287
  398MPD2     C 5942   4.481   3.338   0.425 -0.3674 -0.3420  0.1154
  398MPD2    C1 5943   4.551   3.250   0.505  0.7648 -0.5360  0.5030
  398MPD2    C2 5944   4.657   3.298   0.573  0.0966  0.2617 -0.0305
  398MPD2    C3 5945   4.687   3.433   0.564  0.0433 -0.0475  0.2032
  398MPD2    C4 5946   4.620   3.519   0.481  0.4233 -0.0741 -0.4601
  398MPD2    C5 5947   4.532   3.465   0.403 -0.2582 -0.2808 -1.2787
  398MPD2     H 5948   0.001   3.248   0.639 -3.1131 -2.8734  1.0270
  398MPD2    H1 5949   4.645   3.621   0.452 -0.7775 -0.1101 -1.6312
  398MPD2    H2 5950   4.398   3.306   0.363  1.1060  0.0735 -2.0706
  398MPD2    H3 5951   4.471   3.528   0.339 -2.9751 -0.2481  1.3709
  398MPD2     N 5952   0.083   3.482   0.620  0.3261  0.5271  0.5468
  398MPD2    H5 5953   0.146   3.411   0.656 -1.1303 -1.4306 -0.7230
  398MPD2    N1 5954   4.525   3.109   0.511  0.3750 -0.1076  0.1885
  398MPD2    H7 5955   4.587   3.062   0.577  2.1616 -1.2191 -2.2622
  399TMC3    C1 5956   4.452   2.900   0.442 -0.1140 -0.3672  0.3917
  399TMC3    C2 5957   4.564   2.847   0.499 -0.4848  0.2544 -0.0726
  399TMC3    C3 5958   4.562   2.710   0.515  0.2390 -0.5366  0.1602
  399TMC3    C4 5959   4.343   2.835   0.401  0.2440  0.2431 -0.3310
  399TMC3    C5 5960   4.344   2.699   0.420  0.6777 -0.0718 -0.3519
  399TMC3    C6 5961   4.459   2.633   0.469 -0.0827 -0.2488 -0.2116
  399TMC3     C 5962   4.445   3.044   0.428  0.4984 -0.6024 -0.2842
  399TMC3     O 5963   4.390   3.089   0.325 -0.2474  0.0971  0.4414
  399TMC3     H 5964   4.652   2.907   0.520  1.0644 -1.8538 -0.5411
  399TMC3    H1 5965   4.275   2.888   0.335 -1.6532 -1.2529  0.4212
  399TMC3    H2 5966   4.460   2.525   0.483  0.1828 -0.2528 -0.2582
  399TMC3    C7 5967   4.217   2.622   0.420 -0.0623  0.1026 -0.4367
  399TMC3    C8 5968   4.652   2.658   0.610  0.1949  0.7927 -0.5134
  399TMC3    O1 5969   4.223   2.502   0.441 -0.2213  0.2961 -0.2542
  399TMC3    O2 5970   4.725   2.742   0.662 -0.3892  0.1295 -0.9340
  400TMC3    C1 5971   3.023   1.536  17.643  0.6979  0.0289 -0.1721
  400TMC3    C2 5972   2.921   1.555  17.561 -0.1081 -0.2480 -0.0681
  400TMC3    C3 5973   2.872   1.681  17.563  0.1510  0.2441  0.0517
  400TMC3    C4 5974   3.075   1.632   0.017 -0.5529 -0.0851 -0.2259
  400TMC3    C5 5975   3.025   1.759   0.030 -0.0289 -0.2544 -0.5731
  400TMC3    C6 5976   2.911   1.779  17.651 -0.0559 -0.0664  0.4439
  400TMC3     C 5977   3.060   1.389  17.667  0.0359  0.2957  0.2717
  400TMC3     O 5978   3.028   1.308  17.583 -0.0952  0.3907  0.2500
  400TMC3     H 5979   2.906   1.487  17.478  1.6154 -2.5153  1.4830
  400TMC3    H1 5980   3.171   1.615   0.063  0.2582 -1.1094 -2.2755
  400TMC3    H2 5981   2.868   1.878  17.639 -1.5235 -0.6991  0.5707
  400TMC3    C7 5982   3.129   1.862   0.025  0.9056 -0.0267 -0.1326
  400TMC3    C8 5983   2.782   1.730  17.461  0.4775 -0.5447  0.3354
  400TMC3    O1 5984   3.244   1.828   0.009  0.1727  0.2474  0.2734
  400TMC3    O2 5985   2.756   1.852  17.447 -0.4873  0.2336  0.2161
  401MPD2     C 5986   0.351   4.606   0.182 -0.1061  0.7912 -0.4171
  401MPD2    C1 5987   0.423   4.665   0.293  0.3378 -0.0152 -0.6434
  401MPD2    C2 5988   0.446   4.597   0.409 -0.6527 -0.0962 -0.2099
  401MPD2    C3 5989   0.394   4.466   0.423 -0.2495  0.4086 -0.0772
  401MPD2    C4 5990   0.343   4.408   0.314 -0.0858  0.4167 -0.8597
  401MPD2    C5 5991   0.315   4.477   0.198 -0.0416  0.2719  0.3233
  401MPD2     H 5992   0.499   4.652   0.486  1.4703 -2.0998 -0.2598
  401MPD2    H1 5993   0.326   4.302   0.302 -1.1711  0.4514  0.3413
  401MPD2    H2 5994   0.335   4.653   0.085  1.4931  0.8867 -0.6257
  401MPD2    H3 5995   0.271   4.428   0.112  0.1831  0.9265 -0.1616
  401MPD2     N 5996   0.429   4.398   0.541 -0.7191  0.3493 -0.2340
  401MPD2    H5 5997   0.433   4.296   0.535 -0.7284  0.2309  1.7563
  401MPD2    N1 5998   0.475   0.066   0.281 -0.2532  0.1563 -0.2443
  401MPD2    H7 5999   0.527   0.107   0.358  0.2368  2.3914 -1.7735
  402TMC3    C1 6000   0.613   4.398   0.699  1.1135 -0.0375  0.2319
  402TMC3    C2 6001   0.677   4.456   0.802  0.2815  0.5662 -0.0939
  402TMC3    C3 6002   0.810   4.436   0.821  0.2022  0.7838  0.2130
  402TMC3    C4 6003   0.690   4.332   0.607  1.0741 -0.2258 -0.1714
  402TMC3    C5 6004   0.824   4.332   0.615  0.2122  1.1204 -0.0779
  402TMC3    C6 6005   0.893   4.372   0.727  0.0262  0.3647 -0.2275
  402TMC3     C 6006   0.487   4.461   0.650  0.3576 -0.3453  0.2470
  402TMC3     O 6007   0.468   4.571   0.692  0.3986 -0.5176 -0.5377
  402TMC3     H 6008   0.619   4.509   0.878 -1.1018  0.7308 -1.2643
  402TMC3    H1 6009   0.647   4.299   0.513 -0.8957 -2.3588  1.4703
  402TMC3    H2 6010   1.001   4.367   0.732  0.0004 -0.1389 -0.1073
  402TMC3    C7 6011   0.889   4.263   0.512  0.5238 -0.3772  0.6416
  402TMC3    C8 6012   0.892   4.538   0.887  0.8641  0.1658  0.0225
  402TMC3    O1 6013   0.843   4.152   0.481  0.4218 -0.0096  0.6183
  402TMC3    O2 6014   1.007   4.547   0.845 -0.0237 -0.0708  0.0398
  403MPD2     C 6015   4.397   3.693  13.583  0.1727  0.5470 -0.6102
  403MPD2    C1 6016   4.410   3.568  13.641  0.5753  0.4249 -0.3265
  403MPD2    C2 6017   4.535   3.553  13.703 -0.6400 -0.1831 -0.3247
  403MPD2    C3 6018   4.627   3.650  13.715  0.6774 -0.5633 -1.3910
  403MPD2    C4 6019   4.597   3.773  13.658  0.3033  0.0773 -0.4636
  403MPD2    C5 6020   4.483   3.800  13.591 -0.6167 -0.3476  0.8169
  403MPD2     H 6021   4.556   3.450  13.728  0.3152 -0.0504 -0.5539
  403MPD2    H1 6022   4.675   3.849  13.651  1.4303 -0.9160  1.2384
  403MPD2    H2 6023   4.315   3.706  13.513  0.6302 -0.3432 -1.3031
  403MPD2    H3 6024   4.478   3.898  13.545  0.1929 -0.4494  0.5152
  403MPD2     N 6025   0.026   3.622  13.775 -0.6126 -0.1438  0.3074
  403MPD2    H5 6026   0.042   3.522  13.782 -0.9818 -0.1768  0.6869
  403MPD2    N1 6027   4.321   3.462  13.604 -0.1924 -0.0478 -0.1016
  403MPD2    H7 6028   4.237   3.491  13.555  2.2734  3.0870 -2.4663
  404TMC3    C1 6029   4.235   3.243  13.588 -0.6151  0.3399 -0.6055
  404TMC3    C2 6030   4.195   3.133  13.658 -0.1478 -0.6140 -0.1678
  404TMC3    C3 6031   4.114   3.044  13.585  0.3737 -0.0018  0.4073
  404TMC3    C4 6032   4.203   3.266  13.456 -0.2226  0.3861 -0.2209
  404TMC3    C5 6033   4.131   3.169  13.391  0.2654  0.0557  0.3178
  404TMC3    C6 6034   4.082   3.059  13.452  0.5567 -0.3067 -0.4213
  404TMC3     C 6035   4.330   3.333  13.653 -0.8868  0.0655  0.1836
  404TMC3     O 6036   4.399   3.298  13.745  0.5863 -1.0069  0.2350
  404TMC3     H 6037   4.211   3.126  13.765 -1.4861 -1.6073 -0.0423
  404TMC3    H1 6038   4.244   3.343  13.392  1.4972 -0.2646  0.0991
  404TMC3    H2 6039   4.004   2.992  13.417 -0.2542 -1.5450  3.7347
  404TMC3    C7 6040   4.079   3.211  13.258 -0.1447  0.2076 -0.0015
  404TMC3    C8 6041   4.098   2.910  13.646  0.2909 -0.2006  0.8064
  404TMC3    O1 6042   4.085   3.331  13.235  0.2266 -0.4195 -0.2549
  404TMC3    O2 6043   4.107   2.813  13.572  0.2432 -0.3891 -0.4280
  405MPD2     C 6044   4.474   4.039  14.425 -0.2676  0.0171  0.4362
  405MPD2    C1 6045   4.410   3.923  14.395 -0.0433  0.6567 -0.1857
  405MPD2    C2 6046   4.290   3.920  14.335  0.1878 -0.0901  0.2194
  405MPD2    C3 6047   4.224   4.040  14.305  0.8338  0.4543 -0.4968
  405MPD2    C4 6048   4.284   4.157  14.345 -0.0528  0.4650  0.1940
  405MPD2    C5 6049   4.404   4.158  14.409  0.4019 -0.1009  0.0511
  405MPD2     H 6050   4.244   3.830  14.294  3.1402 -1.2606 -0.5151
  405MPD2    H1 6051   4.236   4.252  14.324 -0.0881  0.3354 -0.2995
  405MPD2    H2 6052   4.576   4.032  14.462  0.0718  0.3021 -0.4542
  405MPD2    H3 6053   4.450   4.251  14.443  2.2301 -0.5780 -1.1000
  405MPD2     N 6054   4.102   4.029  14.235 -0.9181  0.5132  0.0610
  405MPD2    H5 6055   4.064   3.936  14.218 -0.7170  0.0347  2.1801
  405MPD2    N1 6056   4.478   3.802  14.422  0.2054  0.8564 -0.0003
  405MPD2    H7 6057   4.561   3.806  14.481  1.0167  1.8334 -1.2162
  406TMC3    C1 6058   3.670   4.109  14.168  0.0870 -0.1838 -0.4241
  406TMC3    C2 6059   3.653   3.975  14.146  0.4770 -0.1491 -0.1487
  406TMC3    C3 6060   3.763   3.897  14.135  0.0616 -0.2028 -0.1233
  406TMC3    C4 6061   3.792   4.167  14.170 -0.9432 -0.2577 -0.2657
  406TMC3    C5 6062   3.896   4.084  14.148 -0.4193 -0.0525 -0.4758
  406TMC3    C6 6063   3.889   3.950  14.132  0.1598 -0.4963 -0.0858
  406TMC3     C 6064   3.556   4.192  14.211 -0.0497  0.3013 -0.8332
  406TMC3     O 6065   3.555   4.311  14.185  0.5358 -0.3406  0.1217
  406TMC3     H 6066   3.550   3.943  14.135  0.4822 -0.0677 -0.4238
  406TMC3    H1 6067   3.815   4.273  14.176  0.9851 -0.5401 -2.6214
  406TMC3    H2 6068   3.972   3.888  14.101  0.2297 -0.7106  0.5115
  406TMC3    C7 6069   4.022   4.136  14.190  0.1004 -0.9830 -0.3549
  406TMC3    C8 6070   3.750   3.760  14.176 -0.1266 -1.1711  0.6068
  406TMC3    O1 6071   4.036   4.252  14.227  0.1487  0.3037  0.2550
  406TMC3    O2 6072   3.641   3.741  14.230 -0.2152 -0.1790 -0.4277
  407MPD2     C 6073   2.486   0.075   9.730 -0.6540  0.7159 -0.7778
  407MPD2    C1 6074   2.592   0.162   9.747 -0.3893  0.2200  1.0419
  407MPD2    C2 6075   2.581   0.259   9.844 -0.0661  0.7066 -0.3211
  407MPD2    C3 6076   2.467   0.272   9.918  0.1098 -0.3044  0.1164
  407MPD2    C4 6077   2.358   0.195   9.890 -0.6811 -0.1053  0.0489
  407MPD2    C5 6078   2.367   0.092   9.793  0.2615  0.4067  1.2691
  407MPD2     H 6079   2.662   0.329   9.864  0.4389  0.4446 -1.4704
  407MPD2    H1 6080   2.261   0.216   9.935 -0.3195  1.1960  0.2143
  407MPD2    H2 6081   2.489   0.003   9.649 -3.3317  0.3190 -0.4947
  407MPD2    H3 6082   2.283   0.029   9.767  0.2491  0.8026  0.3354
  407MPD2     N 6083   2.470   0.374  10.010 -0.6646  0.4011  0.1901
  407MPD2    H5 6084   2.561   0.420  10.015 -0.4596  0.1426 -1.1955
  407MPD2    N1 6085   2.705   0.150   9.665  0.7489 -0.0180 -0.3615
  407MPD2    H7 6086   2.771   0.225   9.683  0.2916 -0.1036  1.6390
  408TMC3    C1 6087   2.863   0.075   9.512  0.3459 -0.7714 -0.0528
  408TMC3    C2 6088   2.963   0.112   9.602  0.4372 -0.3058 -0.4252
  408TMC3    C3 6089   3.081   0.160   9.548 -0.6982  0.0455  0.0277
  408TMC3    C4 6090   2.876   0.102   9.373 -0.4955 -0.8635 -0.0773
  408TMC3    C5 6091   2.991   0.165   9.330 -0.1864  0.0400 -0.1771
  408TMC3    C6 6092   3.097   0.181   9.411 -0.2425 -0.2287 -0.0770
  408TMC3     C 6093   2.727   0.061   9.563 -0.2425 -0.0978  0.0529
  408TMC3     O 6094   2.665   4.703   9.496  0.0815  0.3149 -0.1489
  408TMC3     H 6095   2.950   0.103   9.709 -0.9609  0.1427 -0.5562
  408TMC3    H1 6096   2.783   0.118   9.320 -1.3358 -2.0942  1.0364
  408TMC3    H2 6097   3.187   0.225   9.370 -0.9076  0.2305 -1.0535
  408TMC3    C7 6098   2.975   0.289   9.251 -0.4881  1.0999 -0.1154
  408TMC3    C8 6099   3.154   0.254   9.628  0.5617  0.2676  0.7437
  408TMC3    O1 6100   3.039   0.387   9.292 -0.1556 -0.7644 -0.3770
  408TMC3    O2 6101   3.175   0.217   9.740 -0.0601  0.0164  0.4055
  409MPD2     C 6102   1.761   1.498  17.355 -0.0158 -0.6310 -0.1136
  409MPD2    C1 6103   1.848   1.462  17.456 -0.1812 -0.4989  0.2792
  409MPD2    C2 6104   1.963   1.533  17.480  1.0921  0.1015  0.5246
  409MPD2    C3 6105   1.998   1.645  17.411  0.1466 -0.7378 -0.4469
  409MPD2    C4 6106   1.906   1.684  17.317  0.0799  0.6034  0.3508
  409MPD2    C5 6107   1.791   1.610  17.289 -0.3929 -0.7867 -0.1436
  409MPD2     H 6108   2.015   1.502  17.570  0.1150 -2.9512  0.0216
  409MPD2    H1 6109   1.933   1.760  17.244 -0.7557  1.2645  0.7278
  409MPD2    H2 6110   1.672   1.439  17.335 -0.2831 -0.3536  0.2547
  409MPD2    H3 6111   1.724   1.636  17.208  0.9432  3.5306  0.1462
  409MPD2     N 6112   2.125   1.717  17.427  0.2214  0.2025  0.4090
  409MPD2    H5 6113   2.145   1.791  17.360  1.9130  1.2160  2.0481
  409MPD2    N1 6114   1.824   1.351  17.539 -0.1221  0.2871 -0.4696
  409MPD2    H7 6115   1.900   1.334  17.604 -0.6087 -0.2992 -0.0512
  410TMC3    C1 6116   2.325   1.789  17.540  0.2635  0.5589 -0.0880
  410TMC3    C2 6117   2.427   1.767  17.631  0.3923 -0.2346 -0.1718
  410TMC3    C3 6118   2.516   1.868  17.654  0.5863  0.3569  0.7136
  410TMC3    C4 6119   2.327   1.900  17.458 -0.1209  0.0144 -0.1201
  410TMC3    C5 6120   2.429   1.993  17.477  0.6673  0.0382  0.0018
  410TMC3    C6 6121   2.522   1.972  17.574  0.2507  0.2270 -0.2027
  410TMC3     C 6122   2.217   1.693  17.524 -0.1505  0.4787  0.3418
  410TMC3     O 6123   2.216   1.602  17.604  0.2202  0.9095  0.2783
  410TMC3     H 6124   2.413   1.694   0.003 -1.0552  0.6425  0.3934
  410TMC3    H1 6125   2.252   1.923  17.384 -2.6679 -2.7494  1.5933
  410TMC3    H2 6126   2.599   2.048  17.587  1.2176 -0.8316  0.1734
  410TMC3    C7 6127   2.459   2.080  17.367  1.0093 -0.2935  0.3539
  410TMC3    C8 6128   2.616   1.849   0.045  0.3208  0.1006 -0.7280
  410TMC3    O1 6129   2.408   2.053  17.264  0.2003 -0.1695 -0.0765
  410TMC3    O2 6130   2.691   1.940   0.068  0.1124 -0.3304  0.1143
  411MPD2     C 6131   2.254   2.085  14.909  0.3750  0.7232 -0.2848
  411MPD2    C1 6132   2.186   2.100  14.789  0.0293  0.4914 -0.1291
  411MPD2    C2 6133   2.183   1.992  14.705  0.1050 -0.2631 -0.3679
  411MPD2    C3 6134   2.230   1.865  14.738  1.0675 -0.0885  0.1718
  411MPD2    C4 6135   2.277   1.853  14.864 -0.1447 -0.1226  0.1240
  411MPD2    C5 6136   2.290   1.962  14.950  0.1921 -0.5811  1.3576
  411MPD2     H 6137   2.134   2.000  14.608  0.3133 -0.0266 -0.4509
  411MPD2    H1 6138   2.328   1.762  14.893  0.3708  0.1914  0.2096
  411MPD2    H2 6139   2.261   2.171  14.975 -0.2201  1.1467 -0.7625
  411MPD2    H3 6140   2.330   1.949  15.050  1.2814 -1.5423  0.7945
  411MPD2     N 6141   2.256   1.766  14.642 -0.2294 -0.3150  0.3556
  411MPD2    H5 6142   2.268   1.668  14.666  0.9007 -0.2254  0.1559
  411MPD2    N1 6143   2.132   2.223  14.741  0.2599  0.3770 -0.0009
  411MPD2    H7 6144   2.078   2.214  14.656  0.3295 -2.0749  0.2324
  412TMC3    C1 6145   2.263   1.670  14.426 -0.0672 -0.0271 -0.0174
  412TMC3    C2 6146   2.150   1.598  14.448  0.0494  0.2171 -0.1821
  412TMC3    C3 6147   2.092   1.549  14.332  0.6237  0.6704 -0.1679
  412TMC3    C4 6148   2.327   1.684  14.307 -0.2207 -0.3489 -0.6031
  412TMC3    C5 6149   2.266   1.639  14.198  0.1288 -0.4696  0.5616
  412TMC3    C6 6150   2.150   1.576  14.211 -0.4184  0.2402  0.2451
  412TMC3     C 6151   2.277   1.789  14.509 -0.1806  0.2063 -0.2243
  412TMC3     O 6152   2.340   1.885  14.459  0.2283 -0.2491 -0.5496
  412TMC3     H 6153   2.101   1.590  14.544  0.4304 -1.5520 -0.1262
  412TMC3    H1 6154   2.404   1.758  14.287  0.0002 -0.2884  0.4674
  412TMC3    H2 6155   2.108   1.532  14.121  1.9920 -1.1440 -0.1917
  412TMC3    C7 6156   2.271   1.729  14.093  0.5617 -0.4021 -0.0682
  412TMC3    C8 6157   1.944   1.562  14.314 -0.1078 -0.1604 -0.1099
  412TMC3    O1 6158   2.376   1.781  14.055  0.2890 -0.7791 -0.1358
  412TMC3    O2 6159   1.901   1.597  14.204  0.2262  0.0661  0.7228
  413MPD2     C 6160   3.362   0.401  15.717  0.4929 -0.6171 -0.3038
  413MPD2    C1 6161   3.279   0.301  15.672  0.2753  0.0165 -0.1188
  413MPD2    C2 6162   3.342   0.182  15.637  0.0499 -0.4970 -0.2661
  413MPD2    C3 6163   3.478   0.162  15.635  0.1611 -0.4079 -0.5608
  413MPD2    C4 6164   3.552   0.274  15.661  0.0401  0.0438  0.4263
  413MPD2    C5 6165   3.498   0.391  15.704 -0.3828  0.3989  0.3540
  413MPD2     H 6166   3.279   0.098  15.609 -1.2487  0.3857 -0.0133
  413MPD2    H1 6167   3.660   0.279  15.652 -0.0366  0.9781  0.0740
  413MPD2    H2 6168   3.313   0.495  15.741  0.9626 -0.9163  1.8730
  413MPD2    H3 6169   3.562   0.478  15.712  0.8545 -0.2429 -2.5236
  413MPD2     N 6170   3.532   0.044  15.593  0.4810  0.3175 -0.1276
  413MPD2    H5 6171   3.458   4.704  15.571  0.3563  0.4105  0.0117
  413MPD2    N1 6172   3.141   0.319  15.658 -0.4411  0.3149 -0.1632
  413MPD2    H7 6173   3.090   0.390  15.709 -1.4643 -1.2449  0.9926
  414TMC3    C1 6174   3.686   4.601  15.563  0.0806  1.0695  0.4798
  414TMC3    C2 6175   3.817   4.563  15.546  0.3185  0.1011  0.8537
  414TMC3    C3 6176   3.841   4.431  15.513  0.0919  0.3429 -0.3885
  414TMC3    C4 6177   3.589   4.522  15.510 -0.0262 -0.2858  0.2592
  414TMC3    C5 6178   3.619   4.398  15.455  0.2007 -0.0205  0.3896
  414TMC3    C6 6179   3.743   4.344  15.474  0.0218  0.2891 -0.7970
  414TMC3     C 6180   3.665   0.014  15.598  0.5835  0.0302  0.0688
  414TMC3     O 6181   3.766   0.083  15.602 -0.4263 -0.0072  0.0966
  414TMC3     H 6182   3.895   4.598  15.612  0.6299  1.4830 -0.2659
  414TMC3    H1 6183   3.486   4.554  15.506  0.2680  0.4213 -2.2967
  414TMC3    H2 6184   3.765   4.240  15.452 -0.1870  0.2023 -0.5948
  414TMC3    C7 6185   3.506   4.314  15.414 -0.2689 -0.0909  0.1424
  414TMC3    C8 6186   3.977   4.400  15.462  0.2222 -0.5632 -0.3010
  414TMC3    O1 6187   3.410   4.304  15.494  0.3534 -0.2971  0.0528
  414TMC3    O2 6188   4.004   4.283  15.485 -0.4366  0.7890  0.2202
  415TMC3    C1 6189   3.628   3.049  10.449 -0.6130 -0.2649 -0.1427
  415TMC3    C2 6190   3.690   3.112  10.350  0.1663 -0.2394  0.1814
  415TMC3    C3 6191   3.689   3.049  10.228 -0.3987 -0.7578 -0.2774
  415TMC3    C4 6192   3.566   2.929  10.430  0.7900 -0.1301 -0.1775
  415TMC3    C5 6193   3.577   2.857  10.316  0.8649 -0.3792  0.3214
  415TMC3    C6 6194   3.635   2.923  10.217 -0.4824  0.3678  0.1556
  415TMC3     C 6195   3.628   3.104  10.585  0.3045 -0.2102 -0.0410
  415TMC3     O 6196   3.576   3.028  10.667  0.3032  0.4423  0.5588
  415TMC3     H 6197   3.729   3.212  10.361 -0.4600  0.0682 -0.3904
  415TMC3    H1 6198   3.503   2.892  10.510  0.0883 -0.7547 -1.0018
  415TMC3    H2 6199   3.646   2.863  10.128  0.7087  0.6895  0.0922
  415TMC3    C7 6200   3.529   2.716  10.306  0.0556 -0.1325  0.5331
  415TMC3    C8 6201   3.760   3.107  10.112  0.2084  0.3357 -0.1493
  415TMC3    O1 6202   3.466   2.689  10.204  1.5086 -0.1959 -0.0862
  415TMC3    O2 6203   3.750   3.048  10.004 -0.4274 -0.1247 -0.0552
  416MPD2     C 6204   1.587   1.818  11.787 -0.2318  0.5099 -0.1697
  416MPD2    C1 6205   1.475   1.783  11.713  0.2776 -0.9360  0.3502
  416MPD2    C2 6206   1.509   1.740  11.582  0.5937  0.3377  0.2103
  416MPD2    C3 6207   1.645   1.735  11.548  0.1947  0.2047  0.0839
  416MPD2    C4 6208   1.751   1.772  11.623 -0.3298 -0.1580 -0.0358
  416MPD2    C5 6209   1.717   1.805  11.752 -0.1612  0.1079  0.0490
  416MPD2     H 6210   1.433   1.707  11.512 -1.5664 -0.6244  2.9832
  416MPD2    H1 6211   1.853   1.792  11.591 -0.8673  1.5400 -0.6981
  416MPD2    H2 6212   1.570   1.854  11.888  1.5070  1.9469 -0.3880
  416MPD2    H3 6213   1.791   1.838  11.824  0.9632 -0.7899 -0.7072
  416MPD2     N 6214   1.687   1.690  11.418 -0.2764 -0.1387 -0.0135
  416MPD2    H5 6215   1.777   1.721  11.384  0.3295  0.4146  2.1089
  416MPD2    N1 6216   1.344   1.801  11.761 -0.0850 -0.6887  0.0795
  416MPD2    H7 6217   1.325   1.846  11.850 -1.2897 -0.2193 -0.4130
  417TMC3    C1 6218   1.107   1.796  11.763 -0.1253  0.3913  0.1547
  417TMC3    C2 6219   1.097   1.823  11.897 -0.7062  0.1186 -0.3013
  417TMC3    C3 6220   0.999   1.906  11.936 -1.1581 -0.2610 -0.8309
  417TMC3    C4 6221   1.002   1.823  11.682 -0.8943 -0.2224  0.4089
  417TMC3    C5 6222   0.895   1.896  11.730 -0.0286  0.0815 -0.5820
  417TMC3    C6 6223   0.897   1.945  11.858  0.1017 -0.0717 -0.0811
  417TMC3     C 6224   1.229   1.758  11.698  0.7093  0.2890  0.5277
  417TMC3     O 6225   1.214   1.706  11.589 -0.3234  0.2302  1.4498
  417TMC3     H 6226   1.169   1.775  11.963  1.0149 -1.1826 -3.1285
  417TMC3    H1 6227   0.999   1.795  11.577 -0.9731  1.0990  0.0601
  417TMC3    H2 6228   0.812   2.000  11.896  0.6533  1.2335 -0.7052
  417TMC3    C7 6229   0.799   1.944  11.637  0.2492 -0.6974  0.2747
  417TMC3    C8 6230   0.978   1.929  12.080  0.1707 -0.4662 -0.0945
  417TMC3    O1 6231   0.821   1.927  11.520 -0.0812 -0.5438 -0.6772
  417TMC3    O2 6232   0.866   1.961  12.117 -0.0235  0.0447  0.6235
  418TMC3    C1 6233   0.442   3.541   0.505  0.0651 -0.7645 -0.4014
  418TMC3    C2 6234   0.331   3.621   0.529 -0.4099 -0.3744  0.2857
  418TMC3    C3 6235   0.269   3.613   0.646  0.0084  0.5797 -0.5846
  418TMC3    C4 6236   0.498   3.457   0.602 -0.3763 -0.0525 -0.3261
  418TMC3    C5 6237   0.435   3.467   0.727  0.5179  0.3432  0.0887
  418TMC3    C6 6238   0.316   3.530   0.742 -0.1401  0.3623  0.9133
  418TMC3     C 6239   0.471   3.519   0.363  0.3294  0.0149  0.0584
  418TMC3     O 6240   0.435   3.600   0.279  0.8804 -0.1680  0.5380
  418TMC3     H 6241   0.277   3.667   0.447 -1.5274  0.3962  1.4481
  418TMC3    H1 6242   0.589   3.399   0.590 -1.5371 -2.1563  0.9747
  418TMC3    H2 6243   0.259   3.520   0.833  3.2742  0.7277  3.0834
  418TMC3    C7 6244   0.479   3.362   0.823 -0.3271  0.1295 -0.7594
  418TMC3    C8 6245   0.130   3.610   0.616  0.4252 -0.2696 -0.1941
  418TMC3    O1 6246   0.543   3.263   0.787 -0.3938 -0.5829 -0.9479
  418TMC3    O2 6247   0.081   3.718   0.579  0.1795  0.3108  0.4417
  419MPD2     C 6248   3.171   1.425  12.880  0.9979  0.0341 -0.1614
  419MPD2    C1 6249   3.194   1.559  12.855  0.3399 -0.4285  0.1511
  419MPD2    C2 6250   3.221   1.655  12.952  0.1901  0.3513  0.3378
  419MPD2    C3 6251   3.223   1.619  13.081 -0.2247 -0.7151  0.4827
  419MPD2    C4 6252   3.219   1.482  13.113  0.5736 -0.2935 -0.2983
  419MPD2    C5 6253   3.189   1.393  13.016  0.6253  1.1780  0.0773
  419MPD2     H 6254   3.246   1.759  12.934  0.2340  0.3362  0.3105
  419MPD2    H1 6255   3.233   1.453  13.216  0.3566  0.0386 -0.1757
  419MPD2    H2 6256   3.150   1.351  12.804  0.7693  0.0943 -0.1588
  419MPD2    H3 6257   3.183   1.292  13.055  1.6055  1.1249  0.1119
  419MPD2     N 6258   3.259   1.714  13.178 -0.1890  0.0354  0.9518
  419MPD2    H5 6259   3.251   1.811  13.149  3.3521  0.2756  0.7700
  419MPD2    N1 6260   3.186   1.612  12.723 -0.0616 -0.1478 -0.0194
  419MPD2    H7 6261   3.193   1.713  12.711  1.1831 -0.1257  0.9504
  420TMC3    C1 6262   3.324   1.819  13.381  0.2565  0.2697  0.3391
  420TMC3    C2 6263   3.247   1.928  13.340  0.5092  0.0000  0.5503
  420TMC3    C3 6264   3.231   2.032  13.426 -0.1187 -0.1930 -0.5070
  420TMC3    C4 6265   3.392   1.811  13.499 -0.1910 -0.1700 -1.1683
  420TMC3    C5 6266   3.375   1.925  13.580 -0.6348 -0.2195  0.2475
  420TMC3    C6 6267   3.310   2.038  13.540 -0.2591  1.1327 -0.5365
  420TMC3     C 6268   3.313   1.689  13.303 -0.4041  0.0660  0.2887
  420TMC3     O 6269   3.323   1.584  13.361 -0.4639 -0.5776  0.0897
  420TMC3     H 6270   3.175   1.924  13.259  0.1243  0.4789  0.8649
  420TMC3    H1 6271   3.407   1.712  13.540 -0.2420  1.0593  1.8972
  420TMC3    H2 6272   3.310   2.125  13.605 -2.3107 -0.0188  1.0039
  420TMC3    C7 6273   3.430   1.912  13.715  0.4334  0.4395  0.0067
  420TMC3    C8 6274   3.110   2.112  13.397  0.5687 -0.2152 -0.5026
  420TMC3    O1 6275   3.390   1.986  13.803  0.3497  0.5307 -0.2875
  420TMC3    O2 6276   3.087   2.121  13.277 -0.3939  0.1664  0.1638
  421TMC3    C1 6277   0.230   3.661  13.899  0.7414  0.2851 -0.0761
  421TMC3    C2 6278   0.311   3.764  13.949 -0.0716  0.0683  0.3306
  421TMC3    C3 6279   0.438   3.723  13.977 -0.4744 -0.1312 -0.0930
  421TMC3    C4 6280   0.276   3.531  13.879 -0.1985 -0.3499 -0.1482
  421TMC3    C5 6281   0.409   3.505  13.908 -0.3200  0.4018  0.2719
  421TMC3    C6 6282   0.489   3.596  13.958  0.1732 -0.5658 -0.5786
  421TMC3     C 6283   0.110   3.710  13.831  0.0712 -1.2872  0.3582
  421TMC3     O 6284   0.092   3.830  13.834  0.0548  0.4363  0.0624
  421TMC3     H 6285   0.284   3.870  13.948 -0.2744 -0.0046 -2.0806
  421TMC3    H1 6286   0.223   3.462  13.814  0.3583  0.4944 -1.5033
  421TMC3    H2 6287   0.594   3.570  13.966  0.2433 -0.0003  0.2675
  421TMC3    C7 6288   0.484   3.418  13.811  0.4763  0.2544  0.1641
  421TMC3    C8 6289   0.536   3.815  14.042 -0.4818  0.5449  0.2688
  421TMC3    O1 6290   0.589   3.468  13.770 -0.0177  0.1831 -0.2034
  421TMC3    O2 6291   0.636   3.757  14.082 -0.4279 -0.5897 -0.0198
  422TMC3    C1 6292   2.117   4.650  12.749 -0.5387 -0.6258  0.1427
  422TMC3    C2 6293   2.112   0.054  12.773 -0.2031 -0.0611 -0.7746
  422TMC3    C3 6294   1.992   0.098  12.822 -0.0082 -0.2537 -0.4084
  422TMC3    C4 6295   2.021   4.562  12.780 -0.8799 -0.1545 -0.0750
  422TMC3    C5 6296   1.917   4.612  12.849 -0.2428 -0.2991  0.5127
  422TMC3    C6 6297   1.887   0.021  12.863  0.6476 -0.2203 -0.3010
  422TMC3     C 6298   2.222   4.606  12.662 -0.4275  0.7622  0.7282
  422TMC3     O 6299   2.260   4.677  12.572  0.3759  0.2651  0.0349
  422TMC3     H 6300   2.197   0.117  12.750 -0.6446  0.5375 -0.7649
  422TMC3    H1 6301   2.019   4.459  12.748  1.5120 -0.3731  0.5308
  422TMC3    H2 6302   1.810   0.078  12.914  0.0280 -0.7255 -0.6751
  422TMC3    C7 6303   1.820   4.507  12.879 -0.0018 -0.0573 -0.5133
  422TMC3    C8 6304   1.976   0.238  12.844  0.2697  0.5759  0.6621
  422TMC3    O1 6305   1.858   4.390  12.900  0.1122 -0.1876  0.2156
  422TMC3    O2 6306   2.078   0.306  12.869  0.1335 -0.2965  0.9878
  423MPD2     C 6307   3.889   1.215   0.646 -0.5390  0.3759 -0.6286
  423MPD2    C1 6308   3.994   1.123   0.646  0.1962  0.5308  0.7667
  423MPD2    C2 6309   4.010   1.047   0.529 -0.1426 -0.9295  0.8149
  423MPD2    C3 6310   3.929   1.059   0.423 -0.4387  0.5820 -0.1323
  423MPD2    C4 6311   3.826   1.147   0.419  0.1046  0.0999 -0.0689
  423MPD2    C5 6312   3.814   1.224   0.531 -0.0284  0.2436 -1.5628
  423MPD2     H 6313   4.083   0.967   0.539  2.0010  1.0245  0.6401
  423MPD2    H1 6314   3.759   1.157   0.334 -0.7341 -0.2275  0.5535
  423MPD2    H2 6315   3.869   1.287   0.725  2.2037 -1.0160  1.3581
  423MPD2    H3 6316   3.733   1.296   0.524 -0.3016  0.1632  0.6270
  423MPD2     N 6317   3.949   0.984   0.306  0.8769 -0.0864  0.2909
  423MPD2    H5 6318   3.895   1.004   0.222  1.2079  1.1711  0.3762
  423MPD2    N1 6319   4.081   1.099   0.750  0.7721  0.6119  0.8235
  423MPD2    H7 6320   4.146   1.023   0.731 -2.3047 -1.9520  0.6697
  424TMC3    C1 6321   4.159   1.085   0.967  0.1775  0.1520  0.0719
  424TMC3    C2 6322   4.284   1.042   0.928 -0.0692  0.4066 -0.4706
  424TMC3    C3 6323   4.362   0.992   1.030 -0.3565 -0.0896  0.8763
  424TMC3    C4 6324   4.116   1.086   1.094 -0.1304  0.1956  0.3821
  424TMC3    C5 6325   4.205   1.041   1.191  0.0653  0.6063 -0.3305
  424TMC3    C6 6326   4.325   0.990   1.159  0.3280  0.3426  0.1839
  424TMC3     C 6327   4.087   1.164   0.874  0.2344  0.6535  0.4829
  424TMC3     O 6328   4.007   1.245   0.922 -0.1760  0.2500  0.3187
  424TMC3     H 6329   4.312   1.038   0.823 -3.7060  1.1296 -1.4834
  424TMC3    H1 6330   4.019   1.127   1.119 -1.0020 -1.2237 -0.7130
  424TMC3    H2 6331   4.393   0.950   1.234 -0.6972 -1.5973  0.1088
  424TMC3    C7 6332   4.152   1.017   1.325  0.5494 -0.3732 -0.2346
  424TMC3    C8 6333   4.504   0.971   1.003 -0.0610 -0.7600 -0.3316
  424TMC3    O1 6334   4.202   0.931   1.397  0.3185 -0.0464  0.3863
  424TMC3    O2 6335   4.566   0.903   1.085  0.0646  0.6094  0.0244
  425MPD2     C 6336   2.075   0.004   0.073 -0.0657  0.0922  0.3307
  425MPD2    C1 6337   2.110   4.695  17.650  0.3348 -0.0731  0.4734
  425MPD2    C2 6338   2.018   4.701  17.550  0.3411 -0.4587  0.0126
  425MPD2    C3 6339   1.892   0.029  17.585 -0.0787  0.3906 -0.3639
  425MPD2    C4 6340   1.863   0.071   0.005  0.3777 -0.1146 -0.2551
  425MPD2    C5 6341   1.954   0.051   0.099 -0.7197  0.6356  0.7351
  425MPD2     H 6342   2.030   4.669  17.447  1.0741 -2.1394  0.6251
  425MPD2    H1 6343   1.765   0.111   0.031  0.5881  0.4082 -0.2750
  425MPD2    H2 6344   2.144   4.710   0.154 -1.3902 -0.7697  1.2277
  425MPD2    H3 6345   1.934   0.073   0.204 -1.2034  1.0143  0.5663
  425MPD2     N 6346   1.803   0.035  17.479 -0.1484 -0.0046  0.4732
  425MPD2    H5 6347   1.824   4.710  17.393 -2.7512  0.6180 -0.5311
  425MPD2    N1 6348   2.242   4.656  17.629  0.7053  0.2867  0.0666
  425MPD2    H7 6349   2.302   4.633   0.002 -0.2783 -0.7720  0.5007
  426TMC3    C1 6350   2.432   4.596  17.508 -0.0518  0.6481  0.5251
  426TMC3    C2 6351   2.494   4.526  17.413 -0.5563 -0.1030 -0.3615
  426TMC3    C3 6352   2.629   4.524  17.415  0.1094  0.2563  0.8648
  426TMC3    C4 6353   2.503   4.656  17.611  0.9943 -0.0681  0.2178
  426TMC3    C5 6354   2.638   4.646  17.613 -0.3457  0.1559  0.5359
  426TMC3    C6 6355   2.710   4.578  17.514 -0.2961 -0.1240 -0.6359
  426TMC3     C 6356   2.296   4.628  17.502  0.0999 -0.2496 -0.2643
  426TMC3     O 6357   2.238   4.620  17.394  0.1070 -0.0101 -0.0654
  426TMC3     H 6358   2.439   4.471  17.337  1.7377  0.5647 -2.5351
  426TMC3    H1 6359   2.461   0.011  17.669 -0.5462 -0.7724  0.0726
  426TMC3    H2 6360   2.818   4.576  17.528 -0.4313  2.4914  0.8295
  426TMC3    C7 6361   2.718   0.008   0.002  0.1535 -0.0351 -0.1290
  426TMC3    C8 6362   2.684   4.448  17.303  0.1031  0.2063  0.3793
  426TMC3    O1 6363   2.836   0.026  17.677 -0.1328  0.4257 -0.2574
  426TMC3    O2 6364   2.770   4.369  17.330  0.8182  0.1468 -0.3588
  427MPD2     C 6365   1.283   2.125  14.960 -0.1917 -0.6538 -0.4270
  427MPD2    C1 6366   1.216   2.114  15.079  0.7760 -0.5101  0.4374
  427MPD2    C2 6367   1.079   2.110  15.071  0.0204 -0.3772 -0.2607
  427MPD2    C3 6368   1.008   2.100  14.952 -0.1088 -1.3060 -0.0643
  427MPD2    C4 6369   1.081   2.104  14.838  0.3252 -0.1852 -0.2776
  427MPD2    C5 6370   1.214   2.111  14.840 -0.4130 -0.3424 -0.5486
  427MPD2     H 6371   1.013   2.090  15.155  0.5904 -1.8972 -0.1798
  427MPD2    H1 6372   1.027   2.098  14.744 -1.7302 -0.9185  0.9238
  427MPD2    H2 6373   1.391   2.136  14.956 -0.4510  1.8774 -0.5930
  427MPD2    H3 6374   1.262   2.111  14.742  1.8571  1.0397  0.5730
  427MPD2     N 6375   0.864   2.099  14.955  0.2290  0.5229 -0.1438
  427MPD2    H5 6376   0.827   2.122  15.047  0.1434  2.7713 -0.7525
  427MPD2    N1 6377   1.290   2.106  15.198 -0.1854 -0.0625 -0.1926
  427MPD2    H7 6378   1.388   2.091  15.178 -0.0426  0.5489  0.0259
  428TMC3    C1 6379   1.338   2.044  15.416  0.8568 -0.5935  0.4942
  428TMC3    C2 6380   1.328   1.938  15.503 -0.0795 -0.2892 -0.1603
  428TMC3    C3 6381   1.429   1.895  15.586  0.4608  0.2322  1.1358
  428TMC3    C4 6382   1.445   2.126  15.425 -0.1071 -0.4981  0.2804
  428TMC3    C5 6383   1.551   2.084  15.507 -0.6973  0.1791  0.5405
  428TMC3    C6 6384   1.544   1.969  15.581  0.5664  0.3186 -0.9431
  428TMC3     C 6385   1.233   2.077  15.319  0.6759 -0.0956  0.2015
  428TMC3     O 6386   1.121   2.032  15.345  0.1629  0.4898  0.3385
  428TMC3     H 6387   1.246   1.869  15.493 -1.7813  2.0659 -2.2781
  428TMC3    H1 6388   1.448   2.216  15.365  1.3146 -0.4775  0.3784
  428TMC3    H2 6389   1.632   1.943  15.638 -0.4340 -0.5289  0.2056
  428TMC3    C7 6390   1.656   2.184  15.521 -0.6818 -0.2064  0.5472
  428TMC3    C8 6391   1.467   1.757  15.602  0.1654  0.6139 -0.0129
  428TMC3    O1 6392   1.693   2.211  15.638 -0.4934 -0.4883 -0.6905
  428TMC3    O2 6393   1.565   1.720  15.537  0.6963  0.1013 -0.4271
  429MPD2     C 6394   2.609   2.074   0.893  0.1029 -0.3063 -0.3767
  429MPD2    C1 6395   2.658   2.044   0.767  0.1424 -0.2856 -0.1259
  429MPD2    C2 6396   2.720   2.148   0.695 -0.0169 -0.0447  0.1857
  429MPD2    C3 6397   2.728   2.274   0.741 -0.0140 -0.3727  1.2345
  429MPD2    C4 6398   2.687   2.305   0.869 -0.5119 -0.8752 -0.1205
  429MPD2    C5 6399   2.617   2.206   0.940 -0.0467  0.1997 -0.4104
  429MPD2     H 6400   2.752   2.133   0.593 -0.7632 -0.0320 -0.0489
  429MPD2    H1 6401   2.696   2.404   0.913 -0.1249 -0.8830 -0.1787
  429MPD2    H2 6402   2.550   2.003   0.949  0.8608 -2.3933 -2.2396
  429MPD2    H3 6403   2.575   2.225   1.038  0.9190  1.9042 -0.3431
  429MPD2     N 6404   2.793   2.363   0.658 -0.0460 -0.0104  0.4586
  429MPD2    H5 6405   2.827   2.324   0.571 -1.6948  1.2954 -0.7633
  429MPD2    N1 6406   2.655   1.919   0.710 -0.1200 -0.3467 -0.3240
  429MPD2    H7 6407   2.680   1.916   0.612 -1.5495 -0.5423 -0.6799
  430TMC3    C1 6408   2.881   2.561   0.573 -0.4405 -0.3007  0.2401
  430TMC3    C2 6409   2.858   2.689   0.558 -0.5073 -0.6077 -0.4765
  430TMC3    C3 6410   2.958   2.762   0.497 -0.4083 -0.1192  0.0249
  430TMC3    C4 6411   2.987   2.499   0.511 -0.0543 -0.2028  0.3922
  430TMC3    C5 6412   3.083   2.578   0.447 -1.0827  0.2263 -0.1855
  430TMC3    C6 6413   3.067   2.715   0.442  0.5025  0.0504 -0.4563
  430TMC3     C 6414   2.815   2.494   0.683 -0.0485 -0.1749  0.0913
  430TMC3     O 6415   2.788   2.565   0.782  0.3183  0.6364  0.4555
  430TMC3     H 6416   2.766   2.735   0.594  0.3148 -0.1470  1.0185
  430TMC3    H1 6417   3.007   2.393   0.520 -1.4171 -0.5661 -0.8621
  430TMC3    H2 6418   3.143   2.771   0.389  1.4880  1.1208  2.0920
  430TMC3    C7 6419   3.163   2.520   0.338  0.0344 -0.1330  0.3303
  430TMC3    C8 6420   2.904   2.882   0.441  0.5578 -0.0278 -0.2131
  430TMC3    O1 6421   3.262   2.579   0.304  0.5923  0.6512  0.6623
  430TMC3    O2 6422   2.787   2.888   0.426  0.3851 -0.0956 -0.5861
  431MPD2     C 6423   3.748   2.141  12.551  0.2000  0.2693 -0.0932
  431MPD2    C1 6424   3.622   2.198  12.536 -0.1608 -0.5154 -0.3242
  431MPD2    C2 6425   3.514   2.122  12.503  0.0646 -0.2150  0.3940
  431MPD2    C3 6426   3.533   1.989  12.467 -0.2403  0.1488 -0.4353
  431MPD2    C4 6427   3.660   1.934  12.471 -0.2183 -0.1149 -0.1303
  431MPD2    C5 6428   3.769   2.009  12.511  0.2436 -0.0922  0.3230
  431MPD2     H 6429   3.419   2.175  12.503  0.6366  0.8077 -1.5919
  431MPD2    H1 6430   3.670   1.830  12.444  2.4045 -0.4294  2.0454
  431MPD2    H2 6431   3.834   2.199  12.582 -0.0314  0.8153 -0.4636
  431MPD2    H3 6432   3.867   1.962  12.501  0.9437  0.9736  2.3052
  431MPD2     N 6433   3.423   1.903  12.435  0.0592 -0.9710 -0.8297
  431MPD2    H5 6434   3.444   1.805  12.419 -1.1693 -1.4599  0.5904
  431MPD2    N1 6435   3.601   2.330  12.566 -0.2181  0.3102 -0.4048
  431MPD2    H7 6436   3.508   2.365  12.546 -0.2110 -0.1893 -1.2826
  432TMC3    C1 6437   3.209   1.833  12.397 -0.5746 -0.2656 -0.3654
  432TMC3    C2 6438   3.166   1.798  12.267  0.1509  0.6248  0.3722
  432TMC3    C3 6439   3.123   1.668  12.266  0.4401 -0.1183 -0.0313
  432TMC3    C4 6440   3.221   1.755  12.511 -0.1971  0.1478  0.6491
  432TMC3    C5 6441   3.185   1.626  12.497  0.9251 -0.1205 -0.8059
  432TMC3    C6 6442   3.130   1.580  12.373 -1.1559  0.7486  0.1033
  432TMC3     C 6443   3.295   1.945  12.405 -0.2165 -0.3576 -0.6000
  432TMC3     O 6444   3.242   2.058  12.387  0.0689 -0.3005 -0.1188
  432TMC3     H 6445   3.133   1.870  12.194 -0.1655  0.2963  0.1905
  432TMC3    H1 6446   3.248   1.797  12.607 -1.9863  0.5914  0.9722
  432TMC3    H2 6447   3.093   1.478  12.371 -2.9444  1.3980 -0.5452
  432TMC3    C7 6448   3.179   1.538  12.606 -0.4802 -0.2250  0.5634
  432TMC3    C8 6449   3.134   1.597  12.142  0.3748  0.3084 -0.7820
  432TMC3    O1 6450   3.153   1.420  12.593 -0.5237  0.0497 -0.0663
  432TMC3    O2 6451   3.069   1.497  12.124  0.0751 -0.5113  0.0465
  433MPD2     C 6452   2.383   1.389  10.895  0.0849 -0.3382  0.0800
  433MPD2    C1 6453   2.313   1.283  10.955 -0.2312 -0.2180 -0.1321
  433MPD2    C2 6454   2.277   1.288  11.088  0.5874  0.4529  0.0064
  433MPD2    C3 6455   2.317   1.397  11.168  0.3161  0.0171  0.8753
  433MPD2    C4 6456   2.392   1.499  11.113  0.3901 -0.5954 -0.0792
  433MPD2    C5 6457   2.427   1.490  10.978 -0.4688  0.0183 -0.7029
  433MPD2     H 6458   2.223   1.208  11.136  0.9836  1.0181  1.4156
  433MPD2    H1 6459   2.427   1.589  11.163 -0.8896 -0.7944  1.1745
  433MPD2    H2 6460   2.416   1.388  10.792 -1.0055  2.5497 -0.3108
  433MPD2    H3 6461   2.491   1.567  10.936  2.1248 -2.4482 -1.2490
  433MPD2     N 6462   2.292   1.391  11.305 -0.9713  0.1594 -0.1506
  433MPD2    H5 6463   2.239   1.311  11.340  0.3690 -0.4747  0.4483
  433MPD2    N1 6464   2.283   1.173  10.871 -0.2383  0.1359 -0.7797
  433MPD2    H7 6465   2.310   1.188  10.774  1.0603  0.3983 -0.3737
  434TMC3    C1 6466   2.215   0.963  10.804  0.3497  0.1950 -0.1759
  434TMC3    C2 6467   2.254   0.842  10.853 -0.2251  0.5794  0.5934
  434TMC3    C3 6468   2.363   0.776  10.793  0.1765 -0.1573 -0.4764
  434TMC3    C4 6469   2.261   1.007  10.683  0.5440 -0.3705 -0.8798
  434TMC3    C5 6470   2.368   0.946  10.635 -0.4838  0.5084  0.0679
  434TMC3    C6 6471   2.420   0.831  10.694 -0.0601  0.3602  0.5562
  434TMC3     C 6472   2.205   1.067  10.908 -0.0540 -0.4344 -0.1881
  434TMC3     O 6473   2.125   1.042  10.998  0.3067 -0.2383  0.3236
  434TMC3     H 6474   2.210   0.808  10.946 -1.5881 -0.5008 -0.4598
  434TMC3    H1 6475   2.204   1.085  10.634  2.4280 -0.3829 -3.0447
  434TMC3    H2 6476   2.501   0.780  10.644 -0.9824  1.1584 -1.7823
  434TMC3    C7 6477   2.391   0.962  10.489  0.1823  0.4578  0.3266
  434TMC3    C8 6478   2.423   0.680  10.877 -0.8024  0.0937  0.6011
  434TMC3    O1 6479   2.504   0.928  10.456 -0.4182  0.8010 -0.3709
  434TMC3    O2 6480   2.370   0.656  10.984 -0.0774  0.2987  0.5120
  435MPD2     C 6481   3.257   0.772  15.858 -0.0194 -0.2771 -0.2364
  435MPD2    C1 6482   3.307   0.780  15.986 -0.0986  0.4086 -0.1874
  435MPD2    C2 6483   3.447   0.788  15.992  0.3343  0.0988 -0.2168
  435MPD2    C3 6484   3.527   0.776  15.873  0.0778  0.1311 -0.0426
  435MPD2    C4 6485   3.469   0.754  15.749  0.4074 -0.8209  0.9334
  435MPD2    C5 6486   3.333   0.758  15.745 -0.5634 -0.2589  1.0415
  435MPD2     H 6487   3.485   0.796  16.093  0.1500  0.9870 -0.2143
  435MPD2    H1 6488   3.521   0.741  15.655  0.7448 -0.2744  1.0441
  435MPD2    H2 6489   3.152   0.765  15.832 -0.2056 -0.8276  0.6630
  435MPD2    H3 6490   3.279   0.752  15.651 -1.5666 -0.4775  1.6302
  435MPD2     N 6491   3.665   0.780  15.882 -0.6741  0.3753 -0.1683
  435MPD2    H5 6492   3.705   0.808  15.971 -0.9233  0.1411  0.0168
  435MPD2    N1 6493   3.229   0.800  16.102 -0.0503 -0.4205 -0.1579
  435MPD2    H7 6494   3.286   0.786  16.185  1.0054  1.8229 -0.4960
  436TMC3    C1 6495   3.102   0.914  16.460 -0.1671 -0.2173  0.4542
  436TMC3    C2 6496   3.140   0.900  16.331 -0.4157 -0.1163  0.6871
  436TMC3    C3 6497   3.049   0.845  16.242  0.2949 -1.3980 -0.4791
  436TMC3    C4 6498   2.978   0.881  16.505  0.1218 -0.6951 -0.4638
  436TMC3    C5 6499   2.886   0.838  16.410 -0.4830  0.3018  0.6063
  436TMC3    C6 6500   2.914   0.826  16.274 -0.3190  0.7551 -0.4581
  436TMC3     C 6501   3.194   0.980  16.550 -0.3626  0.1920 -0.2209
  436TMC3     O 6502   3.311   0.968  16.514 -0.1739 -0.0991 -0.6172
  436TMC3     H 6503   3.241   0.929  16.304 -0.2720 -0.9820  0.2986
  436TMC3    H1 6504   2.956   0.898  16.609  1.3836  0.5585 -0.4102
  436TMC3    H2 6505   2.840   0.794  16.202 -0.1830  2.5569 -1.4079
  436TMC3    C7 6506   2.749   0.839  16.439 -0.1259  0.3630  0.0848
  436TMC3    C8 6507   3.097   0.805  16.120  0.2147 -0.1384  0.0821
  436TMC3    O1 6508   2.673   0.859  16.343 -0.2845 -0.6917 -0.4577
  436TMC3    O2 6509   3.021   0.783  16.030 -0.4055  0.5077 -0.2712
  437TMC3    C1 6510   2.598   2.911  13.109 -0.4435  0.1369 -0.5557
  437TMC3    C2 6511   2.465   2.895  13.086 -0.1915  0.2586 -0.8548
  437TMC3    C3 6512   2.397   2.948  12.979  0.1343  0.1166  0.4282
  437TMC3    C4 6513   2.666   3.000  13.032 -0.1393  0.8552 -0.1419
  437TMC3    C5 6514   2.597   3.062  12.930  0.5093  0.6536 -0.2344
  437TMC3    C6 6515   2.467   3.045  12.901 -0.0489  0.3170  0.5236
  437TMC3     C 6516   2.655   2.845  13.227  0.4030 -0.0294 -0.3658
  437TMC3     O 6517   2.580   2.795  13.310  0.4350 -0.3647  0.1727
  437TMC3     H 6518   2.412   2.829  13.153  0.3405 -0.1361 -0.8173
  437TMC3    H1 6519   2.767   3.032  13.053  0.1290  0.5603 -0.9944
  437TMC3    H2 6520   2.419   3.097  12.818  1.1582  1.0553  0.2900
  437TMC3    C7 6521   2.665   3.149  12.834 -0.0178  0.5145  0.3601
  437TMC3    C8 6522   2.253   2.915  12.962 -0.0495 -0.3260 -0.3591
  437TMC3    O1 6523   2.593   3.183  12.737 -0.2942 -0.0515 -0.4840
  437TMC3    O2 6524   2.215   2.800  12.976 -0.8078  0.3333 -0.3359
  438MPD2     C 6525   0.094   3.367  16.883 -0.5255 -0.0814  0.5161
  438MPD2    C1 6526   0.189   3.272  16.925  1.0203 -0.4398 -0.0021
  438MPD2    C2 6527   0.217   3.251  17.057  0.2553 -0.1781 -0.7436
  438MPD2    C3 6528   0.145   3.327  17.146  0.0667 -0.4027  0.1473
  438MPD2    C4 6529   0.051   3.425  17.108  1.0963 -0.0040 -0.5217
  438MPD2    C5 6530   0.028   3.447  16.977  0.6752  0.6672  0.2375
  438MPD2     H 6531   0.283   3.168  17.083 -0.3536 -0.4131  0.0617
  438MPD2    H1 6532   4.720   3.474  17.186 -0.6623 -1.5823 -0.8243
  438MPD2    H2 6533   0.076   3.396  16.780  4.1168  0.4011 -0.1337
  438MPD2    H3 6534   4.677   3.515  16.944  1.6971  1.6193 -0.1520
  438MPD2     N 6535   0.155   3.310  17.285 -0.2896 -0.6496  0.1812
  438MPD2    H5 6536   0.101   3.369  17.348 -0.6430 -1.3136  0.4993
  438MPD2    N1 6537   0.248   3.184  16.834  0.0122  0.1018 -0.6541
  438MPD2    H7 6538   0.296   3.105  16.877 -1.7599 -0.5436  0.1503
  439TMC3    C1 6539   0.348   3.082  16.658  0.3645  0.3964 -0.1974
  439TMC3    C2 6540   0.301   2.995  16.559  1.1067  0.0935  1.1045
  439TMC3    C3 6541   0.371   2.878  16.552  0.2649  1.3365 -0.1572
  439TMC3    C4 6542   0.449   3.054  16.750 -0.2260  0.4577  0.4455
  439TMC3    C5 6543   0.509   2.929  16.734 -0.1703 -0.3028  0.4270
  439TMC3    C6 6544   0.479   2.842  16.635  0.2133  0.0261 -0.2151
  439TMC3     C 6545   0.257   3.182  16.696  0.0726  0.0808  0.4767
  439TMC3     O 6546   0.212   3.260  16.611 -0.2781  0.3894  0.4963
  439TMC3     H 6547   0.219   3.033  16.499  1.5501  2.7845  2.2314
  439TMC3    H1 6548   0.481   3.123  16.827 -0.1862 -0.4186  1.2027
  439TMC3    H2 6549   0.539   2.753  16.621  0.8806  0.0776  2.3329
  439TMC3    C7 6550   0.635   2.914  16.798  0.5509 -0.3588  0.5141
  439TMC3    C8 6551   0.372   2.818  16.416 -0.0133  0.7049  0.5862
  439TMC3    O1 6552   0.672   3.020  16.847  0.2756  0.3616 -0.3107
  439TMC3    O2 6553   0.473   2.746  16.400  0.0167  0.0270  0.2327
  440MPD2     C 6554   3.933   3.820  14.554  0.2125 -0.2051 -0.3427
  440MPD2    C1 6555   3.976   3.945  14.586 -0.3276 -0.2306  0.1090
  440MPD2    C2 6556   4.098   3.954  14.648  0.4136  0.3560 -0.0474
  440MPD2    C3 6557   4.161   3.841  14.703 -0.1311 -0.2877 -0.4850
  440MPD2    C4 6558   4.115   3.717  14.665  0.3785  0.8433 -0.3189
  440MPD2    C5 6559   4.004   3.710  14.585  0.0558 -0.6394  0.1177
  440MPD2     H 6560   4.135   4.055  14.657  1.4502  0.0438 -0.6848
  440MPD2    H1 6561   4.160   3.622  14.692  1.6808  1.2157 -1.1489
  440MPD2    H2 6562   3.837   3.807  14.504  0.0049 -2.7670  0.7218
  440MPD2    H3 6563   3.961   3.617  14.549 -0.1827 -0.9720  1.2698
  440MPD2     N 6564   4.276   3.832  14.781 -0.4644  0.8614  0.5069
  440MPD2    H5 6565   4.307   3.744  14.821  2.2387  0.6715 -2.0092
  440MPD2    N1 6566   3.911   4.073  14.562  0.0369  0.6341  0.1132
  440MPD2    H7 6567   3.952   4.155  14.605 -1.7359  1.2043  0.7180
  441TMC3    C1 6568   4.423   3.925  14.941 -0.5354 -0.5115  0.2952
  441TMC3    C2 6569   4.486   4.043  14.973 -0.4011 -0.0476 -0.0585
  441TMC3    C3 6570   4.521   4.063  15.104  0.0888 -0.2983  0.3342
  441TMC3    C4 6571   4.409   3.823  15.032 -0.2061  0.1349  0.3964
  441TMC3    C5 6572   4.435   3.858  15.163  0.0016 -0.6773 -0.6087
  441TMC3    C6 6573   4.490   3.973  15.203  0.5919  0.7509 -0.4167
  441TMC3     C 6574   4.345   3.939  14.824  0.1788 -0.7709  0.4230
  441TMC3     O 6575   4.327   4.055  14.782 -0.4196  0.0904  0.2287
  441TMC3     H 6576   4.476   4.136  14.917 -0.6063  0.9292  1.6101
  441TMC3    H1 6577   4.361   3.729  15.008  1.2292 -0.5747  0.3217
  441TMC3    H2 6578   4.496   4.005  15.306 -1.3092  1.3401 -0.4910
  441TMC3    C7 6579   4.428   3.754  15.266 -0.2022 -0.2363  0.3298
  441TMC3    C8 6580   4.502   4.204  15.144  0.7550 -0.8904  0.4529
  441TMC3    O1 6581   4.343   3.665  15.256  1.2865  0.6930  0.3152
  441TMC3    O2 6582   4.594   4.282  15.134 -0.3001  0.3783  0.0149
  442MPD2     C 6583   2.166   4.519  16.818  0.4867  0.5268 -0.9226
  442MPD2    C1 6584   2.102   4.534  16.698 -0.1509 -0.1232  0.2092
  442MPD2    C2 6585   2.114   4.438  16.605  0.7299  0.0328  0.3398
  442MPD2    C3 6586   2.198   4.331  16.619  0.2489 -0.1061 -0.0985
  442MPD2    C4 6587   2.260   4.317  16.743 -0.5778 -1.0990 -0.0832
  442MPD2    C5 6588   2.242   4.408  16.843  0.2771 -0.0447  0.1296
  442MPD2     H 6589   2.058   4.443  16.513  1.4556 -2.5082 -0.2473
  442MPD2    H1 6590   2.328   4.236  16.766  1.3826  0.7710  0.8354
  442MPD2    H2 6591   2.168   4.598  16.892 -1.0810 -1.2802  1.0381
  442MPD2    H3 6592   2.294   4.399  16.937 -0.8417  1.3623  0.8885
  442MPD2     N 6593   2.207   4.223  16.528  0.8650  0.0411  0.3370
  442MPD2    H5 6594   2.264   4.141  16.547 -0.0560 -1.3959 -3.0059
  442MPD2    N1 6595   2.038   4.658  16.672  0.8914  0.7478  0.5638
  442MPD2    H7 6596   2.007   4.670  16.576  2.5102  0.2134 -0.0205
  443TMC3    C1 6597   1.903   0.117  16.700 -0.1510  0.3610 -0.0676
  443TMC3    C2 6598   1.941   0.166  16.577  0.4794 -0.0485  0.1276
  443TMC3    C3 6599   1.862   0.266  16.524  0.3147 -0.2786 -0.3939
  443TMC3    C4 6600   1.796   0.159  16.774  0.4144 -0.1364  0.2621
  443TMC3    C5 6601   1.717   0.259  16.716 -0.3390  0.1225 -0.1466
  443TMC3    C6 6602   1.750   0.310  16.592 -0.2493 -0.7137  0.0522
  443TMC3     C 6603   1.986   0.018  16.763 -0.2938 -0.0342 -0.1237
  443TMC3     O 6604   1.982   0.005  16.883  0.0151 -0.0413  0.4334
  443TMC3     H 6605   2.036   0.140  16.533 -0.3589 -0.4255 -1.4375
  443TMC3    H1 6606   1.773   0.111  16.869 -0.1506 -0.5053 -0.0630
  443TMC3    H2 6607   1.680   0.381  16.547  2.5721  2.1463  0.1857
  443TMC3    C7 6608   1.572   0.256  16.755  0.1010 -0.3580 -0.2202
  443TMC3    C8 6609   1.843   0.246  16.381  0.1179  0.0018 -0.1629
  443TMC3    O1 6610   1.549   0.160  16.829  0.2552 -0.1241  0.0610
  443TMC3    O2 6611   1.891   0.151  16.324 -0.1527  0.0863 -0.5028
  444MPD2     C 6612   2.462   3.886  16.984 -0.4124  0.4167  0.1726
  444MPD2    C1 6613   2.367   3.792  16.945 -0.1840 -0.6602  0.1457
  444MPD2    C2 6614   2.409   3.659  16.936  1.1800 -0.5003  0.1312
  444MPD2    C3 6615   2.537   3.616  16.968 -0.7502  0.7397  0.4736
  444MPD2    C4 6616   2.617   3.707  17.020  0.0650  0.6731  0.2739
  444MPD2    C5 6617   2.585   3.844  17.017 -0.0770  0.4674  0.2579
  444MPD2     H 6618   2.340   3.586  16.898  1.7634 -0.0397 -1.8363
  444MPD2    H1 6619   2.716   3.679  17.056  0.0933  0.1998 -0.1698
  444MPD2    H2 6620   2.442   3.992  16.991 -1.1413  0.3309 -0.5115
  444MPD2    H3 6621   2.661   3.908  17.061  0.1369  0.0428  0.5002
  444MPD2     N 6622   2.572   3.483  16.942  0.4803 -0.6387 -0.0512
  444MPD2    H5 6623   2.505   3.424  16.895  1.4256 -1.0857 -0.8481
  444MPD2    N1 6624   2.238   3.821  16.907 -0.0670  0.5510  0.7191
  444MPD2    H7 6625   2.184   3.749  16.859 -2.7021  1.8095  1.8002
  445TMC3    C1 6626   2.698   3.278  16.985 -0.4979 -0.5373 -0.2047
  445TMC3    C2 6627   2.587   3.208  16.948 -0.8252 -1.0567 -0.2091
  445TMC3    C3 6628   2.621   3.078  16.906  0.1378 -0.2909 -0.3893
  445TMC3    C4 6629   2.822   3.222  16.995  0.0592  0.2963  0.0804
  445TMC3    C5 6630   2.840   3.087  16.970 -0.6474 -0.4783 -0.1829
  445TMC3    C6 6631   2.736   3.011  16.924 -0.1119  0.2668  0.1992
  445TMC3     C 6632   2.684   3.423  16.986  0.3455  0.6293 -0.4676
  445TMC3     O 6633   2.785   3.478  17.021 -0.2313  0.5796 -0.5888
  445TMC3     H 6634   2.488   3.250  16.938 -0.6441 -0.7192 -0.5525
  445TMC3    H1 6635   2.906   3.285  17.022 -0.3514  0.5937  0.6541
  445TMC3    H2 6636   2.750   2.906  16.901  0.4948  0.6321 -1.0645
  445TMC3    C7 6637   2.986   3.049  16.955 -1.1302 -0.4330 -0.7087
  445TMC3    C8 6638   2.520   2.995  16.833  0.2252 -0.0158  0.0281
  445TMC3    O1 6639   3.065   3.138  16.947  0.5560  0.1245 -0.3266
  445TMC3    O2 6640   2.535   2.878  16.845  0.1443 -0.1853  0.2135
  446MPD2     C 6641   2.052   0.690  11.445  0.4394  0.2639  0.0989
  446MPD2    C1 6642   2.057   0.685  11.309 -0.6583 -0.0390 -0.5891
  446MPD2    C2 6643   2.178   0.686  11.246 -0.0153 -0.7208 -0.0644
  446MPD2    C3 6644   2.292   0.718  11.322 -0.1205 -0.5561 -0.7531
  446MPD2    C4 6645   2.280   0.727  11.459  0.4820 -0.3518 -0.6556
  446MPD2    C5 6646   2.160   0.713  11.523  0.2576  0.8309 -0.3550
  446MPD2     H 6647   2.181   0.694  11.138 -1.2014  0.5943 -0.0067
  446MPD2    H1 6648   2.365   0.758  11.518  0.9664 -1.2603 -0.8813
  446MPD2    H2 6649   1.960   0.672  11.499 -1.3888  1.8550 -2.4845
  446MPD2    H3 6650   2.168   0.715  11.631 -0.7402 -0.3642 -0.2560
  446MPD2     N 6651   2.418   0.738  11.260  0.5063 -0.5079 -0.2344
  446MPD2    H5 6652   2.417   0.746  11.158 -0.2863  2.0409 -0.0232
  446MPD2    N1 6653   1.938   0.673  11.243 -0.2956  0.5339 -0.1797
  446MPD2    H7 6654   1.849   0.668  11.291  0.9705  0.1631  2.1279
  447TMC3    C1 6655   2.646   0.766  11.231 -0.6304 -0.2042  0.2951
  447TMC3    C2 6656   2.631   0.850  11.124 -0.6161 -0.1117  0.3311
  447TMC3    C3 6657   2.736   0.917  11.078 -0.2801 -0.2184  0.1306
  447TMC3    C4 6658   2.770   0.732  11.281 -0.1173 -0.8998  0.7067
  447TMC3    C5 6659   2.879   0.794  11.232 -0.1282 -0.4743 -0.2128
  447TMC3    C6 6660   2.863   0.895  11.131 -0.3948 -0.0688 -0.3956
  447TMC3     C 6661   2.538   0.743  11.324  0.3182  0.5775 -0.0361
  447TMC3     O 6662   2.569   0.717  11.440  0.5113 -0.5319  0.0969
  447TMC3     H 6663   2.538   0.873  11.072 -1.1600  1.1650  1.8526
  447TMC3    H1 6664   2.772   0.646  11.346  0.8904 -0.7406  0.8784
  447TMC3    H2 6665   2.948   0.945  11.086  0.5999 -1.2193  0.2101
  447TMC3    C7 6666   2.988   0.699  11.199 -0.0262 -1.2927 -0.0979
  447TMC3    C8 6667   2.734   0.924  10.934  0.0586  0.1107 -0.5167
  447TMC3    O1 6668   3.045   0.733  11.096 -0.1213  0.5135 -0.4072
  447TMC3    O2 6669   2.626   0.948  10.878 -0.2593 -0.1575  0.3845
  448TMC3    C1 6670   0.803   0.873  17.152 -0.2221  0.1678 -0.0366
  448TMC3    C2 6671   0.770   0.769  17.063 -1.0063 -0.4747 -0.6272
  448TMC3    C3 6672   0.861   0.662  17.057 -0.5282 -0.4232 -0.1242
  448TMC3    C4 6673   0.914   0.862  17.230 -0.7231  0.7243  0.7658
  448TMC3    C5 6674   1.009   0.760  17.208  0.1084  0.4314 -0.0021
  448TMC3    C6 6675   0.982   0.654  17.121 -0.2890 -0.2076  0.0755
  448TMC3     C 6676   0.698   0.980  17.169  0.6421 -0.3955  0.4334
  448TMC3     O 6677   0.590   0.940  17.127  0.0494  0.6567 -0.0605
  448TMC3     H 6678   0.680   0.765  17.002 -1.2869  0.5013 -0.2695
  448TMC3    H1 6679   0.940   0.940  17.300  1.9966 -0.7586  1.4216
  448TMC3    H2 6680   1.053   0.573  17.107  0.8875  0.8099  0.1442
  448TMC3    C7 6681   1.060   0.708  17.327  0.9118  0.5279 -0.1289
  448TMC3    C8 6682   0.821   0.532  16.995 -0.2439 -0.3636  0.3377
  448TMC3    O1 6683   1.079   0.795  17.412  0.3789 -0.9938 -0.1585
  448TMC3    O2 6684   0.851   0.425  17.050 -0.4642  0.3657 -0.3231
  449MPD2     C 6685   1.942   3.119  14.150 -0.7527 -0.1512 -0.0365
  449MPD2    C1 6686   1.823   3.180  14.117 -0.2658  0.4543  0.3368
  449MPD2    C2 6687   1.775   3.286  14.192 -0.2789  0.4276  0.3491
  449MPD2    C3 6688   1.835   3.328  14.306 -0.0962  0.2707 -0.4289
  449MPD2    C4 6689   1.947   3.262  14.353  0.1105 -0.2018  0.4426
  449MPD2    C5 6690   1.995   3.155  14.277 -0.3382 -0.1812  0.1189
  449MPD2     H 6691   1.690   3.341  14.152  1.3404  1.5396 -1.5801
  449MPD2    H1 6692   1.996   3.291  14.446 -1.6910 -1.0098  1.6387
  449MPD2    H2 6693   1.989   3.045  14.086  1.4906  1.4285 -0.2185
  449MPD2    H3 6694   2.085   3.102  14.308 -1.6598 -1.8312  1.1355
  449MPD2     N 6695   1.778   3.435  14.373 -0.1948  0.7215 -0.4378
  449MPD2    H5 6696   1.693   3.479  14.340  0.1887  1.3449 -0.6040
  449MPD2    N1 6697   1.765   3.153  13.989 -0.0027  0.1999 -0.7978
  449MPD2    H7 6698   1.672   3.191  13.974  0.4234  1.4359 -0.2847
  450TMC3    C1 6699   1.725   3.063  13.773 -0.2393 -0.7249 -0.1766
  450TMC3    C2 6700   1.787   3.090  13.656 -0.1816  0.0519 -0.2969
  450TMC3    C3 6701   1.740   3.191  13.584 -0.4887 -0.3607  0.8456
  450TMC3    C4 6702   1.606   3.112  13.801 -0.8734 -0.3999  0.1629
  450TMC3    C5 6703   1.565   3.227  13.733  0.0716  0.2191 -0.0246
  450TMC3    C6 6704   1.636   3.272  13.623  0.3112  0.2661  0.2807
  450TMC3     C 6705   1.817   3.075  13.883 -0.5211  0.6184 -0.0471
  450TMC3     O 6706   1.929   3.037  13.857  0.0777 -0.1596 -0.1767
  450TMC3     H 6707   1.877   3.034  13.634 -1.0757 -1.4859 -0.0402
  450TMC3    H1 6708   1.554   3.096  13.895 -0.3798  1.8431  0.8242
  450TMC3    H2 6709   1.641   3.370  13.577  0.8715  1.1155  2.1553
  450TMC3    C7 6710   1.527   3.332  13.826 -0.6615 -0.8202  0.4176
  450TMC3    C8 6711   1.814   3.232  13.460  0.3499 -0.2227  0.5341
  450TMC3    O1 6712   1.543   3.320  13.945  0.4527 -0.1257 -1.3400
  450TMC3    O2 6713   1.751   3.298  13.375 -0.7986 -0.1643  0.1425
  451MPD2     C 6714   3.497   3.277   1.157 -0.5231  0.5420 -0.1494
  451MPD2    C1 6715   3.377   3.269   1.227  0.7822  0.5925  0.1717
  451MPD2    C2 6716   3.354   3.163   1.312 -0.2224  0.7189 -0.1899
  451MPD2    C3 6717   3.445   3.056   1.316 -0.2412 -0.5446 -0.6784
  451MPD2    C4 6718   3.559   3.065   1.246 -0.2236  0.5312 -0.5706
  451MPD2    C5 6719   3.587   3.169   1.158 -0.1122  0.3727  0.1345
  451MPD2     H 6720   3.264   3.177   1.370  0.2804 -1.3781  1.1251
  451MPD2    H1 6721   3.627   2.981   1.249 -1.2161 -0.2439  0.2201
  451MPD2    H2 6722   3.520   3.365   1.099 -0.7778 -0.9009 -2.4556
  451MPD2    H3 6723   3.681   3.164   1.105  0.4194 -0.2323  1.1227
  451MPD2     N 6724   3.432   2.942   1.403  0.3674 -0.1128  0.1475
  451MPD2    H5 6725   3.504   2.870   1.399  1.5056  0.9341  1.7291
  451MPD2    N1 6726   3.295   3.387   1.232 -0.2246  0.1697 -0.3032
  451MPD2    H7 6727   3.307   3.459   1.162 -2.1179  0.1215 -0.6804
  452TMC3    C1 6728   3.342   2.789   1.569 -0.3839  0.7830 -0.0483
  452TMC3    C2 6729   3.249   2.753   1.665 -0.4867  0.4203  0.0534
  452TMC3    C3 6730   3.250   2.629   1.725 -0.0232 -0.7736  0.0881
  452TMC3    C4 6731   3.433   2.698   1.531  0.2857 -0.1191 -0.3977
  452TMC3    C5 6732   3.424   2.563   1.576  1.1410 -0.4366 -0.1523
  452TMC3    C6 6733   3.336   2.527   1.677  0.5755  0.2833  0.1970
  452TMC3     C 6734   3.327   2.911   1.488  0.6792 -0.3748  0.6760
  452TMC3     O 6735   3.240   2.989   1.520 -0.4858  0.2936 -1.2317
  452TMC3     H 6736   3.181   2.834   1.689 -1.0466 -0.0632  0.1022
  452TMC3    H1 6737   3.489   2.717   1.440  0.0256  0.3357 -0.4654
  452TMC3    H2 6738   3.327   2.424   1.709 -0.8241  0.9391  1.8867
  452TMC3    C7 6739   3.467   2.467   1.479 -0.2281 -0.4640 -0.1648
  452TMC3    C8 6740   3.171   2.601   1.834 -0.4693  0.7891 -0.7345
  452TMC3    O1 6741   3.479   2.507   1.368 -0.4066 -0.3669 -0.2393
  452TMC3    O2 6742   3.169   2.481   1.862  0.4503  0.9768 -0.5429
  453TMC3    C1 6743   4.398   4.222  11.885 -0.5692 -0.2280  0.1854
  453TMC3    C2 6744   4.308   4.146  11.957 -0.4523 -1.1859 -0.0218
  453TMC3    C3 6745   4.187   4.135  11.899 -0.0573 -0.1396 -0.3463
  453TMC3    C4 6746   4.380   4.262  11.753 -0.3365 -0.1545  0.1253
  453TMC3    C5 6747   4.255   4.227  11.699  0.2664  0.0074 -0.7408
  453TMC3    C6 6748   4.148   4.178  11.772  0.6741 -0.2940  0.2086
  453TMC3     C 6749   4.543   4.235  11.931  0.1367 -0.5602  0.5164
  453TMC3     O 6750   4.613   4.309  11.864  0.2996  0.6011  0.5408
  453TMC3     H 6751   4.324   4.124  12.062 -3.1141  1.6763  0.9971
  453TMC3    H1 6752   4.466   4.293  11.694  1.2186  0.7363  2.9117
  453TMC3    H2 6753   4.055   4.155  11.721  2.4794  0.2144 -3.2955
  453TMC3    C7 6754   4.247   4.239  11.555  0.0009 -0.5026  0.2046
  453TMC3    C8 6755   4.111   4.029  11.952 -0.5645  0.1880  0.0884
  453TMC3    O1 6756   4.137   4.231  11.502 -0.1910 -0.2263  0.5913
  453TMC3    O2 6757   3.998   4.060  11.986  1.0648 -0.1430 -0.4284
  454MPD2     C 6758   3.257   3.373  16.840 -0.3816  0.4911 -0.2317
  454MPD2    C1 6759   3.255   3.462  16.737  0.1424 -0.3097  0.2451
  454MPD2    C2 6760   3.256   3.596  16.773  0.1285 -0.4129  0.2511
  454MPD2    C3 6761   3.247   3.637  16.904  0.1987 -0.8235  0.2390
  454MPD2    C4 6762   3.246   3.542  16.999 -0.5567  0.0290  0.1818
  454MPD2    C5 6763   3.263   3.407  16.969 -0.1114 -0.6149 -0.3171
  454MPD2     H 6764   3.250   3.664  16.689 -0.1880 -0.9577 -0.1693
  454MPD2    H1 6765   3.244   3.560  17.106  1.6552 -1.3173  0.4532
  454MPD2    H2 6766   3.249   3.267  16.819  1.8233  0.4480 -0.7837
  454MPD2    H3 6767   3.252   3.322  17.034 -2.0418 -0.4793 -0.4519
  454MPD2     N 6768   3.219   3.774  16.907  0.5765 -0.4227 -0.1569
  454MPD2    H5 6769   3.197   3.821  16.819 -2.0000  0.9778  1.2437
  454MPD2    N1 6770   3.235   3.436  16.597  0.3930 -0.9879 -0.5577
  454MPD2    H7 6771   3.227   3.516  16.534 -2.9657  1.3655  2.8349
  455TMC3    C1 6772   3.001   3.846  16.940 -0.1915 -0.0560  0.3524
  455TMC3    C2 6773   2.979   3.971  16.888 -0.1286 -0.2800  1.2861
  455TMC3    C3 6774   2.882   3.977  16.794  0.7466 -0.4138 -0.3013
  455TMC3    C4 6775   2.946   3.732  16.887  0.3092  0.0199  0.2713
  455TMC3    C5 6776   2.873   3.747  16.776 -0.0994  0.5268 -0.2863
  455TMC3    C6 6777   2.835   3.868  16.728  0.2334 -0.4070  1.2659
  455TMC3     C 6778   3.130   3.816  17.008 -0.2131 -0.7412 -0.1072
  455TMC3     O 6779   3.122   3.776  17.122 -0.3085  0.1254  0.3100
  455TMC3     H 6780   3.034   4.056  16.928  0.6362  1.7205 -4.0436
  455TMC3    H1 6781   2.952   3.639  16.942 -0.5360  0.0955  0.4983
  455TMC3    H2 6782   2.765   3.873  16.645  0.4444 -1.9748  1.0019
  455TMC3    C7 6783   2.812   3.628  16.715 -0.3045 -0.2611 -0.4525
  455TMC3    C8 6784   2.824   4.103  16.765 -0.3243  0.2587  0.4791
  455TMC3    O1 6785   2.706   3.650  16.657  0.4647  0.1526  0.2412
  455TMC3    O2 6786   2.772   4.116  16.657  0.7765 -0.6089 -0.2803
  456MPD2     C 6787   0.492   3.956  16.364 -0.2995 -0.8754  0.1701
  456MPD2    C1 6788   0.624   3.957  16.420 -0.3060 -0.5255 -0.2888
  456MPD2    C2 6789   0.660   4.040  16.527 -0.2062  1.1000 -0.8938
  456MPD2    C3 6790   0.568   4.134  16.572 -1.0264  0.7831 -0.6382
  456MPD2    C4 6791   0.434   4.124  16.523 -0.8137 -0.4994  0.5361
  456MPD2    C5 6792   0.397   4.033  16.433 -0.7637  0.4609 -0.2283
  456MPD2     H 6793   0.760   4.039  16.568 -0.1433  1.3319 -1.0401
  456MPD2    H1 6794   0.357   4.191  16.559 -0.2258 -0.3325  1.4808
  456MPD2    H2 6795   0.462   3.897  16.278 -1.3525 -3.2563  2.1882
  456MPD2    H3 6796   0.296   4.036  16.394 -0.5006  0.7184 -0.8867
  456MPD2     N 6797   0.610   4.228  16.665 -1.1391  0.5178 -0.6249
  456MPD2    H5 6798   0.702   4.217  16.707 -0.8905 -0.2179 -1.3720
  456MPD2    N1 6799   0.715   3.874  16.349 -0.2438  0.4488  0.1907
  456MPD2    H7 6800   0.691   3.846  16.254 -0.8503 -0.3497  0.5820
  457TMC3    C1 6801   0.622   4.416  16.796  0.4760 -0.2708  0.6863
  457TMC3    C2 6802   0.636   4.547  16.783  0.1211  0.3618 -0.6604
  457TMC3    C3 6803   0.703   4.611  16.883 -0.0641 -0.6810  0.2686
  457TMC3    C4 6804   0.650   4.348  16.906  0.5328 -0.3849 -0.8663
  457TMC3    C5 6805   0.733   4.410  16.996 -1.0618  0.3856  0.7052
  457TMC3    C6 6806   0.759   4.547  16.989 -0.0296  0.6892  0.2035
  457TMC3     C 6807   0.558   4.348  16.681  0.8813  0.7124  0.7571
  457TMC3     O 6808   0.483   4.408  16.608  0.2033  1.0173  0.3096
  457TMC3     H 6809   0.625   4.587  16.682  0.1163  0.0815 -0.7704
  457TMC3    H1 6810   0.645   4.240  16.909  2.5252 -0.4367  1.0374
  457TMC3    H2 6811   0.807   4.601  17.070  0.5399 -3.8948  2.9039
  457TMC3    C7 6812   0.804   4.328  17.087  0.6041  0.0000 -0.2244
  457TMC3    C8 6813   0.714   0.033  16.877  0.0670 -1.3336 -0.0960
  457TMC3    O1 6814   0.829   4.215  17.052  0.4054 -0.0999  0.1150
  457TMC3    O2 6815   0.795   0.078  16.955  0.3859 -0.0665 -0.3762
  458MPD2     C 6816   3.100   3.257  12.559 -0.8765  0.2836  0.2875
  458MPD2    C1 6817   3.130   3.209  12.683  0.0701 -0.2086 -0.3215
  458MPD2    C2 6818   3.030   3.161  12.764  0.4090  0.1533  0.4150
  458MPD2    C3 6819   2.894   3.186  12.736 -0.5055  0.1499  0.3448
  458MPD2    C4 6820   2.863   3.237  12.610 -0.9293 -0.3295  0.0801
  458MPD2    C5 6821   2.967   3.264  12.523 -0.1636 -0.5251  0.1596
  458MPD2     H 6822   3.043   3.111  12.859 -0.5406 -1.9328 -0.5302
  458MPD2    H1 6823   2.760   3.254  12.579 -0.6416  1.4811  0.1291
  458MPD2    H2 6824   3.176   3.294  12.491 -0.0894 -0.1698  0.9214
  458MPD2    H3 6825   2.948   3.306  12.425  1.6762 -0.7253 -0.2830
  458MPD2     N 6826   2.795   3.134  12.827 -0.5606 -0.3062  0.3740
  458MPD2    H5 6827   2.833   3.068  12.894 -1.6623 -1.1431  0.1770
  458MPD2    N1 6828   3.266   3.210  12.724 -0.1417  0.3649  0.4016
  458MPD2    H7 6829   3.328   3.268  12.668  1.5948  0.7530  2.7547
  459TMC3    C1 6830   3.457   3.190  12.874 -0.2371 -0.0037 -0.5008
  459TMC3    C2 6831   3.512   3.300  12.823  0.2164  0.7465 -0.1739
  459TMC3    C3 6832   3.636   3.336  12.881 -1.3223  0.1884 -0.1281
  459TMC3    C4 6833   3.504   3.132  12.987  0.6048  0.4798 -0.0919
  459TMC3    C5 6834   3.603   3.191  13.055  0.0206 -0.5841  0.2443
  459TMC3    C6 6835   3.678   3.290  12.999  0.1169  0.2957  0.4776
  459TMC3     C 6836   3.317   3.145  12.833 -0.1198 -0.2729 -1.1373
  459TMC3     O 6837   3.259   3.068  12.908 -0.4448  0.0457 -0.1452
  459TMC3     H 6838   3.484   3.338  12.725 -2.0010  0.2281  0.2651
  459TMC3    H1 6839   3.440   3.053  13.027  1.1794  0.0494 -0.0277
  459TMC3    H2 6840   3.773   3.324  13.040 -0.3346 -0.1187  1.8441
  459TMC3    C7 6841   3.641   3.139  13.183  0.7984  0.4477 -0.2451
  459TMC3    C8 6842   3.706   3.458  12.832  0.0735  0.3751  0.1324
  459TMC3    O1 6843   3.617   3.020  13.197  0.1494 -0.0243  0.3755
  459TMC3    O2 6844   3.821   3.476  12.862 -0.3893 -0.1974 -0.2566
  460MPD2     C 6845   2.970   0.707  10.748 -0.1084 -0.0859 -0.1625
  460MPD2    C1 6846   2.862   0.796  10.763 -0.6471 -0.4101  0.5540
  460MPD2    C2 6847   2.769   0.812  10.661  0.7220 -0.4774 -0.2049
  460MPD2    C3 6848   2.790   0.735  10.541 -0.2984  0.3373  0.5360
  460MPD2    C4 6849   2.898   0.655  10.537  0.2422  0.2415 -0.5854
  460MPD2    C5 6850   2.987   0.638  10.636  0.2108  0.5299 -0.0861
  460MPD2     H 6851   2.683   0.877  10.675 -0.5435 -2.6659  1.9555
  460MPD2    H1 6852   2.933   0.601  10.450  2.8228  1.5071 -0.3190
  460MPD2    H2 6853   3.035   0.696  10.834  0.8637  1.2414 -0.7334
  460MPD2    H3 6854   3.072   0.573  10.619 -2.1749 -3.1248  2.0900
  460MPD2     N 6855   2.707   0.745  10.431  0.6290 -0.4032 -0.2736
  460MPD2    H5 6856   2.642   0.823  10.428 -0.3918 -1.2191  0.7369
  460MPD2    N1 6857   2.841   0.848  10.893 -0.6445 -0.3155  0.2679
  460MPD2    H7 6858   2.905   0.807  10.959 -0.4556 -1.7672 -0.8089
  461TMC3    C1 6859   2.571   0.662  10.252 -0.0707  0.0146 -0.5702
  461TMC3    C2 6860   2.504   0.549  10.223  0.2959 -0.5849 -0.3160
  461TMC3    C3 6861   2.399   0.561  10.140 -0.6918  0.7750 -0.3241
  461TMC3    C4 6862   2.533   0.778  10.195 -0.4518 -0.1213 -0.1205
  461TMC3    C5 6863   2.418   0.787  10.121 -0.0749 -0.2994  0.0315
  461TMC3    C6 6864   2.350   0.675  10.094 -0.1594 -0.3417 -0.4885
  461TMC3     C 6865   2.683   0.637  10.353  0.1555 -0.1027  0.8014
  461TMC3     O 6866   2.717   0.521  10.364  0.4118 -0.3513  0.2451
  461TMC3     H 6867   2.530   0.452  10.265  0.5309 -1.5107 -2.6340
  461TMC3    H1 6868   2.606   0.858  10.208  2.2964 -2.8802  1.4763
  461TMC3    H2 6869   2.272   0.667  10.018 -0.3346 -1.9221 -0.1415
  461TMC3    C7 6870   2.361   0.918  10.083 -0.7309 -0.5756 -0.2571
  461TMC3    C8 6871   2.360   0.433  10.077 -0.3226  0.3222  0.5040
  461TMC3    O1 6872   2.258   0.910  10.014  0.0162 -0.5201  0.1276
  461TMC3    O2 6873   2.238   0.409  10.075 -0.1308  0.3129  0.6739
  462TMC3    C1 6874   2.243   0.938   0.492 -0.1041 -0.2226  0.4872
  462TMC3    C2 6875   2.314   0.854   0.412 -0.2445  0.6381  0.9167
  462TMC3    C3 6876   2.235   0.785   0.323 -0.1744 -0.3298  0.6104
  462TMC3    C4 6877   2.108   0.951   0.498  0.8723 -0.6308  0.3773
  462TMC3    C5 6878   2.043   0.887   0.394 -0.4739  0.9231 -0.4673
  462TMC3    C6 6879   2.101   0.800   0.316 -0.5189 -0.2165 -0.6356
  462TMC3     C 6880   2.313   1.002   0.602 -0.3269  0.2351  0.5127
  462TMC3     O 6881   2.429   0.965   0.621 -0.4034  1.0548  0.2276
  462TMC3     H 6882   2.422   0.843   0.414  0.0551  2.3763 -3.3626
  462TMC3    H1 6883   2.059   1.024   0.561  3.5496  0.3805  1.3046
  462TMC3    H2 6884   2.054   0.759   0.227 -0.8821  0.3136 -0.6911
  462TMC3    C7 6885   1.899   0.901   0.375 -0.2589 -0.2173  0.3075
  462TMC3    C8 6886   2.277   0.652   0.278 -0.2890 -0.0414 -0.0168
  462TMC3    O1 6887   1.842   0.813   0.306  0.6547  0.0614 -0.2315
  462TMC3    O2 6888   2.202   0.558   0.276 -0.5378  0.1348 -0.5001
  463MPD2     C 6889   3.621   1.053   2.275  0.0617 -1.9118 -0.5899
  463MPD2    C1 6890   3.588   1.117   2.161 -0.2968 -0.3981 -0.4666
  463MPD2    C2 6891   3.637   1.247   2.139  0.8891  0.2345  0.2964
  463MPD2    C3 6892   3.728   1.304   2.235  0.7124  0.0706 -0.0239
  463MPD2    C4 6893   3.753   1.226   2.342 -0.4226 -0.0630  0.4998
  463MPD2    C5 6894   3.697   1.104   2.366 -0.8659  0.5339 -0.1250
  463MPD2     H 6895   3.623   1.297   2.044  1.2528 -1.4524 -0.6470
  463MPD2    H1 6896   3.808   1.272   2.424  1.6272 -0.6655 -0.5289
  463MPD2    H2 6897   3.579   0.960   2.311 -1.8851 -0.2084  1.5344
  463MPD2    H3 6898   3.710   1.050   2.459  1.0691  3.7268  1.4682
  463MPD2     N 6899   3.780   1.433   2.218  0.0229  0.0681  0.6892
  463MPD2    H5 6900   3.835   1.472   2.295  0.1593  1.6973 -0.2298
  463MPD2    N1 6901   3.501   1.063   2.056 -0.1708 -0.1201  0.3733
  463MPD2    H7 6902   3.481   1.116   1.971  1.5648  2.4725  1.5837
  464TMC3    C1 6903   3.388   0.909   1.933  0.3989  0.2653 -0.2471
  464TMC3    C2 6904   3.363   1.005   1.837  0.2513 -0.4725  0.2966
  464TMC3    C3 6905   3.281   0.971   1.728  0.1945 -0.3714  1.4582
  464TMC3    C4 6906   3.361   0.782   1.908 -0.3120 -0.4524  0.9319
  464TMC3    C5 6907   3.281   0.750   1.797 -0.1652 -0.0227 -0.3483
  464TMC3    C6 6908   3.237   0.844   1.702 -0.3070  0.2176  0.0830
  464TMC3     C 6909   3.445   0.943   2.062  0.7426 -0.3240 -0.5696
  464TMC3     O 6910   3.481   0.850   2.131  0.4092 -0.3955  0.0973
  464TMC3     H 6911   3.388   1.110   1.831  1.3701 -0.9083 -3.2096
  464TMC3    H1 6912   3.397   0.704   1.974  0.9114 -0.2902  0.4462
  464TMC3    H2 6913   3.184   0.821   1.610  1.5769  1.3883 -1.2837
  464TMC3    C7 6914   3.204   0.631   1.810  0.6557 -0.3081 -0.4643
  464TMC3    C8 6915   3.255   1.076   1.626 -0.3465  0.0940 -0.9334
  464TMC3    O1 6916   3.210   0.578   1.921 -0.2412 -0.6654  0.1355
  464TMC3    O2 6917   3.270   1.043   1.508 -0.6495  0.2269 -0.3652
  465MPD2     C 6918   4.555   3.259  16.533  0.3050  0.2658  0.6131
  465MPD2    C1 6919   4.474   3.254  16.647 -0.3096 -0.0556 -0.5617
  465MPD2    C2 6920   4.354   3.331  16.656 -0.1532 -0.2814  0.6583
  465MPD2    C3 6921   4.313   3.396  16.539  0.2276  0.1352  0.0436
  465MPD2    C4 6922   4.383   3.382  16.415  0.3434  0.2036  0.3051
  465MPD2    C5 6923   4.498   3.299  16.413  0.0631 -0.0094 -0.2884
  465MPD2     H 6924   4.288   3.325  16.742  0.6122  1.7057  1.3925
  465MPD2    H1 6925   4.354   3.437  16.326 -0.1070 -3.1702 -1.6521
  465MPD2    H2 6926   4.655   3.220  16.530  1.1669  2.6714 -2.4156
  465MPD2    H3 6927   4.556   3.291  16.322 -1.7579  0.5065 -1.4913
  465MPD2     N 6928   4.198   3.475  16.545 -0.5566 -0.2701 -0.4465
  465MPD2    H5 6929   4.165   3.491  16.640 -0.8143 -0.3465 -0.5210
  465MPD2    N1 6930   4.517   3.184  16.763 -0.2362  0.8027 -0.0630
  465MPD2    H7 6931   4.459   3.192  16.846 -1.0089 -1.7613 -0.3553
  466TMC3    C1 6932   3.927   3.697  16.693  0.0856  0.2622 -0.5453
  466TMC3    C2 6933   3.912   3.821  16.630 -0.3854  0.1540  0.9454
  466TMC3    C3 6934   3.952   3.841  16.497  0.2213  0.2560 -0.2313
  466TMC3    C4 6935   3.976   3.593  16.621 -0.0016 -0.5150  0.2958
  466TMC3    C5 6936   4.019   3.615  16.494 -0.5442 -0.5112  0.1508
  466TMC3    C6 6937   4.001   3.736  16.426 -0.0201  1.0990 -0.1927
  466TMC3     C 6938   3.918   3.691  16.838 -0.2308 -0.2509  0.3260
  466TMC3     O 6939   3.949   3.578  16.880  0.3826 -0.5663 -0.1870
  466TMC3     H 6940   3.868   3.903  16.685 -1.6182 -0.5230  0.9686
  466TMC3    H1 6941   3.981   3.494  16.664  0.6636 -0.2470  0.8440
  466TMC3    H2 6942   4.043   3.740  16.327 -1.2474 -0.0209 -0.7546
  466TMC3    C7 6943   4.126   3.538  16.445  0.5013 -0.0925 -0.4151
  466TMC3    C8 6944   3.999   3.968  16.455 -0.2964  0.3169  0.0051
  466TMC3    O1 6945   4.135   3.525  16.325  0.0363  0.0750 -0.0383
  466TMC3    O2 6946   4.050   3.967  16.346  0.1384 -0.5061  0.6691
  467TMC3    C1 6947   0.725   2.526  13.956  0.4494 -0.1810 -0.4609
  467TMC3    C2 6948   0.645   2.564  13.851  0.4465  0.5727  0.0463
  467TMC3    C3 6949   0.514   2.535  13.863 -0.3336  0.0561  0.7440
  467TMC3    C4 6950   0.677   2.486  14.076  0.6955 -0.2888  0.7320
  467TMC3    C5 6951   0.539   2.460  14.082  0.1998 -0.6456 -0.5352
  467TMC3    C6 6952   0.457   2.477  13.976  0.3255 -0.5175 -0.2832
  467TMC3     C 6953   0.864   2.560  13.953 -0.4024 -0.5894  0.0269
  467TMC3     O 6954   0.923   2.591  14.051 -0.5031 -0.5378 -0.3590
  467TMC3     H 6955   0.681   2.609  13.759 -3.2505  4.8068  0.6884
  467TMC3    H1 6956   0.752   2.463  14.150 -0.4416  1.0324  2.2805
  467TMC3    H2 6957   0.358   2.431  13.973 -1.0912  2.5932 -1.4438
  467TMC3    C7 6958   0.508   2.376  14.201  0.2458  0.4849 -0.1836
  467TMC3    C8 6959   0.438   2.585  13.754 -0.0031  0.6890 -0.2438
  467TMC3    O1 6960   0.604   2.356  14.274 -0.0842  0.7252 -0.0803
  467TMC3    O2 6961   0.497   2.613  13.653 -0.0159 -0.0915 -0.0320
  468MPD2     C 6962   4.234   1.082  10.936  0.4411  0.1466  0.1357
  468MPD2    C1 6963   4.307   0.987  11.009  0.6743 -0.0898  0.1029
  468MPD2    C2 6964   4.326   0.867  10.950  0.0982 -0.0923  0.7290
  468MPD2    C3 6965   4.273   0.833  10.827 -0.5764  0.9299 -0.4485
  468MPD2    C4 6966   4.226   0.940  10.750 -0.3105  0.0866  0.4568
  468MPD2    C5 6967   4.203   1.061  10.807  0.1567 -0.4773  0.1982
  468MPD2     H 6968   4.374   0.787  11.004  1.2898  0.9742  1.2386
  468MPD2    H1 6969   4.199   0.914  10.648  0.0187  1.4362  0.0237
  468MPD2    H2 6970   4.237   1.182  10.977  0.9807  0.5608 -0.9309
  468MPD2    H3 6971   4.158   1.140  10.748 -0.5818 -0.8471  0.2585
  468MPD2     N 6972   4.284   0.703  10.760  0.4306  0.5622  0.5635
  468MPD2    H5 6973   4.218   0.684  10.685  1.4264 -0.2479 -0.0938
  468MPD2    N1 6974   4.346   0.994  11.143 -0.0575  0.8666  0.1546
  468MPD2    H7 6975   4.405   0.922  11.182  0.0140 -0.5707 -2.5549
  469TMC3    C1 6976   4.411   1.110  11.337 -0.0858 -0.2250  0.1300
  469TMC3    C2 6977   4.530   1.043  11.330  0.0321  0.0163 -0.1095
  469TMC3    C3 6978   4.605   1.042  11.447  0.3644 -0.1760  0.4417
  469TMC3    C4 6979   4.362   1.157  11.454  0.1200  0.0266 -0.3696
  469TMC3    C5 6980   4.437   1.148  11.565 -0.4998 -0.0098 -0.0005
  469TMC3    C6 6981   4.557   1.086  11.565 -0.0115  0.1724  0.1681
  469TMC3     C 6982   4.325   1.107  11.222 -0.0611 -0.5695  0.6347
  469TMC3     O 6983   4.233   1.191  11.216 -0.2435  0.1341  0.2615
  469TMC3     H 6984   4.557   1.015  11.229  0.4840  0.1160 -0.0166
  469TMC3    H1 6985   4.265   1.205  11.444  0.8917  1.4815 -0.7951
  469TMC3    H2 6986   4.624   1.101  11.648 -1.0957  1.8728  0.7382
  469TMC3    C7 6987   4.353   1.169  11.686  0.4223 -0.6515  0.7822
  469TMC3    C8 6988   0.015   0.989  11.440 -0.6576  0.1124 -0.2794
  469TMC3    O1 6989   4.267   1.254  11.662  0.7746  0.0301 -0.4539
  469TMC3    O2 6990   0.053   0.930  11.541 -0.3731  0.0526  0.6779
  470TMC3    C1 6991   1.967   2.725   0.747 -0.3681  0.1794 -0.6241
  470TMC3    C2 6992   1.909   2.840   0.795  0.6807 -0.0575 -0.1214
  470TMC3    C3 6993   1.951   2.882   0.920 -0.2770 -0.9882  0.1185
  470TMC3    C4 6994   2.062   2.654   0.820  0.1915 -0.1969 -1.1180
  470TMC3    C5 6995   2.106   2.705   0.938 -0.6527 -0.4773 -0.2166
  470TMC3    C6 6996   2.052   2.819   0.991 -0.1270  0.8698 -0.3768
  470TMC3     C 6997   1.915   2.674   0.627  0.1853  0.4770 -0.0790
  470TMC3     O 6998   1.797   2.704   0.604 -0.0365 -0.6877  0.3918
  470TMC3     H 6999   1.865   2.908   0.723  1.7626  1.5472  0.7477
  470TMC3    H1 7000   2.094   2.559   0.779 -1.2773 -0.7828 -0.9009
  470TMC3    H2 7001   2.087   2.867   1.082  0.5206 -1.4619  0.6107
  470TMC3    C7 7002   2.216   2.640   1.002 -0.3646 -0.5712  0.1484
  470TMC3    C8 7003   1.931   3.026   0.939  0.2548  0.1628 -0.6315
  470TMC3    O1 7004   2.243   2.533   0.955  0.4519  0.1881 -0.3969
  470TMC3    O2 7005   2.025   3.087   0.986 -0.3441 -0.6881  0.1058
  471MPD2     C 7006   2.916   3.255   0.080  0.1481  0.1198  0.4837
  471MPD2    C1 7007   2.850   3.130   0.088  0.6777 -0.0775  0.2424
  471MPD2    C2 7008   2.876   3.036   0.186  0.2017  0.1980  0.8583
  471MPD2    C3 7009   2.973   3.056   0.280  0.4830  0.2488 -0.3335
  471MPD2    C4 7010   3.052   3.173   0.269 -0.8763 -0.3657 -0.3788
  471MPD2    C5 7011   3.029   3.264   0.166 -0.6857  0.4893 -0.1823
  471MPD2     H 7012   2.814   2.947   0.190 -2.3580  1.8592 -2.2465
  471MPD2    H1 7013   3.133   3.193   0.338 -2.3100  0.3249  1.1320
  471MPD2    H2 7014   2.899   3.326   0.000  0.1215 -1.2974 -0.7852
  471MPD2    H3 7015   3.092   3.351   0.162 -0.4270  0.4512  2.6518
  471MPD2     N 7016   2.989   2.969   0.388 -1.1522 -0.3694  0.5070
  471MPD2    H5 7017   3.083   2.972   0.426 -1.0687 -2.6748  0.4508
  471MPD2    N1 7018   2.743   3.092   0.003 -0.2116 -0.2138 -0.4302
  471MPD2    H7 7019   2.690   3.007   0.024 -0.3673  0.1458  0.6161
  472TMC3    C1 7020   2.620   3.081  17.516 -0.7210 -0.3710 -0.1209
  472TMC3    C2 7021   2.543   3.154  17.424 -0.5918  0.1778  0.8294
  472TMC3    C3 7022   2.459   3.072  17.343  0.4324  0.2707 -0.3812
  472TMC3    C4 7023   2.639   2.949  17.512  0.3183 -0.4354 -0.3816
  472TMC3    C5 7024   2.562   2.874  17.419  0.3134  1.3211 -0.1143
  472TMC3    C6 7025   2.461   2.932  17.349  0.7985 -0.4767 -0.2122
  472TMC3     C 7026   2.705   3.159  17.599 -0.1860  0.2876  0.2795
  472TMC3     O 7027   2.739   3.272  17.568 -0.3827  0.2702  0.5306
  472TMC3     H 7028   2.540   3.262  17.418 -1.8740 -0.0618 -2.5189
  472TMC3    H1 7029   2.717   2.898  17.567  1.3435 -1.7245 -2.9954
  472TMC3    H2 7030   2.389   2.867  17.300 -0.6351  1.0368 -0.0973
  472TMC3    C7 7031   2.574   2.729  17.442  0.6035  0.1569  0.2334
  472TMC3    C8 7032   2.376   3.142  17.253  0.6079  0.2746  0.6600
  472TMC3    O1 7033   2.614   2.679  17.547  0.3122 -0.1374 -0.2950
  472TMC3    O2 7034   2.353   3.262  17.275 -0.3051 -0.1086  0.3417
  473MPD2     C 7035   2.173   0.180  13.870 -0.2861 -0.1738  0.0998
  473MPD2    C1 7036   2.221   0.289  13.806 -0.2777 -0.2599 -0.3690
  473MPD2    C2 7037   2.273   0.395  13.882  0.2185 -0.4639  0.5428
  473MPD2    C3 7038   2.286   0.388  14.020 -0.2874 -0.5062  0.1744
  473MPD2    C4 7039   2.234   0.278  14.085  0.6658  0.1391 -0.4277
  473MPD2    C5 7040   2.183   0.176  14.005 -0.9758 -1.5678  0.0586
  473MPD2     H 7041   2.309   0.476  13.820  0.1159 -0.3886  0.5821
  473MPD2    H1 7042   2.248   0.258  14.190 -1.8891 -1.2617 -0.3507
  473MPD2    H2 7043   2.117   0.104  13.816 -0.2983  0.6948 -1.1037
  473MPD2    H3 7044   2.147   0.087  14.054  2.0458 -2.5755  0.4488
  473MPD2     N 7045   2.360   0.489  14.092 -0.7260  0.4281  0.0408
  473MPD2    H5 7046   2.371   0.482  14.193 -0.3162  1.0941  0.0411
  473MPD2    N1 7047   2.224   0.303  13.664 -0.6229 -0.8972  0.3389
  473MPD2    H7 7048   2.241   0.397  13.630  1.4741 -1.7039 -0.7825
  474TMC3    C1 7049   2.479   0.692  14.139  0.5120 -0.5026  0.6155
  474TMC3    C2 7050   2.512   0.825  14.105 -0.8528 -0.4628  0.1527
  474TMC3    C3 7051   2.562   0.911  14.201  0.6276 -0.2927  0.0691
  474TMC3    C4 7052   2.488   0.655  14.274 -0.3281 -0.5691 -0.4161
  474TMC3    C5 7053   2.532   0.743  14.366  0.6706  0.5974 -0.6458
  474TMC3    C6 7054   2.570   0.871  14.336  0.0999 -0.2832 -0.5831
  474TMC3     C 7055   2.411   0.608  14.041 -0.0500  0.0419  0.7068
  474TMC3     O 7056   2.411   0.653  13.927 -0.2268  0.4475 -0.5453
  474TMC3     H 7057   2.496   0.866  14.006 -1.9115  0.3710  0.6771
  474TMC3    H1 7058   2.450   0.561  14.313  2.7847 -1.4924  0.3368
  474TMC3    H2 7059   2.615   0.928  14.417 -0.0325  0.2899 -0.9120
  474TMC3    C7 7060   2.564   0.678  14.489  0.1338  0.5036 -0.4491
  474TMC3    C8 7061   2.595   1.043  14.156 -0.2275 -0.5455 -0.2292
  474TMC3    O1 7062   2.573   0.556  14.493 -0.0125 -0.0532 -0.0373
  474TMC3    O2 7063   2.627   1.061  14.038  0.4501 -0.2220 -0.8528
  475MPD2     C 7064   0.677   3.233  10.767 -0.2489  0.6106 -0.1403
  475MPD2    C1 7065   0.707   3.359  10.805  0.0235  0.0166 -0.1714
  475MPD2    C2 7066   0.607   3.436  10.869 -0.6809 -0.2410  0.4999
  475MPD2    C3 7067   0.491   3.379  10.911  0.1317  0.4718 -0.2512
  475MPD2    C4 7068   0.473   3.243  10.877 -0.0518 -0.5770  0.3884
  475MPD2    C5 7069   0.567   3.177  10.811  0.2793 -0.4442  0.1651
  475MPD2     H 7070   0.630   3.540  10.892  1.0735 -0.4550 -0.2778
  475MPD2    H1 7071   0.383   3.185  10.896  0.0436 -0.8154  0.1047
  475MPD2    H2 7072   0.760   3.177  10.725  0.1992  1.7086 -0.7276
  475MPD2    H3 7073   0.556   3.071  10.792 -1.1096 -0.0866 -1.0842
  475MPD2     N 7074   0.392   3.449  10.986  0.1610 -1.2433  0.6327
  475MPD2    H5 7075   0.411   3.548  10.998 -0.5306 -0.8251 -1.6425
  475MPD2    N1 7076   0.831   3.417  10.763 -0.1712  0.1504  0.3036
  475MPD2    H7 7077   0.882   3.372  10.688  0.8972  0.7806  0.6445
  476TMC3    C1 7078   1.010   3.586  10.751  0.3963 -0.8352 -0.2273
  476TMC3    C2 7079   1.048   3.541  10.628  0.3823 -0.8225 -0.0397
  476TMC3    C3 7080   1.168   3.579  10.579 -0.1121  0.3506 -0.3624
  476TMC3    C4 7081   1.083   3.678  10.822  0.5659 -0.1336  0.3162
  476TMC3    C5 7082   1.202   3.711  10.768  0.0773 -0.3449  0.2235
  476TMC3    C6 7083   1.250   3.662  10.648 -0.4576  0.8388  0.2558
  476TMC3     C 7084   0.887   3.536  10.816  0.1263 -0.3436 -0.2180
  476TMC3     O 7085   0.848   3.609  10.913  0.2362 -0.0231 -0.3661
  476TMC3     H 7086   0.980   3.472  10.580 -0.5931  2.3125 -3.1384
  476TMC3    H1 7087   1.053   3.713  10.920 -3.0537 -0.6730 -0.6089
  476TMC3    H2 7088   1.350   3.688  10.613  0.6769 -2.6243  0.9544
  476TMC3    C7 7089   1.294   3.797  10.839 -0.7899  0.4989 -0.5601
  476TMC3    C8 7090   1.218   3.540  10.450 -0.2553 -0.4694 -0.6702
  476TMC3    O1 7091   1.412   3.787  10.806 -0.0211  0.1447  0.0728
  476TMC3    O2 7092   1.332   3.574  10.414 -0.0070 -0.6107 -0.5929
  477MPD2     C 7093   3.009   0.230  12.064  0.3963 -0.0870  0.4286
  477MPD2    C1 7094   3.010   0.157  11.950  0.1525 -0.2456  0.3086
  477MPD2    C2 7095   3.076   0.040  11.938 -0.5470 -0.5942  0.2212
  477MPD2    C3 7096   3.142   4.716  12.050 -0.0429 -0.5306  0.2256
  477MPD2    C4 7097   3.136   0.067  12.166  0.0693  0.3971 -0.6041
  477MPD2    C5 7098   3.071   0.189  12.179 -0.0937  0.1732  0.2212
  477MPD2     H 7099   3.083   4.711  11.845  1.1252 -0.5745  0.3349
  477MPD2    H1 7100   3.174   0.026  12.259  0.0229  1.8723  0.0676
  477MPD2    H2 7101   2.952   0.322  12.079 -1.7380 -1.2363 -0.6922
  477MPD2    H3 7102   3.081   0.260  12.260  0.2334  0.3389  0.0351
  477MPD2     N 7103   3.192   4.583  12.044  0.4162 -0.4840 -0.4383
  477MPD2    H5 7104   3.216   4.548  11.952 -3.1070 -0.2175 -1.4466
  477MPD2    N1 7105   2.923   0.208  11.852  0.3095  0.4358 -0.2991
  477MPD2    H7 7106   2.850   0.271  11.885 -0.2555 -0.7280  0.6963
  478TMC3    C1 7107   2.804   0.220  11.652 -0.3763  0.1256  0.1858
  478TMC3    C2 7108   2.741   0.328  11.703  0.1201 -0.3202 -0.2382
  478TMC3    C3 7109   2.664   0.412  11.635 -0.1382  0.4747  0.3942
  478TMC3    C4 7110   2.795   0.194  11.514 -0.8118 -0.1127 -0.6450
  478TMC3    C5 7111   2.712   0.280  11.439 -0.5653 -0.9025  0.3243
  478TMC3    C6 7112   2.653   0.397  11.497 -0.3124 -0.2776 -0.1415
  478TMC3     C 7113   2.905   0.153  11.726  0.5260  0.1325  0.3964
  478TMC3     O 7114   2.967   0.066  11.669  0.2823 -0.3738  0.3083
  478TMC3     H 7115   2.716   0.321  11.809  0.2037  0.0468 -0.1932
  478TMC3    H1 7116   2.835   0.111  11.457 -1.5916 -1.2746  0.4896
  478TMC3    H2 7117   2.593   0.471  11.446  0.3633  0.8563  0.7158
  478TMC3    C7 7118   2.714   0.254  11.300  0.6178 -0.0217 -0.0839
  478TMC3    C8 7119   2.548   0.463  11.714  0.2343  0.5745  0.6467
  478TMC3    O1 7120   2.770   0.155  11.252 -0.1737 -1.1654 -0.0481
  478TMC3    O2 7121   2.502   0.385  11.793  0.4414 -0.0447  0.2084
  479MPD2     C 7122   1.839   2.328  15.240  0.4654 -0.1085  0.2975
  479MPD2    C1 7123   1.811   2.305  15.372 -0.2542  0.0497 -0.1377
  479MPD2    C2 7124   1.889   2.363  15.469 -0.0373  0.0812 -0.2134
  479MPD2    C3 7125   1.987   2.458  15.441  0.5619  0.1282  0.1591
  479MPD2    C4 7126   2.009   2.490  15.309  0.3548  0.1001  0.1422
  479MPD2    C5 7127   1.946   2.413  15.215 -0.0329  0.7423 -0.8088
  479MPD2     H 7128   1.866   2.339  15.572 -0.7235 -0.2361 -0.4356
  479MPD2    H1 7129   2.087   2.558  15.276 -0.2338  1.6073  1.8420
  479MPD2    H2 7130   1.776   2.292  15.159 -0.5364  0.9518  0.6041
  479MPD2    H3 7131   1.962   2.449  15.114  1.1381  0.6796 -0.6478
  479MPD2     N 7132   2.057   2.545  15.527 -0.0568 -0.3475 -0.5128
  479MPD2    H5 7133   2.142   2.584  15.488  1.6851 -1.3639  2.2968
  479MPD2    N1 7134   1.698   2.224  15.399 -0.1456  0.2040  0.0604
  479MPD2    H7 7135   1.637   2.197  15.322 -0.2696 -2.4784  1.0927
  480TMC3    C1 7136   1.747   2.507  15.865  0.3318 -0.2590 -0.4425
  480TMC3    C2 7137   1.641   2.525  15.778  0.0655  0.0318 -0.2259
  480TMC3    C3 7138   1.668   2.584  15.659  0.6879 -0.2518 -0.2974
  480TMC3    C4 7139   1.875   2.528  15.822  0.2581  0.5527  0.2159
  480TMC3    C5 7140   1.897   2.568  15.699  0.0394 -1.1291 -0.7024
  480TMC3    C6 7141   1.794   2.608  15.620 -0.7058  0.7047  0.6411
  480TMC3     C 7142   1.732   2.415  15.985 -0.1178 -0.3258  0.9561
  480TMC3     O 7143   1.660   2.322  15.991  0.1549  0.0148 -0.4026
  480TMC3     H 7144   1.541   2.501  15.811  0.6711  0.2274  1.7587
  480TMC3    H1 7145   1.964   2.484  15.865  1.5500  0.1395 -2.8751
  480TMC3    H2 7146   1.817   2.646  15.521 -0.1687 -0.9749  0.1264
  480TMC3    C7 7147   2.028   2.579  15.654 -0.7345  0.5386  0.4852
  480TMC3    C8 7148   1.581   2.553  15.549 -0.0697  0.5151  0.1951
  480TMC3    O1 7149   2.106   2.625  15.736  0.3967 -0.2251  0.9428
  480TMC3    O2 7150   1.503   2.462  15.567  0.1675 -0.2226 -0.2988
  481MPD2     C 7151   3.788   1.427  14.835 -0.0000 -1.0966  0.3010
  481MPD2    C1 7152   3.651   1.464  14.847  0.3013 -0.9014 -0.3601
  481MPD2    C2 7153   3.588   1.453  14.972 -0.1067  0.1126  0.1894
  481MPD2    C3 7154   3.662   1.398  15.081  0.9934  0.0545  0.3979
  481MPD2    C4 7155   3.796   1.369  15.068 -0.6624 -0.1916  0.6116
  481MPD2    C5 7156   3.857   1.385  14.945  0.1013  0.4631  0.0811
  481MPD2     H 7157   3.490   1.496  14.991 -0.0694 -0.5352  1.8278
  481MPD2    H1 7158   3.864   1.328  15.141 -0.9131 -0.5380  0.6517
  481MPD2    H2 7159   3.839   1.442  14.741  1.8643 -1.3953  1.2580
  481MPD2    H3 7160   3.961   1.358  14.935 -0.1631 -1.3006  2.0798
  481MPD2     N 7161   3.618   1.370  15.215 -0.0005  0.3809 -0.3416
  481MPD2    H5 7162   3.690   1.335  15.277  0.9522 -0.0000 -1.6526
  481MPD2    N1 7163   3.592   1.538  14.741 -0.2257 -0.1060 -0.3415
  481MPD2    H7 7164   3.645   1.548  14.655 -0.8857  1.1052 -0.6076
  482TMC3    C1 7165   3.441   1.685  14.627  0.0311  0.2268 -0.2299
  482TMC3    C2 7166   3.315   1.734  14.595  0.2752  0.4253 -0.5120
  482TMC3    C3 7167   3.287   1.796  14.476 -0.4416 -0.1573 -0.4220
  482TMC3    C4 7168   3.546   1.724  14.547  0.8388  0.5596 -0.1021
  482TMC3    C5 7169   3.520   1.771  14.419 -0.1694  0.1152 -0.6818
  482TMC3    C6 7170   3.389   1.806  14.386 -0.7004 -0.4684  0.0604
  482TMC3     C 7171   3.467   1.585  14.736 -0.3259 -0.1269  0.4439
  482TMC3     O 7172   3.373   1.563  14.808 -0.3421  0.0821 -0.2767
  482TMC3     H 7173   3.236   1.708  14.664  1.3479 -1.9209 -0.1434
  482TMC3    H1 7174   3.648   1.716  14.581  0.3477 -1.3875  0.9226
  482TMC3    H2 7175   3.368   1.837  14.284  1.4653 -2.2728 -0.9290
  482TMC3    C7 7176   3.626   1.768  14.309  0.3047  0.1961  0.6000
  482TMC3    C8 7177   3.165   1.730  14.410 -0.0830 -0.1455  1.3962
  482TMC3    O1 7178   3.735   1.724  14.348 -0.0793  0.0500 -0.1078
  482TMC3    O2 7179   3.146   1.611  14.448  0.0037 -0.0089  0.0086
  483TMC3    C1 7180   0.553   0.265   0.182  0.0093  0.2917  0.1922
  483TMC3    C2 7181   0.535   0.352   0.080 -0.0828  0.6205  0.1096
  483TMC3    C3 7182   0.627   0.457   0.071  0.3224 -0.2540 -0.3052
  483TMC3    C4 7183   0.657   0.285   0.270  0.0027  0.0719 -0.1105
  483TMC3    C5 7184   0.734   0.395   0.264 -0.1890 -0.1797  0.7306
  483TMC3    C6 7185   0.720   0.489   0.169 -0.0292 -0.4960  0.2504
  483TMC3     C 7186   0.484   0.140   0.166  0.7541 -0.2170 -0.8425
  483TMC3     O 7187   0.444   0.119   0.052  0.3232 -0.6936  0.0595
  483TMC3     H 7188   0.463   0.337   0.000 -1.0412 -1.8193  1.4059
  483TMC3    H1 7189   0.689   0.207   0.338  1.6630  2.1635  1.4899
  483TMC3    H2 7190   0.760   0.589   0.176 -1.1189  0.1335 -2.7992
  483TMC3    C7 7191   0.819   0.421   0.373 -0.0923 -0.2833 -0.1180
  483TMC3    C8 7192   0.588   0.576  17.698 -0.6085  0.6433 -0.0893
  483TMC3    O1 7193   0.896   0.511   0.348 -0.0399 -0.5796  0.3004
  483TMC3    O2 7194   0.479   0.567  17.642  0.9590  0.1713 -0.7385
  484MPD2     C 7195   3.612   3.691  12.581 -0.0694 -0.0777  0.4410
  484MPD2    C1 7196   3.701   3.610  12.639  0.2867  0.6432 -0.1986
  484MPD2    C2 7197   3.835   3.613  12.606 -0.5255 -0.3664  0.9133
  484MPD2    C3 7198   3.878   3.701  12.503  0.7103  0.6904 -0.7474
  484MPD2    C4 7199   3.784   3.786  12.447 -0.1103  0.8601  0.4305
  484MPD2    C5 7200   3.653   3.773  12.482  0.1991 -0.3237  0.2637
  484MPD2     H 7201   3.900   3.547  12.662  2.3409  0.9232 -0.9004
  484MPD2    H1 7202   3.807   3.856  12.368 -0.2281 -1.8868 -2.0539
  484MPD2    H2 7203   3.506   3.683  12.600 -0.1589 -0.0850 -0.0589
  484MPD2    H3 7204   3.579   3.842  12.444 -0.0151  0.5120  2.1651
  484MPD2     N 7205   4.013   3.713  12.468  0.1534 -0.6647  0.7677
  484MPD2    H5 7206   4.048   3.799  12.429 -0.9523 -0.6967 -0.2968
  484MPD2    N1 7207   3.639   3.523  12.737  0.2578 -0.0195 -0.1886
  484MPD2    H7 7208   3.539   3.532  12.750  0.3614 -1.6075  1.8867
  485TMC3    C1 7209   4.240   3.656  12.480  0.0724  0.6673 -0.6938
  485TMC3    C2 7210   4.334   3.601  12.554  0.1030  0.0570 -0.8190
  485TMC3    C3 7211   4.460   3.651  12.547 -0.0458 -0.0611  0.3184
  485TMC3    C4 7212   4.265   3.758  12.393 -0.1538  0.2980 -0.1079
  485TMC3    C5 7213   4.398   3.810  12.387 -0.1601 -0.3624 -0.6688
  485TMC3    C6 7214   4.493   3.755  12.469  0.0717  0.1784 -0.3540
  485TMC3     C 7215   4.105   3.617  12.508  0.1599  0.3358  0.0979
  485TMC3     O 7216   4.088   3.498  12.535  0.2342  0.2773  0.9974
  485TMC3     H 7217   4.309   3.522  12.623  1.5462  0.7915  0.5441
  485TMC3    H1 7218   4.194   3.798  12.321  0.6775  1.7416 -0.1142
  485TMC3    H2 7219   4.595   3.786  12.450  0.2002  1.4232  2.3939
  485TMC3    C7 7220   4.457   3.823  12.256 -0.3896 -0.7310 -0.6365
  485TMC3    C8 7221   4.578   3.563  12.550 -0.1400 -0.3091 -0.7053
  485TMC3    O1 7222   4.419   3.910  12.176  0.0784  0.1938  0.5631
  485TMC3    O2 7223   4.655   3.578  12.458  0.7107  0.0714  0.2536
  486MPD2     C 7224   1.500   2.365  12.922  0.0723 -0.4296 -0.5069
  486MPD2    C1 7225   1.372   2.342  12.875  0.6700  0.1383  0.3037
  486MPD2    C2 7226   1.299   2.445  12.824 -0.3819  0.1288 -0.5026
  486MPD2    C3 7227   1.345   2.568  12.803  0.2319 -0.1858  0.0398
  486MPD2    C4 7228   1.472   2.593  12.852  0.1626  0.6948 -0.0079
  486MPD2    C5 7229   1.544   2.495  12.914 -0.0393 -0.1565 -0.0557
  486MPD2     H 7230   1.202   2.424  12.780 -0.5828 -1.1559  0.5250
  486MPD2    H1 7231   1.518   2.691  12.841 -0.5386  1.1202  0.8575
  486MPD2    H2 7232   1.565   2.285  12.955 -1.2960 -0.9214  0.9743
  486MPD2    H3 7233   1.645   2.515  12.946  0.4456  1.2286 -2.4366
  486MPD2     N 7234   1.268   2.671  12.745  0.8030 -0.0976 -0.7801
  486MPD2    H5 7235   1.178   2.634  12.716  0.4647  0.8129 -0.9017
  486MPD2    N1 7236   1.325   2.217  12.905  0.4828 -0.1289 -0.0307
  486MPD2    H7 7237   1.383   2.157  12.963  2.2700  0.7266 -0.9205
  487TMC3    C1 7238   1.157   2.034  12.935  0.3551  0.5230 -1.1972
  487TMC3    C2 7239   1.034   1.979  12.903 -0.0061 -0.4664  0.6307
  487TMC3    C3 7240   0.996   1.855  12.948  0.1976  0.0170 -0.5539
  487TMC3    C4 7241   1.244   1.973  13.019 -0.1461 -0.3286 -0.2907
  487TMC3    C5 7242   1.193   1.852  13.066  0.8306  0.4632  0.1044
  487TMC3    C6 7243   1.078   1.786  13.036 -0.4022 -0.7840  0.0918
  487TMC3     C 7244   1.198   2.163  12.878  0.0472  0.1088  0.0010
  487TMC3     O 7245   1.105   2.230  12.833  0.1618  0.2456 -0.4791
  487TMC3     H 7246   0.966   2.039  12.844  1.2710  0.8451  0.5022
  487TMC3    H1 7247   1.329   2.021  13.066 -0.5500 -0.0458  0.1416
  487TMC3    H2 7248   1.072   1.682  13.065 -1.8758 -0.0616  2.3688
  487TMC3    C7 7249   1.219   1.832  13.206 -0.3345 -0.2848  0.4590
  487TMC3    C8 7250   0.856   1.838  13.001 -0.0866  0.6709 -0.7031
  487TMC3    O1 7251   1.327   1.856  13.251  0.1341  0.2686  0.7073
  487TMC3    O2 7252   0.866   1.771  13.102 -0.2694  0.1285  0.1859
  488MPD2     C 7253   1.269   4.120  16.383  0.5383 -0.5288  0.7513
  488MPD2    C1 7254   1.292   4.254  16.387 -0.2614  0.5541  0.1470
  488MPD2    C2 7255   1.304   4.323  16.504 -0.6388  0.3838 -0.7700
  488MPD2    C3 7256   1.278   4.265  16.625 -0.1572  0.0100  0.1155
  488MPD2    C4 7257   1.255   4.133  16.624  0.4711 -0.8770 -0.1679
  488MPD2    C5 7258   1.255   4.064  16.505 -0.6333  0.1580 -0.9999
  488MPD2     H 7259   1.328   4.429  16.509 -1.2930  0.5828 -2.0147
  488MPD2    H1 7260   1.234   4.078  16.715  0.4479 -0.4241  0.0979
  488MPD2    H2 7261   1.247   4.073  16.287  0.5565  0.0366  0.4718
  488MPD2    H3 7262   1.231   3.958  16.515 -1.1515  0.4268  0.6524
  488MPD2     N 7263   1.254   4.350  16.740 -0.6549  0.4699  0.1562
  488MPD2    H5 7264   1.249   4.449  16.715  2.2691  0.6084  0.1239
  488MPD2    N1 7265   1.305   4.333  16.267 -0.3356  0.0328  0.0906
  488MPD2    H7 7266   1.305   4.432  16.289  0.9637  0.0637 -0.0354
  489TMC3    C1 7267   1.160   4.420  16.937  0.1668  0.1168  0.4924
  489TMC3    C2 7268   1.096   4.526  16.866  0.8012 -0.8209 -0.1072
  489TMC3    C3 7269   1.076   4.647  16.927  0.5956  1.1312  0.4654
  489TMC3    C4 7270   1.210   4.439  17.063  0.2771  0.2652  0.0474
  489TMC3    C5 7271   1.181   4.559  17.123 -0.2519  0.1071 -0.2287
  489TMC3    C6 7272   1.115   4.664  17.060  0.2052  0.7750 -0.2652
  489TMC3     C 7273   1.205   4.312  16.859  0.5952 -0.3285 -0.1997
  489TMC3     O 7274   1.175   4.198  16.901 -0.2553 -0.0046 -0.0019
  489TMC3     H 7275   1.050   4.515  16.769 -0.1249 -1.2565  0.3761
  489TMC3    H1 7276   1.254   4.355  17.117 -0.1250 -0.5811 -0.9404
  489TMC3    H2 7277   1.120   0.037  17.103 -2.8282  0.9905 -0.3845
  489TMC3    C7 7278   1.254   4.600  17.240  0.1175  0.1857 -0.5253
  489TMC3    C8 7279   1.120   0.018  16.839  0.2820 -0.1503  0.0330
  489TMC3    O1 7280   1.215   4.703  17.292  0.7325  0.6009  0.5388
  489TMC3    O2 7281   1.195   4.692  16.751 -0.6103  0.4640 -0.4723
  490MPD2     C 7282   2.115   3.712  17.242 -0.3874  0.6637 -0.1890
  490MPD2    C1 7283   2.187   3.591  17.259  0.0686  0.2813 -0.7523
  490MPD2    C2 7284   2.322   3.588  17.288 -0.2249  0.4029 -0.3644
  490MPD2    C3 7285   2.380   3.711  17.304 -0.6326  0.4906 -0.7249
  490MPD2    C4 7286   2.312   3.830  17.302  0.1820 -0.2931  0.2871
  490MPD2    C5 7287   2.182   3.830  17.267  0.0911  0.3766  0.0999
  490MPD2     H 7288   2.365   3.489  17.288  1.4353  1.1295 -0.0067
  490MPD2    H1 7289   2.361   3.924  17.325  0.3840 -1.4869  4.6833
  490MPD2    H2 7290   2.012   3.708  17.208 -0.6713  0.7770  0.6791
  490MPD2    H3 7291   2.124   3.921  17.255  1.5716  1.7452  3.6045
  490MPD2     N 7292   2.521   3.729  17.329 -0.0245  0.1691 -0.8514
  490MPD2    H5 7293   2.563   3.821  17.317 -2.7129  1.4698 -0.2831
  490MPD2    N1 7294   2.132   3.460  17.239  0.3628  0.0512 -0.1543
  490MPD2    H7 7295   2.198   3.387  17.266  0.3724 -0.2110 -0.8735
  491TMC3    C1 7296   1.963   3.302  17.258  0.6079 -0.0588 -0.2151
  491TMC3    C2 7297   2.038   3.237  17.350 -0.5163  0.1649 -0.0704
  491TMC3    C3 7298   1.996   3.114  17.374  0.5348  0.2768  0.1333
  491TMC3    C4 7299   1.857   3.251  17.183  0.9216 -0.5331  0.0023
  491TMC3    C5 7300   1.816   3.128  17.213 -0.5951  0.4983 -0.0492
  491TMC3    C6 7301   1.885   3.053  17.310 -0.5065 -1.3418  0.3524
  491TMC3     C 7302   1.998   3.437  17.225 -0.2478  0.1733 -0.0588
  491TMC3     O 7303   1.914   3.513  17.174 -0.0161  0.3001  0.2691
  491TMC3     H 7304   2.113   3.287  17.410 -0.7260 -1.1860  1.3162
  491TMC3    H1 7305   1.812   3.314  17.107 -0.7950  0.0763  1.5145
  491TMC3    H2 7306   1.849   2.953  17.331  0.3430 -1.5735  0.7100
  491TMC3    C7 7307   1.715   3.058  17.134 -0.4758 -0.4740 -0.3866
  491TMC3    C8 7308   2.078   3.024  17.456  0.0270 -0.5600  0.5391
  491TMC3    O1 7309   1.681   2.948  17.172 -0.2888 -0.1067 -0.1122
  491TMC3    O2 7310   2.172   3.076  17.521  0.1534 -0.2500 -0.1272
  492MPD2     C 7311   2.869   3.431  11.399 -0.4874 -0.7004  0.3949
  492MPD2    C1 7312   2.731   3.434  11.364 -0.0342  0.5323  0.4722
  492MPD2    C2 7313   2.629   3.385  11.444  0.0748 -0.4626  0.4631
  492MPD2    C3 7314   2.673   3.342  11.567  0.7581 -0.4060  0.1938
  492MPD2    C4 7315   2.807   3.335  11.602  0.0640  0.8377  0.1005
  492MPD2    C5 7316   2.906   3.372  11.516 -0.2082  0.1860 -0.4724
  492MPD2     H 7317   2.527   3.382  11.408 -0.0200 -1.3364  0.8026
  492MPD2    H1 7318   2.837   3.287  11.695 -0.9341  1.5691  0.7894
  492MPD2    H2 7319   2.944   3.470  11.331  0.6499  0.3950  2.2769
  492MPD2    H3 7320   3.005   3.366  11.560  0.3237  3.0156 -1.2973
  492MPD2     N 7321   2.588   3.282  11.658 -0.1216  0.0498  0.5475
  492MPD2    H5 7322   2.625   3.250  11.747  0.9073 -0.3926 -0.0416
  492MPD2    N1 7323   2.705   3.478  11.234 -0.1425 -0.5107 -0.3358
  492MPD2    H7 7324   2.792   3.512  11.195  0.4196  0.4927  1.7726
  493TMC3    C1 7325   2.598   3.532  11.030  0.9707 -1.0781  0.2888
  493TMC3    C2 7326   2.691   3.626  11.015 -0.1010 -0.5480  1.0808
  493TMC3    C3 7327   2.696   3.677  10.889 -0.0009 -0.3281 -0.3364
  493TMC3    C4 7328   2.512   3.491  10.931  0.2725  0.3402  0.6644
  493TMC3    C5 7329   2.516   3.548  10.808 -0.4102 -0.0779 -0.2967
  493TMC3    C6 7330   2.611   3.642  10.792 -0.4310 -0.3405 -0.2441
  493TMC3     C 7331   2.591   3.465  11.161  0.1963  0.0127  0.0067
  493TMC3     O 7332   2.492   3.396  11.186  0.2405  0.3044  0.3869
  493TMC3     H 7333   2.735   3.674  11.102 -2.0462  0.0783  1.7084
  493TMC3    H1 7334   2.450   3.406  10.956 -1.4652  1.2756 -0.4845
  493TMC3    H2 7335   2.611   3.693  10.697 -0.9527 -0.4603 -0.3094
  493TMC3    C7 7336   2.438   3.505  10.692 -0.9592 -0.3966  0.1684
  493TMC3    C8 7337   2.784   3.790  10.864 -0.3659  0.0866  0.5401
  493TMC3    O1 7338   2.457   3.555  10.580  0.4472  0.2952 -0.6039
  493TMC3    O2 7339   2.826   3.852  10.961 -0.7688  0.1475  0.1652
  494TMC3    C1 7340   3.909   0.725   0.688  0.1410 -0.4976 -0.4656
  494TMC3    C2 7341   3.968   0.604   0.712 -0.4420  0.3418  0.4782
  494TMC3    C3 7342   3.929   0.498   0.642  0.3379  0.3314 -0.7349
  494TMC3    C4 7343   3.829   0.746   0.583  0.2325  0.0286 -0.1159
  494TMC3    C5 7344   3.799   0.633   0.514  0.4909  0.5960 -0.0855
  494TMC3    C6 7345   3.841   0.513   0.545  0.0131 -0.6212  0.1544
  494TMC3     C 7346   3.918   0.824   0.793  0.3313  0.0370 -0.2158
  494TMC3     O 7347   4.008   0.808   0.875  0.1705 -0.4295 -0.6857
  494TMC3     H 7348   4.049   0.603   0.784 -1.1767  0.7088  1.3157
  494TMC3    H1 7349   3.817   0.847   0.546  1.9014  0.1802 -0.2383
  494TMC3    H2 7350   3.806   0.431   0.484 -1.0275  0.3920 -0.6207
  494TMC3    C7 7351   3.733   0.650   0.388  0.0291  0.0417  0.1045
  494TMC3    C8 7352   4.003   0.374   0.642  0.1760 -0.6618 -0.1033
  494TMC3    O1 7353   3.757   0.561   0.312  0.2938 -0.1134  0.1615
  494TMC3    O2 7354   4.124   0.382   0.661 -0.6069  0.3066 -0.2616
  495TMC3    C1 7355   2.057   2.448  14.756  0.4620 -0.6633  0.1189
  495TMC3    C2 7356   1.975   2.426  14.646 -0.0766  0.2236 -0.4279
  495TMC3    C3 7357   1.851   2.483  14.630 -0.3764 -1.2957 -0.3790
  495TMC3    C4 7358   2.017   2.539  14.850 -0.2746 -1.3434  0.8665
  495TMC3    C5 7359   1.889   2.583  14.836  1.2620  0.2771  0.2308
  495TMC3    C6 7360   1.807   2.562  14.728  0.5477  0.1002  0.0008
  495TMC3     C 7361   2.143   2.340  14.813  0.8673 -0.0220  0.0605
  495TMC3     O 7362   2.181   2.360  14.928 -0.6888  0.1677 -0.4519
  495TMC3     H 7363   2.015   2.365  14.567 -0.0710 -2.3518  1.5690
  495TMC3    H1 7364   2.076   2.558  14.939  0.5875  0.9058 -0.1911
  495TMC3    H2 7365   1.713   2.615  14.719  0.0020 -0.9977 -0.7548
  495TMC3    C7 7366   1.821   2.618  14.961  0.3460  0.1886  0.2617
  495TMC3    C8 7367   1.739   2.415  14.572  0.2165 -0.0824 -0.4672
  495TMC3    O1 7368   1.891   2.677  15.041  0.2210  0.0295  0.3937
  495TMC3    O2 7369   1.639   2.408  14.644  0.5362  0.0195 -0.0209
  496MPD2     C 7370   3.609   2.092  15.417  0.3110 -0.2205  0.3213
  496MPD2    C1 7371   3.686   2.025  15.517  0.0901 -0.6660 -0.8046
  496MPD2    C2 7372   3.625   1.987  15.635 -0.5583 -0.2892  0.1965
  496MPD2    C3 7373   3.491   2.016  15.658  0.2387 -0.0136  0.1639
  496MPD2    C4 7374   3.420   2.078  15.560 -0.5644 -0.3207  0.1817
  496MPD2    C5 7375   3.478   2.107  15.441  0.0018 -0.3782  0.2393
  496MPD2     H 7376   3.678   1.923  15.704  0.3912  1.9923  1.5914
  496MPD2    H1 7377   3.314   2.103  15.561 -0.4263  0.3110 -2.1352
  496MPD2    H2 7378   3.639   2.113  15.315  2.1295  0.6388  1.0314
  496MPD2    H3 7379   3.413   2.160  15.372 -0.1413 -0.8897 -0.0211
  496MPD2     N 7380   3.423   1.979  15.773  0.1524 -0.3157 -0.2475
  496MPD2    H5 7381   3.323   1.995  15.782 -0.0190 -0.3389 -2.1503
  496MPD2    N1 7382   3.828   2.003  15.495 -0.5856  0.7937 -0.8312
  496MPD2    H7 7383   3.859   2.039  15.406  0.2732  0.0643 -0.8167
  497TMC3    C1 7384   3.390   1.916  16.003  0.6408  0.1911 -0.5717
  497TMC3    C2 7385   3.258   1.949  15.983  0.0352 -0.3989 -0.3534
  497TMC3    C3 7386   3.169   1.929  16.084  0.3585 -0.0764 -0.1032
  497TMC3    C4 7387   3.436   1.867  16.124  0.6386  0.3438  0.3154
  497TMC3    C5 7388   3.344   1.843  16.219  0.1478 -0.2378 -0.6089
  497TMC3    C6 7389   3.206   1.872  16.203 -0.0028 -0.5221 -0.6765
  497TMC3     C 7390   3.480   1.937  15.892  0.4118  0.2129 -0.2178
  497TMC3     O 7391   3.596   1.902  15.911  0.5518  0.5884 -0.2942
  497TMC3     H 7392   3.215   1.980  15.889 -0.1137 -0.2436 -0.2340
  497TMC3    H1 7393   3.533   1.819  16.129  0.1696 -0.7376 -0.9769
  497TMC3    H2 7394   3.135   1.859  16.284  2.2001 -2.3373  0.9965
  497TMC3    C7 7395   3.388   1.839  16.356  0.2838  0.0568  1.3386
  497TMC3    C8 7396   3.034   1.965  16.076  0.1179  0.6102  0.2057
  497TMC3    O1 7397   3.316   1.779  16.432 -0.5127 -0.3312  0.5486
  497TMC3    O2 7398   2.959   1.918  16.155  0.2296  0.3851 -0.0031
  498MPD2     C 7399   4.189   3.329   9.921  0.2733  0.1434  0.1032
  498MPD2    C1 7400   4.171   3.364  10.058  0.8102 -0.3042  0.5593
  498MPD2    C2 7401   4.059   3.323  10.120 -0.3955 -0.0970 -0.3164
  498MPD2    C3 7402   3.959   3.253  10.062 -0.4912  0.2573  0.3189
  498MPD2    C4 7403   3.971   3.226   9.923 -0.8717 -0.5304  0.3975
  498MPD2    C5 7404   4.090   3.268   9.856  0.2594  0.2891 -0.0478
  498MPD2     H 7405   4.045   3.338  10.227  0.1623  1.4451 -0.4736
  498MPD2    H1 7406   3.895   3.178   9.863 -1.5659  1.7143 -0.5363
  498MPD2    H2 7407   4.276   3.349   9.859  0.3101 -0.3220  0.0021
  498MPD2    H3 7408   4.109   3.245   9.752  1.2905 -0.6195  0.3344
  498MPD2     N 7409   3.851   3.204  10.144 -0.3480  0.8568  0.3333
  498MPD2    H5 7410   3.850   3.223  10.244  1.1056 -0.7630  0.6612
  498MPD2    N1 7411   4.266   3.436  10.137 -0.5857 -0.0645 -0.8343
  498MPD2    H7 7412   4.236   3.452  10.233 -0.5127 -0.4510 -0.7491
  499TMC3    C1 7413   4.474   3.538  10.190 -0.0320  0.3422 -0.2856
  499TMC3    C2 7414   4.422   3.579  10.314 -0.3879 -0.5382  0.4539
  499TMC3    C3 7415   4.502   3.616  10.413  0.4392 -0.1313 -0.7638
  499TMC3    C4 7416   4.603   3.554  10.170 -0.0877 -0.0809  0.0459
  499TMC3    C5 7417   4.680   3.610  10.268  1.2243 -0.0547 -0.1395
  499TMC3    C6 7418   4.633   3.640  10.392 -0.4950  0.2534  0.1256
  499TMC3     C 7419   4.391   3.473  10.089 -0.1082 -0.5211 -0.6448
  499TMC3     O 7420   4.442   3.445   9.987 -0.1392  0.5425  0.0414
  499TMC3     H 7421   4.317   3.587  10.340  0.1800  1.4124  2.1171
  499TMC3    H1 7422   4.644   3.530  10.072 -2.6556 -0.6987 -0.8824
  499TMC3    H2 7423   4.690   3.689  10.470 -1.9212  1.0115  0.7032
  499TMC3    C7 7424   0.088   3.658  10.229  0.0351 -0.4181  0.8073
  499TMC3    C8 7425   4.461   3.573  10.544  0.4850  0.1663  0.3983
  499TMC3    O1 7426   0.113   3.669  10.109  0.2002 -0.3147 -0.2318
  499TMC3    O2 7427   4.342   3.575  10.568  0.2421 -0.2616  0.2947
  500MPD2     C 7428   1.857   0.021  10.948  0.2990 -0.2410 -0.9312
  500MPD2    C1 7429   1.879   0.063  10.820  0.4077  0.3441 -0.2192
  500MPD2    C2 7430   1.771   0.078  10.734 -0.7558  0.5064 -0.6699
  500MPD2    C3 7431   1.642   0.049  10.782 -0.1445  0.3717  0.1946
  500MPD2    C4 7432   1.624   0.033  10.922 -0.1139  0.0890  0.1694
  500MPD2    C5 7433   1.731   0.013  11.000  0.0513  0.0935 -0.3691
  500MPD2     H 7434   1.781   0.102  10.629  0.1670  0.2732 -0.6402
  500MPD2    H1 7435   1.525   0.014  10.961 -0.5334 -1.1325 -1.4360
  500MPD2    H2 7436   1.933   0.008  11.024 -0.9954  0.9469  0.5665
  500MPD2    H3 7437   1.726   0.002  11.108 -1.2627 -1.3217 -0.5625
  500MPD2     N 7438   1.533   0.049  10.696  0.5794  0.0651  0.5326
  500MPD2    H5 7439   1.450   0.035  10.754  1.4644  1.4524  2.1342
  500MPD2    N1 7440   1.998   0.112  10.774  0.6283 -0.0924  0.4587
  500MPD2    H7 7441   1.999   0.162  10.686 -0.0704  0.1549  0.5931
  501TMC3    C1 7442   2.233   0.182  10.783  0.0570 -0.3028  0.0562
  501TMC3    C2 7443   2.225   0.250  10.664 -0.3240 -0.6104  0.0527
  501TMC3    C3 7444   2.337   0.302  10.607 -0.3728  0.2202  0.0457
  501TMC3    C4 7445   2.361   0.151  10.838 -0.2745 -0.3516 -0.4302
  501TMC3    C5 7446   2.469   0.178  10.759  0.1973 -0.4107  0.2616
  501TMC3    C6 7447   2.462   0.259  10.647 -0.7436  0.3169 -0.1112
  501TMC3     C 7448   2.119   0.117  10.845  1.1140 -0.7081 -0.1585
  501TMC3     O 7449   2.136   0.048  10.947 -0.2347  0.2981 -0.5470
  501TMC3     H 7450   2.134   0.305  10.645  0.0961  0.1510  0.2472
  501TMC3    H1 7451   2.379   0.101  10.932  0.0370  0.8225  0.1267
  501TMC3    H2 7452   2.548   0.287  10.588 -0.1971  1.1920  1.0896
  501TMC3    C7 7453   2.592   0.107  10.800  0.2077  0.1208  0.2469
  501TMC3    C8 7454   2.341   0.427  10.535  0.1005  0.5327  0.5469
  501TMC3    O1 7455   2.583   0.025  10.890 -0.1588  0.4305  0.0278
  501TMC3    O2 7456   2.448   0.488  10.543 -0.2720  0.6677  0.3948
  502TMC3    C1 7457   1.094   3.579  15.586  0.0542 -0.1234  0.4093
  502TMC3    C2 7458   1.088   3.708  15.540 -0.5017  0.3277 -0.0936
  502TMC3    C3 7459   1.088   3.737  15.408 -0.6851 -0.9377 -0.1003
  502TMC3    C4 7460   1.118   3.480  15.493 -0.3331  0.5466 -0.5758
  502TMC3    C5 7461   1.139   3.509  15.364  0.4862  0.0257 -0.1622
  502TMC3    C6 7462   1.113   3.634  15.320  0.2577 -0.0131 -0.2447
  502TMC3     C 7463   1.042   3.547  15.712  0.2187 -0.8837  0.9295
  502TMC3     O 7464   0.973   3.633  15.764 -0.5728  0.4953  0.5345
  502TMC3     H 7465   1.078   3.794  15.605  1.4682 -0.1977  0.8998
  502TMC3    H1 7466   1.099   3.374  15.509  0.2574  0.6916  1.0100
  502TMC3    H2 7467   1.121   3.652  15.214 -3.1254  0.1708 -0.4789
  502TMC3    C7 7468   1.074   3.408  15.279  0.4450 -0.2537  0.3106
  502TMC3    C8 7469   1.080   3.875  15.357 -0.0736  0.4070 -0.4769
  502TMC3    O1 7470   1.133   3.304  15.261  0.1556  0.0141  0.4695
  502TMC3    O2 7471   1.131   3.896  15.244  0.1386  0.1153 -0.2771
  503MPD2     C 7472   3.528   3.978  17.160  0.1004  1.0639 -0.0110
  503MPD2    C1 7473   3.585   3.994  17.286 -0.3863  0.4232  0.4021
  503MPD2    C2 7474   3.628   3.883  17.349  0.1515  0.1768  0.4617
  503MPD2    C3 7475   3.636   3.762  17.285  0.5098  0.3381  0.9520
  503MPD2    C4 7476   3.578   3.745  17.164 -0.2814 -0.2009  0.2659
  503MPD2    C5 7477   3.527   3.857  17.097  0.0275 -0.3832 -0.6757
  503MPD2     H 7478   3.663   3.894  17.451  0.1490 -0.6475  0.5462
  503MPD2    H1 7479   3.589   3.655  17.104 -0.0175 -0.3028  0.4726
  503MPD2    H2 7480   3.476   4.059  17.111 -0.4938  1.1753  0.8026
  503MPD2    H3 7481   3.489   3.833  16.999  3.8643  1.5938 -2.6417
  503MPD2     N 7482   3.709   3.650  17.348  0.1032 -0.4021 -0.2979
  503MPD2    H5 7483   3.755   3.684  17.432  2.1567 -1.9016 -0.8056
  503MPD2    N1 7484   3.584   4.114  17.362 -0.0860  0.2927  0.5219
  503MPD2    H7 7485   3.620   4.105  17.457  0.5555  1.2212  0.3710
  504TMC3    C1 7486   3.838   3.455  17.376  0.3983  0.3052  0.3671
  504TMC3    C2 7487   3.864   3.497  17.505 -0.6645 -0.7615 -0.7849
  504TMC3    C3 7488   3.966   3.440  17.571 -0.4862  0.1983  0.6338
  504TMC3    C4 7489   3.900   3.344  17.325 -0.1509  0.3921 -0.3560
  504TMC3    C5 7490   4.007   3.291  17.397  0.1065  0.4992  0.6225
  504TMC3    C6 7491   4.047   3.344  17.513 -0.2367 -0.4581 -0.4760
  504TMC3     C 7492   3.745   3.528  17.291 -0.1161  0.1324  0.1148
  504TMC3     O 7493   3.716   3.488  17.182 -0.1045  0.2592 -0.2287
  504TMC3     H 7494   3.803   3.570  17.558  1.6053 -0.1837  1.0124
  504TMC3    H1 7495   3.881   3.310  17.224 -2.9151 -0.5726  0.5007
  504TMC3    H2 7496   4.138   3.322  17.567 -0.8766 -3.5108 -0.6380
  504TMC3    C7 7497   4.076   3.185  17.332  0.4138  0.8758 -0.0621
  504TMC3    C8 7498   4.008   3.514  17.694  0.3214 -0.5339  0.1448
  504TMC3    O1 7499   4.039   3.166  17.212 -0.1243 -0.0020 -0.5256
  504TMC3    O2 7500   3.974   3.631  17.705 -0.0011  0.0824 -0.0336
  505MPD2     C 7501   3.151   2.631  11.358 -0.1129  0.1101 -0.1337
  505MPD2    C1 7502   3.279   2.575  11.346  0.5336 -0.2923  0.1586
  505MPD2    C2 7503   3.388   2.657  11.376  0.0360  0.2803  0.3136
  505MPD2    C3 7504   3.373   2.784  11.426 -0.0447 -0.4188 -0.1605
  505MPD2    C4 7505   3.245   2.832  11.441  0.6875  0.7817 -0.7945
  505MPD2    C5 7506   3.140   2.756  11.411 -0.8355 -0.1016  1.4824
  505MPD2     H 7507   3.487   2.623  11.346 -0.4065 -0.3960 -0.3650
  505MPD2    H1 7508   3.227   2.929  11.486 -1.3044 -0.1063  0.3040
  505MPD2    H2 7509   3.064   2.571  11.336 -1.2482  1.5312  0.4524
  505MPD2    H3 7510   3.039   2.791  11.426 -0.9756  1.4517 -3.0474
  505MPD2     N 7511   3.485   2.865  11.456 -0.3583  0.4276 -0.8282
  505MPD2    H5 7512   3.576   2.820  11.449 -1.9008 -2.8781 -0.0839
  505MPD2    N1 7513   3.285   2.448  11.292  0.4486 -0.5872  0.3129
  505MPD2    H7 7514   3.198   2.408  11.259  1.3229 -1.5188 -0.8552
  506TMC3    C1 7515   3.400   2.251  11.222 -0.1313  0.0064 -0.0146
  506TMC3    C2 7516   3.341   2.276  11.100  0.4317 -0.0790  0.0536
  506TMC3    C3 7517   3.415   2.246  10.989 -0.1256 -0.1165  0.1547
  506TMC3    C4 7518   3.531   2.207  11.227 -0.2479 -0.6260  0.4197
  506TMC3    C5 7519   3.603   2.186  11.111  0.0739 -0.1986  0.2590
  506TMC3    C6 7520   3.547   2.205  10.990 -0.3220  0.0572  0.1636
  506TMC3     C 7521   3.395   2.369  11.305  0.2534 -0.1972 -0.2022
  506TMC3     O 7522   3.493   2.395  11.372  0.7602  0.2816 -0.2564
  506TMC3     H 7523   3.234   2.286  11.091  0.3144 -0.6042  0.8313
  506TMC3    H1 7524   3.573   2.199  11.326 -1.4414  1.9483  1.1085
  506TMC3    H2 7525   3.612   2.197  10.904  0.5753 -1.7536  1.0064
  506TMC3    C7 7526   3.745   2.236  11.118  0.8179  0.2604 -0.3044
  506TMC3    C8 7527   3.354   2.258  10.860  0.2079  0.0587 -0.2306
  506TMC3    O1 7528   3.819   2.175  11.040 -0.0169 -0.6467 -0.7279
  506TMC3    O2 7529   3.234   2.239  10.845 -0.3526 -0.1447 -0.3934
  507TMC3    C1 7530   4.487   3.455  14.650  0.4582 -0.5588  0.2213
  507TMC3    C2 7531   4.449   3.338  14.583  0.5481  0.0392  0.4631
  507TMC3    C3 7532   4.435   3.352  14.444 -0.2729 -0.2913 -0.6778
  507TMC3    C4 7533   4.523   3.571  14.581  0.0859 -0.3920 -0.0323
  507TMC3    C5 7534   4.523   3.564  14.441  0.1815  0.2842  0.1682
  507TMC3    C6 7535   4.478   3.459  14.370 -1.0208 -0.0963  0.0597
  507TMC3     C 7536   4.414   3.479  14.773  0.9061 -0.3502 -0.1338
  507TMC3     O 7537   4.448   3.581  14.838 -0.3494 -0.2249  0.1950
  507TMC3     H 7538   4.430   3.244  14.634 -0.2551 -0.7499 -1.3169
  507TMC3    H1 7539   4.537   3.661  14.640 -0.1080 -0.9226  0.8293
  507TMC3    H2 7540   4.469   3.460  14.262  0.4465  1.7187 -0.0536
  507TMC3    C7 7541   4.460   3.679  14.371  0.0681 -0.2153  0.0195
  507TMC3    C8 7542   4.290   3.339  14.426 -0.1714  0.0112  0.0399
  507TMC3    O1 7543   4.389   3.645  14.279 -0.1831 -0.5656 -0.4349
  507TMC3    O2 7544   4.241   3.264  14.510 -0.4079  0.2386  0.0922
  508MPD2     C 7545   0.762   0.827  16.187 -0.4209 -0.4425  0.0700
  508MPD2    C1 7546   0.855   0.922  16.223  0.3616 -0.0607 -0.1151
  508MPD2    C2 7547   0.876   1.023  16.133 -0.1275  0.4950  0.1392
  508MPD2    C3 7548   0.801   1.043  16.018 -0.4818  0.5025 -0.0582
  508MPD2    C4 7549   0.690   0.973  16.008  0.4825  0.4620 -0.1079
  508MPD2    C5 7550   0.681   0.861  16.084 -0.6156 -0.3277 -0.6712
  508MPD2     H 7551   0.952   1.099  16.147  0.0277  0.1298  1.3041
  508MPD2    H1 7552   0.614   0.984  15.931 -2.3371 -2.8582  2.2189
  508MPD2    H2 7553   0.719   0.748  16.248  0.1576 -1.2515 -0.5748
  508MPD2    H3 7554   0.592   0.804  16.060 -0.6464  0.3305 -2.1492
  508MPD2     N 7555   0.817   1.160  15.941 -0.0656 -0.3069 -0.1085
  508MPD2    H5 7556   0.889   1.220  15.978 -0.6948  0.5317 -0.2502
  508MPD2    N1 7557   0.924   0.903  16.343 -0.7378  0.8465 -1.6599
  508MPD2    H7 7558   0.897   0.820  16.395 -0.8528  0.8474 -1.7183
  509TMC3    C1 7559   0.650   1.509  15.702  0.4882 -0.8985  0.3863
  509TMC3    C2 7560   0.742   1.594  15.752 -0.0495  0.1278  0.6617
  509TMC3    C3 7561   0.861   1.532  15.800 -0.1762  0.0082  0.2029
  509TMC3    C4 7562   0.668   1.377  15.704  0.6214  0.1561  0.0064
  509TMC3    C5 7563   0.777   1.317  15.770  0.6342  0.5187  0.1922
  509TMC3    C6 7564   0.879   1.393  15.818  0.3980  0.3386  0.3990
  509TMC3     C 7565   0.527   1.555  15.644 -0.4755  0.2366 -0.8199
  509TMC3     O 7566   0.432   1.478  15.666 -0.0263 -0.4396  0.1109
  509TMC3     H 7567   0.732   1.701  15.752  2.4871  0.3655 -0.8254
  509TMC3    H1 7568   0.594   1.310  15.662  0.8452  0.5206 -0.9637
  509TMC3    H2 7569   0.973   1.347  15.847 -0.4559  0.2038  2.9424
  509TMC3    C7 7570   0.753   1.184  15.821  0.3676  0.3458 -0.5559
  509TMC3    C8 7571   0.966   1.609  15.850  0.2108 -0.4985  0.2492
  509TMC3    O1 7572   0.681   1.117  15.751 -0.0416  0.0383 -0.2667
  509TMC3    O2 7573   1.048   1.548  15.914 -0.4163 -0.0538 -0.0296
  510MPD2     C 7574   3.175   2.980  14.826  0.5790 -1.3476  0.2556
  510MPD2    C1 7575   3.230   2.866  14.864 -0.3589  0.0943 -0.0171
  510MPD2    C2 7576   3.352   2.820  14.816 -0.4145  0.1029 -0.1256
  510MPD2    C3 7577   3.407   2.883  14.710 -0.1260 -0.2813  0.3152
  510MPD2    C4 7578   3.349   2.998  14.658 -0.0350  0.1480  0.5302
  510MPD2    C5 7579   3.240   3.051  14.727 -0.7785  0.2455 -0.4740
  510MPD2     H 7580   3.397   2.736  14.867  0.2701 -0.4951 -1.7183
  510MPD2    H1 7581   3.407   3.054  14.585  1.8124  0.5411  2.2813
  510MPD2    H2 7582   3.086   3.012  14.878 -1.0300 -1.9831 -2.1182
  510MPD2    H3 7583   3.201   3.148  14.702 -0.3937  0.5896  0.2820
  510MPD2     N 7584   3.525   2.831  14.660  0.4047 -0.3452  0.2679
  510MPD2    H5 7585   3.554   2.753  14.717  0.7935  1.0165  1.9438
  510MPD2    N1 7586   3.160   2.801  14.966  0.6157  0.5499  0.5069
  510MPD2    H7 7587   3.098   2.854  15.026 -0.4045  1.0843 -1.0110
  511TMC3    C1 7588   3.102   2.611  15.098  0.8742 -0.6734 -0.4585
  511TMC3    C2 7589   3.080   2.681  15.209  0.3374  0.0044 -0.3181
  511TMC3    C3 7590   3.027   2.623  15.313  0.1492 -1.1578 -0.3656
  511TMC3    C4 7591   3.088   2.478  15.105 -0.1155 -0.1054  0.3884
  511TMC3    C5 7592   3.037   2.414  15.216 -0.6911  0.4082  0.4606
  511TMC3    C6 7593   2.991   2.492  15.317 -0.8305  0.4467 -0.7324
  511TMC3     C 7594   3.157   2.667  14.976 -0.6728 -0.2958  0.3100
  511TMC3     O 7595   3.194   2.586  14.888 -0.3705  0.1439  0.2580
  511TMC3     H 7596   3.090   2.789  15.220  2.0505 -0.0834 -1.0474
  511TMC3    H1 7597   3.127   2.411  15.030  0.6149  0.5485  0.1773
  511TMC3    H2 7598   2.918   2.459  15.391  1.1318  1.1182  1.4946
  511TMC3    C7 7599   2.957   2.300  15.185  0.4807 -0.5594  0.4951
  511TMC3    C8 7600   2.977   2.704  15.424  0.0832 -0.8299 -0.1461
  511TMC3    O1 7601   2.933   2.281  15.068 -0.2552 -0.1126 -0.2168
  511TMC3    O2 7602   2.943   2.818  15.400  0.3776 -0.8676 -0.5872
  512TMC3    C1 7603   2.319   2.251  13.406  0.5496  0.2580  0.6919
  512TMC3    C2 7604   2.417   2.188  13.478 -0.1264 -0.3383 -0.0586
  512TMC3    C3 7605   2.402   2.055  13.511  0.2500 -0.3770 -0.0482
  512TMC3    C4 7606   2.209   2.181  13.361  0.3031 -0.4454 -0.2316
  512TMC3    C5 7607   2.205   2.046  13.386  0.1555 -0.1237  0.0256
  512TMC3    C6 7608   2.296   1.980  13.473  0.5396 -0.2087  0.3217
  512TMC3     C 7609   2.328   2.398  13.393  0.1442  1.2206 -0.4481
  512TMC3     O 7610   2.439   2.447  13.399 -0.2048 -0.0469  0.9580
  512TMC3     H 7611   2.495   2.249  13.523  0.6157  0.2746 -2.1779
  512TMC3    H1 7612   2.144   2.231  13.291 -1.1074 -1.0624  0.6411
  512TMC3    H2 7613   2.281   1.882  13.516 -0.1121  0.8120  2.3740
  512TMC3    C7 7614   2.098   1.980  13.317 -0.4133  0.2297  0.2661
  512TMC3    C8 7615   2.458   2.004  13.635 -0.1417 -0.3974 -1.0574
  512TMC3    O1 7616   2.003   2.050  13.282 -0.4322 -0.0312  0.8922
  512TMC3    O2 7617   2.460   1.882  13.649  0.3765 -0.4463  0.1325
  513MPD2     C 7618   3.545   1.358  13.244 -0.3841 -0.1197 -0.3917
  513MPD2    C1 7619   3.565   1.420  13.125 -0.8764 -0.1972 -0.2479
  513MPD2    C2 7620   3.638   1.540  13.124  0.0121  0.4420  0.7661
  513MPD2    C3 7621   3.656   1.609  13.239  0.0495  0.5954 -0.1664
  513MPD2    C4 7622   3.628   1.549  13.359 -0.0474 -0.3737 -0.2051
  513MPD2    C5 7623   3.582   1.422  13.358 -0.6905  0.3110  0.1080
  513MPD2     H 7624   3.662   1.593  13.033 -0.6056  1.4356  1.1862
  513MPD2    H1 7625   3.638   1.595  13.456  0.1396  2.4784 -1.5821
  513MPD2    H2 7626   3.512   1.256  13.256 -2.0293  0.6849  1.8958
  513MPD2    H3 7627   3.557   1.377  13.453  3.4904 -0.8851  0.6685
  513MPD2     N 7628   3.720   1.731  13.231  0.0374  0.2762  0.2720
  513MPD2    H5 7629   3.762   1.754  13.142  0.6925  0.3732  0.6088
  513MPD2    N1 7630   3.535   1.350  13.004  0.4948 -0.2330  0.1918
  513MPD2    H7 7631   3.488   1.260  13.011 -1.8748  1.1087  1.7743
  514TMC3    C1 7632   3.520   1.303  12.773 -0.2704  0.1773 -0.0414
  514TMC3    C2 7633   3.492   1.352  12.645  0.1916  0.0772  0.4795
  514TMC3    C3 7634   3.563   1.317  12.536 -0.1145  0.4735  0.0500
  514TMC3    C4 7635   3.627   1.213  12.780  0.5038 -0.2962  0.1064
  514TMC3    C5 7636   3.699   1.179  12.668 -0.5817 -0.0711  0.1408
  514TMC3    C6 7637   3.664   1.225  12.545  0.2323 -0.4734  0.1882
  514TMC3     C 7638   3.544   1.403  12.874 -0.2937 -0.5444 -0.2584
  514TMC3     O 7639   3.594   1.507  12.829  0.3196  0.0727 -0.3278
  514TMC3     H 7640   3.415   1.427  12.637  0.1100  0.0318  0.8280
  514TMC3    H1 7641   3.663   1.181  12.877 -4.0089 -0.5524  1.7152
  514TMC3    H2 7642   3.724   1.185  12.464  1.8097 -1.2814  1.7350
  514TMC3    C7 7643   3.834   1.221  12.684 -0.2392  0.1979  0.2000
  514TMC3    C8 7644   3.503   1.355  12.408 -0.2801  0.8855  0.2421
  514TMC3    O1 7645   3.923   1.157  12.634 -0.1535 -0.0883  0.2177
  514TMC3    O2 7646   3.378   1.349  12.394 -0.3672 -0.0221  0.5328
  515MPD2     C 7647   2.456   4.117  14.743  0.2141  0.1397  0.6028
  515MPD2    C1 7648   2.463   3.987  14.782 -0.4042 -0.2064  0.5734
  515MPD2    C2 7649   2.493   3.955  14.909  0.0645 -0.7563 -0.3263
  515MPD2    C3 7650   2.539   4.048  14.999 -0.1511  0.1752  0.0025
  515MPD2    C4 7651   2.538   4.179  14.955 -0.8103 -0.1049  0.5591
  515MPD2    C5 7652   2.501   4.216  14.831  0.2678 -0.3031 -0.1404
  515MPD2     H 7653   2.471   3.852  14.934 -2.5774  0.0295  0.6105
  515MPD2    H1 7654   2.585   4.245  15.027  1.4740 -0.0891 -0.9773
  515MPD2    H2 7655   2.417   4.155  14.650  0.1205 -0.1428  0.5272
  515MPD2    H3 7656   2.478   4.320  14.814 -1.3724 -0.6238  0.0573
  515MPD2     N 7657   2.595   4.007  15.124 -0.0394  0.2562  0.3990
  515MPD2    H5 7658   2.640   4.082  15.177  2.2989 -1.1597  0.4143
  515MPD2    N1 7659   2.415   3.882  14.694 -0.0496 -0.3220 -0.0272
  515MPD2    H7 7660   2.417   3.784  14.720  2.0235 -0.2242  0.2244
  516TMC3    C1 7661   2.326   3.764  14.509 -0.5771  0.3514 -1.1787
  516TMC3    C2 7662   2.246   3.768  14.400 -0.4565 -0.1122  0.2469
  516TMC3    C3 7663   2.189   3.648  14.363 -0.1095  0.0856 -0.2268
  516TMC3    C4 7664   2.358   3.654  14.579  0.1505  0.3687  0.3709
  516TMC3    C5 7665   2.295   3.539  14.547  0.6231  0.7368  0.1564
  516TMC3    C6 7666   2.206   3.539  14.437  0.0421  0.1859 -0.0144
  516TMC3     C 7667   2.366   3.892  14.572  1.3650 -0.9995 -0.2407
  516TMC3     O 7668   2.347   3.993  14.506  0.7443  0.2475  0.0764
  516TMC3     H 7669   2.207   3.859  14.356  0.1704  0.0050 -0.0736
  516TMC3    H1 7670   2.428   3.652  14.662 -0.6135  0.2711  1.0082
  516TMC3    H2 7671   2.146   3.450  14.419 -0.4597  0.2864  1.1415
  516TMC3    C7 7672   2.255   3.452  14.658  0.1643  0.3337 -0.4256
  516TMC3    C8 7673   2.098   3.651  14.249 -0.8875 -0.2026  0.4332
  516TMC3    O1 7674   2.277   3.510  14.764  0.0101 -0.4310 -0.1215
  516TMC3    O2 7675   2.033   3.743  14.209  0.2927 -0.4322  0.4368
  517MPD2     C 7676   1.344   0.597  17.039 -0.2921 -0.1111  0.1647
  517MPD2    C1 7677   1.411   0.581  17.159 -0.7196 -0.0617 -0.3508
  517MPD2    C2 7678   1.441   0.692  17.236  0.4921  0.0164  0.3101
  517MPD2    C3 7679   1.378   0.811  17.200 -0.7075 -0.2766 -0.1901
  517MPD2    C4 7680   1.311   0.823  17.084  0.0120  0.4076 -0.1503
  517MPD2    C5 7681   1.294   0.716  17.001 -0.1959 -0.1135 -0.6647
  517MPD2     H 7682   1.504   0.681  17.324  1.4924 -0.7620 -0.5134
  517MPD2    H1 7683   1.245   0.907  17.064 -1.5893 -0.9799 -0.6640
  517MPD2    H2 7684   1.323   0.525  16.961 -0.3521  0.0683  0.0177
  517MPD2    H3 7685   1.234   0.716  16.911  1.2231 -1.2534 -1.6245
  517MPD2     N 7686   1.371   0.913  17.286 -0.0556 -0.1227 -0.3974
  517MPD2    H5 7687   1.317   0.993  17.255  0.4416 -0.0553 -1.0895
  517MPD2    N1 7688   1.456   0.454  17.196  0.2849 -0.2563 -0.3665
  517MPD2    H7 7689   1.533   0.446  17.262  0.1907 -1.9208 -0.4359
  518TMC3    C1 7690   1.496   0.219  17.188 -0.8738  0.2839 -0.4013
  518TMC3    C2 7691   1.497   0.107  17.110 -1.0311  0.3063 -0.4740
  518TMC3    C3 7692   1.572   4.725  17.155 -0.4269 -0.4559  0.5719
  518TMC3    C4 7693   1.566   0.224  17.305  0.1275  0.0882  0.3267
  518TMC3    C5 7694   1.630   0.114  17.345  0.2806 -0.5955 -1.1232
  518TMC3    C6 7695   1.634   4.724  17.275  0.8070 -0.0364  0.5178
  518TMC3     C 7696   1.417   0.335  17.142 -0.2983 -0.3593  0.5085
  518TMC3     O 7697   1.328   0.316  17.064 -1.0161  0.2509 -0.1683
  518TMC3     H 7698   1.426   0.091  17.030 -1.8038 -1.9087  0.6330
  518TMC3    H1 7699   1.570   0.301  17.381  2.5493  0.7463 -0.4826
  518TMC3    H2 7700   1.687   4.635  17.309  0.2635 -0.1670  1.0313
  518TMC3    C7 7701   1.697   0.121  17.479  0.7511 -0.5434  0.5621
  518TMC3    C8 7702   1.602   4.606  17.072  0.6837 -0.1924 -0.6347
  518TMC3    O1 7703   1.656   0.204  17.557 -0.0968  0.6269 -0.6528
  518TMC3    O2 7704   1.668   4.516  17.124  0.1777 -0.1983  0.1294
  519MPD2     C 7705   3.146   3.743  14.545 -0.7138  0.3571  0.7231
  519MPD2    C1 7706   3.165   3.764  14.413  0.3172 -0.9416  0.0158
  519MPD2    C2 7707   3.228   3.670  14.333 -0.5717 -0.2935  0.0999
  519MPD2    C3 7708   3.260   3.548  14.394  0.2993 -0.1372  0.3491
  519MPD2    C4 7709   3.239   3.522  14.526 -0.4830 -0.3104 -0.2802
  519MPD2    C5 7710   3.187   3.624  14.602 -0.1532 -0.1094 -0.2672
  519MPD2     H 7711   3.243   3.683  14.227 -2.3125 -3.2117 -0.5074
  519MPD2    H1 7712   3.263   3.431  14.579  0.9016  1.2788  1.8409
  519MPD2    H2 7713   3.105   3.824  14.605 -0.0767  0.4625  1.0188
  519MPD2    H3 7714   3.174   3.618  14.709  1.6186  1.6791  0.0584
  519MPD2     N 7715   3.326   3.453  14.313  0.7661  0.3950 -0.2746
  519MPD2    H5 7716   3.346   3.481  14.218  1.9967 -4.0520 -1.3587
  519MPD2    N1 7717   3.125   3.891  14.367 -0.3843  0.3739  0.2221
  519MPD2    H7 7718   3.083   3.956  14.432  0.4756 -2.1404  3.2699
  520TMC3    C1 7719   3.413   3.260  14.232  0.0091  0.0590 -0.1670
  520TMC3    C2 7720   3.339   3.295  14.128  0.8070 -0.2054  0.4275
  520TMC3    C3 7721   3.407   3.274  14.005 -0.5552  0.1306  0.6574
  520TMC3    C4 7722   3.524   3.193  14.238  0.2564  0.1967  0.2623
  520TMC3    C5 7723   3.593   3.182  14.120 -0.2422  0.2128  0.8943
  520TMC3    C6 7724   3.540   3.239  14.003 -0.6448 -0.2156 -0.7171
  520TMC3     C 7725   3.383   3.332  14.360 -0.0253  0.0453  0.4177
  520TMC3     O 7726   3.361   3.260  14.462  0.3287 -0.6319  0.5936
  520TMC3     H 7727   3.234   3.319  14.131  0.9913  0.6517 -0.0358
  520TMC3    H1 7728   3.574   3.171  14.331 -0.4470 -1.5908  0.2151
  520TMC3    H2 7729   3.598   3.218  13.914  0.0380  0.1050 -0.3493
  520TMC3    C7 7730   3.734   3.151  14.125 -0.1338  0.1500  0.1557
  520TMC3    C8 7731   3.351   3.346  13.892  0.0726  0.2021  0.4766
  520TMC3    O1 7732   3.756   3.047  14.184 -0.1475  0.1349  0.2620
  520TMC3    O2 7733   3.434   3.374  13.810 -0.4033  0.6246 -0.0163
  521MPD2     C 7734   4.332   1.912  17.308  0.5333 -0.2985 -0.7926
  521MPD2    C1 7735   4.306   1.792  17.244 -0.3285  0.3613 -0.8637
  521MPD2    C2 7736   4.422   1.723  17.205 -0.0066  0.3951  0.5401
  521MPD2    C3 7737   4.545   1.773  17.212  0.2773 -0.3932 -0.2581
  521MPD2    C4 7738   4.564   1.899  17.270  0.0965  0.2373 -0.1028
  521MPD2    C5 7739   4.457   1.959  17.323 -0.0956 -0.2024  0.1034
  521MPD2     H 7740   4.412   1.621  17.170  2.0367  0.1699  0.6144
  521MPD2    H1 7741   4.660   1.947  17.282  0.5910 -1.3114  2.2437
  521MPD2    H2 7742   4.253   1.974  17.350  1.3246  0.5105 -0.5067
  521MPD2    H3 7743   4.467   2.053  17.376  2.0765 -0.3633 -0.0025
  521MPD2     N 7744   4.649   1.704  17.149  0.0480 -0.8113  0.5647
  521MPD2    H5 7745   4.616   1.623  17.099 -1.7234  0.8277 -0.9268
  521MPD2    N1 7746   4.177   1.747  17.229 -0.8605  0.1701  0.1469
  521MPD2    H7 7747   4.108   1.806  17.274  1.0858  2.6794 -0.1844
  522TMC3    C1 7748   0.141   1.647  17.066  0.4180 -0.8020  0.4623
  522TMC3    C2 7749   0.261   1.620  17.121 -0.8917  0.1669  0.5255
  522TMC3    C3 7750   0.331   1.511  17.063 -0.4163 -0.5218 -0.0486
  522TMC3    C4 7751   0.088   1.581  16.966 -0.0754  0.5187  0.1140
  522TMC3    C5 7752   0.157   1.474  16.916  0.1909  0.1443 -0.0235
  522TMC3    C6 7753   0.278   1.433  16.967  0.7409 -0.0832  0.0856
  522TMC3     C 7754   0.059   1.746  17.144 -0.0400  0.3404  0.3673
  522TMC3     O 7755   0.114   1.835  17.209 -0.7917 -0.1249  0.0319
  522TMC3     H 7756   0.301   1.685  17.198  1.4445 -0.6952  0.0169
  522TMC3    H1 7757   4.720   1.620  16.931 -0.0413 -1.2966 -2.0737
  522TMC3    H2 7758   0.334   1.350  16.926  0.2519 -0.4806  0.2207
  522TMC3    C7 7759   0.101   1.395  16.815  0.0848  0.5166 -0.5690
  522TMC3    C8 7760   0.475   1.534  17.063 -0.0393  0.5739  0.1936
  522TMC3    O1 7761   0.173   1.314  16.752 -0.4172  0.0082 -0.2006
  522TMC3    O2 7762   0.513   1.644  17.101 -0.2008  0.3803  0.0749
  523MPD2     C 7763   2.445   1.249  10.220 -0.1053  0.3425 -0.7866
  523MPD2    C1 7764   2.374   1.158  10.140 -0.2253 -0.2686  0.4957
  523MPD2    C2 7765   2.282   1.208  10.047 -0.4259  0.9011  0.5748
  523MPD2    C3 7766   2.260   1.351  10.042  0.4870  1.1976  0.1421
  523MPD2    C4 7767   2.345   1.440  10.112 -0.4840 -0.1543 -0.8085
  523MPD2    C5 7768   2.434   1.384  10.200  0.0871 -0.6701 -0.3714
  523MPD2     H 7769   2.225   1.148   9.977 -0.4838 -0.4657  1.7901
  523MPD2    H1 7770   2.356   1.548  10.100  0.6268 -0.1748  0.0223
  523MPD2    H2 7771   2.522   1.213  10.288 -0.0120  1.2150 -0.4316
  523MPD2    H3 7772   2.501   1.449  10.254 -0.3384 -1.3097  0.9363
  523MPD2     N 7773   2.171   1.413   9.953  0.8628  0.4353 -0.2937
  523MPD2    H5 7774   2.155   1.512   9.968 -2.7925  0.1843 -2.5942
  523MPD2    N1 7775   2.412   1.026  10.154  1.3251 -0.1311 -0.4667
  523MPD2    H7 7776   2.483   1.007  10.224 -0.9317 -0.3986  1.7437
  524TMC3    C1 7777   1.986   1.412   9.796 -0.0703  0.4309  0.3398
  524TMC3    C2 7778   1.936   1.369   9.681 -0.2634  0.0750 -0.3141
  524TMC3    C3 7779   1.809   1.408   9.644  0.5688 -0.2512 -0.2931
  524TMC3    C4 7780   1.921   1.512   9.857  0.0260 -0.3708  0.4226
  524TMC3    C5 7781   1.799   1.569   9.817 -0.3216 -0.8706 -0.1085
  524TMC3    C6 7782   1.738   1.510   9.706  0.1017 -0.5542  0.0958
  524TMC3     C 7783   2.108   1.349   9.849 -0.1489  1.0735  0.7879
  524TMC3     O 7784   2.148   1.249   9.791 -0.2914  0.6019 -0.0084
  524TMC3     H 7785   1.991   1.298   9.620 -1.1947 -0.3166 -0.7104
  524TMC3    H1 7786   1.954   1.545   9.955  2.0997  0.3031 -0.4962
  524TMC3    H2 7787   1.639   1.543   9.679 -0.1612  0.2174  1.9984
  524TMC3    C7 7788   1.723   1.660   9.889 -0.1938  0.4108  0.0125
  524TMC3    C8 7789   1.776   1.389   9.504 -0.0607  0.3815  0.1725
  524TMC3    O1 7790   1.741   1.663  10.009  0.4973 -0.2733  0.0294
  524TMC3    O2 7791   1.877   1.390   9.435 -0.8159 -0.0566 -0.2100
  525MPD2     C 7792   0.004   3.153  14.319 -0.7557  0.6024 -0.2435
  525MPD2    C1 7793   0.105   3.194  14.400  0.5233 -0.0614 -0.3813
  525MPD2    C2 7794   0.172   3.311  14.374  0.2439  0.0983  0.1242
  525MPD2    C3 7795   0.121   3.394  14.275  0.3984 -0.0161  0.2700
  525MPD2    C4 7796   0.021   3.351  14.195  0.1237 -0.5070 -0.0640
  525MPD2    C5 7797   4.686   3.231  14.216  0.0701 -0.2584 -0.2129
  525MPD2     H 7798   0.254   3.344  14.436  0.4614 -0.1738 -0.0213
  525MPD2    H1 7799   4.724   3.416  14.112  1.0716 -0.2409 -0.1281
  525MPD2    H2 7800   4.673   3.061  14.333  1.0840 -0.3459  1.1222
  525MPD2    H3 7801   4.616   3.184  14.148 -0.4715  0.6519 -0.2898
  525MPD2     N 7802   0.162   3.527  14.250  0.4169 -0.4544  0.0960
  525MPD2    H5 7803   0.090   3.589  14.214  2.5499  2.2146  0.3696
  525MPD2    N1 7804   0.145   3.119  14.519 -0.0176 -0.1421 -0.5461
  525MPD2    H7 7805   0.230   3.140  14.569  1.1326 -3.0644 -1.3183
  526TMC3    C1 7806   0.141   2.939  14.670  0.2822  0.1317  1.1296
  526TMC3    C2 7807   0.085   2.901  14.795  0.1687  0.1627  0.5811
  526TMC3    C3 7808   0.166   2.843  14.885  0.0733  0.1169  0.4488
  526TMC3    C4 7809   0.273   2.920  14.650 -0.4524  0.7000  0.1737
  526TMC3    C5 7810   0.346   2.865  14.747 -0.2892  0.5390 -0.3832
  526TMC3    C6 7811   0.302   2.832  14.867  0.1524  0.3932  0.3833
  526TMC3     C 7812   0.070   3.014  14.568  0.6373  0.4009 -0.0776
  526TMC3     O 7813   4.681   2.984  14.556  0.7749  0.2321 -0.1920
  526TMC3     H 7814   4.704   2.915  14.805  0.4637  2.9041  0.0136
  526TMC3    H1 7815   0.309   2.939  14.549 -0.8025 -1.0997 -0.2949
  526TMC3    H2 7816   0.369   2.783  14.937 -0.9458 -1.3106  0.2633
  526TMC3    C7 7817   0.482   2.826  14.722 -0.0407 -0.3036 -0.2257
  526TMC3    C8 7818   0.127   2.824  15.027  0.2809  1.2568 -0.9254
  526TMC3    O1 7819   0.535   2.750  14.804  0.6029  0.0820  0.4047
  526TMC3    O2 7820   0.218   2.788  15.111  0.2430 -0.2967  0.0344
  527MPD2     C 7821   3.812   1.089   1.705 -0.0410  0.4582  0.6094
  527MPD2    C1 7822   3.784   1.173   1.600  0.1012  0.5553  0.0260
  527MPD2    C2 7823   3.866   1.179   1.486 -0.4094  0.3812 -0.4534
  527MPD2    C3 7824   3.966   1.082   1.474 -0.0703  0.5658  0.1890
  527MPD2    C4 7825   3.984   0.984   1.573  0.6311  0.4868  0.2063
  527MPD2    C5 7826   3.901   0.993   1.684  0.0681  0.1233 -0.2112
  527MPD2     H 7827   3.853   1.239   1.397 -2.0127  0.3142 -0.2625
  527MPD2    H1 7828   4.069   0.918   1.570  1.6095  1.7928 -1.2150
  527MPD2    H2 7829   3.766   1.095   1.803 -2.3379 -1.0631 -0.3968
  527MPD2    H3 7830   3.919   0.920   1.762  1.1135  1.0901  0.4479
  527MPD2     N 7831   4.048   1.099   1.357  0.0954  0.5848  0.3468
  527MPD2    H5 7832   4.022   1.174   1.293  0.6341 -0.0154 -0.5689
  527MPD2    N1 7833   3.684   1.276   1.610  0.3153 -0.4024  0.4313
  527MPD2    H7 7834   3.685   1.346   1.537  0.1514 -0.0059  0.8112
  528TMC3    C1 7835   3.528   1.422   1.703 -0.0841 -0.0725 -0.0134
  528TMC3    C2 7836   3.485   1.480   1.816  0.3340  0.6619 -0.3911
  528TMC3    C3 7837   3.427   1.607   1.804 -0.4097  0.1219  0.4242
  528TMC3    C4 7838   3.532   1.483   1.585  0.0121  0.3264 -0.5390
  528TMC3    C5 7839   3.482   1.616   1.578 -0.7216 -0.5286 -0.5124
  528TMC3    C6 7840   3.420   1.680   1.687  0.7051 -0.9501  0.4886
  528TMC3     C 7841   3.608   1.297   1.722 -0.1665 -0.4976  0.0718
  528TMC3     O 7842   3.589   1.224   1.820  0.0467  0.0121  0.1315
  528TMC3     H 7843   3.480   1.417   1.904  1.3220  1.5068  0.2746
  528TMC3    H1 7844   3.555   1.433   1.492  3.5173  2.9059 -1.0792
  528TMC3    H2 7845   3.384   1.782   1.680 -3.2344 -2.3540  0.3129
  528TMC3    C7 7846   3.459   1.676   1.446  0.1539 -0.1917 -0.6509
  528TMC3    C8 7847   3.356   1.670   1.918 -0.2763  0.2623 -0.5132
  528TMC3    O1 7848   3.518   1.628   1.351  0.1867 -0.0232  0.1645
  528TMC3    O2 7849   3.265   1.746   1.882  0.0209  0.5220  0.0194
  529MPD2     C 7850   0.458   3.962   0.253  0.0029  0.6751  0.4725
  529MPD2    C1 7851   0.566   4.035   0.296 -0.0399  0.0119  0.2750
  529MPD2    C2 7852   0.598   4.157   0.232  0.1029 -0.0286  0.0923
  529MPD2    C3 7853   0.539   4.192   0.114 -0.5859  0.3266 -0.1380
  529MPD2    C4 7854   0.443   4.107   0.069  0.0303  0.1164 -0.1608
  529MPD2    C5 7855   0.402   4.001   0.138  0.0564 -0.2100 -1.0884
  529MPD2     H 7856   0.681   4.210   0.278 -0.2443  0.8751 -0.3256
  529MPD2    H1 7857   0.394   4.126  17.680  1.5850 -0.4002 -1.0704
  529MPD2    H2 7858   0.421   3.868   0.293  0.8593  0.0751 -0.1433
  529MPD2    H3 7859   0.339   3.929   0.088 -2.0703  0.9318 -0.0543
  529MPD2     N 7860   0.565   4.318   0.048  0.4095  1.2343 -0.0037
  529MPD2    H5 7861   0.515   4.331  17.667 -1.0261  1.2253  0.8173
  529MPD2    N1 7862   0.642   3.997   0.413  1.1459 -0.9268  1.0247
  529MPD2    H7 7863   0.724   4.051   0.437  1.2456  0.0876 -1.5731
  530TMC3    C1 7864   0.709   3.864   0.593  0.4858 -0.6806  0.1584
  530TMC3    C2 7865   0.698   3.962   0.686  0.3611 -0.0263 -0.2543
  530TMC3    C3 7866   0.742   3.938   0.813 -0.0932  0.5015 -0.2498
  530TMC3    C4 7867   0.746   3.741   0.630  0.3574  1.1169 -0.1788
  530TMC3    C5 7868   0.784   3.714   0.761  0.8780 -0.2233  0.0213
  530TMC3    C6 7869   0.790   3.812   0.857  0.3689  0.2131  0.0616
  530TMC3     C 7870   0.642   3.875   0.467  0.1558  0.6218 -0.0140
  530TMC3     O 7871   0.611   3.771   0.409  0.3409  0.4351 -0.1529
  530TMC3     H 7872   0.657   4.059   0.663 -1.6218 -1.1393 -1.4691
  530TMC3    H1 7873   0.769   3.674   0.547  0.4042  0.6903  0.1793
  530TMC3    H2 7874   0.833   3.795   0.955 -1.0152  1.0576  0.8225
  530TMC3    C7 7875   0.816   3.571   0.778  0.1498 -0.4571 -0.4965
  530TMC3    C8 7876   0.755   4.052   0.900  0.3823 -0.2069 -0.5385
  530TMC3    O1 7877   0.831   3.501   0.680 -0.4486  0.5206  0.7231
  530TMC3    O2 7878   0.671   4.143   0.888 -0.1726 -0.1133  0.2555
  531MPD2     C 7879   4.183   1.514  12.925  0.0100  0.5259  0.7326
  531MPD2    C1 7880   4.069   1.590  12.906  0.0617 -0.6292 -0.7723
  531MPD2    C2 7881   3.957   1.533  12.851  0.6988 -0.2308 -0.0514
  531MPD2    C3 7882   3.962   1.405  12.802 -0.0772 -0.0311 -0.8893
  531MPD2    C4 7883   4.087   1.342  12.797  0.0127 -0.5950 -0.5594
  531MPD2    C5 7884   4.194   1.394  12.865  0.0393 -0.2956 -0.8217
  531MPD2     H 7885   3.860   1.581  12.842  0.1904 -1.0551  0.9126
  531MPD2    H1 7886   4.098   1.242  12.758 -1.1053 -1.0220  0.2240
  531MPD2    H2 7887   4.265   1.548  12.987  2.4706  0.1156 -2.3080
  531MPD2    H3 7888   4.288   1.341  12.874 -0.3632 -0.2174  3.5084
  531MPD2     N 7889   3.845   1.347  12.740  0.3429 -0.1685 -0.0592
  531MPD2    H5 7890   3.757   1.398  12.749 -0.6905 -1.6110 -2.0218
  531MPD2    N1 7891   4.066   1.715  12.969 -0.9307  0.3147 -0.1161
  531MPD2    H7 7892   4.158   1.732  13.010 -0.7567  1.9077 -1.1783
  532TMC3    C1 7893   3.980   1.895  13.080 -1.0700 -0.3545  0.3354
  532TMC3    C2 7894   3.871   1.918  13.147 -0.2684 -0.0678 -0.3895
  532TMC3    C3 7895   3.866   1.906  13.280  0.2204 -0.3858 -0.3247
  532TMC3    C4 7896   4.097   1.875  13.151  0.0960  0.6745  0.0096
  532TMC3    C5 7897   4.087   1.879  13.287  0.3835 -0.0441  0.1955
  532TMC3    C6 7898   3.974   1.894  13.360 -0.2343 -0.1048  1.1509
  532TMC3     C 7899   3.952   1.786  12.990  0.5606  0.8267  0.3398
  532TMC3     O 7900   3.835   1.766  12.960  0.5022 -0.0809  0.1209
  532TMC3     H 7901   3.782   1.928  13.087  1.6189  1.5334 -2.9063
  532TMC3    H1 7902   4.194   1.856  13.104  0.0909 -1.4129  0.8134
  532TMC3    H2 7903   3.976   1.883  13.468  0.6041  0.8297  1.2328
  532TMC3    C7 7904   4.212   1.859  13.357 -0.5483 -0.3314 -0.0737
  532TMC3    C8 7905   3.759   1.818  13.329  0.4164 -0.3469  0.5849
  532TMC3    O1 7906   4.245   1.945  13.438 -0.2375  0.0664  0.2434
  532TMC3    O2 7907   3.757   1.804  13.449 -0.0461 -0.5434 -0.6683
  533TMC3    C1 7908   0.268   3.727  14.310  0.6155  0.0161 -0.2959
  533TMC3    C2 7909   0.393   3.768  14.334 -0.8884  0.2507  0.4196
  533TMC3    C3 7910   0.402   3.887  14.407  0.0029  0.4376  0.1948
  533TMC3    C4 7911   0.147   3.783  14.353 -0.3830 -0.2973 -0.3371
  533TMC3    C5 7912   0.168   3.901  14.423  0.3559 -0.1789 -0.0853
  533TMC3    C6 7913   0.291   3.959  14.435 -0.7239 -0.3354 -0.4606
  533TMC3     C 7914   0.273   3.585  14.304  0.7560 -0.3254 -0.2149
  533TMC3     O 7915   0.374   3.524  14.338 -0.5827 -0.0485  0.1489
  533TMC3     H 7916   0.486   3.723  14.300  0.6953  1.2249  3.4725
  533TMC3    H1 7917   0.052   3.730  14.344  0.1478 -1.6708  2.2152
  533TMC3    H2 7918   0.295   4.058  14.480 -1.7783  0.2422 -1.6408
  533TMC3    C7 7919   0.080   3.905  14.535 -0.2836 -0.3547 -0.0217
  533TMC3    C8 7920   0.524   3.936  14.466  0.1321  0.1613 -0.8380
  533TMC3    O1 7921   4.709   3.834  14.545 -0.5570  0.4188 -0.0103
  533TMC3    O2 7922   0.516   4.040  14.533 -0.6586  0.4281  0.1313
  534MPD2     C 7923   2.926   0.534   1.810  0.1568  0.0894 -0.3127
  534MPD2    C1 7924   3.006   0.534   1.694 -0.0099 -0.7302  0.1890
  534MPD2    C2 7925   2.946   0.503   1.575 -0.8559  0.2520 -0.4260
  534MPD2    C3 7926   2.809   0.468   1.572  1.1443  0.2003 -0.2166
  534MPD2    C4 7927   2.737   0.476   1.681 -0.5644  0.3805 -0.7433
  534MPD2    C5 7928   2.792   0.512   1.800  0.0127  0.0111 -0.4819
  534MPD2     H 7929   2.998   0.518   1.481  1.6493  1.6239  1.1835
  534MPD2    H1 7930   2.630   0.468   1.669 -0.1490 -4.1717 -1.4465
  534MPD2    H2 7931   2.957   0.559   1.911 -1.7584 -0.2288  0.3650
  534MPD2    H3 7932   2.735   0.522   1.892  1.4918 -1.7487  0.6482
  534MPD2     N 7933   2.742   0.434   1.454 -0.3299 -0.1587 -0.8191
  534MPD2    H5 7934   2.642   0.427   1.466 -0.2557  0.2822  0.0189
  534MPD2    N1 7935   3.135   0.596   1.692  0.0646 -0.1953 -0.4570
  534MPD2    H7 7936   3.178   0.620   1.604  0.0621  1.2529 -0.0605
  535TMC3    C1 7937   2.717   0.425   1.217  0.1255 -0.4748  0.5439
  535TMC3    C2 7938   2.595   0.495   1.225  0.4084  0.1095  0.0425
  535TMC3    C3 7939   2.526   0.486   1.111 -0.1797 -0.0192 -0.2686
  535TMC3    C4 7940   2.757   0.350   1.108  0.0255 -0.3250  0.0855
  535TMC3    C5 7941   2.676   0.337   0.998 -0.1214 -0.1636 -0.0640
  535TMC3    C6 7942   2.561   0.405   1.003  1.0088  0.3466  0.0775
  535TMC3     C 7943   2.808   0.408   1.334  0.3693  0.3864 -0.1386
  535TMC3     O 7944   2.923   0.377   1.315 -0.3599  0.2583  0.1219
  535TMC3     H 7945   2.558   0.556   1.306 -0.7394 -0.1451 -0.2832
  535TMC3    H1 7946   2.852   0.297   1.115  0.9119  1.2640  0.2384
  535TMC3    H2 7947   2.503   0.413   0.912  1.9256 -4.1686 -0.9315
  535TMC3    C7 7948   2.691   0.226   0.911  0.1011  0.2607  0.9726
  535TMC3    C8 7949   2.387   0.484   1.129  0.0175  0.2728 -0.1847
  535TMC3    O1 7950   2.799   0.168   0.896  0.3956  0.8476 -0.4269
  535TMC3    O2 7951   2.327   0.402   1.064  0.2908  0.7046  0.0297
  536MPD2     C 7952   0.957   2.153  16.391 -0.4425 -0.2262  0.1650
  536MPD2    C1 7953   1.033   2.269  16.396 -0.0659 -1.0960  0.4641
  536MPD2    C2 7954   1.050   2.329  16.274 -0.3126  0.1030 -0.3222
  536MPD2    C3 7955   0.980   2.286  16.159  1.1241  0.1610 -0.6147
  536MPD2    C4 7956   0.899   2.178  16.166  0.5353  0.7763 -0.3292
  536MPD2    C5 7957   0.894   2.102  16.278  0.1606 -0.4872 -0.2722
  536MPD2     H 7958   1.106   2.422  16.276  1.2203 -0.8272 -0.7317
  536MPD2    H1 7959   0.847   2.141  16.078 -0.2417  1.1049  0.0009
  536MPD2    H2 7960   0.926   2.099  16.480 -1.5114 -0.5789 -0.4074
  536MPD2    H3 7961   0.818   2.028  16.301 -0.4196  0.5933  1.2559
  536MPD2     N 7962   0.963   2.368  16.044 -0.0994 -0.4020  0.1001
  536MPD2    H5 7963   0.889   2.338  15.982 -1.8408  3.9982  0.1012
  536MPD2    N1 7964   1.091   2.306  16.519  0.4599  0.2949  0.0961
  536MPD2    H7 7965   1.072   2.250  16.602 -0.5486 -0.4373 -0.6343
  537TMC3    C1 7966   1.241   2.416  16.675  0.0111  0.0471  0.4295
  537TMC3    C2 7967   1.302   2.536  16.707 -1.2285  0.0807 -0.2272
  537TMC3    C3 7968   1.362   2.540  16.830  0.0057  0.2701 -0.1123
  537TMC3    C4 7969   1.217   2.317  16.765  0.6183 -0.3304  0.3124
  537TMC3    C5 7970   1.285   2.331  16.885 -0.1969  0.4492 -1.0862
  537TMC3    C6 7971   1.365   2.435  16.917  0.2565  0.0155  0.1751
  537TMC3     C 7972   1.181   2.412  16.539  0.1737 -0.0856 -0.9111
  537TMC3     O 7973   1.207   2.513  16.473  0.1608 -0.1409  0.5450
  537TMC3     H 7974   1.309   2.622  16.641 -0.9805  0.8756  0.8158
  537TMC3    H1 7975   1.176   2.221  16.738  1.4419 -1.0758  1.7616
  537TMC3    H2 7976   1.415   2.442  17.013 -1.3507  0.8911  0.9491
  537TMC3    C7 7977   1.216   2.256  16.994  0.1216  1.1511  0.2035
  537TMC3    C8 7978   1.414   2.671  16.880 -0.7827  0.1887  0.5163
  537TMC3    O1 7979   1.097   2.233  16.979 -0.6557  0.2544  0.1737
  537TMC3    O2 7980   1.507   2.653  16.962 -0.0491  0.1159 -0.5010
  538TMC3    C1 7981   3.045   1.100  10.798  0.0000  0.6879 -0.3084
  538TMC3    C2 7982   3.109   1.065  10.688  0.2201  0.4283  0.7195
  538TMC3    C3 7983   3.049   1.088  10.569  0.4650 -0.3537 -0.0396
  538TMC3    C4 7984   2.918   1.161  10.785 -0.0161  0.2973  0.3163
  538TMC3    C5 7985   2.858   1.177  10.667 -0.2608 -0.6795 -0.4247
  538TMC3    C6 7986   2.923   1.141  10.551 -0.3983 -0.1113 -0.5794
  538TMC3     C 7987   3.113   1.125  10.923  0.2771  0.4273  0.8760
  538TMC3     O 7988   3.068   1.223  10.981 -0.2274 -0.2616 -0.2636
  538TMC3     H 7989   3.204   1.014  10.699  0.7540  1.1772 -0.4426
  538TMC3    H1 7990   2.869   1.183  10.880  0.7272  0.3117  0.6954
  538TMC3    H2 7991   2.887   1.164  10.452 -0.1949  0.2698 -0.5652
  538TMC3    C7 7992   2.735   1.258  10.661 -0.0322  0.0866  0.2211
  538TMC3    C8 7993   3.143   1.159  10.488 -0.1261 -0.4026 -0.0947
  538TMC3    O1 7994   2.654   1.245  10.753 -0.1328 -0.2011 -0.1483
  538TMC3    O2 7995   3.103   1.263  10.431 -0.2871 -0.3355  0.1043
  539MPD2     C 7996   2.357   0.629  11.879 -0.5288 -0.2427 -0.5850
  539MPD2    C1 7997   2.436   0.672  11.777  0.2488 -0.4016 -0.6819
  539MPD2    C2 7998   2.431   0.807  11.756  0.5848 -0.0378 -0.9044
  539MPD2    C3 7999   2.336   0.894  11.812  0.7355 -0.0706 -0.3226
  539MPD2    C4 8000   2.255   0.844  11.911 -0.2849  0.2046  0.6771
  539MPD2    C5 8001   2.270   0.712  11.948 -0.3102 -0.6185  0.0341
  539MPD2     H 8002   2.501   0.837  11.678  2.5079 -2.5497 -0.1665
  539MPD2    H1 8003   2.167   0.893  11.953  0.3704  1.6279  0.4101
  539MPD2    H2 8004   2.357   0.522  11.899 -1.0720 -0.0892  0.2588
  539MPD2    H3 8005   2.208   0.669  12.026 -0.2636 -0.3959  0.1941
  539MPD2     N 8006   2.319   1.026  11.780 -0.0862 -0.0200  0.7073
  539MPD2    H5 8007   2.256   1.065  11.849  2.1327 -0.4866  3.0128
  539MPD2    N1 8008   2.518   0.595  11.697  0.2897 -0.3312 -0.3336
  539MPD2    H7 8009   2.552   0.638  11.612 -0.5485  2.0176  0.5248
  540TMC3    C1 8010   2.339   1.240  11.672  0.6981  0.1947 -0.0379
  540TMC3    C2 8011   2.360   1.300  11.551 -0.0409 -0.9278 -0.4926
  540TMC3    C3 8012   2.312   1.430  11.531 -0.1932 -0.1332 -0.3485
  540TMC3    C4 8013   2.283   1.309  11.775 -0.0143 -0.1798  0.5967
  540TMC3    C5 8014   2.252   1.446  11.757 -1.1370 -0.4286 -0.5501
  540TMC3    C6 8015   2.269   1.507  11.632 -0.1277  0.4207 -0.4518
  540TMC3     C 8016   2.381   1.101  11.683  0.2862 -0.0930  0.3872
  540TMC3     O 8017   2.466   1.067  11.599 -0.2909 -0.1081  0.3928
  540TMC3     H 8018   2.398   1.234  11.475  0.8018 -0.6862 -0.2726
  540TMC3    H1 8019   2.250   1.255  11.863  0.5732 -1.4508  0.0205
  540TMC3    H2 8020   2.243   1.612  11.622  0.1280  0.5874  0.5873
  540TMC3    C7 8021   2.181   1.507  11.862 -0.1486  0.3210  0.0147
  540TMC3    C8 8022   2.325   1.484  11.402  0.3449 -0.2101  0.2597
  540TMC3    O1 8023   2.115   1.425  11.922 -0.0356  0.7679 -0.2772
  540TMC3    O2 8024   2.369   1.599  11.399  0.3786 -0.1398  0.5149
  541MPD2     C 8025   1.078   2.277  13.387  0.4175 -0.3910  0.3460
  541MPD2    C1 8026   0.944   2.257  13.364  0.2641  0.2191  0.0004
  541MPD2    C2 8027   0.894   2.293  13.245  0.2549 -0.0318 -0.2938
  541MPD2    C3 8028   0.970   2.333  13.138  0.1712  0.0333 -0.2369
  541MPD2    C4 8029   1.112   2.333  13.155  1.2862  0.4497  0.5064
  541MPD2    C5 8030   1.159   2.319  13.285 -0.0300 -0.3768 -0.1764
  541MPD2     H 8031   0.787   2.281  13.232  0.2965 -0.8151  0.0738
  541MPD2    H1 8032   1.181   2.371  13.080  1.4370  2.7750  1.8122
  541MPD2    H2 8033   1.119   2.266  13.486 -1.3122  1.5233  1.2948
  541MPD2    H3 8034   1.266   2.324  13.299 -0.0590  0.1236 -0.1585
  541MPD2     N 8035   0.918   2.360  13.006 -0.7312 -0.1037 -1.0312
  541MPD2    H5 8036   0.985   2.376  12.931  0.7729 -0.9449  0.1211
  541MPD2    N1 8037   0.848   2.225  13.462 -0.0019 -0.6078  0.1893
  541MPD2    H7 8038   0.754   2.223  13.423 -0.7926  1.1433  2.0060
  542TMC3    C1 8039   0.735   2.372  12.856 -0.8207  0.7581  0.0451
  542TMC3    C2 8040   0.785   2.285  12.766  0.1785 -0.4358  0.1897
  542TMC3    C3 8041   0.758   2.303  12.625 -0.4206 -0.3110 -0.7619
  542TMC3    C4 8042   0.645   2.458  12.820 -0.5168  0.3724  0.1396
  542TMC3    C5 8043   0.618   2.481  12.687  0.4895 -0.2610 -0.5867
  542TMC3    C6 8044   0.673   2.406  12.589  0.0541  0.2243  0.6581
  542TMC3     C 8045   0.780   2.375  12.987  0.9047  0.6118  0.1736
  542TMC3     O 8046   0.699   2.421  13.067  0.5946  0.5286 -0.7343
  542TMC3     H 8047   0.836   2.196  12.802 -1.0042 -0.9788  0.5457
  542TMC3    H1 8048   0.593   2.517  12.894 -1.0775 -1.1922  0.9875
  542TMC3    H2 8049   0.639   2.424  12.488  1.0460 -0.9677  0.1136
  542TMC3    C7 8050   0.583   2.618  12.654 -0.7054  0.0060 -0.0318
  542TMC3    C8 8051   0.821   2.223  12.524  0.5155  1.2621  0.1358
  542TMC3    O1 8052   0.526   2.635  12.546 -0.2745 -0.3881 -0.4853
  542TMC3    O2 8053   0.770   2.217  12.415 -0.6615 -0.1276  0.0381
  543TMC3    C1 8054   0.227   3.204  17.492  0.1076 -0.0680  0.1467
  543TMC3    C2 8055   0.247   3.076  17.543 -0.7168 -0.0036  0.0199
  543TMC3    C3 8056   0.261   3.071  17.676 -0.6263 -0.6544  0.1290
  543TMC3    C4 8057   0.200   3.314  17.571 -0.4449 -0.4214  0.4043
  543TMC3    C5 8058   0.207   3.294  17.705  0.2536 -0.6462 -0.9898
  543TMC3    C6 8059   0.251   3.178   0.054 -0.0209  0.7788 -0.1300
  543TMC3     C 8060   0.223   3.204  17.342  0.0295  0.5958 -0.9696
  543TMC3     O 8061   0.287   3.115  17.289 -0.6764 -0.4193  0.1983
  543TMC3     H 8062   0.261   2.993  17.474 -0.4423 -0.3911  0.5417
  543TMC3    H1 8063   0.158   3.402  17.525  1.3813  0.1812 -0.1389
  543TMC3    H2 8064   0.272   3.166   0.160 -1.9262  1.7961  0.3670
  543TMC3    C7 8065   0.171   3.400   0.090  0.0857 -0.2370  0.1365
  543TMC3    C8 8066   0.291   2.933   0.019 -0.1040  0.7228 -0.6258
  543TMC3    O1 8067   0.158   3.363   0.207 -0.1027  0.3404  0.0107
  543TMC3    O2 8068   0.294   2.841  17.647 -0.4774 -0.2514 -0.2254
  544MPD2     C 8069   0.280   2.586   0.409 -0.3214  0.2058 -0.0095
  544MPD2    C1 8070   0.308   2.569   0.270  0.3009 -0.3039 -0.4162
  544MPD2    C2 8071   0.313   2.682   0.186  0.5939 -0.0815  0.3407
  544MPD2    C3 8072   0.291   2.811   0.233 -0.5100 -0.2271  0.3742
  544MPD2    C4 8073   0.279   2.820   0.374 -0.3892  0.7514 -0.4907
  544MPD2    C5 8074   0.271   2.715   0.460 -0.1502  0.1208  0.3475
  544MPD2     H 8075   0.334   2.676   0.080 -0.3710 -1.2377  0.2116
  544MPD2    H1 8076   0.257   2.918   0.413 -1.3485  0.5596 -0.5498
  544MPD2    H2 8077   0.273   2.502   0.476  0.2592  2.4685  2.8732
  544MPD2    H3 8078   0.258   2.732   0.566  0.1880 -1.6955  0.6814
  544MPD2     N 8079   0.275   2.930   0.150  0.0907  0.6953  0.2897
  544MPD2    H5 8080   0.252   3.013   0.203 -1.3475 -0.5152  1.5507
  544MPD2    N1 8081   0.303   2.431   0.220 -0.1558  0.1998 -0.2599
  544MPD2    H7 8082   0.294   2.361   0.293  0.8764  0.2533 -0.0820
  545TMC3    C1 8083   0.249   2.266   0.069 -0.1773  0.0559 -0.0919
  545TMC3    C2 8084   0.131   2.239   0.002  0.1358 -0.1212  0.3648
  545TMC3    C3 8085   0.061   2.122   0.018 -0.7033 -0.4888 -0.5058
  545TMC3    C4 8086   0.293   2.187   0.168 -0.0735  0.2760  0.4986
  545TMC3    C5 8087   0.222   2.066   0.180 -0.5189  0.3926  0.4550
  545TMC3    C6 8088   0.108   2.031   0.112 -0.2935 -0.2131 -0.3794
  545TMC3     C 8089   0.281   2.404   0.084  0.0573  0.0508 -0.5825
  545TMC3     O 8090   0.267   2.478  17.689  0.1170 -0.7162 -0.6368
  545TMC3     H 8091   0.100   2.315  17.638 -0.8278 -1.3716 -0.5812
  545TMC3    H1 8092   0.375   2.210   0.235  0.2366  0.2503  0.1236
  545TMC3    H2 8093   0.074   1.930   0.129  2.0342 -0.5875  2.1291
  545TMC3    C7 8094   0.262   1.978   0.291 -0.8050 -0.6035 -0.5864
  545TMC3    C8 8095   4.656   2.121  17.663  0.0948 -0.7372 -0.2087
  545TMC3    O1 8096   0.181   1.896   0.337 -0.0323  0.5470  0.9205
  545TMC3    O2 8097   4.632   2.200  17.575  0.4293 -1.0160 -0.5178
  546MPD2     C 8098   1.248   3.614  16.836  1.1412  0.0744  0.7003
  546MPD2    C1 8099   1.355   3.567  16.917 -0.5134 -0.8549  0.6294
  546MPD2    C2 8100   1.485   3.602  16.889 -0.2385  0.3727 -0.5201
  546MPD2    C3 8101   1.503   3.712  16.803 -0.9869 -0.3696  0.5351
  546MPD2    C4 8102   1.396   3.763  16.730 -0.3596 -0.3708 -0.1847
  546MPD2    C5 8103   1.267   3.713  16.755  0.3188 -0.3018 -0.1958
  546MPD2     H 8104   1.574   3.568  16.942 -1.1679  1.9034  2.0314
  546MPD2    H1 8105   1.406   3.838  16.652  1.1794 -0.4198 -0.0211
  546MPD2    H2 8106   1.148   3.576  16.850  1.2749 -0.8452 -0.9084
  546MPD2    H3 8107   1.184   3.757  16.701  0.5356  0.0005 -0.2863
  546MPD2     N 8108   1.627   3.772  16.778  0.7642  0.2131 -0.3033
  546MPD2    H5 8109   1.620   3.858  16.726 -1.4494  0.2645  0.0445
  546MPD2    N1 8110   1.321   3.472  17.014 -0.5634 -0.6653 -0.6802
  546MPD2    H7 8111   1.224   3.444  17.016  0.0898 -2.8143  0.4873
  547TMC3    C1 8112   1.333   3.289  17.155 -0.5098  0.3306 -0.0880
  547TMC3    C2 8113   1.243   3.217  17.075  0.5044  0.1776  0.1467
  547TMC3    C3 8114   1.211   3.093  17.115 -0.0196 -0.1304  0.2902
  547TMC3    C4 8115   1.382   3.239  17.276  0.1102  1.2417  0.2710
  547TMC3    C5 8116   1.342   3.114  17.305 -0.1576 -0.2706 -0.1529
  547TMC3    C6 8117   1.255   3.040  17.228  0.4826 -0.1256 -0.1624
  547TMC3     C 8118   1.406   3.396  17.088 -0.0517  0.3733  0.8249
  547TMC3     O 8119   1.523   3.404  17.110  0.1871 -0.3550 -0.3486
  547TMC3     H 8120   1.216   3.262  16.980  0.2026  3.2842  1.7092
  547TMC3    H1 8121   1.449   3.301  17.335  2.1675 -1.2503  0.5955
  547TMC3    H2 8122   1.233   2.940  17.262  0.2332 -0.2209 -0.6128
  547TMC3    C7 8123   1.363   3.057  17.436 -0.3059 -0.3905  0.0456
  547TMC3    C8 8124   1.116   3.022  17.033 -0.2724  0.2844  0.1513
  547TMC3    O1 8125   1.389   3.145  17.517  0.2066 -0.4007  0.4986
  547TMC3    O2 8126   1.048   3.092  16.962  0.4895  0.2402 -0.0834
  548MPD2     C 8127   1.596   4.163  12.425  0.4155  0.4868  1.0081
  548MPD2    C1 8128   1.563   4.063  12.517  0.1837 -0.6136 -0.2203
  548MPD2    C2 8129   1.640   3.953  12.517 -0.0755 -0.3000  0.3252
  548MPD2    C3 8130   1.751   3.945  12.442  0.7286  0.0205 -0.1095
  548MPD2    C4 8131   1.792   4.046  12.359 -0.2844 -0.1947 -0.2797
  548MPD2    C5 8132   1.709   4.157  12.343  0.3917 -0.2432 -0.3267
  548MPD2     H 8133   1.625   3.875  12.591  0.1052 -0.4604  0.1916
  548MPD2    H1 8134   1.888   4.045  12.309 -0.1765 -0.6187 -0.0608
  548MPD2    H2 8135   1.533   4.250  12.412  1.4778  1.0351 -0.4422
  548MPD2    H3 8136   1.745   4.239  12.282 -3.2591 -1.2745 -3.8559
  548MPD2     N 8137   1.835   3.829  12.455  0.1229 -0.2987  0.0086
  548MPD2    H5 8138   1.797   3.760  12.520  0.0925 -0.5887 -0.3195
  548MPD2    N1 8139   1.432   4.084  12.576 -0.3192 -0.4352 -0.6946
  548MPD2    H7 8140   1.382   4.172  12.572 -0.7818 -0.5281  2.3830
  549TMC3    C1 8141   1.236   4.010  12.687 -0.5693 -0.0044  0.0840
  549TMC3    C2 8142   1.197   4.139  12.689  0.5986  0.6107 -0.1981
  549TMC3    C3 8143   1.056   4.152  12.705  0.3232 -0.5686  0.2957
  549TMC3    C4 8144   1.149   3.902  12.683 -0.1272  0.1876  0.3586
  549TMC3    C5 8145   1.014   3.927  12.680 -0.3282 -0.5224 -0.0918
  549TMC3    C6 8146   0.964   4.052  12.696 -0.3936 -0.3914  0.1524
  549TMC3     C 8147   1.371   3.980  12.637  0.3721  0.3636 -0.9994
  549TMC3     O 8148   1.394   3.863  12.639  0.8606 -0.1899  0.1855
  549TMC3     H 8149   1.273   4.216  12.698 -1.5080  2.8488 -1.4876
  549TMC3    H1 8150   1.184   3.802  12.662 -1.7496 -0.3308  0.1592
  549TMC3    H2 8151   0.859   4.074  12.708 -0.5897 -0.9011 -0.6280
  549TMC3    C7 8152   0.922   3.842  12.620  0.2670  0.6774 -0.6336
  549TMC3    C8 8153   0.991   4.287  12.699  0.4212  0.1731  0.4525
  549TMC3    O1 8154   0.827   3.906  12.566 -0.7134  0.0323  0.5807
  549TMC3    O2 8155   0.871   4.283  12.721  0.5481 -0.8103  0.6510
  550TMC3    C1 8156   4.642   1.900  12.417  0.3375  0.3904 -0.8136
  550TMC3    C2 8157   4.609   1.968  12.533 -1.0291  0.1386 -0.6946
  550TMC3    C3 8158   4.543   2.081  12.509 -0.0746 -0.2283  0.2592
  550TMC3    C4 8159   4.625   1.944  12.289 -0.2593  0.4660 -0.1635
  550TMC3    C5 8160   4.560   2.064  12.275  0.1409 -0.1249 -0.3735
  550TMC3    C6 8161   4.523   2.130  12.388  0.7366 -0.1109 -0.2288
  550TMC3     C 8162   4.663   1.757  12.428  0.3013  0.0848 -0.3669
  550TMC3     O 8163   0.015   1.716  12.511  0.6634  0.0941  0.0411
  550TMC3     H 8164   4.608   1.914  12.627  1.9239  0.5047 -0.4682
  550TMC3    H1 8165   4.661   1.894  12.200  0.6642  1.4762 -0.3564
  550TMC3    H2 8166   4.469   2.224  12.381  0.6032 -0.4208 -3.3326
  550TMC3    C7 8167   4.462   2.063  12.169  0.3236 -0.2503  0.4723
  550TMC3    C8 8168   4.467   2.141  12.612  0.0540  0.0766  0.6072
  550TMC3    O1 8169   4.431   1.949  12.138 -0.3734 -0.5660 -0.7882
  550TMC3    O2 8170   4.488   2.262  12.616  0.0011 -0.6859  0.6034
  551TMC3    C1 8171   2.359   4.580  13.496  0.5463 -0.1051 -0.1192
  551TMC3    C2 8172   2.474   4.580  13.430 -0.1840 -0.5705  0.6850
  551TMC3    C3 8173   2.591   4.612  13.496 -0.3284 -0.5436  0.0024
  551TMC3    C4 8174   2.357   4.619  13.631  0.1928  0.4537  0.0563
  551TMC3    C5 8175   2.475   4.652  13.693  0.0904 -1.2973 -0.8936
  551TMC3    C6 8176   2.593   4.654  13.628  0.1723 -0.1248  0.0963
  551TMC3     C 8177   2.240   4.506  13.445  0.2008  0.0295 -0.1061
  551TMC3     O 8178   2.262   4.442  13.343 -0.0691 -0.5213 -0.8443
  551TMC3     H 8179   2.472   4.521  13.339 -0.7230  0.5238 -0.0255
  551TMC3    H1 8180   2.267   4.631  13.690  0.7892  0.7108  0.9177
  551TMC3    H2 8181   2.687   4.671  13.680  0.0610 -1.2426  0.6512
  551TMC3    C7 8182   2.463   4.696  13.833 -0.1652  0.3405 -0.6271
  551TMC3    C8 8183   2.709   4.593  13.419 -0.2160  0.1611 -0.0861
  551TMC3    O1 8184   2.386   4.643  13.911 -0.2332  0.0429 -0.3488
  551TMC3    O2 8185   2.799   4.516  13.448  0.3752 -0.5629 -0.1477
  552MPD2     C 8186   4.431   1.730  13.673  0.4611  0.3655 -0.3859
  552MPD2    C1 8187   4.395   1.630  13.755  0.3725 -0.2760 -0.2638
  552MPD2    C2 8188   4.488   1.571  13.839 -0.2170 -0.4818  0.6580
  552MPD2    C3 8189   4.614   1.617  13.850 -0.7338  0.1715 -0.2352
  552MPD2    C4 8190   4.655   1.711  13.760 -0.2726  0.1966  0.3016
  552MPD2    C5 8191   4.558   1.776  13.686  0.3304  0.0754  0.1720
  552MPD2     H 8192   4.466   1.478  13.892 -1.3241  0.6156  2.1322
  552MPD2    H1 8193   0.027   1.753  13.746 -0.4260  0.7092  0.7744
  552MPD2    H2 8194   4.376   1.767  13.588 -2.7734  1.5263  2.1886
  552MPD2    H3 8195   4.591   1.862  13.629  0.9155 -0.6748 -0.6149
  552MPD2     N 8196   4.713   1.567  13.940 -0.3074 -0.0354 -0.4256
  552MPD2    H5 8197   0.072   1.622  13.940 -1.0487  1.1261  0.4396
  552MPD2    N1 8198   4.263   1.575  13.747 -0.0927 -0.1787 -1.1547
  552MPD2    H7 8199   4.245   1.493  13.805 -1.5366  0.5553 -0.5654
  553TMC3    C1 8200   4.062   1.531  13.650 -0.4892 -0.5288 -0.0440
  553TMC3    C2 8201   3.988   1.552  13.539  0.0373  0.3751  0.6435
  553TMC3    C3 8202   3.939   1.449  13.473  1.5740  0.1327  0.3873
  553TMC3    C4 8203   4.067   1.410  13.708  0.0527 -0.5501 -0.5661
  553TMC3    C5 8204   4.008   1.305  13.645 -0.5922 -0.7275  0.2284
  553TMC3    C6 8205   3.945   1.320  13.523  1.3235 -0.3255 -0.4521
  553TMC3     C 8206   4.158   1.636  13.680  0.8179  0.1867 -0.7907
  553TMC3     O 8207   4.154   1.752  13.642 -0.4343  0.3358  0.3523
  553TMC3     H 8208   3.982   1.652  13.498 -1.1562 -0.1620 -0.4666
  553TMC3    H1 8209   4.113   1.393  13.804  1.3995  1.8994 -0.7802
  553TMC3    H2 8210   3.915   1.228  13.474 -0.5045 -0.1135  0.2432
  553TMC3    C7 8211   4.052   1.170  13.674  0.3541  0.8414  0.1242
  553TMC3    C8 8212   3.996   1.448  13.342  0.5061 -0.3266  0.0473
  553TMC3    O1 8213   3.963   1.085  13.671  0.3467 -0.2928  0.4412
  553TMC3    O2 8214   4.096   1.515  13.320 -0.2606 -0.5372  0.2576
  554TMC3    C1 8215   1.728   0.909  11.803 -0.3545 -0.2813  0.1687
  554TMC3    C2 8216   1.700   0.798  11.731  0.4682  0.0809 -0.2720
  554TMC3    C3 8217   1.732   0.792  11.597  0.4658  0.1449  0.2877
  554TMC3    C4 8218   1.781   1.022  11.738  0.5050 -0.0838 -1.5846
  554TMC3    C5 8219   1.802   1.010  11.603 -0.0482  0.3193 -0.0749
  554TMC3    C6 8220   1.791   0.896  11.539 -0.5785 -0.4094  0.1825
  554TMC3     C 8221   1.764   0.905  11.943  0.2541  0.5371 -0.0886
  554TMC3     O 8222   1.796   1.011  12.001  1.1695  0.1585  0.2535
  554TMC3     H 8223   1.641   0.720  11.779  0.6853  1.7687  2.7197
  554TMC3    H1 8224   1.784   1.120  11.784 -0.1441 -1.1066  0.6524
  554TMC3    H2 8225   1.821   0.897  11.435 -0.0934  0.1941  0.3315
  554TMC3    C7 8226   1.810   1.130  11.519  0.1723  0.2577  0.2920
  554TMC3    C8 8227   1.668   0.710  11.507 -0.1855  0.1672  0.3142
  554TMC3    O1 8228   1.767   1.104  11.408 -0.2062 -0.0703 -0.1336
  554TMC3    O2 8229   1.704   0.716  11.390 -0.4469  0.2287 -0.4228
  555TMC3    C1 8230   0.565   0.415  14.727 -0.5324 -0.6812 -0.2912
  555TMC3    C2 8231   0.655   0.460  14.815 -0.2231 -0.1273  0.2763
  555TMC3    C3 8232   0.680   0.381  14.922  0.5479 -0.8957  0.6002
  555TMC3    C4 8233   0.487   0.308  14.753  0.1543  0.2933  0.3799
  555TMC3    C5 8234   0.515   0.232  14.865 -0.1454  0.2032  1.0835
  555TMC3    C6 8235   0.609   0.269  14.956 -0.1284 -0.2551  0.0731
  555TMC3     C 8236   0.554   0.494  14.605  0.8200  0.2467  0.2634
  555TMC3     O 8237   0.660   0.546  14.577 -0.0792  0.3922 -0.1000
  555TMC3     H 8238   0.712   0.549  14.791  0.0344 -1.2835 -3.2791
  555TMC3    H1 8239   0.417   0.269  14.680 -0.0215  0.9875  0.1856
  555TMC3    H2 8240   0.638   0.206  15.040 -1.0030 -0.6635  0.0684
  555TMC3    C7 8241   0.452   0.105  14.889 -0.2927  1.0369 -0.2355
  555TMC3    C8 8242   0.753   0.452  15.032 -0.1192 -0.0455 -0.2646
  555TMC3    O1 8243   0.517   0.016  14.940 -0.2162 -0.0923  0.6755
  555TMC3    O2 8244   0.808   0.558  15.005 -0.1197  0.1272 -0.0678
  556MPD2     C 8245   2.954   1.988  10.975 -0.1171  0.4024 -0.1743
  556MPD2    C1 8246   3.088   1.967  10.989 -0.7093 -0.1011  0.0137
  556MPD2    C2 8247   3.164   1.965  10.876  0.4115  0.8117 -0.3410
  556MPD2    C3 8248   3.113   1.978  10.751  0.5244  0.0400 -0.5358
  556MPD2    C4 8249   2.978   2.009  10.737  0.1176  0.4074 -0.6100
  556MPD2    C5 8250   2.899   2.009  10.853 -0.6840  0.1104  0.6968
  556MPD2     H 8251   3.272   1.956  10.876  0.0377 -3.4975 -0.9176
  556MPD2    H1 8252   2.926   2.009  10.641  2.7740  1.0819 -2.0480
  556MPD2    H2 8253   2.893   1.994  11.064  0.4977  1.4508  0.1728
  556MPD2    H3 8254   2.791   2.022  10.848 -0.6446  1.4555  3.5210
  556MPD2     N 8255   3.199   1.977  10.634  0.2652 -0.0345 -0.0241
  556MPD2    H5 8256   3.291   1.939  10.657  0.9963  0.0450 -2.7948
  556MPD2    N1 8257   3.150   1.946  11.119  0.1054  0.8237  0.9276
  556MPD2    H7 8258   3.249   1.922  11.122  0.6118  2.4325 -2.5060
  557TMC3    C1 8259   3.266   1.934  10.409 -0.6214 -0.6649  0.2336
  557TMC3    C2 8260   3.244   1.944  10.274 -0.7604  0.1769 -0.0922
  557TMC3    C3 8261   3.294   1.855  10.190  0.5332 -0.0414  0.0542
  557TMC3    C4 8262   3.332   1.824  10.449 -0.0142 -0.1916  0.2390
  557TMC3    C5 8263   3.392   1.736  10.364 -0.1851 -0.8593  0.5816
  557TMC3    C6 8264   3.365   1.746  10.227 -0.2622  0.5291  0.3652
  557TMC3     C 8265   3.166   1.981  10.500 -0.7642  0.4178  0.2830
  557TMC3     O 8266   3.054   1.996  10.448 -0.6295  0.3582 -0.0553
  557TMC3     H 8267   3.166   2.012  10.240  0.0347  0.7856 -0.6795
  557TMC3    H1 8268   3.348   1.799  10.553 -2.2828  1.0715  0.8830
  557TMC3    H2 8269   3.401   1.679  10.149 -2.3159 -0.2834  0.1115
  557TMC3    C7 8270   3.407   1.598  10.417 -0.7361 -0.2301 -0.1927
  557TMC3    C8 8271   3.264   1.869  10.053 -0.2899  0.0083 -0.0691
  557TMC3    O1 8272   3.369   1.576  10.533 -0.6652  0.2557 -0.6127
  557TMC3    O2 8273   3.212   1.976  10.025  0.6151  0.2333  0.4544
  558TMC3    C1 8274   1.393   0.023  10.508  0.2337 -0.3033  0.1456
  558TMC3    C2 8275   1.298   4.693  10.583  0.0131  0.3779  0.0128
  558TMC3    C3 8276   1.183   4.653  10.515  0.3838 -0.4370 -0.3902
  558TMC3    C4 8277   1.376   0.041  10.373  0.4761 -0.2594  0.0073
  558TMC3    C5 8278   1.255   0.000  10.314  0.1619 -0.1937  0.0980
  558TMC3    C6 8279   1.164   4.656  10.377 -0.4003  0.4468 -0.1046
  558TMC3     C 8280   1.529   0.055  10.562 -0.2520 -0.0329 -0.4520
  558TMC3     O 8281   1.624   0.061  10.485 -0.1502 -0.0927  0.0793
  558TMC3     H 8282   1.318   4.651  10.681  0.1105 -1.3460 -0.7358
  558TMC3    H1 8283   1.442   0.110  10.321 -1.3697  0.9072 -0.8001
  558TMC3    H2 8284   1.073   4.621  10.329  0.2971 -1.1868 -0.2534
  558TMC3    C7 8285   1.266   4.696  10.172 -0.5408  0.3047  0.3900
  558TMC3    C8 8286   1.060   4.630  10.590  0.6077 -0.9380 -1.1364
  558TMC3    O1 8287   1.338   0.040  10.103 -0.1796  0.4437  0.4428
  558TMC3    O2 8288   0.960   4.598  10.524 -0.0337 -0.3868 -0.8022
  559MPD2     C 8289   1.245   0.343  10.472  0.1444 -0.1071  0.0756
  559MPD2    C1 8290   1.204   0.322  10.600  0.3542 -0.2648 -0.0266
  559MPD2    C2 8291   1.297   0.347  10.703 -0.0901  0.0891  0.1010
  559MPD2    C3 8292   1.427   0.390  10.676 -0.1580  0.7587  0.1100
  559MPD2    C4 8293   1.457   0.426  10.550  0.0026  0.4087 -0.7008
  559MPD2    C5 8294   1.367   0.398  10.452 -0.5082  0.3328 -0.5413
  559MPD2     H 8295   1.267   0.328  10.805  1.7685  1.6783  0.9425
  559MPD2    H1 8296   1.555   0.455  10.516  0.3015 -1.6846 -1.6754
  559MPD2    H2 8297   1.179   0.331  10.387  0.6421  1.8595 -0.6098
  559MPD2    H3 8298   1.386   0.419  10.348  1.3005 -1.1595 -0.4976
  559MPD2     N 8299   1.509   0.395  10.790 -0.8502 -0.2594 -0.0027
  559MPD2    H5 8300   1.471   0.366  10.880 -1.6787 -0.9521 -0.5746
  559MPD2    N1 8301   1.068   0.273  10.630 -0.2629  0.2060 -0.1134
  559MPD2    H7 8302   1.012   0.259  10.547  0.7360  2.1082 -1.1255
  560TMC3    C1 8303   1.699   0.450  10.932  0.0045 -0.4548 -0.0819
  560TMC3    C2 8304   1.641   0.369  11.023  0.3433 -0.4092 -0.0608
  560TMC3    C3 8305   1.674   0.394  11.151 -0.0078  0.3174  0.1837
  560TMC3    C4 8306   1.777   0.556  10.959  0.4214  0.5986  0.1354
  560TMC3    C5 8307   1.805   0.576  11.089 -0.5013 -0.1686  0.7640
  560TMC3    C6 8308   1.749   0.501  11.190 -0.5105  0.4282 -0.0476
  560TMC3     C 8309   1.637   0.441  10.797 -0.7165 -0.1737 -0.3565
  560TMC3     O 8310   1.708   0.489  10.710 -0.4782  0.3488 -0.0701
  560TMC3     H 8311   1.588   0.279  10.994 -0.0327  0.3180 -1.6648
  560TMC3    H1 8312   1.802   0.627  10.881  0.3112  0.7314  0.2213
  560TMC3    H2 8313   1.778   0.507  11.294 -1.8506  1.1567  0.2869
  560TMC3    C7 8314   1.932   0.644  11.111 -0.3051  0.2054 -0.3750
  560TMC3    C8 8315   1.614   0.301  11.248  0.0271 -0.9282 -0.3402
  560TMC3    O1 8316   2.005   0.639  11.010 -0.1864  0.3315  0.1085
  560TMC3    O2 8317   1.512   0.242  11.204  0.4106 -0.1186 -0.9959
  561TMC3    C1 8318   3.380   4.465  11.068 -0.3836 -0.2123  0.0729
  561TMC3    C2 8319   3.455   4.438  11.175 -0.3398 -0.4251  0.4470
  561TMC3    C3 8320   3.564   4.518  11.204  0.7830  0.5311  0.2311
  561TMC3    C4 8321   3.411   4.574  10.994  0.6210  0.6367 -0.3878
  561TMC3    C5 8322   3.516   4.647  11.021 -0.5787 -0.5741  0.2548
  561TMC3    C6 8323   3.606   4.620  11.121 -0.6908 -0.1534  0.6315
  561TMC3     C 8324   3.323   4.357  10.991  0.0127  0.2119  0.2049
  561TMC3     O 8325   3.222   4.365  10.926 -0.3435  0.7653  0.3936
  561TMC3     H 8326   3.427   4.352  11.235  0.8942 -1.2722 -0.1704
  561TMC3    H1 8327   3.343   4.591  10.911 -1.2916 -0.8738  0.8749
  561TMC3    H2 8328   3.694   4.680  11.145  0.5735 -1.3065 -1.0789
  561TMC3    C7 8329   3.528   0.045  10.950  0.5498  0.5323 -1.0363
  561TMC3    C8 8330   3.655   4.468  11.298 -0.1811  0.6278  0.0816
  561TMC3    O1 8331   3.423   0.106  10.953  0.0522 -0.1186  0.7010
  561TMC3    O2 8332   3.779   4.481  11.288 -0.0964  0.6950 -0.5373
  562TMC3    C1 8333   0.169   0.413  16.208  0.6178 -0.1473  1.1301
  562TMC3    C2 8334   0.189   0.524  16.134  0.0076  0.2037 -0.0602
  562TMC3    C3 8335   0.200   0.506  15.999 -0.1256  0.6005 -0.5436
  562TMC3    C4 8336   0.126   0.295  16.152 -0.3310  0.7068 -0.8899
  562TMC3    C5 8337   0.132   0.285  16.018  0.2261 -0.2665 -0.5485
  562TMC3    C6 8338   0.167   0.390  15.936  0.7017 -0.4585  0.3046
  562TMC3     C 8339   0.134   0.425  16.355  0.3569 -0.2779 -0.4835
  562TMC3     O 8340   0.075   0.329  16.404 -0.3727  0.6380 -0.0112
  562TMC3     H 8341   0.211   0.616  16.187  1.0777  1.0017 -1.9185
  562TMC3    H1 8342   0.081   0.215  16.210  0.0533  1.4061  0.3775
  562TMC3    H2 8343   0.191   0.369  15.832  1.4353  2.6973 -0.1645
  562TMC3    C7 8344   0.134   0.151  15.946 -0.3132  0.2079 -0.0350
  562TMC3    C8 8345   0.285   0.607  15.923 -0.5685 -0.9793  0.3943
  562TMC3    O1 8346   0.111   0.156  15.825  0.3408  0.6523  0.0533
  562TMC3    O2 8347   0.351   0.685  15.986 -0.1398 -0.2196  0.6832
  563MPD2     C 8348   2.432   1.889  16.076  0.9758 -0.0092 -0.3759
  563MPD2    C1 8349   2.508   1.935  16.185 -0.2319  0.1269  0.2088
  563MPD2    C2 8350   2.616   1.850  16.221  0.1487 -0.5761  0.8373
  563MPD2    C3 8351   2.647   1.737  16.149 -0.2627 -0.2374 -0.2499
  563MPD2    C4 8352   2.576   1.695  16.046  0.4728  0.2356  0.5504
  563MPD2    C5 8353   2.463   1.767  16.019  0.7277  0.2321  0.0159
  563MPD2     H 8354   2.682   1.877  16.303  0.5734 -3.3544  1.3873
  563MPD2    H1 8355   2.574   1.592  16.013 -2.1335  0.4024  0.2060
  563MPD2    H2 8356   2.353   1.951  16.034 -0.4858 -2.9379 -1.9909
  563MPD2    H3 8357   2.389   1.728  15.950  1.4686 -0.6413 -0.2764
  563MPD2     N 8358   2.746   1.650  16.205  0.4163 -0.2189 -0.2145
  563MPD2    H5 8359   2.801   1.680  16.285 -0.5882 -0.4949  0.5761
  563MPD2    N1 8360   2.464   2.051  16.249  0.0505  0.5649  0.1103
  563MPD2    H7 8361   2.379   2.097  16.217 -0.3720 -0.7779 -0.7035
  564TMC3    C1 8362   2.470   2.135  16.471  0.6428 -0.3392  0.0246
  564TMC3    C2 8363   2.351   2.067  16.473 -0.2352  0.0135  0.0428
  564TMC3    C3 8364   2.309   2.017  16.592 -0.3199  0.0549  0.8042
  564TMC3    C4 8365   2.553   2.137  16.581 -0.1941 -0.4572  0.0670
  564TMC3    C5 8366   2.506   2.090  16.697  0.6257  0.0920 -0.3953
  564TMC3    C6 8367   2.383   2.041  16.706  0.4860  0.1151  0.1291
  564TMC3     C 8368   2.542   2.114  16.346  0.3370 -0.5886  0.1238
  564TMC3     O 8369   2.659   2.090  16.361  0.3975 -0.1341  0.6176
  564TMC3     H 8370   2.272   2.083  16.400  1.0219  2.9098 -0.6572
  564TMC3    H1 8371   2.652   2.183  16.583  0.3857 -1.7644  1.1205
  564TMC3    H2 8372   2.360   2.003  16.805  0.7108 -1.9900 -0.6364
  564TMC3    C7 8373   2.603   2.006  16.752  0.1452  0.4472 -0.5587
  564TMC3    C8 8374   2.273   1.877  16.589  0.1030 -0.5797  0.3050
  564TMC3    O1 8375   2.712   2.046  16.794  0.2685 -0.3012 -0.3722
  564TMC3    O2 8376   2.259   1.820  16.696 -0.6913 -0.0662  0.5496
  565TMC3    C1 8377   3.038   3.343  10.002 -0.4615  0.2223 -0.1680
  565TMC3    C2 8378   3.003   3.274  10.121 -0.3441 -0.0596 -0.1827
  565TMC3    C3 8379   2.951   3.148  10.094 -1.0525  0.2280  0.5472
  565TMC3    C4 8380   3.032   3.297   9.877 -0.8317  0.4494 -0.2959
  565TMC3    C5 8381   2.988   3.167   9.866  0.0220  0.1766 -0.4653
  565TMC3    C6 8382   2.942   3.092   9.966 -0.5497 -0.0492 -0.2886
  565TMC3     C 8383   3.127   3.455  10.019  0.0028  0.8774 -0.3195
  565TMC3     O 8384   3.212   3.482   9.933 -0.8420 -1.2171  0.2064
  565TMC3     H 8385   3.013   3.317  10.219 -1.2144  0.0912 -0.1570
  565TMC3    H1 8386   3.055   3.363   9.794 -0.5634  2.2616  1.2077
  565TMC3    H2 8387   2.946   2.984   9.972 -2.3175 -0.1055 -0.0179
  565TMC3    C7 8388   3.027   3.102   9.742 -0.4705 -0.6692 -0.2615
  565TMC3    C8 8389   2.895   3.073  10.203  0.3504  0.2477  0.0111
  565TMC3    O1 8390   3.066   3.174   9.647  0.3601 -0.3864  0.4660
  565TMC3    O2 8391   2.904   3.131  10.309  0.1960 -0.8375 -0.1469
  566MPD2     C 8392   4.698   0.356  13.928 -0.2666  0.4420 -0.2884
  566MPD2    C1 8393   0.077   0.274  13.918 -0.3504 -0.5677  0.0212
  566MPD2    C2 8394   0.178   0.298  13.819 -0.2323 -0.5488 -0.0886
  566MPD2    C3 8395   0.166   0.402  13.726  0.0286  0.0210  0.2124
  566MPD2    C4 8396   0.054   0.485  13.732  0.1191 -0.0068  0.0286
  566MPD2    C5 8397   4.687   0.453  13.827 -0.5230  0.2330 -0.1175
  566MPD2     H 8398   0.261   0.230  13.813  0.5190  0.3672 -0.0907
  566MPD2    H1 8399   0.039   0.576  13.675 -0.6413  0.2077  0.5718
  566MPD2    H2 8400   4.623   0.349  14.006  1.4903 -0.0210  1.3559
  566MPD2    H3 8401   4.598   0.513  13.836 -0.1226  0.9044 -0.6111
  566MPD2     N 8402   0.267   0.429  13.630 -0.3368 -0.0936 -0.4278
  566MPD2    H5 8403   0.259   0.513  13.573 -0.4987  0.5007  0.4819
  566MPD2    N1 8404   0.119   0.193  14.030  0.2510 -0.1529 -0.2212
  566MPD2    H7 8405   0.210   0.147  14.030 -0.2667 -1.1820 -1.1313
  567TMC3    C1 8406   0.111   0.106  14.250  0.5687  0.6188  0.1346
  567TMC3    C2 8407   0.245   0.130  14.259  0.2794  0.3224 -0.2362
  567TMC3    C3 8408   0.309   0.090  14.369  0.5428  0.6474  0.5031
  567TMC3    C4 8409   0.044   0.028  14.337  0.0323  0.0820  0.0967
  567TMC3    C5 8410   0.114   4.703  14.442  0.3180  0.9551  0.1832
  567TMC3    C6 8411   0.247   0.005  14.461  1.0489 -0.4667  0.0791
  567TMC3     C 8412   0.041   0.161  14.136 -0.6824 -0.7969 -0.2256
  567TMC3     O 8413   4.645   0.152  14.133  0.3874 -0.1235 -0.2849
  567TMC3     H 8414   0.294   0.200  14.194  0.9670 -0.5910 -0.7043
  567TMC3    H1 8415   4.665   0.008  14.325  0.1866 -1.8282  1.8890
  567TMC3    H2 8416   0.291   4.693  14.552  0.8273  1.6563  1.0645
  567TMC3    C7 8417   0.053   4.604  14.524 -0.9646 -0.0078  0.4704
  567TMC3    C8 8418   0.445   0.132  14.401 -1.3062 -0.5972 -0.3653
  567TMC3    O1 8419   0.118   4.514  14.575 -0.1906 -0.8065  0.3726
  567TMC3    O2 8420   0.483   0.229  14.335 -0.4704 -0.3765 -0.7529
  568MPD2     C 8421   2.927   0.676  17.047 -0.6260  0.0372  0.4773
  568MPD2    C1 8422   2.794   0.690  17.092  0.3978  0.9030 -0.1343
  568MPD2    C2 8423   2.717   0.795  17.048  0.3194 -0.8082 -0.4435
  568MPD2    C3 8424   2.775   0.887  16.967 -0.4636  0.0013  0.3772
  568MPD2    C4 8425   2.909   0.872  16.923 -0.1131  0.5494 -0.5073
  568MPD2    C5 8426   2.981   0.756  16.955 -0.3788 -0.4093 -0.2534
  568MPD2     H 8427   2.612   0.805  17.076  0.7167  2.3994 -0.0802
  568MPD2    H1 8428   2.957   0.945  16.860  1.0483 -1.2014 -1.6447
  568MPD2    H2 8429   2.981   0.584  17.071 -1.6640 -0.9151 -0.8718
  568MPD2    H3 8430   3.084   0.750  16.922 -1.0337 -3.2739 -1.7283
  568MPD2     N 8431   2.702   1.008  16.944 -0.2706 -0.6222  0.1651
  568MPD2    H5 8432   2.605   1.018  16.972 -0.4727  2.2351 -1.5159
  568MPD2    N1 8433   2.755   0.589  17.186 -0.1286  0.1263  0.2868
  568MPD2    H7 8434   2.816   0.508  17.187  0.5745  0.6703  1.5934
  569TMC3    C1 8435   2.592   1.138  16.797  0.3366 -0.1231 -0.0741
  569TMC3    C2 8436   2.541   1.200  16.905 -0.1888  0.8393 -1.4198
  569TMC3    C3 8437   2.419   1.247  16.890  0.1664  0.1412  0.2679
  569TMC3    C4 8438   2.542   1.127  16.670  0.2548  0.6293 -0.3692
  569TMC3    C5 8439   2.409   1.171  16.656 -0.1002 -0.0636 -0.0283
  569TMC3    C6 8440   2.347   1.231  16.776  0.2138  0.5846  0.2728
  569TMC3     C 8441   2.723   1.079  16.827 -0.4166  0.6433 -0.5356
  569TMC3     O 8442   2.802   1.059  16.736  0.0428 -0.0538  0.0194
  569TMC3     H 8443   2.597   1.213  16.996 -1.8121 -1.4488 -0.1049
  569TMC3    H1 8444   2.600   1.074  16.595 -0.7386 -0.1754 -0.5825
  569TMC3    H2 8445   2.244   1.263  16.784 -0.6089 -2.0981  0.7110
  569TMC3    C7 8446   2.366   1.238  16.532  0.0595 -0.0296 -0.2377
  569TMC3    C8 8447   2.403   1.379  16.942  0.5590  0.4218  0.6492
  569TMC3    O1 8448   2.381   1.179  16.425  0.4443  0.2693 -0.5616
  569TMC3    O2 8449   2.335   1.460  16.878  0.0358 -0.1291 -0.2974
  570TMC3    C1 8450   1.340   4.390  16.047  0.2071  0.2631  0.1938
  570TMC3    C2 8451   1.397   4.353  15.926  0.4531  0.3475  0.1044
  570TMC3    C3 8452   1.460   4.451  15.856  0.2358  0.4347  0.5958
  570TMC3    C4 8453   1.362   4.514  16.098  0.5440  0.1897  0.8622
  570TMC3    C5 8454   1.420   4.612  16.022  0.5777 -0.4101  0.2458
  570TMC3    C6 8455   1.471   4.581  15.902 -0.9588  0.8065 -0.1055
  570TMC3     C 8456   1.318   4.286  16.137 -0.0819 -0.0284  0.2354
  570TMC3     O 8457   1.328   4.173  16.091 -0.0507  0.1982 -0.7085
  570TMC3     H 8458   1.412   4.249  15.900 -0.0192  0.5567 -0.9957
  570TMC3    H1 8459   1.327   4.549  16.195 -1.4172 -0.6112  0.4521
  570TMC3    H2 8460   1.524   4.653  15.840  0.3743 -0.2585 -0.1884
  570TMC3    C7 8461   1.492   4.716  16.090  0.5482 -0.4655  0.0225
  570TMC3    C8 8462   1.565   4.437  15.764  0.0039  0.3264  1.3618
  570TMC3    O1 8463   1.519   4.695  16.207 -0.2711 -0.2462 -0.0921
  570TMC3    O2 8464   1.675   4.472  15.810  0.3038 -0.3881  0.0158
  571MPD2     C 8465   0.225   1.338   0.331  0.5101 -0.0692  0.3090
  571MPD2    C1 8466   0.107   1.286   0.374 -0.0953  0.9286 -0.8794
  571MPD2    C2 8467   0.013   1.366   0.436 -0.4014  0.1215 -0.4548
  571MPD2    C3 8468   0.034   1.500   0.453 -0.9104 -0.0242 -0.4330
  571MPD2    C4 8469   0.141   1.557   0.390 -0.2256 -0.7537 -0.6643
  571MPD2    C5 8470   0.242   1.478   0.338  0.0533  0.4760 -0.7319
  571MPD2     H 8471   4.647   1.316   0.461  0.3347 -1.6329 -1.2729
  571MPD2    H1 8472   0.156   1.664   0.387 -2.7927 -0.3102  1.9659
  571MPD2    H2 8473   0.308   1.276   0.302 -0.6121 -1.1607 -0.5428
  571MPD2    H3 8474   0.327   1.521   0.286  0.2601  0.9097 -0.0290
  571MPD2     N 8475   4.654   1.583   0.493  0.0654  0.5448  0.0969
  571MPD2    H5 8476   4.674   1.682   0.496 -0.4487  0.7252 -2.3074
  571MPD2    N1 8477   0.094   1.145   0.350  0.2279 -0.5853  0.1854
  571MPD2    H7 8478   0.178   1.111   0.304 -0.6100  0.9896 -2.4815
  572TMC3    C1 8479   4.442   1.637   0.592 -0.1043 -0.2663  0.8694
  572TMC3    C2 8480   4.356   1.614   0.695  0.1403  0.0557  0.2692
  572TMC3    C3 8481   4.264   1.709   0.731 -0.1103  0.0140  0.1503
  572TMC3    C4 8482   4.450   1.758   0.538  0.1021  0.8241 -0.7940
  572TMC3    C5 8483   4.363   1.856   0.578  0.4742  0.6670  0.0401
  572TMC3    C6 8484   4.267   1.838   0.676 -0.3733 -0.6886  0.3626
  572TMC3     C 8485   4.534   1.534   0.553  0.5963  0.5299 -0.3554
  572TMC3     O 8486   4.510   1.421   0.597 -0.3027 -1.0361  0.4480
  572TMC3     H 8487   4.345   1.511   0.727  0.2826  0.2696  1.0178
  572TMC3    H1 8488   4.525   1.782   0.463  0.3751  1.2478 -0.3809
  572TMC3    H2 8489   4.192   1.915   0.694  1.0444  1.0221 -1.0664
  572TMC3    C7 8490   4.377   1.982   0.505 -0.6144  0.2599 -0.1338
  572TMC3    C8 8491   4.203   1.699   0.869 -0.7534  0.0204  0.8544
  572TMC3    O1 8492   4.275   2.049   0.515 -0.2076  0.0512  0.6518
  572TMC3    O2 8493   4.181   1.587   0.915  0.4192  0.3344 -0.3032
  573MPD2     C 8494   1.350   2.107   1.296  0.3870  0.3240 -0.0050
  573MPD2    C1 8495   1.350   2.213   1.205  0.2786 -0.2806 -0.1187
  573MPD2    C2 8496   1.342   2.180   1.070 -0.2756 -0.2722  0.0484
  573MPD2    C3 8497   1.315   2.047   1.041  0.2837  0.1768  0.8177
  573MPD2    C4 8498   1.309   1.947   1.140  0.8560  0.0557  0.0762
  573MPD2    C5 8499   1.336   1.978   1.264 -0.2041  0.1388  0.1466
  573MPD2     H 8500   1.342   2.255   0.992  1.3826  0.2050  0.4968
  573MPD2    H1 8501   1.304   1.842   1.112 -0.7301  0.1210  0.0976
  573MPD2    H2 8502   1.378   2.131   1.398 -0.6352  1.4898 -0.0000
  573MPD2    H3 8503   1.336   1.907   1.346  0.0881  0.5545  0.5037
  573MPD2     N 8504   1.276   1.998   0.915 -0.7537 -0.1296 -0.0378
  573MPD2    H5 8505   1.237   1.905   0.901  2.0478 -1.4106  0.6034
  573MPD2    N1 8506   1.383   2.337   1.251  0.6034  0.4877  0.7904
  573MPD2    H7 8507   1.427   2.344   1.342  0.4498  0.2265  0.8867
  574TMC3    C1 8508   1.246   1.987   0.681 -0.7210  0.0261 -0.3877
  574TMC3    C2 8509   1.113   1.953   0.698 -0.0731  0.7620  0.0948
  574TMC3    C3 8510   1.036   1.927   0.589  0.3704 -0.6609  0.8070
  574TMC3    C4 8511   1.296   2.037   0.565 -0.4404  0.2279  0.5073
  574TMC3    C5 8512   1.215   2.005   0.454  0.6598 -0.2527 -0.2887
  574TMC3    C6 8513   1.089   1.951   0.463  0.1093 -0.7815 -0.0805
  574TMC3     C 8514   1.301   2.058   0.793 -0.3526  0.1551 -0.3872
  574TMC3     O 8515   1.361   2.164   0.777  0.1390 -0.0899 -0.3928
  574TMC3     H 8516   1.062   1.956   0.794 -0.4912 -0.2704 -0.0949
  574TMC3    H1 8517   1.403   2.054   0.558 -0.5821  1.4016  1.2678
  574TMC3    H2 8518   1.032   1.915   0.379 -1.5974 -0.5257  0.9616
  574TMC3    C7 8519   1.251   2.044   0.321  0.4908  0.3605  0.2063
  574TMC3    C8 8520   0.901   1.873   0.615 -0.1111  0.1491 -0.3944
  574TMC3    O1 8521   1.163   2.017   0.235  0.5156  0.4124 -0.2581
  574TMC3    O2 8522   0.881   1.819   0.722 -0.3389 -0.2148  0.3047
  575TMC3    C1 8523   3.019   2.940  11.022  0.3750 -0.8666  0.5933
  575TMC3    C2 8524   2.935   2.863  11.105 -0.6587  0.6430 -0.4638
  575TMC3    C3 8525   2.843   2.782  11.040  0.2744 -0.0703  0.3244
  575TMC3    C4 8526   2.994   2.941  10.891  0.4237 -0.5512 -0.1983
  575TMC3    C5 8527   2.890   2.866  10.841  0.1140 -0.2192 -0.1235
  575TMC3    C6 8528   2.817   2.778  10.912 -0.5550  0.3167  0.5554
  575TMC3     C 8529   3.115   3.025  11.093  0.4224 -0.3810 -0.0889
  575TMC3     O 8530   3.122   3.015  11.214  0.4531  0.5224 -0.5133
  575TMC3     H 8531   2.948   2.857  11.212  0.7172  0.5940 -0.6368
  575TMC3    H1 8532   3.049   3.009  10.829 -0.4979  0.2212 -0.1685
  575TMC3    H2 8533   2.731   2.723  10.873  1.4309 -2.4542  0.0488
  575TMC3    C7 8534   2.854   2.900  10.701 -0.6286  0.2439 -0.4548
  575TMC3    C8 8535   2.743   2.722  11.124  0.6487 -0.0748  0.4514
  575TMC3    O1 8536   2.925   2.985  10.643 -0.1666 -0.0749  0.7483
  575TMC3    O2 8537   2.629   2.721  11.077 -0.1323 -0.7098  0.2788
  576MPD2     C 8538   3.292   3.943  12.639  0.9132  0.4733 -0.3727
  576MPD2    C1 8539   3.217   4.055  12.601  0.4500 -0.1691 -0.5505
  576MPD2    C2 8540   3.137   4.111  12.696  0.7132 -0.3593 -0.0615
  576MPD2    C3 8541   3.127   4.064  12.828 -0.0066 -0.2509 -0.7077
  576MPD2    C4 8542   3.193   3.950  12.854  0.3961 -0.4681  0.3851
  576MPD2    C5 8543   3.279   3.894  12.767  0.2463 -0.5905  0.7061
  576MPD2     H 8544   3.078   4.199  12.673  2.9784  0.7409 -1.6929
  576MPD2    H1 8545   3.183   3.898  12.948 -1.0301 -0.7588  0.0604
  576MPD2    H2 8546   3.361   3.895  12.571  0.7838 -0.8237  0.4221
  576MPD2    H3 8547   3.335   3.807  12.799  0.8160 -0.7555 -0.7313
  576MPD2     N 8548   3.033   4.127  12.913 -0.2788  0.5952 -0.2511
  576MPD2    H5 8549   2.995   4.212  12.873 -0.2669  0.2824 -0.9294
  576MPD2    N1 8550   3.224   4.111  12.468  0.0634 -0.9042 -0.6581
  576MPD2    H7 8551   3.154   4.179  12.439  1.4691  2.0454  2.8727
  577TMC3    C1 8552   3.319   4.162  12.248  0.1284 -0.0870 -0.7668
  577TMC3    C2 8553   3.411   4.143  12.152  0.1551  0.0554  0.2522
  577TMC3    C3 8554   3.436   4.237  12.061 -0.5331  0.1984  0.3692
  577TMC3    C4 8555   3.235   4.272  12.239 -0.5571  0.7029 -0.0268
  577TMC3    C5 8556   3.253   4.360  12.134  0.3101 -0.3398  0.7738
  577TMC3    C6 8557   3.349   4.346  12.043 -0.0797 -0.0599  0.6216
  577TMC3     C 8558   3.326   4.084  12.377 -0.0963  0.2770  0.5644
  577TMC3     O 8559   3.422   4.009  12.386  0.0320  0.0849  0.1757
  577TMC3     H 8560   3.472   4.055  12.165  0.2482  0.2621  1.2170
  577TMC3    H1 8561   3.149   4.281  12.304 -0.9082 -2.0888 -0.1233
  577TMC3    H2 8562   3.376   4.425  11.973  0.1064 -1.4853 -0.9111
  577TMC3    C7 8563   3.198   4.497  12.155 -0.1090  0.0448 -0.3141
  577TMC3    C8 8564   3.544   4.210  11.962  0.2949  0.2695 -0.1815
  577TMC3    O1 8565   3.151   4.520  12.267  0.7465  0.6420  0.2457
  577TMC3    O2 8566   3.612   4.109  11.983  0.2105 -0.1737  0.0719
  578MPD2     C 8567   0.823   0.068   1.142 -0.3613  0.3437 -0.8750
  578MPD2    C1 8568   0.899   4.708   1.065 -0.3686 -0.0397  0.1008
  578MPD2    C2 8569   1.033   0.018   1.053 -0.9539 -0.0585 -0.6166
  578MPD2    C3 8570   1.100   0.113   1.134  0.1074  0.1958 -0.3648
  578MPD2    C4 8571   1.021   0.177   1.231  0.1629 -0.3558  0.3696
  578MPD2    C5 8572   0.886   0.148   1.232  0.0949 -0.0583 -1.1675
  578MPD2     H 8573   1.095   4.705   0.973  1.1082  0.3813  0.7696
  578MPD2    H1 8574   1.067   0.253   1.293  0.5251  0.0910 -0.4473
  578MPD2    H2 8575   0.715   0.075   1.137 -0.5392 -2.2703 -0.4799
  578MPD2    H3 8576   0.824   0.215   1.291  0.2940 -1.9062  1.1272
  578MPD2     N 8577   1.231   0.141   1.106  0.0489 -0.0502  0.0122
  578MPD2    H5 8578   1.277   0.095   1.029 -0.7750  0.7701 -0.9747
  578MPD2    N1 8579   0.830   4.617   0.981 -0.2799 -0.8802 -0.0107
  578MPD2    H7 8580   0.729   4.618   0.978 -0.3165  0.1652  1.7185
  579TMC3    C1 8581   1.453   0.226   1.155 -0.0642 -0.4885 -0.2640
  579TMC3    C2 8582   1.524   0.341   1.181  0.1006 -0.1698 -0.3562
  579TMC3    C3 8583   1.652   0.356   1.134 -0.2273 -0.0464 -0.3389
  579TMC3    C4 8584   1.513   0.123   1.090  0.0879 -0.0114  0.5002
  579TMC3    C5 8585   1.648   0.140   1.054 -0.2949 -0.1052 -0.0819
  579TMC3    C6 8586   1.727   0.251   1.077 -0.0149 -0.6066 -0.4806
  579TMC3     C 8587   1.308   0.221   1.188  0.2009 -0.0280 -0.2122
  579TMC3     O 8588   1.277   0.310   1.271  0.2570 -0.6617  0.3085
  579TMC3     H 8589   1.473   0.420   1.236 -3.6343 -1.5946 -1.7426
  579TMC3    H1 8590   1.457   0.032   1.075 -3.1981  2.3230 -1.4525
  579TMC3    H2 8591   1.828   0.257   1.038 -0.0091  0.8860 -0.2289
  579TMC3    C7 8592   1.717   0.029   0.987 -0.2270  0.7142 -0.0502
  579TMC3    C8 8593   1.728   0.468   1.188 -0.5164 -0.2494  0.0201
  579TMC3    O1 8594   1.836   0.046   0.967  0.2352  0.1204  0.0303
  579TMC3    O2 8595   1.672   0.549   1.258 -0.0624  0.5153 -0.8393
  580TMC3    C1 8596   0.476   3.196  11.740 -1.0051  0.4539 -0.2226
  580TMC3    C2 8597   0.554   3.165  11.632  0.3049 -0.0899 -0.4644
  580TMC3    C3 8598   0.573   3.034  11.618  0.3177 -0.3180 -0.3830
  580TMC3    C4 8599   0.439   3.107  11.838 -0.1016  0.0186  0.5536
  580TMC3    C5 8600   0.474   2.980  11.824 -0.4097 -0.4032  0.2936
  580TMC3    C6 8601   0.544   2.940  11.711  0.0508  0.3328  0.1862
  580TMC3     C 8602   0.426   3.329  11.755 -0.7786  1.0389  0.2588
  580TMC3     O 8603   0.319   3.347  11.807  0.6683 -0.2906  0.2436
  580TMC3     H 8604   0.580   3.237  11.555  1.0318  0.9779  0.7876
  580TMC3    H1 8605   0.408   3.142  11.935  0.6031  1.0673  0.3983
  580TMC3    H2 8606   0.569   2.834  11.707 -0.1580  0.3607 -1.5277
  580TMC3    C7 8607   0.533   2.934  11.946  0.0173  0.2835  1.0368
  580TMC3    C8 8608   0.689   3.001  11.542  0.5218  0.2456 -0.0536
  580TMC3    O1 8609   0.555   3.014  12.037  0.8033 -0.0835  0.5988
  580TMC3    O2 8610   0.690   2.889  11.498  0.5578 -0.2237 -0.0474
  581MPD2     C 8611   3.158   3.765  15.456 -0.4600  0.4521  0.0499
  581MPD2    C1 8612   3.156   3.677  15.347 -0.6567  0.0044 -0.5643
  581MPD2    C2 8613   3.087   3.718  15.234  0.4455 -0.1486 -0.0617
  581MPD2    C3 8614   3.034   3.851  15.230 -0.5287 -0.7883  0.1700
  581MPD2    C4 8615   3.041   3.937  15.346 -0.6013 -0.1462 -0.1643
  581MPD2    C5 8616   3.095   3.883  15.461  0.0234 -0.2745  0.7096
  581MPD2     H 8617   3.100   3.655  15.147 -1.7467  1.2354 -1.3978
  581MPD2    H1 8618   3.015   4.042  15.347 -0.9430 -0.2215 -1.2869
  581MPD2    H2 8619   3.208   3.736  15.548  0.1908 -0.2097 -0.5072
  581MPD2    H3 8620   3.107   3.940  15.552  1.1822  1.4542 -0.5210
  581MPD2     N 8621   2.974   3.901  15.115 -0.4524 -0.1765  0.7267
  581MPD2    H5 8622   2.934   3.994  15.120 -0.2333 -0.0941  0.9860
  581MPD2    N1 8623   3.231   3.550  15.359  0.0192  0.6087  0.3648
  581MPD2    H7 8624   3.292   3.538  15.439 -1.3034  2.2732  1.6333
  582TMC3    C1 8625   3.336   3.352  15.289 -0.1824 -0.5296  0.1689
  582TMC3    C2 8626   3.423   3.352  15.397  0.8888  0.3034  0.1582
  582TMC3    C3 8627   3.520   3.253  15.397 -0.6004  0.5170 -0.0332
  582TMC3    C4 8628   3.325   3.244  15.208  0.9319  0.2183 -0.2139
  582TMC3    C5 8629   3.412   3.142  15.215 -0.1750 -0.0600  0.2832
  582TMC3    C6 8630   3.519   3.151  15.300  0.3926 -0.0075 -0.3764
  582TMC3     C 8631   3.230   3.443  15.270 -0.0269 -0.5437  0.3078
  582TMC3     O 8632   3.150   3.427  15.180  0.0105 -0.6564 -0.0047
  582TMC3     H 8633   3.438   3.430  15.471  2.2394 -0.9624  1.2241
  582TMC3    H1 8634   3.257   3.242  15.124  1.4903  0.6739 -0.6741
  582TMC3    H2 8635   3.583   3.065  15.316 -2.3580 -2.5753 -3.2906
  582TMC3    C7 8636   3.337   3.014  15.205  0.7471  0.7577  0.7162
  582TMC3    C8 8637   3.543   3.197  15.531 -0.2539  0.2806  0.0027
  582TMC3    O1 8638   3.217   3.019  15.214 -0.2675 -0.0929 -0.4969
  582TMC3    O2 8639   3.463   3.226  15.618  0.4101  0.3368  0.6618
  583MPD2     C 8640   3.766   4.533  17.031 -0.0433  0.0730 -1.0781
  583MPD2    C1 8641   3.772   4.649  16.951 -0.2043 -0.5671  0.1568
  583MPD2    C2 8642   3.742   0.043  17.003  0.3065 -0.5681  0.0377
  583MPD2    C3 8643   3.701   0.054  17.135  0.2952 -0.0892 -0.0759
  583MPD2    C4 8644   3.680   4.663  17.204  0.0282  0.8475 -1.0365
  583MPD2    C5 8645   3.709   4.541  17.154 -0.2417 -0.2783 -1.0558
  583MPD2     H 8646   3.737   0.128  16.936 -1.2563  0.0444  0.9337
  583MPD2    H1 8647   3.650   4.662  17.309 -2.3755 -3.3879 -1.7643
  583MPD2    H2 8648   3.787   4.436  16.988 -1.0827 -0.8153  0.4056
  583MPD2    H3 8649   3.695   4.447  17.207  0.9075  0.6734  0.9018
  583MPD2     N 8650   3.673   0.179  17.194  0.0128  0.3936 -0.6035
  583MPD2    H5 8651   3.690   0.257  17.132 -0.4034  0.4990 -0.5810
  583MPD2    N1 8652   3.805   4.650  16.814 -0.0502 -0.0917  0.1255
  583MPD2    H7 8653   3.801   0.013  16.765  1.5971  0.0564  0.2482
  584TMC3    C1 8654   3.581   0.345  17.330  0.2565 -0.1421 -0.1116
  584TMC3    C2 8655   3.569   0.418  17.212  0.4833  0.8313 -0.1386
  584TMC3    C3 8656   3.545   0.553  17.226  0.2817  0.0146  0.4880
  584TMC3    C4 8657   3.585   0.400  17.454  0.1045  0.2375 -0.2059
  584TMC3    C5 8658   3.559   0.535  17.458  1.0687  0.4120 -0.4185
  584TMC3    C6 8659   3.526   0.609  17.347 -0.1782  0.0101  0.0134
  584TMC3     C 8660   3.622   0.209  17.318  0.3674 -0.1314  0.1549
  584TMC3     O 8661   3.596   0.137  17.411  0.5145 -0.3723 -0.1086
  584TMC3     H 8662   3.550   0.374  17.115 -1.8838  2.0552 -0.2368
  584TMC3    H1 8663   3.598   0.342  17.545  1.2443  0.2021 -0.4021
  584TMC3    H2 8664   3.473   0.703  17.357  2.9559  1.9342 -1.4621
  584TMC3    C7 8665   3.612   0.592  17.578 -0.0769  0.8973 -0.6803
  584TMC3    C8 8666   3.546   0.629  17.107  0.0669 -0.1592  0.2087
  584TMC3    O1 8667   3.701   0.535  17.637  0.0527  0.6393  0.2909
  584TMC3    O2 8668   3.557   0.574  16.998 -0.2888 -0.2358 -0.2685
  585MPD2     C 8669   3.331   4.194  17.693  0.3050  0.8443 -0.1159
  585MPD2    C1 8670   3.195   4.222  17.683 -0.3629  1.3424  0.3881
  585MPD2    C2 8671   3.124   4.149  17.594 -0.1520  0.2151  0.6283
  585MPD2    C3 8672   3.182   4.040  17.525  1.0489 -0.7703 -0.7013
  585MPD2    C4 8673   3.316   4.008  17.540  0.2003  0.1773 -0.0435
  585MPD2    C5 8674   3.387   4.079  17.633 -0.3274  0.3246 -0.2139
  585MPD2     H 8675   3.017   4.165  17.588 -0.4574 -1.3042  1.8335
  585MPD2    H1 8676   3.367   3.924  17.493  2.4868  0.9065  1.1109
  585MPD2    H2 8677   3.395   4.248   0.055  3.2565 -1.4252 -1.0855
  585MPD2    H3 8678   3.490   4.053  17.657  0.6896  3.5766 -0.9613
  585MPD2     N 8679   3.114   3.932  17.462 -0.3624  0.8969 -0.5722
  585MPD2    H5 8680   3.167   3.853  17.426  0.8406  1.1603  0.6440
  585MPD2    N1 8681   3.143   4.334   0.042 -0.0024 -0.4974  0.6294
  585MPD2    H7 8682   3.207   4.383   0.105 -0.0342  0.6354 -0.2230
  586TMC3    C1 8683   2.928   3.793  17.398  0.1986  0.3771 -0.1353
  586TMC3    C2 8684   3.013   3.688  17.403 -0.2003  0.1548  0.0342
  586TMC3    C3 8685   2.961   3.561  17.393 -0.8740  0.0957  0.0913
  586TMC3    C4 8686   2.796   3.785  17.363 -0.2440  0.2858  0.5640
  586TMC3    C5 8687   2.748   3.658  17.352 -0.5318 -0.0370 -0.6305
  586TMC3    C6 8688   2.827   3.546  17.366  0.0982 -0.2913 -0.3571
  586TMC3     C 8689   2.977   3.924  17.439  0.1049  0.7685 -0.2608
  586TMC3     O 8690   2.895   4.011  17.458 -0.2505  0.7015  0.4779
  586TMC3     H 8691   3.120   3.686  17.418 -0.3303  3.0508  1.3752
  586TMC3    H1 8692   2.741   3.876  17.343  1.7902  1.2141 -0.8401
  586TMC3    H2 8693   2.786   3.447  17.383  0.3141 -0.6478 -1.8918
  586TMC3    C7 8694   2.609   3.623  17.342  0.5291 -0.2524 -0.0011
  586TMC3    C8 8695   3.036   3.443  17.431  0.5489  0.2283 -0.8260
  586TMC3    O1 8696   2.590   3.505  17.359 -0.4311  0.5886 -0.1268
  586TMC3    O2 8697   3.139   3.463  17.500 -0.3044  0.4128 -0.5416
  587TMC3    C1 8698   0.367   1.928  16.382 -0.7791 -0.9608  0.2515
  587TMC3    C2 8699   0.384   2.050  16.445  0.3349 -0.1074 -0.4692
  587TMC3    C3 8700   0.504   2.084  16.508  0.4728  0.4594  0.3659
  587TMC3    C4 8701   0.472   1.844  16.371 -0.0363 -0.5765 -0.2089
  587TMC3    C5 8702   0.590   1.879  16.420  0.6300 -0.1494 -0.2586
  587TMC3    C6 8703   0.611   1.996  16.493  0.2493  0.0396  0.4935
  587TMC3     C 8704   0.244   1.863  16.380 -0.7422 -0.8584  0.1005
  587TMC3     O 8705   0.240   1.757  16.318  0.1817 -0.1577 -0.1213
  587TMC3     H 8706   0.298   2.114  16.462  1.2633  1.4660 -1.6574
  587TMC3    H1 8707   0.463   1.761  16.303 -0.5228 -0.0285 -0.8197
  587TMC3    H2 8708   0.707   2.025  16.533  1.0547 -3.2862  1.0205
  587TMC3    C7 8709   0.690   1.779  16.469  0.8066 -0.2306 -0.2001
  587TMC3    C8 8710   0.516   2.188  16.606  0.0655 -0.6363 -0.4018
  587TMC3    O1 8711   0.789   1.812  16.530  0.3460 -0.3822 -0.1442
  587TMC3    O2 8712   0.607   2.177  16.687 -0.2606  0.2260  0.4339
  588TMC3    C1 8713   2.958   0.468   9.824 -0.5713 -0.7225  0.5406
  588TMC3    C2 8714   2.936   0.346   9.883 -0.3114 -0.2626 -0.1578
  588TMC3    C3 8715   2.926   0.337  10.020  0.1295  0.5234  0.0806
  588TMC3    C4 8716   2.973   0.580   9.902  0.4930  0.2173 -0.4574
  588TMC3    C5 8717   2.956   0.574  10.037  0.4621 -0.1730 -0.2708
  588TMC3    C6 8718   2.937   0.450  10.101 -0.4278 -0.8453  0.3115
  588TMC3     C 8719   2.898   0.482   9.688  0.3704 -0.3081  0.2634
  588TMC3     O 8720   2.835   0.387   9.635  0.9478  0.0945 -0.2538
  588TMC3     H 8721   2.913   0.261   9.819 -2.2066 -0.1562  0.3888
  588TMC3    H1 8722   2.993   0.678   9.859 -0.4782  0.2175 -0.9233
  588TMC3    H2 8723   2.911   0.444  10.206 -0.8602  1.6277  0.3538
  588TMC3    C7 8724   2.956   0.698  10.106 -0.0663 -0.2938 -0.4457
  588TMC3    C8 8725   2.831   0.241  10.065  0.0912 -0.0227  0.0506
  588TMC3    O1 8726   3.020   0.711  10.208 -0.2289 -0.1396  0.2309
  588TMC3    O2 8727   2.758   0.280  10.156  0.0458  0.2530  0.2011
  589TMC3    C1 8728   1.819   3.811   1.372  0.6538  0.1061  0.3157
  589TMC3    C2 8729   1.943   3.845   1.427 -0.4999  1.4102 -0.2730
  589TMC3    C3 8730   2.042   3.758   1.405  0.5887  0.6190 -0.0502
  589TMC3    C4 8731   1.797   3.697   1.298  0.5333 -0.3859 -0.4838
  589TMC3    C5 8732   1.905   3.616   1.272  0.1290 -0.2345 -0.3402
  589TMC3    C6 8733   2.026   3.657   1.320 -0.4409 -0.2055  0.1036
  589TMC3     C 8734   1.704   3.897   1.384  0.2191 -0.5345  0.3706
  589TMC3     O 8735   1.599   3.856   1.338 -0.3641  0.0710 -0.2242
  589TMC3     H 8736   1.955   3.938   1.481  0.2741  0.2273  1.6281
  589TMC3    H1 8737   1.697   3.656   1.285 -0.2875  1.8707 -1.1948
  589TMC3    H2 8738   2.107   3.587   1.306 -1.8244 -1.6027 -0.9711
  589TMC3    C7 8739   1.895   3.506   1.186 -0.1787  0.1680  0.2487
  589TMC3    C8 8740   2.162   3.772   1.486  0.2257  0.5539 -0.3692
  589TMC3    O1 8741   1.984   3.425   1.192 -0.1392 -0.8259  0.2524
  589TMC3    O2 8742   2.159   3.855   1.572 -0.0336  0.5710  0.1743
  590MPD2     C 8743   1.669   1.080  16.736  1.1152  0.0968  0.8310
  590MPD2    C1 8744   1.570   1.143  16.657 -0.4574  0.1727  0.0041
  590MPD2    C2 8745   1.612   1.257  16.585  0.2725 -0.3520  0.7055
  590MPD2    C3 8746   1.749   1.301  16.597 -0.3520  0.2380 -0.0948
  590MPD2    C4 8747   1.834   1.242  16.684 -0.8392 -0.0563  0.4440
  590MPD2    C5 8748   1.800   1.119  16.746 -0.2503  0.1146  0.5898
  590MPD2     H 8749   1.537   1.310  16.528  0.6065  0.0036  0.6065
  590MPD2    H1 8750   1.937   1.274  16.695 -1.4895  2.0009  0.5015
  590MPD2    H2 8751   1.652   0.987  16.790  0.3941  0.3954  1.1162
  590MPD2    H3 8752   1.875   1.075  16.811 -0.9530 -1.4288  0.3538
  590MPD2     N 8753   1.787   1.412  16.513 -0.2719 -0.4157 -0.7129
  590MPD2    H5 8754   1.716   1.438  16.445 -0.9857  1.1926  0.6622
  590MPD2    N1 8755   1.437   1.098  16.641  0.5171  0.5472 -0.2381
  590MPD2    H7 8756   1.377   1.147  16.575  0.4838  0.8581  0.0197
  591TMC3    C1 8757   1.919   1.592  16.430  0.1462 -0.3067  0.5131
  591TMC3    C2 8758   1.869   1.548  16.313 -0.4217  0.1832 -0.0650
  591TMC3    C3 8759   1.852   1.644  16.221 -0.1644 -0.0045 -0.3500
  591TMC3    C4 8760   1.943   1.724  16.458 -0.0611 -0.2514 -0.5100
  591TMC3    C5 8761   1.902   1.817  16.369  0.2928  0.0421  0.0092
  591TMC3    C6 8762   1.865   1.782  16.240 -0.3127 -0.3081  0.0522
  591TMC3     C 8763   1.898   1.492  16.535 -0.4277  0.0904 -0.3397
  591TMC3     O 8764   1.974   1.491  16.629  0.4280  0.6820  0.1226
  591TMC3     H 8765   1.867   1.444  16.283 -1.3046 -0.7031  3.0568
  591TMC3    H1 8766   1.972   1.742  16.561  0.5852 -1.4163 -0.4796
  591TMC3    H2 8767   1.865   1.845  16.152  0.6273  1.0688  1.0483
  591TMC3    C7 8768   1.928   1.957  16.399 -0.3878  0.4392  0.0538
  591TMC3    C8 8769   1.881   1.590  16.086  0.6941 -0.2796 -0.1972
  591TMC3    O1 8770   1.991   1.987  16.495  0.1408 -0.3444  0.1198
  591TMC3    O2 8771   1.844   1.480  16.047 -0.2554 -0.0232  0.6208
  592MPD2     C 8772   1.936   3.147  11.448  0.7232 -1.1134  0.2081
  592MPD2    C1 8773   1.941   3.186  11.580 -0.0923 -0.2907  0.3427
  592MPD2    C2 8774   1.868   3.108  11.668 -0.0327  0.2460  0.0304
  592MPD2    C3 8775   1.799   2.994  11.636  0.5144 -0.8345 -0.2133
  592MPD2    C4 8776   1.801   2.956  11.504 -0.3249  0.5397  0.8270
  592MPD2    C5 8777   1.867   3.028  11.416  1.1286  0.2608 -0.1589
  592MPD2     H 8778   1.864   3.135  11.773  2.0669 -0.5871  0.3160
  592MPD2    H1 8779   1.750   2.870  11.463 -0.3357  0.4876  0.9485
  592MPD2    H2 8780   1.996   3.190  11.369 -1.4526  1.0479 -0.2484
  592MPD2    H3 8781   1.862   3.005  11.310 -2.0304 -0.3569  0.1192
  592MPD2     N 8782   1.738   2.924  11.741 -0.6353 -0.4729  0.1560
  592MPD2    H5 8783   1.742   2.981  11.825 -1.1397 -0.1577 -0.0377
  592MPD2    N1 8784   2.012   3.304  11.611 -0.2668  0.8882  0.0521
  592MPD2    H7 8785   2.053   3.354  11.533 -0.9877  0.5141 -0.5665
  593TMC3    C1 8786   2.124   3.469  11.743  0.3641  0.3052 -0.5407
  593TMC3    C2 8787   2.142   3.524  11.864  0.4992 -0.0848 -0.0147
  593TMC3    C3 8788   2.258   3.600  11.893 -0.3132  0.2217 -0.0200
  593TMC3    C4 8789   2.206   3.507  11.639  0.2620 -0.2537  0.1696
  593TMC3    C5 8790   2.294   3.608  11.655  0.5098 -0.4811  0.3024
  593TMC3    C6 8791   2.332   3.646  11.788  0.1219 -0.0442 -0.6161
  593TMC3     C 8792   2.027   3.361  11.736 -0.4449  0.5652 -0.0052
  593TMC3     O 8793   1.967   3.331  11.837 -0.1082 -0.5518  0.0178
  593TMC3     H 8794   2.091   3.488  11.952  0.0371  1.3178  0.2837
  593TMC3    H1 8795   2.214   3.446  11.550  2.0059 -0.5743  0.5508
  593TMC3    H2 8796   2.408   3.723  11.794  1.0214 -1.0018  0.2220
  593TMC3    C7 8797   2.362   3.679  11.555  0.3172 -0.8203 -0.0875
  593TMC3    C8 8798   2.264   3.655  12.027  0.2838  0.6620  0.4058
  593TMC3    O1 8799   2.466   3.739  11.583 -0.2847 -0.1255 -0.0823
  593TMC3    O2 8800   2.164   3.710  12.070 -0.0788 -0.2536 -0.4801
  594MPD2     C 8801   0.409   1.963  14.013  0.0187 -0.4420 -0.0123
  594MPD2    C1 8802   0.449   1.872  14.111 -0.0708  0.9432  0.2933
  594MPD2    C2 8803   0.560   1.895  14.189 -0.2146  0.1840 -0.3680
  594MPD2    C3 8804   0.637   2.007  14.161 -0.4144  0.0594  0.4356
  594MPD2    C4 8805   0.601   2.093  14.057  0.2771  0.0920  0.2356
  594MPD2    C5 8806   0.484   2.073  13.990  0.1135  0.1038  0.4874
  594MPD2     H 8807   0.595   1.832  14.269 -4.4092 -1.1476  0.4480
  594MPD2    H1 8808   0.639   2.195  14.053 -1.6332  0.8411  0.6903
  594MPD2    H2 8809   0.310   1.959  13.970  0.7106  0.4056 -1.6790
  594MPD2    H3 8810   0.448   2.151  13.923  1.2025 -0.1446 -0.3730
  594MPD2     N 8811   0.732   2.040  14.250  0.0582 -0.5786 -0.6023
  594MPD2    H5 8812   0.732   1.989  14.338  2.7662  1.7708  0.7731
  594MPD2    N1 8813   0.361   1.767  14.143  0.0775 -0.3260 -0.1968
  594MPD2    H7 8814   0.276   1.755  14.089 -0.5601 -0.7319  0.8995
  595TMC3    C1 8815   1.101   2.249  14.443  0.3235  0.0532 -0.6663
  595TMC3    C2 8816   1.030   2.179  14.346  0.1276  0.0983  0.4816
  595TMC3    C3 8817   0.900   2.159  14.357 -0.4005 -0.1294 -0.1371
  595TMC3    C4 8818   1.040   2.317  14.544  0.0151 -0.0202  0.0898
  595TMC3    C5 8819   0.899   2.306  14.543  0.4753  0.2260 -0.6777
  595TMC3    C6 8820   0.831   2.224  14.456 -0.4119 -0.3487  0.7979
  595TMC3     C 8821   1.246   2.256  14.449 -0.7250  0.0643  0.1972
  595TMC3     O 8822   1.295   2.262  14.559 -0.6803  0.4418  0.3230
  595TMC3     H 8823   1.085   2.140  14.261  0.9075  0.7592  0.6803
  595TMC3    H1 8824   1.094   2.372  14.620 -1.3088  0.2793  0.7951
  595TMC3    H2 8825   0.725   2.239  14.440 -0.2961  0.3581  0.7051
  595TMC3    C7 8826   0.827   2.429  14.573  0.0679  0.1367  0.2454
  595TMC3    C8 8827   0.830   2.135  14.236 -0.3285 -0.3844  0.4760
  595TMC3    O1 8828   0.716   2.421  14.625  0.1704  0.6831 -0.0082
  595TMC3    O2 8829   0.874   2.174  14.128 -0.5821 -0.0665  0.0422
  596MPD2     C 8830   4.525   0.000  16.525  0.2439  0.7562 -0.0909
  596MPD2    C1 8831   4.457   0.104  16.471  0.7579  0.0870  0.6247
  596MPD2    C2 8832   4.386   0.096  16.353  0.8048 -0.5914 -0.3350
  596MPD2    C3 8833   4.377   4.701  16.286  0.2076 -0.4098  0.1894
  596MPD2    C4 8834   4.438   4.597  16.344 -0.1110 -0.7414  0.2726
  596MPD2    C5 8835   4.510   4.611  16.458  0.4896  0.2432 -0.2704
  596MPD2     H 8836   4.330   0.182  16.317  1.6873  0.6336  1.2439
  596MPD2    H1 8837   4.446   4.506  16.287 -0.2471 -0.1550 -0.6761
  596MPD2    H2 8838   4.585   0.020  16.613 -1.5063  0.7371  1.1049
  596MPD2    H3 8839   4.543   4.519  16.503  0.6976  0.3467 -0.2153
  596MPD2     N 8840   4.310   4.685  16.161  0.1205  0.2582 -0.6262
  596MPD2    H5 8841   4.275   4.592  16.139 -0.8014  0.1466  1.2607
  596MPD2    N1 8842   4.455   0.228  16.538 -0.4549 -0.2454  0.0980
  596MPD2    H7 8843   4.439   0.309  16.478 -1.2262 -0.9054 -0.5906
  597TMC3    C1 8844   4.470   0.398  16.704 -0.1275  0.4429 -0.9978
  597TMC3    C2 8845   4.527   0.487  16.621 -0.3335  1.0299  0.0886
  597TMC3    C3 8846   4.529   0.620  16.654 -0.1508  0.2421 -0.0271
  597TMC3    C4 8847   4.415   0.434  16.829  0.4469 -1.1785 -0.0305
  597TMC3    C5 8848   4.428   0.567  16.864 -1.2625 -0.5052 -0.1485
  597TMC3    C6 8849   4.473   0.661  16.774  0.4604 -0.0663 -0.0775
  597TMC3     C 8850   4.472   0.253  16.672 -0.2363 -0.0364  0.1771
  597TMC3     O 8851   4.493   0.180  16.765 -0.5390  0.2203  0.0429
  597TMC3     H 8852   4.574   0.449  16.531 -1.1507 -0.4097  0.2698
  597TMC3    H1 8853   4.340   0.378  16.884  1.2581 -2.4254 -0.1925
  597TMC3    H2 8854   4.487   0.759  16.818  2.3032 -0.6443  0.6220
  597TMC3    C7 8855   4.343   0.617  16.980 -0.1435 -0.1451 -0.3897
  597TMC3    C8 8856   4.579   0.721  16.560 -0.0226  0.3107 -0.1875
  597TMC3    O1 8857   4.316   0.526  17.054 -0.2923  0.0105 -0.3623
  597TMC3    O2 8858   4.615   0.828  16.601  0.1745 -0.1941 -0.2701
  598TMC3    C1 8859   2.761   1.670  15.765 -0.3465 -0.4002  0.2228
  598TMC3    C2 8860   2.703   1.548  15.770  0.2249 -0.0006  0.0260
  598TMC3    C3 8861   2.575   1.542  15.731 -0.4753  0.2795  0.0976
  598TMC3    C4 8862   2.694   1.781  15.713  0.1531 -0.6147 -0.2471
  598TMC3    C5 8863   2.565   1.763  15.668  0.7219  0.4204  0.4831
  598TMC3    C6 8864   2.504   1.642  15.678 -1.1572 -0.6134 -0.1491
  598TMC3     C 8865   2.899   1.691  15.789  0.4490  0.0062 -0.0905
  598TMC3     O 8866   2.949   1.801  15.761 -0.0683  0.0103  0.0743
  598TMC3     H 8867   2.770   1.464  15.783  0.9327  0.8159  1.6479
  598TMC3    H1 8868   2.756   1.869  15.700 -0.4139 -0.4679 -1.9208
  598TMC3    H2 8869   2.405   1.628  15.636 -1.9848  2.2254  0.8303
  598TMC3    C7 8870   2.523   1.850  15.552 -0.0866  0.2641  0.6298
  598TMC3    C8 8871   2.512   1.419  15.764 -0.6552  0.9142 -0.1190
  598TMC3    O1 8872   2.432   1.820  15.479  0.0211  0.0336  0.2091
  598TMC3    O2 8873   2.410   1.395  15.701 -0.2956  0.7763  0.2319
  599MPD2     C 8874   2.964   3.869  16.283  0.4188  0.4088 -0.0898
  599MPD2    C1 8875   2.891   3.760  16.293 -0.0430 -0.4223 -0.2135
  599MPD2    C2 8876   2.753   3.780  16.323  0.4650 -0.9613 -0.0517
  599MPD2    C3 8877   2.701   3.904  16.306  0.2521 -0.2441 -0.6095
  599MPD2    C4 8878   2.781   4.016  16.280 -0.1019  0.5087  0.5063
  599MPD2    C5 8879   2.914   3.996  16.276 -0.3021 -0.0643 -0.1525
  599MPD2     H 8880   2.706   3.685  16.344 -0.7960  0.0882  1.8184
  599MPD2    H1 8881   2.747   4.118  16.269  0.9703  0.9268  1.0687
  599MPD2    H2 8882   3.072   3.861  16.269  0.3472  0.9298 -0.9251
  599MPD2    H3 8883   2.985   4.076  16.258 -1.8091  1.1952 -0.5353
  599MPD2     N 8884   2.562   3.943  16.327  0.3824  0.2233 -0.0337
  599MPD2    H5 8885   2.536   4.041  16.318 -0.7315 -0.0325  0.3859
  599MPD2    N1 8886   2.951   3.634  16.273  0.2966  0.4687  0.5235
  599MPD2    H7 8887   3.052   3.624  16.275  0.1935 -0.9483 -1.7328
  600TMC3    C1 8888   2.328   3.910  16.335 -0.0024 -0.5288  0.1510
  600TMC3    C2 8889   2.224   3.832  16.316 -0.3466 -0.7526  0.2357
  600TMC3    C3 8890   2.092   3.871  16.322 -0.2708  0.2581  0.2972
  600TMC3    C4 8891   2.303   4.047  16.339  0.4060 -0.7636  0.5135
  600TMC3    C5 8892   2.171   4.081  16.345 -0.1334  0.6953  0.6185
  600TMC3    C6 8893   2.064   4.001  16.338 -0.2394  0.2282 -0.0138
  600TMC3     C 8894   2.465   3.850  16.347 -0.3964 -0.4673  0.1830
  600TMC3     O 8895   2.469   3.729  16.354 -0.0996  0.0438  0.7999
  600TMC3     H 8896   2.257   3.730  16.300  1.2308 -0.2153  0.0570
  600TMC3    H1 8897   2.386   4.115  16.352 -0.8502  1.1443 -1.4873
  600TMC3    H2 8898   1.964   4.041  16.323  0.0449  0.9715  0.0374
  600TMC3    C7 8899   2.142   4.212  16.408 -0.6917 -0.2658  0.8511
  600TMC3    C8 8900   1.992   3.765  16.348  0.1867 -0.0423  0.5847
  600TMC3    O1 8901   2.098   4.307  16.345 -0.0433  0.1698 -0.1816
  600TMC3    O2 8902   2.027   3.650  16.354 -0.2174 -0.0794 -0.3083
  601MPD2     C 8903   4.588   2.364   0.232 -0.1099 -0.7849  0.1751
  601MPD2    C1 8904   4.458   2.330   0.247  0.6171 -0.8981 -0.3606
  601MPD2    C2 8905   4.425   2.218   0.323  0.0569  1.0416 -0.5723
  601MPD2    C3 8906   4.532   2.146   0.390 -0.5649  0.1196 -0.4137
  601MPD2    C4 8907   4.660   2.191   0.379  0.1195  0.0278 -0.4936
  601MPD2    C5 8908   4.682   2.308   0.308  0.1319 -0.0107 -0.6532
  601MPD2     H 8909   4.322   2.188   0.337  0.3091  0.1164 -0.7512
  601MPD2    H1 8910   0.016   2.138   0.425 -0.8603 -0.0944  1.1315
  601MPD2    H2 8911   4.619   2.454   0.181 -0.0945 -1.5381 -1.1572
  601MPD2    H3 8912   0.054   2.354   0.295  0.1774  0.3636  0.9733
  601MPD2     N 8913   4.507   2.026   0.473 -0.4129 -0.4315  0.0011
  601MPD2    H5 8914   4.586   1.971   0.505 -0.1653 -1.6156 -2.7239
  601MPD2    N1 8915   4.355   2.394   0.180 -0.1361  0.0987 -0.3111
  601MPD2    H7 8916   4.262   2.355   0.196 -0.4725  0.8129 -0.5456
  602TMC3    C1 8917   4.235   2.541   0.037 -0.1409 -0.1415  0.0881
  602TMC3    C2 8918   4.219   2.678   0.037  0.3821 -0.2854 -0.1453
  602TMC3    C3 8919   4.095   2.731   0.011 -1.1941 -0.0538  0.0383
  602TMC3    C4 8920   4.130   2.459  17.705 -0.3212  0.0628  0.6884
  602TMC3    C5 8921   4.017   2.516  17.661 -0.5504  0.8241  0.4178
  602TMC3    C6 8922   3.999   2.652  17.675 -0.0373  0.4617 -0.1414
  602TMC3     C 8923   4.363   2.494   0.085  0.4756  0.3884  0.5507
  602TMC3     O 8924   4.454   2.552   0.035  0.0085  0.3138 -0.1856
  602TMC3     H 8925   4.298   2.747   0.064 -0.4477  0.2341  0.9943
  602TMC3    H1 8926   4.130   2.351   0.002 -0.1983 -0.0045 -1.6721
  602TMC3    H2 8927   3.898   2.691  17.673 -0.2880 -0.2967 -2.3325
  602TMC3    C7 8928   3.910   2.432  17.602  0.0315 -0.0499  0.5223
  602TMC3    C8 8929   4.070   2.876   0.012  0.3945 -0.4362 -0.4819
  602TMC3    O1 8930   3.940   2.316  17.572  0.1285  0.1272  0.7859
  602TMC3    O2 8931   4.136   2.942   0.090 -0.6682  0.1475 -0.0218
  603TMC3    C1 8932   2.350   2.857  11.432 -0.0931 -0.2241  0.9608
  603TMC3    C2 8933   2.410   2.809  11.543 -0.2553  0.0402  0.9419
  603TMC3    C3 8934   2.546   2.842  11.563  0.3011  0.3595 -0.1611
  603TMC3    C4 8935   2.424   2.931  11.345  0.3961 -0.2492  0.3487
  603TMC3    C5 8936   2.559   2.963  11.365  0.6000 -0.1153  0.5360
  603TMC3    C6 8937   2.621   2.917  11.477 -0.5081 -0.1741 -0.6298
  603TMC3     C 8938   2.242   2.775  11.376  0.8942  0.7139  0.3786
  603TMC3     O 8939   2.256   2.748  11.258 -0.0839 -0.2137 -0.4779
  603TMC3     H 8940   2.360   2.743  11.613  0.4949 -1.7039 -0.1644
  603TMC3    H1 8941   2.371   2.961  11.256  0.1123  0.3000  0.6998
  603TMC3    H2 8942   2.729   2.914  11.483 -0.7943 -1.0277  3.8840
  603TMC3    C7 8943   2.651   3.021  11.265  0.3024  0.4459  0.2332
  603TMC3    C8 8944   2.604   2.794  11.684 -0.2496 -1.1034  0.6587
  603TMC3    O1 8945   2.773   3.031  11.293 -0.0692 -0.0200 -0.3154
  603TMC3    O2 8946   2.537   2.710  11.744  0.1105  0.7276 -0.0722
  604MPD2     C 8947   3.403   1.250  16.927 -0.0935 -0.2126  0.0721
  604MPD2    C1 8948   3.271   1.235  16.960 -0.6588 -0.1353  0.6223
  604MPD2    C2 8949   3.190   1.162  16.871 -0.1112  0.6542  0.0168
  604MPD2    C3 8950   3.234   1.117  16.750  0.6159  0.0406 -0.2365
  604MPD2    C4 8951   3.368   1.143  16.713  0.1271 -0.9781  0.2348
  604MPD2    C5 8952   3.448   1.206  16.804  0.1226  0.0801  0.0447
  604MPD2     H 8953   3.085   1.141  16.889 -0.1875  0.7544 -0.3071
  604MPD2    H1 8954   3.410   1.128  16.615  0.1813  1.9032 -0.1910
  604MPD2    H2 8955   3.469   1.318  16.981 -2.5929  1.6785  0.7819
  604MPD2    H3 8956   3.549   1.234  16.778  0.4459  0.1053  1.3475
  604MPD2     N 8957   3.148   1.046  16.663  0.2863 -0.5754  0.4369
  604MPD2    H5 8958   3.049   1.055  16.685  0.5594  2.4590  0.5085
  604MPD2    N1 8959   3.228   1.288  17.081 -0.4502  0.4894 -0.0520
  604MPD2    H7 8960   3.295   1.334  17.141 -0.4325  1.3144 -0.7040
  605TMC3    C1 8961   3.084   1.397  17.227  0.8507 -0.0475 -0.4039
  605TMC3    C2 8962   3.202   1.452  17.254 -0.0300 -0.9206 -0.2987
  605TMC3    C3 8963   3.223   1.586  17.250  0.5156  0.5952 -0.3268
  605TMC3    C4 8964   2.978   1.483  17.202 -0.1378 -0.5158 -0.1003
  605TMC3    C5 8965   3.008   1.617  17.182 -0.3810 -0.6706 -0.1340
  605TMC3    C6 8966   3.127   1.675  17.213 -0.0852  0.3597  0.4974
  605TMC3     C 8967   3.099   1.297  17.124 -0.5571 -0.1103  0.6189
  605TMC3     O 8968   2.993   1.256  17.073  0.6160 -0.1180  0.9945
  605TMC3     H 8969   3.278   1.395  17.307  0.9219  0.1487 -0.5164
  605TMC3    H1 8970   2.884   1.444  17.164 -0.1727 -0.4086 -0.1243
  605TMC3    H2 8971   3.147   1.778  17.185 -0.9549  1.0392  2.3830
  605TMC3    C7 8972   2.925   1.687  17.085 -0.4471 -0.0854  0.4241
  605TMC3    C8 8973   3.356   1.616  17.209  0.2193  0.0718 -0.8703
  605TMC3    O1 8974   2.919   1.810  17.089  0.2532  0.2150  0.2144
  605TMC3    O2 8975   3.402   1.522  17.146 -0.0976  0.0812  0.7785
  606TMC3    C1 8976   0.044   4.306  16.660 -0.0120 -0.3489  0.4018
  606TMC3    C2 8977   0.132   4.390  16.726 -0.5127  0.1835  0.0116
  606TMC3    C3 8978   0.231   4.336  16.810  0.0315 -0.0751 -0.1910
  606TMC3    C4 8979   0.045   4.172  16.686  0.1162  0.1824 -0.5263
  606TMC3    C5 8980   0.132   4.125  16.784  0.1362  0.3409  0.0764
  606TMC3    C6 8981   0.226   4.204  16.842 -0.1664  0.8447 -0.5575
  606TMC3     C 8982   0.030   4.345  16.525 -0.0834 -0.1436  0.3116
  606TMC3     O 8983   0.112   4.423  16.470  0.0465 -0.8810  0.3473
  606TMC3     H 8984   0.133   4.495  16.701  0.0886  0.0782 -0.3972
  606TMC3    H1 8985   4.705   4.099  16.639  0.7558 -2.3818  2.5261
  606TMC3    H2 8986   0.283   4.176  16.930 -0.2547  2.3549 -0.0202
  606TMC3    C7 8987   0.085   4.022  16.873 -0.0009 -0.6758  0.2037
  606TMC3    C8 8988   0.285   4.428  16.914  0.3640 -0.1444 -0.2712
  606TMC3    O1 8989   4.691   3.996  16.886 -0.3395  0.2925  0.3314
  606TMC3    O2 8990   0.324   4.377  17.018 -0.3378  0.5266 -0.2119
  607MPD2     C 8991   1.999   2.674  11.889  0.8012  0.0034 -0.6984
  607MPD2    C1 8992   2.004   2.793  11.963 -0.4063  0.6632  0.1139
  607MPD2    C2 8993   1.935   2.797  12.080  0.1387  0.8259 -0.3970
  607MPD2    C3 8994   1.873   2.685  12.128 -0.1755 -0.2435  0.6792
  607MPD2    C4 8995   1.855   2.576  12.046  0.6769 -0.2801 -0.7178
  607MPD2    C5 8996   1.912   2.570  11.918 -0.2113  0.0467  0.6050
  607MPD2     H 8997   1.925   2.883  12.145 -1.1125  0.1128  0.3527
  607MPD2    H1 8998   1.789   2.495  12.076  0.3291  0.9602  1.8854
  607MPD2    H2 8999   2.054   2.664  11.796  2.2512  0.8135  0.0775
  607MPD2    H3 9000   1.892   2.485  11.854 -1.9686  0.5886  0.4403
  607MPD2     N 9001   1.841   2.691  12.262 -0.4791 -0.3929  0.3298
  607MPD2    H5 9002   1.877   2.766  12.320  2.0619 -0.7293 -0.7744
  607MPD2    N1 9003   2.061   2.911  11.917 -0.0135  0.1130 -0.3572
  607MPD2    H7 9004   2.047   2.991  11.978  0.1676  1.0619 -1.5584
  608TMC3    C1 9005   2.218   3.053  11.833  0.0403  0.3914 -0.2908
  608TMC3    C2 9006   2.239   3.093  11.957  0.4070  0.1163  0.5023
  608TMC3    C3 9007   2.342   3.190  11.975  0.6020 -0.3060 -0.1347
  608TMC3    C4 9008   2.295   3.095  11.730  1.0151 -0.1245 -0.4084
  608TMC3    C5 9009   2.387   3.193  11.754 -0.0289  0.6160 -0.7234
  608TMC3    C6 9010   2.408   3.253  11.874  0.6225  0.4333  0.4129
  608TMC3     C 9011   2.147   2.927  11.816 -0.2428  0.2473 -0.4364
  608TMC3     O 9012   2.156   2.870  11.703  0.6138  0.3324 -0.5403
  608TMC3     H 9013   2.189   3.038  12.036  1.7473 -1.3448  0.3408
  608TMC3    H1 9014   2.296   3.037  11.638 -0.0584 -0.5214 -0.1697
  608TMC3    H2 9015   2.486   3.328  11.882  0.9332  0.0105  1.3583
  608TMC3    C7 9016   2.454   3.256  11.637  0.8202  0.1475  0.3661
  608TMC3    C8 9017   2.350   3.250  12.106 -0.2608 -0.4675 -0.3383
  608TMC3    O1 9018   2.388   3.249  11.534 -0.9536  0.5105 -0.5262
  608TMC3    O2 9019   2.458   3.304  12.143 -0.6578 -0.3082  0.2256
  609TMC3    C1 9020   0.806   1.560   9.636  0.5538 -0.2260  0.3984
  609TMC3    C2 9021   0.820   1.609   9.507 -0.0151  0.1587  0.4174
  609TMC3    C3 9022   0.905   1.553   9.411  0.4349  0.2165 -0.5361
  609TMC3    C4 9023   0.894   1.463   9.677  0.1391  0.8886 -0.6054
  609TMC3    C5 9024   0.985   1.410   9.578 -0.3008  0.0240 -0.3797
  609TMC3    C6 9025   0.987   1.442   9.444 -0.4866 -0.5064 -0.3473
  609TMC3     C 9026   0.724   1.627   9.728  0.2768  0.4528  0.2399
  609TMC3     O 9027   0.712   1.566   9.829  0.4254  0.0439  0.8841
  609TMC3     H 9028   0.749   1.680   9.466 -0.6604  0.4544  2.0927
  609TMC3    H1 9029   0.908   1.439   9.781 -0.2170  3.0328 -0.0706
  609TMC3    H2 9030   1.068   1.419   9.377  1.6994  0.8403  1.8293
  609TMC3    C7 9031   1.081   1.315   9.636  0.0691  0.0993 -0.5164
  609TMC3    C8 9032   0.919   1.634   9.292  0.0281 -0.4176  0.1596
  609TMC3    O1 9033   1.081   1.302   9.758  0.0818  0.0973 -0.6343
  609TMC3    O2 9034   0.900   1.751   9.300  0.4399  0.3824  0.3428
  610TMC3    C1 9035   2.397   2.465  13.010  0.1052 -0.9454 -0.0209
  610TMC3    C2 9036   2.419   2.566  12.924 -0.1983 -0.1121 -0.3008
  610TMC3    C3 9037   2.547   2.607  12.897  0.1444 -0.3893  0.1617
  610TMC3    C4 9038   2.493   2.407  13.079  0.8278 -0.3963  0.4014
  610TMC3    C5 9039   2.623   2.452  13.057 -0.4335 -0.0449  0.0250
  610TMC3    C6 9040   2.653   2.536  12.953  0.0117 -0.1242  0.6438
  610TMC3     C 9041   2.263   2.407  13.021 -0.4621  0.4262  0.1939
  610TMC3     O 9042   2.255   2.292  13.066  0.2806 -0.1484 -0.0918
  610TMC3     H 9043   2.335   2.607  12.870 -0.4654 -1.1496 -0.6640
  610TMC3    H1 9044   2.478   2.320  13.142 -1.2202  0.7105  1.4447
  610TMC3    H2 9045   2.756   2.564  12.933 -1.4673  2.1924 -3.6648
  610TMC3    C7 9046   2.725   2.424  13.154  0.1761 -0.8938 -0.5850
  610TMC3    C8 9047   2.576   2.707  12.790  0.1505 -0.5253 -0.4675
  610TMC3    O1 9048   2.833   2.390  13.116  0.5218 -0.3104  0.6445
  610TMC3    O2 9049   2.695   2.732  12.783 -0.1415  0.1731  0.4222
  611MPD2     C 9050   2.096   2.550  10.056 -0.1461  0.4356  0.2382
  611MPD2    C1 9051   2.062   2.604  10.178 -0.2132 -0.7008  0.1679
  611MPD2    C2 9052   2.139   2.705  10.227  0.2488  0.2310 -0.2214
  611MPD2    C3 9053   2.247   2.754  10.150  0.1561  0.3393 -0.1777
  611MPD2    C4 9054   2.271   2.701  10.025 -0.8492 -0.2811 -0.2374
  611MPD2    C5 9055   2.209   2.593   9.984  0.3837  0.4047 -0.3430
  611MPD2     H 9056   2.123   2.743  10.327 -0.7845  0.9525 -0.6527
  611MPD2    H1 9057   2.355   2.741   9.969  0.5835 -0.2225  1.9545
  611MPD2    H2 9058   2.033   2.470  10.020  2.0350 -1.5077  0.6963
  611MPD2    H3 9059   2.232   2.545   9.889 -1.1956 -2.3107  0.6522
  611MPD2     N 9060   2.322   2.868  10.185 -0.1190 -0.2461 -0.0437
  611MPD2    H5 9061   2.388   2.901  10.115  0.3438 -3.0083 -0.9127
  611MPD2    N1 9062   1.943   2.551  10.232  0.0150  0.5853 -0.2320
  611MPD2    H7 9063   1.889   2.486  10.176  1.4279 -0.9688  0.2055
  612TMC3    C1 9064   2.390   3.052  10.312  0.3744  0.2291  0.5868
  612TMC3    C2 9065   2.458   3.080  10.429 -0.2516  0.2051 -0.4444
  612TMC3    C3 9066   2.541   3.184  10.431  0.2290  0.3475  0.2458
  612TMC3    C4 9067   2.412   3.123  10.200 -0.4128 -0.3489 -0.0076
  612TMC3    C5 9068   2.498   3.224  10.207 -0.2638  0.1536  0.3169
  612TMC3    C6 9069   2.573   3.255  10.317 -0.1639  0.1153  0.4319
  612TMC3     C 9070   2.312   2.936  10.310  0.2130 -0.0493  0.4632
  612TMC3     O 9071   2.262   2.895  10.417 -0.5208 -0.1784 -0.2383
  612TMC3     H 9072   2.450   3.010  10.512 -0.3265  1.1170  0.3189
  612TMC3    H1 9073   2.345   3.119  10.115 -0.2579 -1.7496 -0.0632
  612TMC3    H2 9074   2.653   3.328  10.316  0.0653 -0.1765 -2.4464
  612TMC3    C7 9075   2.515   3.289  10.078  0.5285  0.2001 -0.0770
  612TMC3    C8 9076   2.615   3.212  10.549  0.5044 -0.1916  0.3174
  612TMC3    O1 9077   2.464   3.231   9.983 -0.3551  0.3174  0.6630
  612TMC3    O2 9078   2.689   3.314  10.559  0.4898 -0.6355  0.1222
  613MPD2     C 9079   0.799   0.228  16.441 -0.8620  0.3008 -0.2567
  613MPD2    C1 9080   0.707   0.176  16.349  0.4306 -0.1433 -0.3058
  613MPD2    C2 9081   0.671   0.044  16.356  0.4541 -0.2445  0.0875
  613MPD2    C3 9082   0.752   4.685  16.426  0.0889  0.3263 -0.0330
  613MPD2    C4 9083   0.854   0.001  16.509  0.0535 -0.0184  0.5139
  613MPD2    C5 9084   0.873   0.142  16.520  0.4221  0.1935  0.2150
  613MPD2     H 9085   0.599   0.010  16.283  0.3417  2.2306 -0.9667
  613MPD2    H1 9086   0.900   4.662  16.583 -0.9633 -0.4644  0.7599
  613MPD2    H2 9087   0.814   0.335  16.437 -2.7840  0.4318 -3.9633
  613MPD2    H3 9088   0.958   0.178  16.577  0.6114  1.3742 -0.8077
  613MPD2     N 9089   0.737   4.542  16.408  0.1109 -0.5866 -0.3357
  613MPD2    H5 9090   0.809   4.484  16.448  0.8550  0.2614 -0.4524
  613MPD2    N1 9091   0.637   0.246  16.250 -0.1740 -0.6226 -0.0849
  613MPD2    H7 9092   0.589   0.190  16.181 -1.0068 -1.9814  1.6044
  614TMC3    C1 9093   0.575   0.401  16.088 -0.0898  0.4211 -0.1129
  614TMC3    C2 9094   0.491   0.300  16.060 -0.0986 -0.5832  0.4153
  614TMC3    C3 9095   0.478   0.261  15.926  0.7747  0.3299  0.2275
  614TMC3    C4 9096   0.643   0.465  15.987  0.0645  0.2641  0.1280
  614TMC3    C5 9097   0.622   0.436  15.854  0.2815  0.0130 -0.3060
  614TMC3    C6 9098   0.535   0.328  15.822  0.3942  0.1879 -0.3741
  614TMC3     C 9099   0.652   0.371  16.204  0.5342 -0.1711 -0.1898
  614TMC3     O 9100   0.733   0.453  16.247 -0.2282 -0.1205 -0.1174
  614TMC3     H 9101   0.429   0.242  16.126  0.6969 -0.7540  1.0090
  614TMC3    H1 9102   0.710   0.547  16.011  0.2568  0.1184  0.0822
  614TMC3    H2 9103   0.525   0.295  15.719  0.7481 -0.8203 -0.0919
  614TMC3    C7 9104   0.727   0.475  15.764  0.8231 -0.4110 -0.7435
  614TMC3    C8 9105   0.515   0.116  15.921 -0.4038 -0.4930 -0.3470
  614TMC3    O1 9106   0.821   0.542  15.804  0.1356 -0.3303 -0.4030
  614TMC3    O2 9107   0.570   0.076  16.022  0.2111 -0.4756 -0.7349
  615MPD2     C 9108   0.807   1.588  16.167  0.2909  0.7706 -0.4456
  615MPD2    C1 9109   0.846   1.722  16.157 -0.2323 -0.0070  0.4493
  615MPD2    C2 9110   0.764   1.818  16.100 -0.2072 -0.1154  0.1854
  615MPD2    C3 9111   0.648   1.783  16.043 -0.0587 -1.0475 -0.1227
  615MPD2    C4 9112   0.612   1.652  16.039 -0.2737  1.2558  0.1780
  615MPD2    C5 9113   0.688   1.561  16.107 -0.3379 -0.1683 -0.0996
  615MPD2     H 9114   0.798   1.921  16.102 -0.4872 -0.0103 -0.6995
  615MPD2    H1 9115   0.517   1.624  15.997  1.0073  0.6785 -2.3222
  615MPD2    H2 9116   0.858   1.510  16.223  0.7466  2.1628  1.0560
  615MPD2    H3 9117   0.647   1.461  16.110  0.3969 -0.5291 -1.9830
  615MPD2     N 9118   0.564   1.875  15.973 -0.5538 -0.5170  0.3053
  615MPD2    H5 9119   0.493   1.838  15.910 -0.2805 -0.6820  0.0941
  615MPD2    N1 9120   0.944   1.782  16.229  0.0282  0.0362  0.0064
  615MPD2    H7 9121   0.932   1.882  16.239  1.6729  0.4066 -1.7665
  616TMC3    C1 9122   1.115   1.790  16.389  0.0630  0.5701 -0.5120
  616TMC3    C2 9123   1.163   1.912  16.352  0.7960 -0.2030  0.5346
  616TMC3    C3 9124   1.245   1.981  16.442 -0.0891  0.4341  0.0696
  616TMC3    C4 9125   1.141   1.735  16.509 -0.3098 -0.1111  0.1426
  616TMC3    C5 9126   1.223   1.800  16.595 -0.2685 -0.1516  0.0070
  616TMC3    C6 9127   1.276   1.925  16.565  0.1437  0.1472 -0.3662
  616TMC3     C 9128   1.041   1.707  16.297 -0.8265  0.3435 -0.1779
  616TMC3     O 9129   1.082   1.594  16.276  0.3027  0.3788  0.0347
  616TMC3     H 9130   1.164   1.941  16.247 -2.9844  1.1051  0.8694
  616TMC3    H1 9131   1.107   1.635  16.533  0.7023 -0.5024 -0.0510
  616TMC3    H2 9132   1.334   1.980  16.638  1.4701 -1.3352 -0.3135
  616TMC3    C7 9133   1.223   1.757  16.735  0.3600  0.2339  0.0663
  616TMC3    C8 9134   1.347   2.066  16.381 -0.7689  0.2959 -0.2066
  616TMC3    O1 9135   1.148   1.660  16.749  0.3290  0.6245 -0.1141
  616TMC3    O2 9136   1.349   2.068  16.259  0.1281 -0.1565 -0.9377
  617MPD2     C 9137   3.343   4.514  13.458 -0.3188  0.0603  0.1313
  617MPD2    C1 9138   3.330   4.558  13.585  0.3892  0.1411  0.0496
  617MPD2    C2 9139   3.217   4.526  13.658  0.2863 -0.3799 -0.0511
  617MPD2    C3 9140   3.106   4.468  13.593  0.5714 -0.4363 -0.0916
  617MPD2    C4 9141   3.117   4.429  13.456 -0.0294 -0.3615  0.3212
  617MPD2    C5 9142   3.239   4.448  13.393  0.1517 -0.1175  0.0780
  617MPD2     H 9143   3.201   4.541  13.765 -2.4146 -0.1147 -0.4821
  617MPD2    H1 9144   3.045   4.374  13.398  1.1281 -1.4888 -0.0585
  617MPD2    H2 9145   3.435   4.528  13.401  1.1760  0.0189  2.5483
  617MPD2    H3 9146   3.255   4.397  13.299 -0.3551 -0.2128  0.0441
  617MPD2     N 9147   2.980   4.442  13.650  0.6093  0.0604  0.4563
  617MPD2    H5 9148   2.907   4.425  13.581  0.5101  0.2211  0.5227
  617MPD2    N1 9149   3.439   4.604  13.656  0.3316 -0.4544 -0.6507
  617MPD2    H7 9150   3.531   4.588  13.617  0.7870 -0.7988  0.5563
  618TMC3    C1 9151   3.513   4.602  13.875  0.3865  0.0153  0.9724
  618TMC3    C2 9152   3.562   4.480  13.839 -0.4226 -0.4252  0.6053
  618TMC3    C3 9153   3.674   4.437  13.898  0.4763  0.0422  0.2346
  618TMC3    C4 9154   3.575   4.686  13.959  0.0653 -0.1540  0.5218
  618TMC3    C5 9155   3.687   4.640  14.019  0.5943  0.5275 -0.0328
  618TMC3    C6 9156   3.739   4.509  14.001  0.0519 -0.0210  0.2005
  618TMC3     C 9157   3.419   4.660  13.778 -0.1418 -0.3999 -0.3585
  618TMC3     O 9158   3.340   0.013  13.827  0.2938  0.1460 -0.1931
  618TMC3     H 9159   3.500   4.411  13.784 -2.1577  1.6237  0.0014
  618TMC3    H1 9160   3.543   0.063  13.969 -0.5637 -0.2228 -0.7846
  618TMC3    H2 9161   3.823   4.474  14.058 -0.3015 -0.2009  0.6132
  618TMC3    C7 9162   3.765   4.726  14.102  0.3365 -0.2352 -0.2986
  618TMC3    C8 9163   3.744   4.329  13.833 -0.4029 -0.2315 -0.1199
  618TMC3    O1 9164   3.692   0.058  14.179  0.6491 -0.5754  0.3474
  618TMC3    O2 9165   3.675   4.249  13.766 -0.0690  0.3063 -0.0043
  619MPD2     C 9166   4.562   0.871  13.704  0.1364 -1.0272  0.0878
  619MPD2    C1 9167   4.465   0.879  13.612 -0.3775  0.4016 -0.5267
  619MPD2    C2 9168   4.337   0.845  13.642 -0.1968 -0.1187  0.2459
  619MPD2    C3 9169   4.303   0.800  13.764 -0.4960 -0.5499 -0.3891
  619MPD2    C4 9170   4.395   0.791  13.864  0.3816 -0.3117  0.7740
  619MPD2    C5 9171   4.522   0.830  13.831 -0.2021 -0.0509  0.9243
  619MPD2     H 9172   4.262   0.850  13.563 -0.9012 -2.4483  0.7412
  619MPD2    H1 9173   4.375   0.755  13.964 -2.9075  3.4654  1.4686
  619MPD2    H2 9174   4.659   0.914  13.684 -0.1699 -0.6743 -0.6457
  619MPD2    H3 9175   4.597   0.826  13.909 -0.3464  0.5287  1.0931
  619MPD2     N 9176   4.169   0.778  13.802  0.3794 -0.0481 -0.2917
  619MPD2    H5 9177   4.150   0.756  13.899  1.7850 -2.6426 -0.6185
  619MPD2    N1 9178   4.492   0.929  13.484  0.6159 -0.6377  0.2033
  619MPD2    H7 9179   4.412   0.952  13.426 -0.1876 -0.8132  1.2429
  620TMC3    C1 9180   4.618   1.046  13.324 -0.3825 -0.2072  0.4240
  620TMC3    C2 9181   4.525   1.031  13.221 -0.3944 -0.3396 -0.0609
  620TMC3    C3 9182   4.522   1.126  13.121  0.3748  0.2939  0.3637
  620TMC3    C4 9183   4.717   1.148  13.316 -0.2688  0.5495  0.2741
  620TMC3    C5 9184   4.711   1.234  13.208  0.0611 -0.2661 -0.0781
  620TMC3    C6 9185   4.617   1.220  13.113  0.1661 -0.0626 -0.0288
  620TMC3     C 9186   4.617   0.969  13.449  0.2296 -0.0850  1.2282
  620TMC3     O 9187   0.002   0.960  13.499  0.4254  0.2245 -0.4932
  620TMC3     H 9188   4.445   0.959  13.237 -1.1169  0.3145 -0.7114
  620TMC3    H1 9189   0.064   1.174  13.391 -1.5276  0.3028  1.5885
  620TMC3    H2 9190   4.608   1.290  13.030 -1.1861  0.5318  0.6244
  620TMC3    C7 9191   0.007   1.374  13.244  0.5480 -0.1125  0.5791
  620TMC3    C8 9192   4.401   1.194  13.108  0.0245  0.1754 -0.6755
  620TMC3    O1 9193   0.101   1.406  13.315 -0.0433  0.0385  0.1293
  620TMC3    O2 9194   4.400   1.314  13.130  0.0481 -0.8781  0.8632
  621MPD2     C 9195   0.194   1.042  10.532  0.0328  0.0391 -0.4593
  621MPD2    C1 9196   0.241   1.076  10.412 -1.0616 -0.4726  0.3946
  621MPD2    C2 9197   0.378   1.066  10.388  0.1377  0.6139  0.2836
  621MPD2    C3 9198   0.455   1.024  10.492 -0.0968 -0.2168 -0.1434
  621MPD2    C4 9199   0.407   0.990  10.615  0.4097 -0.3208  0.4260
  621MPD2    C5 9200   0.275   1.001  10.634  0.2206  0.5968 -0.0542
  621MPD2     H 9201   0.416   1.077  10.287 -0.6810  1.9346  0.1166
  621MPD2    H1 9202   0.475   0.954  10.691  1.2436  0.6726  0.1527
  621MPD2    H2 9203   0.090   1.047  10.562  0.7831 -1.2928  2.4511
  621MPD2    H3 9204   0.226   0.969  10.725 -0.2823 -0.0033 -0.5309
  621MPD2     N 9205   0.594   1.008  10.468 -0.1814  0.3741  0.0694
  621MPD2    H5 9206   0.650   0.993  10.552 -0.9311 -1.1580  0.2918
  621MPD2    N1 9207   0.157   1.112  10.302  0.0251  0.2324 -0.4048
  621MPD2    H7 9208   0.205   1.138  10.217  0.7304 -0.1372 -0.1183
  622TMC3    C1 9209   4.695   1.170  10.181 -0.5080  0.1365 -0.6327
  622TMC3    C2 9210   4.579   1.239  10.186  0.1860  0.6419 -0.2519
  622TMC3    C3 9211   4.523   1.265  10.061 -0.7114  0.7667  0.0021
  622TMC3    C4 9212   0.041   1.139  10.059 -1.1950 -0.7596 -0.3902
  622TMC3    C5 9213   4.706   1.184   9.943  0.0519  0.4807 -1.1849
  622TMC3    C6 9214   4.585   1.236   9.936 -0.6597 -0.0406 -0.1451
  622TMC3     C 9215   0.024   1.140  10.314  0.1255 -0.4128 -0.3868
  622TMC3     O 9216   4.673   1.140  10.413 -0.4040 -0.0621  0.3644
  622TMC3     H 9217   4.526   1.256  10.279 -1.1896  3.0907 -1.4932
  622TMC3    H1 9218   0.140   1.097  10.051 -0.3594  1.4605 -1.3905
  622TMC3    H2 9219   4.535   1.240   9.840 -2.1295  1.7469  0.6794
  622TMC3    C7 9220   0.062   1.182   9.823 -0.3875  0.0994  0.1697
  622TMC3    C8 9221   4.387   1.311  10.044  0.2116 -0.3790 -0.0625
  622TMC3    O1 9222   0.152   1.101   9.828  0.1675  0.2106  0.2454
  622TMC3    O2 9223   4.334   1.285   9.935 -0.0828  0.3915  1.4070
  623MPD2     C 9224   3.402   1.119  16.179 -0.3599  0.5086 -0.1931
  623MPD2    C1 9225   3.352   1.210  16.275  0.0967  0.1148 -0.6752
  623MPD2    C2 9226   3.440   1.276  16.365  0.0358 -0.0543  0.1689
  623MPD2    C3 9227   3.572   1.235  16.367  0.6069 -0.0299 -1.0139
  623MPD2    C4 9228   3.607   1.121  16.298  0.2183 -0.2046 -0.1616
  623MPD2    C5 9229   3.527   1.065  16.206  0.1428 -0.5196  0.6190
  623MPD2     H 9230   3.400   1.350  16.434  0.1550  0.0586  0.1167
  623MPD2    H1 9231   3.711   1.093  16.296  0.8310  2.1316 -0.6798
  623MPD2    H2 9232   3.340   1.067  16.106  1.8283 -2.3305 -0.0484
  623MPD2    H3 9233   3.554   0.977  16.149  0.0346 -0.6643  0.7935
  623MPD2     N 9234   3.659   1.308  16.453 -0.2719 -0.6686  0.1359
  623MPD2    H5 9235   3.615   1.394  16.483  0.3363 -1.4329  3.1859
  623MPD2    N1 9236   3.216   1.255  16.278 -0.2125  0.3279  0.0824
  623MPD2    H7 9237   3.192   1.327  16.345 -0.7711  0.0384  0.1862
  624TMC3    C1 9238   4.023   1.441  16.691  0.4351  0.0516 -0.2116
  624TMC3    C2 9239   3.950   1.530  16.770  0.6124 -0.1359  0.2503
  624TMC3    C3 9240   3.821   1.555  16.729 -0.0144  0.3765  0.1495
  624TMC3    C4 9241   3.975   1.366  16.588  0.4850 -0.1610  0.1034
  624TMC3    C5 9242   3.839   1.380  16.563 -0.1523 -0.6325  0.2114
  624TMC3    C6 9243   3.763   1.467  16.639 -0.2011 -0.9741 -0.2320
  624TMC3     C 9244   4.165   1.440  16.732 -0.7541 -0.7601 -0.2922
  624TMC3     O 9245   4.200   1.457  16.848 -0.9146 -0.2037  0.5185
  624TMC3     H 9246   4.002   1.575  16.854  1.6212  0.5883 -0.7622
  624TMC3    H1 9247   4.041   1.294  16.541  1.2977  0.4927  0.2512
  624TMC3    H2 9248   3.658   1.476  16.615  0.0234  2.9329  0.2834
  624TMC3    C7 9249   3.784   1.274  16.484 -0.3221 -0.8268  0.2917
  624TMC3    C8 9250   3.737   1.594  16.835  0.6647  0.2861  0.8491
  624TMC3    O1 9251   3.844   1.166  16.484 -0.3391 -0.3379 -0.1218
  624TMC3    O2 9252   3.626   1.537  16.831  0.7376 -0.0393  0.4145
  625MPD2     C 9253   4.340   2.520   0.918  0.1204  0.7114 -0.3574
  625MPD2    C1 9254   4.394   2.650   0.922 -0.5910  0.1629  0.0092
  625MPD2    C2 9255   4.512   2.676   0.997  0.4590 -0.1560  0.4872
  625MPD2    C3 9256   4.572   2.574   1.074 -0.9584 -0.1243 -0.2544
  625MPD2    C4 9257   4.509   2.455   1.075 -0.0796  0.3658  0.8774
  625MPD2    C5 9258   4.394   2.426   1.002  1.2621  0.3408  0.3399
  625MPD2     H 9259   4.551   2.777   0.999 -0.3669  0.2085 -1.5081
  625MPD2    H1 9260   4.539   2.374   1.141  3.1542 -0.3757 -1.5769
  625MPD2    H2 9261   4.252   2.500   0.857 -0.1353  1.5825 -0.2705
  625MPD2    H3 9262   4.347   2.328   1.008 -0.8880  1.3926  1.0071
  625MPD2     N 9263   4.687   2.608   1.144 -0.5972  0.1213  0.3672
  625MPD2    H5 9264   4.726   2.701   1.129  1.4136 -1.0797 -1.9600
  625MPD2    N1 9265   4.335   2.762   0.854  0.2199 -0.0156  0.6919
  625MPD2    H7 9266   4.376   2.853   0.868 -0.2546  0.2886  0.0746
  626TMC3    C1 9267   4.160   2.903   0.812  0.5255  0.3729 -0.1292
  626TMC3    C2 9268   4.121   2.945   0.692 -0.1875  0.5116  0.1992
  626TMC3    C3 9269   4.169   3.071   0.654  0.0596  0.4321 -0.3952
  626TMC3    C4 9270   4.232   2.977   0.898  0.3280 -0.2851  0.5618
  626TMC3    C5 9271   4.267   3.107   0.869  0.1229 -0.3723  0.0224
  626TMC3    C6 9272   4.243   3.156   0.740  0.8460  0.0636  0.1519
  626TMC3     C 9273   4.212   2.761   0.802 -0.2502  0.2753 -0.5311
  626TMC3     O 9274   4.157   2.674   0.736  0.2189 -0.4170  0.3870
  626TMC3     H 9275   4.062   2.878   0.631 -1.2069  0.7975  0.8639
  626TMC3    H1 9276   4.243   2.935   0.997 -0.6642 -0.3384  0.6497
  626TMC3    H2 9277   4.283   3.254   0.716  2.0353 -0.4909 -0.1138
  626TMC3    C7 9278   4.399   3.131   0.920  0.2135 -0.2149 -0.1636
  626TMC3    C8 9279   4.123   3.128   0.526 -0.1066  0.2344  0.3618
  626TMC3    O1 9280   4.463   3.027   0.928 -0.1621 -0.2335 -0.0746
  626TMC3    O2 9281   4.099   3.069   0.426  0.1278 -0.0333  0.2536
  627MPD2     C 9282   2.642   3.565  14.396 -0.5405 -1.1469 -0.1260
  627MPD2    C1 9283   2.665   3.568  14.533  0.8361  0.7244 -0.2484
  627MPD2    C2 9284   2.631   3.452  14.600 -0.3066 -0.3623  0.0108
  627MPD2    C3 9285   2.592   3.338  14.535  0.7520  0.1615 -0.2116
  627MPD2    C4 9286   2.578   3.338  14.398 -0.5415 -0.4279 -0.4472
  627MPD2    C5 9287   2.597   3.454  14.328  0.1688 -0.0872  0.1566
  627MPD2     H 9288   2.648   3.445  14.707 -1.3132  1.5202  0.2906
  627MPD2    H1 9289   2.558   3.247  14.342  0.0525 -1.3563  0.8635
  627MPD2    H2 9290   2.652   3.654  14.335 -0.0817  0.6679  2.5719
  627MPD2    H3 9291   2.573   3.458  14.222 -1.3251 -3.1453  0.3798
  627MPD2     N 9292   2.557   3.219  14.611 -0.3265  0.1023 -0.4937
  627MPD2    H5 9293   2.569   3.227  14.712 -0.5898  2.0744 -0.6214
  627MPD2    N1 9294   2.696   3.677  14.613  0.5955 -0.3494 -0.0484
  627MPD2    H7 9295   2.671   3.665  14.711  1.3545  0.8153  0.2840
  628TMC3    C1 9296   2.797   3.879  14.677  0.0610 -0.3264 -0.5893
  628TMC3    C2 9297   2.828   3.814  14.796 -0.8356 -0.9300  0.2067
  628TMC3    C3 9298   2.880   3.899  14.897 -0.7511  0.0450 -0.0816
  628TMC3    C4 9299   2.814   4.012  14.651  0.4233 -0.1446 -0.1561
  628TMC3    C5 9300   2.841   4.094  14.761  0.1248  0.0495  0.9316
  628TMC3    C6 9301   2.876   4.035  14.883  0.0714  0.1169  0.8549
  628TMC3     C 9302   2.748   3.795  14.568 -0.3719 -0.5159  0.1815
  628TMC3     O 9303   2.776   3.826  14.455 -0.1081  0.2291  0.5194
  628TMC3     H 9304   2.824   3.706  14.803 -0.4176 -0.9362  0.3466
  628TMC3    H1 9305   2.799   4.043  14.548  0.0399  0.3865  0.0584
  628TMC3    H2 9306   2.924   4.096  14.958 -0.8846  0.0829  1.5025
  628TMC3    C7 9307   2.887   4.231  14.736  0.6256  0.0145  0.1030
  628TMC3    C8 9308   2.964   3.835  14.993  0.2254 -0.0496 -0.2323
  628TMC3    O1 9309   2.976   4.278  14.805 -0.4889  0.1089 -0.0316
  628TMC3    O2 9310   3.000   3.719  14.968 -0.2074  0.1831  1.3378
  629MPD2     C 9311   1.619   2.498  16.423 -0.3450 -0.4201  0.7339
  629MPD2    C1 9312   1.625   2.433  16.540  0.0884 -0.5822  0.4566
  629MPD2    C2 9313   1.570   2.307  16.543 -0.4944 -0.1979 -0.3278
  629MPD2    C3 9314   1.503   2.253  16.440  0.2956 -0.4326 -0.2334
  629MPD2    C4 9315   1.481   2.332  16.331  0.1723  0.4097  0.0905
  629MPD2    C5 9316   1.554   2.447  16.320 -0.2409 -0.1051 -0.0038
  629MPD2     H 9317   1.576   2.234  16.624  1.0956 -2.0389 -2.1157
  629MPD2    H1 9318   1.410   2.301  16.256 -0.2809 -1.1088  1.1360
  629MPD2    H2 9319   1.677   2.588  16.402 -0.7513 -0.1014  0.9656
  629MPD2    H3 9320   1.551   2.503  16.228  2.0766 -1.7311 -1.0689
  629MPD2     N 9321   1.427   2.139  16.469 -0.3492  0.0550  0.0030
  629MPD2    H5 9322   1.420   2.105  16.564 -1.0023  1.7857  0.5653
  629MPD2    N1 9323   1.705   2.486  16.645  0.2145 -0.6915 -0.4291
  629MPD2    H7 9324   1.755   2.572  16.624  0.2770 -1.2042 -2.4325
  630TMC3    C1 9325   1.819   2.477  16.860  0.4819  0.0049 -0.3360
  630TMC3    C2 9326   1.824   2.611  16.895  0.8497 -0.2472  0.0882
  630TMC3    C3 9327   1.883   2.641  17.015  0.0476 -0.3151 -0.6037
  630TMC3    C4 9328   1.875   2.377  16.938  0.3061 -0.2076 -0.9490
  630TMC3    C5 9329   1.920   2.412  17.059  0.4498  0.0499  0.2183
  630TMC3    C6 9330   1.942   2.545  17.095 -0.2731  0.1126  0.0343
  630TMC3     C 9331   1.715   2.428  16.768  0.8908  0.1859 -0.4660
  630TMC3     O 9332   1.665   2.320  16.808  0.0770  0.1402  0.1645
  630TMC3     H 9333   1.775   2.683  16.831 -2.4945 -1.6143  1.1275
  630TMC3    H1 9334   1.869   2.271  16.919  1.9949 -0.2002 -1.5323
  630TMC3    H2 9335   1.974   2.561  17.197 -3.7922 -0.1567  1.1933
  630TMC3    C7 9336   1.904   2.308  17.152 -0.6325 -0.1707  0.3241
  630TMC3    C8 9337   1.935   2.774  17.045 -0.2564 -0.3615 -0.2421
  630TMC3    O1 9338   1.794   2.252  17.169  0.0086  0.3607 -0.4236
  630TMC3    O2 9339   1.976   2.783  17.159 -0.4977 -0.6056  0.5338
  631MPD2     C 9340   4.629   1.540  15.680  0.0390 -0.1421  0.6524
  631MPD2    C1 9341   4.576   1.664  15.683  0.0971  0.5524 -0.0592
  631MPD2    C2 9342   4.648   1.781  15.711  0.5388  0.5556 -0.5525
  631MPD2    C3 9343   0.054   1.761  15.742 -0.5831 -0.0813  0.6587
  631MPD2    C4 9344   0.109   1.637  15.751  0.1713  0.8358  0.5047
  631MPD2    C5 9345   0.035   1.533  15.714  0.3165  0.0697 -0.1536
  631MPD2     H 9346   4.616   1.884  15.702  0.2289  0.6982  2.1501
  631MPD2    H1 9347   0.215   1.620  15.768  0.0478 -0.6499 -0.2357
  631MPD2    H2 9348   4.575   1.452  15.647  0.0016  0.5949 -1.2440
  631MPD2    H3 9349   0.093   1.442  15.725 -0.4571 -0.5625 -1.3418
  631MPD2     N 9350   0.126   1.885  15.754 -0.7083 -0.1227 -0.2749
  631MPD2    H5 9351   0.079   1.971  15.727 -1.6322 -1.0500 -1.6183
  631MPD2    N1 9352   4.440   1.677  15.645  0.5204  0.2588 -0.9314
  631MPD2    H7 9353   4.393   1.593  15.610 -1.0914 -0.5251  3.1125
  632TMC3    C1 9354   4.239   1.776  15.567 -0.1290  0.2187  0.4831
  632TMC3    C2 9355   4.144   1.862  15.602 -0.2597  0.4021 -0.0960
  632TMC3    C3 9356   4.050   1.896  15.511 -0.5798 -1.1507  0.2888
  632TMC3    C4 9357   4.247   1.729  15.442 -0.6999 -0.0601 -0.4676
  632TMC3    C5 9358   4.161   1.771  15.343 -0.5828  0.1879  1.0468
  632TMC3    C6 9359   4.058   1.850  15.382 -0.6723  0.0977  0.5612
  632TMC3     C 9360   4.358   1.791  15.646  0.2710  0.6994  0.3387
  632TMC3     O 9361   4.374   1.890  15.711  0.4958 -0.4020  0.1054
  632TMC3     H 9362   4.132   1.884  15.708  1.0525  3.4536 -0.6023
  632TMC3    H1 9363   4.325   1.655  15.425  1.4091  1.4504  2.5795
  632TMC3    H2 9364   3.972   1.870  15.319 -1.0234 -1.7392  0.4403
  632TMC3    C7 9365   4.215   1.800  15.209 -0.3755  0.2564 -0.1746
  632TMC3    C8 9366   3.912   1.922  15.568 -0.1966 -0.3897 -0.0312
  632TMC3    O1 9367   4.143   1.849  15.121 -0.2424  0.1529 -0.0443
  632TMC3    O2 9368   3.891   1.876  15.681  0.3382 -0.1118  0.3736
  633MPD2     C 9369   4.424   4.385  17.631 -0.1820  0.2815  0.4640
  633MPD2    C1 9370   4.347   4.314  17.545  0.0901  0.2549  0.1005
  633MPD2    C2 9371   4.347   4.177  17.554  0.2274 -0.2759 -0.0312
  633MPD2    C3 9372   4.424   4.108  17.647 -0.2164  0.1650 -0.3393
  633MPD2    C4 9373   4.496   4.180   0.034 -0.1485 -0.6799 -0.2813
  633MPD2    C5 9374   4.491   4.314   0.025 -0.1708  0.1679 -0.3161
  633MPD2     H 9375   4.273   4.122  17.498 -1.0340 -0.5466  1.9116
  633MPD2    H1 9376   4.564   4.134   0.105  1.7994  1.4316 -0.7597
  633MPD2    H2 9377   4.432   4.493  17.637 -0.8611  0.2298  2.3545
  633MPD2    H3 9378   4.548   4.359   0.105 -0.1535 -0.0597 -0.2008
  633MPD2     N 9379   4.427   3.967  17.648 -0.6201 -0.1073  0.1797
  633MPD2    H5 9380   4.513   3.927  17.685  0.6441  0.6171 -1.9476
  633MPD2    N1 9381   4.256   4.365  17.450 -0.8054  0.1076  0.5456
  633MPD2    H7 9382   4.195   4.299  17.403 -1.3548 -0.0157  1.4311
  634TMC3    C1 9383   4.151   4.524  17.296  0.4077 -0.6393 -0.5564
  634TMC3    C2 9384   4.154   4.425  17.200  0.4575 -0.4375 -0.3140
  634TMC3    C3 9385   4.131   4.461  17.072 -0.2042  0.3753 -0.1926
  634TMC3    C4 9386   4.131   4.656  17.268 -0.9761 -0.1192  0.5259
  634TMC3    C5 9387   4.102   4.686  17.138  0.3381 -0.1378 -0.5012
  634TMC3    C6 9388   4.098   4.592  17.041  0.1574  1.0716  0.3928
  634TMC3     C 9389   4.243   4.498  17.411  0.5349 -0.2216  0.3288
  634TMC3     O 9390   4.297   4.593  17.470 -0.2488  0.3268  0.1764
  634TMC3     H 9391   4.166   4.321  17.225  0.2100 -0.4323 -0.1784
  634TMC3    H1 9392   4.154   0.007  17.341 -3.4759  0.1025  1.0823
  634TMC3    H2 9393   4.059   4.617  16.943  0.5319 -0.9619 -0.2586
  634TMC3    C7 9394   4.066   0.095  17.100  0.1808 -0.7639  0.5161
  634TMC3    C8 9395   4.118   4.356  16.970 -0.7785 -0.2653 -0.2066
  634TMC3    O1 9396   4.074   0.115  16.981  0.4475  0.6233  0.1940
  634TMC3    O2 9397   4.113   4.238  17.002  0.1809 -0.1819 -0.1541
  635TMC3    C1 9398   0.006   0.927   0.379 -0.7503  0.3644 -0.0188
  635TMC3    C2 9399   4.642   0.849   0.441  0.2461 -0.6663  0.4431
  635TMC3    C3 9400   4.670   0.731   0.501  1.1660 -0.2614 -0.6120
  635TMC3    C4 9401   0.128   0.869   0.356  0.1900  0.3807 -0.5932
  635TMC3    C5 9402   0.157   0.747   0.410  0.3335  0.2561 -0.1066
  635TMC3    C6 9403   0.067   0.677   0.484  0.5455  0.0715  0.3657
  635TMC3     C 9404   4.709   1.068   0.386 -0.1677  0.0479  0.1220
  635TMC3     O 9405   4.597   1.110   0.411  0.4055 -0.0810 -0.6318
  635TMC3     H 9406   4.536   0.872   0.446  0.2460 -0.9322  1.5767
  635TMC3    H1 9407   0.199   0.921   0.292  0.5796 -0.8015 -1.1195
  635TMC3    H2 9408   0.088   0.573   0.506  1.1851 -0.1151 -1.1285
  635TMC3    C7 9409   0.290   0.743   0.467 -0.1715  0.1462 -0.0262
  635TMC3    C8 9410   4.587   0.670   0.602 -0.3071  0.4493  0.1499
  635TMC3    O1 9411   0.305   0.692   0.578 -0.1106 -0.1360  0.0068
  635TMC3    O2 9412   4.469   0.696   0.594  0.1934  0.4343 -0.6202
  636MPD2     C 9413   0.148   4.598  15.852 -0.4070  0.4806  0.4459
  636MPD2    C1 9414   0.208   4.651  15.964 -0.3784 -0.4527 -0.7070
  636MPD2    C2 9415   0.299   4.571  16.035 -0.1122  0.7498  0.6528
  636MPD2    C3 9416   0.336   4.440  15.997 -0.3250 -0.6373 -0.5333
  636MPD2    C4 9417   0.278   4.400  15.881  0.3019  0.4424 -0.0187
  636MPD2    C5 9418   0.191   4.478  15.808 -0.2274  0.1842  0.2721
  636MPD2     H 9419   0.344   4.610  16.126 -0.1368  0.1146  0.9373
  636MPD2    H1 9420   0.301   4.303  15.838  0.4426  0.9827 -1.1461
  636MPD2    H2 9421   0.076   4.642  15.784 -3.0681 -0.7061  2.4863
  636MPD2    H3 9422   0.142   4.433  15.722  0.5752  3.1242 -1.7279
  636MPD2     N 9423   0.418   4.369  16.084 -0.2636  0.6510  0.3107
  636MPD2    H5 9424   0.456   4.418  16.164  0.0459  0.6847  0.1422
  636MPD2    N1 9425   0.192   0.053  16.013  0.1262 -0.2097  0.4310
  636MPD2    H7 9426   0.226   0.069  16.107  0.1250  1.4538  0.1383
  637TMC3    C1 9427   0.573   4.209  16.135  0.7071  0.3077  0.2755
  637TMC3    C2 9428   0.570   4.286  16.248 -0.6902 -0.4461 -0.6115
  637TMC3    C3 9429   0.682   4.353  16.280  0.0288  0.1773  0.4059
  637TMC3    C4 9430   0.688   4.200  16.055 -0.5073  0.7920 -0.4288
  637TMC3    C5 9431   0.788   4.292  16.082 -0.4160  0.1622 -0.2651
  637TMC3    C6 9432   0.790   4.359  16.199  1.2567  0.0703  0.3502
  637TMC3     C 9433   0.462   4.243  16.056  0.0282 -0.6032 -0.9603
  637TMC3     O 9434   0.444   4.172  15.957  0.1706 -0.5530 -0.5604
  637TMC3     H 9435   0.484   4.292  16.313 -0.2993 -1.8181  0.0270
  637TMC3    H1 9436   0.681   4.141  15.964 -0.7468  0.8174 -0.4273
  637TMC3    H2 9437   0.863   4.436  16.217  2.5861 -0.7897 -1.3609
  637TMC3    C7 9438   0.801   4.395  15.973 -0.3714 -0.4037  0.6648
  637TMC3    C8 9439   0.640   4.480  16.336  0.5915  0.3944  0.1643
  637TMC3    O1 9440   0.850   4.503  16.009  0.0633  0.3622 -0.3851
  637TMC3    O2 9441   0.536   4.521  16.286  0.1456  0.0224  0.0740
  638MPD2     C 9442   0.114   4.116  14.835 -0.4450 -0.7858  0.1274
  638MPD2    C1 9443   0.101   3.994  14.763  0.0784 -0.5931 -0.2825
  638MPD2    C2 9444   0.066   3.877  14.826 -0.2431 -0.4650 -0.2477
  638MPD2    C3 9445   0.071   3.870  14.964 -0.1609  0.1941 -0.1481
  638MPD2    C4 9446   0.099   3.986  15.035 -0.0572 -0.0690 -0.2292
  638MPD2    C5 9447   0.109   4.105  14.972  0.3793 -0.7757 -0.0067
  638MPD2     H 9448   0.048   3.786  14.771 -0.1155 -0.5700 -0.1164
  638MPD2    H1 9449   0.106   3.987  15.143 -4.0421 -2.0240  0.0264
  638MPD2    H2 9450   0.139   4.207  14.782 -1.3202 -0.0491  0.9940
  638MPD2    H3 9451   0.130   4.195  15.029 -0.1975 -1.5360  1.4072
  638MPD2     N 9452   0.062   3.741  15.022 -0.2836  0.2160  0.1696
  638MPD2    H5 9453   0.037   3.660  14.966  2.4934 -0.3229 -0.2774
  638MPD2    N1 9454   0.126   3.998  14.625 -0.0595  0.0337 -0.2966
  638MPD2    H7 9455   0.181   4.072  14.583 -1.8875  0.9944 -0.9945
  639TMC3    C1 9456   0.090   3.563  15.181  0.0593  0.4399 -0.3711
  639TMC3    C2 9457   0.005   3.480  15.109 -0.6689  0.1019  0.0225
  639TMC3    C3 9458   0.033   3.350  15.111 -0.4616  0.0865 -0.2862
  639TMC3    C4 9459   0.198   3.518  15.252 -0.5023  0.5042 -0.5098
  639TMC3    C5 9460   0.217   3.387  15.254 -0.0897 -0.0200  0.1651
  639TMC3    C6 9461   0.141   3.299  15.186  0.0288  0.4692  0.1111
  639TMC3     C 9462   0.095   3.710  15.154 -1.1416 -0.5272 -0.2704
  639TMC3     O 9463   0.095   3.778  15.257 -0.3361 -0.3268  0.4001
  639TMC3     H 9464   4.651   3.516  15.045 -0.6733 -1.1542 -0.6865
  639TMC3    H1 9465   0.263   3.593  15.294  0.0822 -0.1570 -0.2172
  639TMC3    H2 9466   0.154   3.192  15.195 -0.5454  0.4063  0.1834
  639TMC3    C7 9467   0.345   3.321  15.292 -0.1407  0.2625  0.7650
  639TMC3    C8 9468   4.696   3.256  15.021  0.1087 -0.5104  0.7969
  639TMC3    O1 9469   0.347   3.202  15.316 -0.5328  0.7231 -0.6074
  639TMC3    O2 9470   0.048   3.175  14.969  0.0946  0.9165  0.3326
  640MPD2     C 9471   0.756   2.214   9.552 -0.2777 -0.3862  0.2618
  640MPD2    C1 9472   0.848   2.189   9.647  0.3787 -0.1100 -0.8141
  640MPD2    C2 9473   0.885   2.282   9.741  0.8926 -0.3466 -0.2090
  640MPD2    C3 9474   0.818   2.399   9.748 -0.3753 -0.7410  0.5880
  640MPD2    C4 9475   0.713   2.425   9.662  0.6941 -0.0321 -0.4333
  640MPD2    C5 9476   0.701   2.337   9.558  0.1461 -0.5650  0.2419
  640MPD2     H 9477   0.959   2.264   9.818 -0.4508  1.4954  1.4990
  640MPD2    H1 9478   0.658   2.518   9.670 -0.0093 -0.5728  1.0683
  640MPD2    H2 9479   0.729   2.142   9.475  2.8603  0.7978 -1.9324
  640MPD2    H3 9480   0.619   2.355   9.489  1.0948 -1.5049 -1.1097
  640MPD2     N 9481   0.839   2.498   9.851 -0.2817 -0.4924 -1.0575
  640MPD2    H5 9482   0.770   2.572   9.861  1.0238  0.4690  0.6960
  640MPD2    N1 9483   0.909   2.060   9.640  1.0820  0.2786 -0.3100
  640MPD2    H7 9484   0.895   2.001   9.559 -0.6935  2.5538 -1.6443
  641TMC3    C1 9485   1.040   1.870   9.698  0.3244 -0.2792  0.0810
  641TMC3    C2 9486   1.094   1.799   9.806 -0.2329 -0.3500 -0.6087
  641TMC3    C3 9487   1.183   1.703   9.772 -0.2723  0.0561  0.4622
  641TMC3    C4 9488   1.092   1.865   9.572  0.0362  1.0415  0.3453
  641TMC3    C5 9489   1.171   1.755   9.546  0.4451  0.1845  0.9120
  641TMC3    C6 9490   1.216   1.671   9.643 -0.1128  0.6135  0.2051
  641TMC3     C 9491   0.982   2.002   9.738  1.0626 -0.1416  0.3811
  641TMC3     O 9492   1.003   2.029   9.855 -0.0782 -0.4344 -0.2639
  641TMC3     H 9493   1.057   1.828   9.904  1.8590 -1.4131  0.4768
  641TMC3    H1 9494   1.052   1.928   9.494  0.0642  1.2821  0.5245
  641TMC3    H2 9495   1.276   1.584   9.618  0.4158  2.1204 -3.8830
  641TMC3    C7 9496   1.228   1.733   9.419 -0.9166 -0.1839  0.3654
  641TMC3    C8 9497   1.240   1.618   9.874  0.0886 -0.0878  0.6989
  641TMC3    O1 9498   1.266   1.622   9.396 -0.2611  0.3893  0.3987
  641TMC3    O2 9499   1.285   1.509   9.838  0.5039 -0.0444 -0.0230
  642TMC3    C1 9500   2.006   3.683  12.437  0.3512 -0.0238 -0.0248
  642TMC3    C2 9501   2.021   3.686  12.570  0.6460 -0.9018  0.2000
  642TMC3    C3 9502   2.012   3.572  12.636  0.2030  0.4866  0.0148
  642TMC3    C4 9503   1.978   3.573  12.362 -0.1730 -0.2823 -0.4503
  642TMC3    C5 9504   1.988   3.456  12.431 -0.6158  0.6088  0.2221
  642TMC3    C6 9505   2.013   3.456  12.565 -0.2468  0.5162 -0.2234
  642TMC3     C 9506   1.946   3.804  12.382  0.5836  0.1240  0.1208
  642TMC3     O 9507   1.998   3.859  12.288 -0.1243  0.2392 -0.1666
  642TMC3     H 9508   2.024   3.782  12.620 -1.4480  0.1443 -1.6795
  642TMC3    H1 9509   1.975   3.577  12.253  0.2230  0.3431 -0.4337
  642TMC3    H2 9510   2.007   3.359  12.612 -1.9333  0.3528 -0.7657
  642TMC3    C7 9511   1.886   3.362  12.380  0.1385  0.8027  0.5251
  642TMC3    C8 9512   1.993   3.570  12.779 -0.2497  0.6432 -0.4107
  642TMC3    O1 9513   1.887   3.338  12.263 -0.3141 -0.6436  0.7864
  642TMC3    O2 9514   1.955   3.461  12.815  0.3894 -0.1539 -0.7549
  643TMC3    C1 9515   1.260   3.237   0.459  0.2236 -0.3864  0.6442
  643TMC3    C2 9516   1.148   3.242   0.386  0.1388  0.1809  0.2299
  643TMC3    C3 9517   1.105   3.127   0.324 -0.1578  0.0618  0.2743
  643TMC3    C4 9518   1.347   3.126   0.450 -0.4257  0.8312 -0.7377
  643TMC3    C5 9519   1.302   3.013   0.386 -0.1490 -0.1971 -0.2267
  643TMC3    C6 9520   1.172   3.006   0.335 -0.1991  0.1139  0.2856
  643TMC3     C 9521   1.295   3.361   0.531  0.6614  0.0779  0.3700
  643TMC3     O 9522   1.204   3.440   0.538 -0.0454  0.5385  0.1888
  643TMC3     H 9523   1.076   3.323   0.386 -2.8309 -2.4746 -0.4410
  643TMC3    H1 9524   1.453   3.120   0.473 -0.5304 -1.4936 -0.9263
  643TMC3    H2 9525   1.141   2.934   0.260 -0.7965  0.5700  0.0951
  643TMC3    C7 9526   1.394   2.983   0.281  0.0190 -0.5409 -0.0833
  643TMC3    C8 9527   1.026   3.148   0.205 -0.4289  0.1921 -0.1197
  643TMC3    O1 9528   1.467   3.069   0.228 -0.5129  0.1229  0.2297
  643TMC3    O2 9529   0.969   3.048   0.167 -0.1438 -0.5898  0.6959
  644MPD2     C 9530   1.306   2.939   9.607  0.3016  0.1097  0.2486
  644MPD2    C1 9531   1.197   2.865   9.648 -0.2823 -0.9276 -0.0531
  644MPD2    C2 9532   1.082   2.925   9.701 -0.1062  0.0785  0.7131
  644MPD2    C3 9533   1.070   3.065   9.716 -0.7999  0.3299  0.0624
  644MPD2    C4 9534   1.175   3.139   9.661  0.4011 -0.0012  0.4526
  644MPD2    C5 9535   1.291   3.077   9.619 -0.1952 -0.1654  0.0096
  644MPD2     H 9536   1.001   2.861   9.735 -0.1214 -0.4081 -0.2292
  644MPD2    H1 9537   1.174   3.247   9.666  0.0139 -0.0191  0.7328
  644MPD2    H2 9538   1.401   2.898   9.572 -0.3070 -0.3650 -0.8305
  644MPD2    H3 9539   1.372   3.138   9.582 -1.4450  0.8121 -1.0988
  644MPD2     N 9540   0.968   3.139   9.783 -0.0589 -0.4721 -0.5186
  644MPD2    H5 9541   0.979   3.240   9.791  5.2107 -1.2346  1.7676
  644MPD2    N1 9542   1.202   2.719   9.637  0.0713  0.0391 -0.0940
  644MPD2    H7 9543   1.293   2.675   9.629  0.8142  1.1932  1.8516
  645TMC3    C1 9544   0.795   3.165   9.941 -0.0398 -0.1910  0.0201
  645TMC3    C2 9545   0.843   3.283   9.993  0.3030  0.1477  0.4917
  645TMC3    C3 9546   0.767   3.363  10.077 -0.7279 -0.0930 -0.3084
  645TMC3    C4 9547   0.661   3.133   9.956 -0.5546  0.6264  0.2040
  645TMC3    C5 9548   0.592   3.210  10.040  0.3973 -0.0816  0.2315
  645TMC3    C6 9549   0.632   3.322  10.100  0.4895  0.8572  0.2119
  645TMC3     C 9550   0.866   3.083   9.848  0.2140  0.4231  0.0321
  645TMC3     O 9551   0.821   2.972   9.816  0.5599  0.4703  0.8341
  645TMC3     H 9552   0.944   3.319   9.981  0.7059 -0.5921  1.6667
  645TMC3    H1 9553   0.620   3.039   9.921  1.3220 -1.0735  2.5453
  645TMC3    H2 9554   0.566   3.390  10.153  0.0626 -0.1024  0.9175
  645TMC3    C7 9555   0.445   3.178  10.042 -0.0580  0.0554 -0.0297
  645TMC3    C8 9556   0.808   3.500  10.113  0.4049 -0.0809  1.1141
  645TMC3    O1 9557   0.411   3.104   9.954  0.1946  0.4734 -0.0216
  645TMC3    O2 9558   0.713   3.572  10.150 -0.0152 -0.2010  0.2780
  646MPD2     C 9559   0.453   2.542  14.475  0.2543 -0.1027 -0.1074
  646MPD2    C1 9560   0.364   2.469  14.545 -0.8443  0.6980  0.4583
  646MPD2    C2 9561   0.229   2.497  14.529  0.0343  0.1703 -0.0791
  646MPD2    C3 9562   0.187   2.603  14.451 -0.1878  0.2370 -0.4975
  646MPD2    C4 9563   0.282   2.683  14.390  0.5066  0.0151 -0.2583
  646MPD2    C5 9564   0.413   2.652  14.413  0.3083  0.6917  0.5455
  646MPD2     H 9565   0.154   2.437  14.580 -0.5208  0.0697 -1.0131
  646MPD2    H1 9566   0.263   2.771  14.330  1.5716  0.6883  0.4202
  646MPD2    H2 9567   0.559   2.522  14.479 -0.0121 -1.9016 -1.8730
  646MPD2    H3 9568   0.495   2.707  14.368  0.7062  0.3991  0.9134
  646MPD2     N 9569   0.043   2.627  14.435 -0.5006 -0.7470 -0.2227
  646MPD2    H5 9570   4.714   2.557  14.483  0.8817 -0.6205  1.5238
  646MPD2    N1 9571   0.426   2.376  14.629  0.2004  0.3602  0.1116
  646MPD2    H7 9572   0.527   2.374  14.621  0.2184  0.5813  0.3197
  647TMC3    C1 9573   0.432   2.200  14.795 -0.0644  0.1814 -0.0137
  647TMC3    C2 9574   0.370   2.141  14.899 -0.0200  0.7896 -0.4066
  647TMC3    C3 9575   0.441   2.075  14.996  0.5012  0.4557  0.0239
  647TMC3    C4 9576   0.564   2.186  14.778  0.6670  0.6144 -0.1173
  647TMC3    C5 9577   0.630   2.111  14.868 -0.0907 -0.1304  0.0831
  647TMC3    C6 9578   0.578   2.054  14.984  0.2505 -0.0792 -0.6818
  647TMC3     C 9579   0.356   2.286  14.708 -0.5485 -0.4150  0.3359
  647TMC3     O 9580   0.236   2.277  14.720 -0.0151 -0.0487  0.5156
  647TMC3     H 9581   0.263   2.157  14.911 -0.0386  0.6320 -0.3513
  647TMC3    H1 9582   0.624   2.207  14.690  1.3858  1.1930  0.5029
  647TMC3    H2 9583   0.644   2.010  15.057 -0.4846 -0.1470 -0.0572
  647TMC3    C7 9584   0.776   2.092  14.840 -0.2558  0.3422  0.6047
  647TMC3    C8 9585   0.370   2.040  15.119  0.2827  0.4050 -0.1623
  647TMC3    O1 9586   0.811   2.062  14.727  0.4688  0.0410  0.3939
  647TMC3    O2 9587   0.259   2.091  15.139 -0.8923 -0.1604 -0.0175
  648TMC3    C1 9588   4.172   0.026  15.978 -0.5918  0.1702  0.2922
  648TMC3    C2 9589   4.188   4.624  15.928  0.0949  0.3750 -0.5323
  648TMC3    C3 9590   4.082   4.545  15.900  0.5512 -0.2778 -0.4316
  648TMC3    C4 9591   4.045   0.080  15.995 -0.0924 -0.2518  0.1390
  648TMC3    C5 9592   3.939   4.724  15.964  0.2709 -0.2260 -0.0918
  648TMC3    C6 9593   3.958   4.593  15.920  0.3212  0.3615 -0.0411
  648TMC3     C 9594   4.259   0.062  16.086  0.4049  0.7343  0.4871
  648TMC3     O 9595   4.274   0.185  16.101  0.0503 -0.2797  0.1177
  648TMC3     H 9596   4.287   4.579  15.932 -0.6215 -1.0662  0.6356
  648TMC3    H1 9597   4.028   0.180  16.031  1.4842  0.0229  0.1362
  648TMC3    H2 9598   3.870   4.534  15.898 -0.1693  0.2920  2.0812
  648TMC3    C7 9599   3.810   0.033  16.019  0.2832  0.6142 -0.6210
  648TMC3    C8 9600   4.104   4.429  15.823  0.0850 -0.0464  0.3013
  648TMC3    O1 9601   3.719   0.032  15.942 -0.4247 -0.4023  0.0739
  648TMC3    O2 9602   4.005   4.367  15.790  0.1456 -0.3441  0.0603
  649TMC3    C1 9603   3.048   1.108  12.744 -0.4817 -0.0163  0.1427
  649TMC3    C2 9604   3.159   1.089  12.659  0.0474 -0.7297  0.1315
  649TMC3    C3 9605   3.269   1.029  12.698  0.4753  0.0598  0.2315
  649TMC3    C4 9606   3.058   1.061  12.873 -0.0881 -0.6247 -0.4356
  649TMC3    C5 9607   3.173   1.002  12.913  0.7533  1.3703 -1.1407
  649TMC3    C6 9608   3.285   0.990  12.830 -0.8355 -0.7770 -0.9418
  649TMC3     C 9609   2.935   1.184  12.708  0.3037  0.2776 -0.2870
  649TMC3     O 9610   2.852   1.187  12.797  0.5498  0.0855 -0.7704
  649TMC3     H 9611   3.155   1.129  12.559  1.3278  0.3394  0.5086
  649TMC3    H1 9612   2.974   1.080  12.940  0.1988 -2.9093  0.5488
  649TMC3    H2 9613   3.373   0.936  12.862 -1.1957  0.9477  2.9694
  649TMC3    C7 9614   3.179   0.953  13.055  0.0096 -0.4891 -0.0921
  649TMC3    C8 9615   3.374   0.990  12.603  1.1859  0.0739 -0.0188
  649TMC3    O1 9616   3.280   0.965  13.122  0.6056  0.0229 -0.1396
  649TMC3    O2 9617   3.478   0.956  12.649 -0.7079  0.5266  0.2982
  650TMC3    C1 9618   1.196   2.855  12.625  0.2060  0.3184  0.3129
  650TMC3    C2 9619   1.176   2.990  12.638  0.0106  0.1651  0.0981
  650TMC3    C3 9620   1.064   3.049  12.576  0.3293  0.6134 -0.4339
  650TMC3    C4 9621   1.106   2.781  12.564 -0.2640 -0.0134  0.0831
  650TMC3    C5 9622   0.991   2.839  12.509  0.0458 -0.3501 -0.0202
  650TMC3    C6 9623   0.972   2.974  12.510  0.4904  0.5254 -0.1552
  650TMC3     C 9624   1.298   2.804  12.709  0.2822  0.1622  0.2271
  650TMC3     O 9625   1.392   2.873  12.743  0.1651  0.5353  0.0342
  650TMC3     H 9626   1.241   3.049  12.700 -0.2220  1.1203 -0.5673
  650TMC3    H1 9627   1.130   2.680  12.531 -1.1875 -0.0669 -0.4392
  650TMC3    H2 9628   0.875   3.012  12.479  0.5909 -0.2445 -1.4392
  650TMC3    C7 9629   0.905   2.742  12.446 -0.3636  0.5167 -0.0435
  650TMC3    C8 9630   1.025   3.187  12.598  0.4695  0.5168 -0.2715
  650TMC3    O1 9631   0.909   2.627  12.491  0.1642  0.1958 -0.4113
  650TMC3    O2 9632   1.093   3.256  12.676 -0.5474 -0.3118 -0.0968
  651MPD2     C 9633   0.093   0.250  10.364 -0.0644  0.6351 -0.3345
  651MPD2    C1 9634   0.079   0.268  10.496 -0.2936 -0.2160  0.2944
  651MPD2    C2 9635   0.191   0.280  10.575 -0.1215  0.0078 -0.3691
  651MPD2    C3 9636   0.319   0.263  10.527 -1.0338  0.2711 -1.1255
  651MPD2    C4 9637   0.330   0.259  10.386  0.2105 -0.8928 -0.2045
  651MPD2    C5 9638   0.220   0.251  10.304  0.3250  1.0745 -0.2121
  651MPD2     H 9639   0.179   0.303  10.680  0.3882 -2.4147  0.2203
  651MPD2    H1 9640   0.423   0.249  10.332 -0.6201 -1.5955 -1.5070
  651MPD2    H2 9641   0.004   0.244  10.303 -2.4763 -0.3614  3.2912
  651MPD2    H3 9642   0.228   0.244  10.196 -0.0157 -2.4515 -0.0089
  651MPD2     N 9643   0.429   0.252  10.620 -0.2825  0.1426 -0.6207
  651MPD2    H5 9644   0.404   0.226  10.715  0.8294 -1.0680 -0.6645
  651MPD2    N1 9645   4.675   0.286  10.563 -0.4902  0.2841 -0.1280
  651MPD2    H7 9646   4.682   0.305  10.663  2.9360 -0.3864 -0.2601
  652TMC3    C1 9647   0.875   0.213  10.759  0.0215 -0.1973  0.2908
  652TMC3    C2 9648   0.790   0.253  10.660 -0.4941 -0.2875 -0.0546
  652TMC3    C3 9649   0.655   0.238  10.687  0.0536  0.9381 -0.1105
  652TMC3    C4 9650   0.837   0.167  10.880  0.1770  0.5103 -0.2726
  652TMC3    C5 9651   0.703   0.148  10.899  0.3719 -0.5175  0.3319
  652TMC3    C6 9652   0.612   0.187  10.807 -0.0746 -0.0905  0.0089
  652TMC3     C 9653   1.011   0.257  10.755 -0.4767  0.3521  0.3343
  652TMC3     O 9654   1.072   0.253  10.862  0.2328  0.1469 -0.7782
  652TMC3     H 9655   0.836   0.277  10.564  1.5067 -1.1503  0.6743
  652TMC3    H1 9656   0.913   0.142  10.954  0.5424 -0.7593 -1.0628
  652TMC3    H2 9657   0.506   0.168  10.822  0.1159  0.1139  1.6107
  652TMC3    C7 9658   0.658   0.163  11.028 -0.6685  0.2025  0.0527
  652TMC3    C8 9659   0.561   0.271  10.577  0.8128  0.1993  0.0376
  652TMC3    O1 9660   0.549   0.119  11.060 -0.9233 -0.0339 -0.0370
  652TMC3    O2 9661   0.600   0.310  10.465  0.1030 -0.0817  0.4439
  653MPD2     C 9662   4.092   0.224  17.650  0.0866 -0.2061  0.1079
  653MPD2    C1 9663   3.967   0.274  17.658  0.3279  0.3702 -0.0774
  653MPD2    C2 9664   3.858   0.193  17.627 -0.8173 -0.0808 -1.1952
  653MPD2    C3 9665   3.867   0.059  17.602  0.2818 -0.3502  0.0372
  653MPD2    C4 9666   3.996   0.006  17.608 -0.5449  0.0461 -0.1648
  653MPD2    C5 9667   4.107   0.090  17.623 -0.0796 -0.1057 -0.1502
  653MPD2     H 9668   3.761   0.242  17.629 -1.1910 -0.8869 -0.0338
  653MPD2    H1 9669   4.010   4.625  17.608  0.4466  0.1741 -0.5643
  653MPD2    H2 9670   4.182   0.278  17.675  1.2347 -2.1021  0.0491
  653MPD2    H3 9671   4.205   0.043  17.621 -0.3037 -0.5878  0.3714
  653MPD2     N 9672   3.756   4.700  17.579 -0.4111  0.4901  0.2506
  653MPD2    H5 9673   3.664   0.015  17.564 -0.5706  1.2098  3.1584
  653MPD2    N1 9674   3.946   0.410  17.694 -0.1764 -0.1429 -0.3052
  653MPD2    H7 9675   3.864   0.464  17.670 -0.6181 -0.1475  1.2336
  654TMC3    C1 9676   3.640   4.496  17.558  0.4487  0.3002  0.0780
  654TMC3    C2 9677   3.526   4.575  17.557  0.0325 -0.3592 -0.0753
  654TMC3    C3 9678   3.416   4.524  17.497 -0.2582  0.1745  0.7351
  654TMC3    C4 9679   3.643   4.372  17.487  0.6688  0.7531 -0.4520
  654TMC3    C5 9680   3.521   4.332  17.433  0.0787  0.7306  0.0845
  654TMC3    C6 9681   3.409   4.407  17.437 -0.6128  1.2474  0.2192
  654TMC3     C 9682   3.765   4.559  17.568 -0.1368  0.4606 -0.5081
  654TMC3     O 9683   3.862   4.482  17.567 -0.5113 -0.6223 -0.0769
  654TMC3     H 9684   3.515   4.673  17.602 -0.0733 -0.4160  0.0239
  654TMC3    H1 9685   3.735   4.318  17.472 -0.9227 -1.7931 -1.0640
  654TMC3    H2 9686   3.317   4.366  17.396 -1.2370  1.6910  1.1707
  654TMC3    C7 9687   3.518   4.231  17.332  1.0172  0.4564  0.3210
  654TMC3    C8 9688   3.301   4.613  17.471 -0.2655  0.0362  0.5583
  654TMC3    O1 9689   3.451   4.264  17.234 -0.2997  0.3539 -0.1625
  654TMC3    O2 9690   3.268   4.694  17.561  0.1003  0.5638 -0.4911
  655MPD2     C 9691   4.380   0.436  15.520 -0.4900  1.2970  0.2515
  655MPD2    C1 9692   4.240   0.436  15.514  0.3027 -0.0322 -0.2257
  655MPD2    C2 9693   4.181   0.383  15.405 -0.2017  0.0321  0.1880
  655MPD2    C3 9694   4.252   0.318  15.308 -0.0313  0.4194  0.0175
  655MPD2    C4 9695   4.395   0.314  15.325 -0.5135 -0.0548 -0.2342
  655MPD2    C5 9696   4.461   0.383  15.426  0.7211 -0.5254 -0.4755
  655MPD2     H 9697   4.076   0.409  15.393  0.1014  1.7235  1.1768
  655MPD2    H1 9698   4.457   0.281  15.242 -0.0740  2.2709 -0.8414
  655MPD2    H2 9699   4.432   0.479  15.605 -0.4212 -0.3801  1.0467
  655MPD2    H3 9700   4.568   0.398  15.433  0.4667  0.8207  0.5342
  655MPD2     N 9701   4.194   0.259  15.193  0.1842 -0.5158 -0.2278
  655MPD2    H5 9702   4.258   0.229  15.121 -0.5874 -0.4748 -0.9384
  655MPD2    N1 9703   4.164   0.513  15.605 -0.3930  0.4682  0.4511
  655MPD2    H7 9704   4.070   0.536  15.574 -0.9104 -1.5626  0.5085
  656TMC3    C1 9705   4.113   0.646  15.796 -0.2318  0.2980 -1.1798
  656TMC3    C2 9706   4.141   0.671  15.925 -0.3929  0.0480 -0.1120
  656TMC3    C3 9707   4.047   0.717  16.011 -0.1689  0.6175  0.8086
  656TMC3    C4 9708   3.990   0.676  15.750  0.2702  0.2306  0.1220
  656TMC3    C5 9709   3.896   0.726  15.838  0.4756  0.0527  0.5987
  656TMC3    C6 9710   3.920   0.737  15.967  0.4001  0.5462  0.0386
  656TMC3     C 9711   4.195   0.537  15.732  0.3542  0.8338 -0.1483
  656TMC3     O 9712   4.290   0.496  15.794 -0.2466  0.6191 -0.0892
  656TMC3     H 9713   4.231   0.632  15.972 -1.5205 -0.2456  1.8100
  656TMC3    H1 9714   3.975   0.663  15.644  3.8457 -1.1983 -0.2141
  656TMC3    H2 9715   3.844   0.766  16.039  0.1707 -3.5132  1.4568
  656TMC3    C7 9716   3.764   0.747  15.786 -0.6872 -0.7640  0.3858
  656TMC3    C8 9717   4.077   0.709  16.148 -0.0572  0.4380 -0.8808
  656TMC3    O1 9718   3.747   0.698  15.675 -0.0516  0.1310  0.5705
  656TMC3    O2 9719   4.052   0.812  16.213 -0.0171  0.5992 -0.3783
  657TMC3    C1 9720   3.740   4.219  14.533  0.2286 -0.0962  0.3249
  657TMC3    C2 9721   3.622   4.247  14.601  0.2504  0.2880  0.5998
  657TMC3    C3 9722   3.607   4.379  14.628  0.0494  0.7342  0.6386
  657TMC3    C4 9723   3.829   4.307  14.480 -0.4353 -0.2495 -0.1208
  657TMC3    C5 9724   3.802   4.441  14.515  0.8910 -0.4247 -0.2993
  657TMC3    C6 9725   3.689   4.481  14.587 -0.2177 -0.1427  0.7551
  657TMC3     C 9726   3.776   4.079  14.521 -0.4129  0.0221  0.5801
  657TMC3     O 9727   3.705   3.996  14.475  0.1436  0.5270 -0.5550
  657TMC3     H 9728   3.563   4.164  14.638  1.2352 -0.6852 -0.0363
  657TMC3    H1 9729   3.919   4.273  14.430  0.5119 -0.4634  1.7509
  657TMC3    H2 9730   3.660   4.584  14.604 -0.4106 -0.2556  1.0932
  657TMC3    C7 9731   3.914   4.534  14.503 -0.0778 -0.2077  0.1187
  657TMC3    C8 9732   3.539   4.409  14.753  0.5065  0.7692  0.1666
  657TMC3    O1 9733   3.917   4.628  14.584  0.1974 -0.6997 -0.0375
  657TMC3    O2 9734   3.521   4.317  14.833  0.5210 -0.0579  0.5686
  658MPD2     C 9735   4.381   4.401  14.758 -0.0909  0.2774  0.8751
  658MPD2    C1 9736   4.344   4.532  14.724  0.0560 -0.2556  0.0659
  658MPD2    C2 9737   4.430   4.611  14.650 -0.1638 -0.2445 -0.2352
  658MPD2    C3 9738   4.549   4.559  14.611  0.8681 -0.0761  0.0647
  658MPD2    C4 9739   4.580   4.427  14.634 -0.4251  0.2195  0.2741
  658MPD2    C5 9740   4.496   4.346  14.707 -0.3794  0.0379  0.1864
  658MPD2     H 9741   4.414   4.717  14.635 -0.2303 -0.3392 -0.8413
  658MPD2    H1 9742   4.670   4.383  14.591  0.3116  0.7242  1.2975
  658MPD2    H2 9743   4.327   4.341  14.831 -2.2481  1.1692 -0.0028
  658MPD2    H3 9744   4.532   4.245  14.729 -2.7038 -0.9042 -0.3451
  658MPD2     N 9745   4.649   4.641  14.545  0.7379 -0.2518  0.0498
  658MPD2    H5 9746   4.618   0.005  14.511  0.8325 -0.8246 -1.5512
  658MPD2    N1 9747   4.226   4.586  14.788  0.6834 -0.5613 -0.4011
  658MPD2    H7 9748   4.187   4.518  14.852  1.9016 -0.1664  0.7475
  659TMC3    C1 9749   4.085   0.022  14.881 -0.2280 -0.1130 -0.6228
  659TMC3    C2 9750   4.110   0.130  14.964  0.3108 -0.1180 -0.0325
  659TMC3    C3 9751   4.016   0.166  15.055 -0.0940 -0.6064  0.0847
  659TMC3    C4 9752   3.974   4.676  14.892 -0.0062 -0.5781  0.6033
  659TMC3    C5 9753   3.882   4.708  14.986  0.1124  0.6685  0.8058
  659TMC3    C6 9754   3.903   0.093  15.063 -0.7684  0.6471  0.3925
  659TMC3     C 9755   4.195   4.720  14.793 -0.1498 -0.0248 -0.7315
  659TMC3     O 9756   4.251   0.098  14.750 -0.1354  0.1280  0.2378
  659TMC3     H 9757   4.205   0.182  14.956  1.1717 -1.5120  1.2013
  659TMC3    H1 9758   3.974   4.589  14.827 -0.5467 -0.4268  0.4024
  659TMC3    H2 9759   3.834   0.120  15.142 -0.3367  2.3301  0.1952
  659TMC3    C7 9760   3.785   4.611  15.034  0.3285 -0.2293 -0.0325
  659TMC3    C8 9761   4.061   0.244  15.172  0.6274 -0.7448 -0.0497
  659TMC3    O1 9762   3.727   4.640  15.135 -0.3868  0.4055  0.3123
  659TMC3    O2 9763   3.973   0.270  15.251 -0.0131 -0.4077 -0.0718
  660MPD2     C 9764   3.303   3.446  13.046 -0.4544 -0.0027 -0.4245
  660MPD2    C1 9765   3.172   3.449  13.006  0.4222 -0.5229  0.4807
  660MPD2    C2 9766   3.074   3.385  13.079 -0.1022  0.7633  0.1378
  660MPD2    C3 9767   3.112   3.304  13.186  0.1498 -0.6195 -0.3975
  660MPD2    C4 9768   3.245   3.300  13.219  0.0910  0.2786 -0.8526
  660MPD2    C5 9769   3.338   3.376  13.155 -0.4387  0.2615 -0.0887
  660MPD2     H 9770   2.970   3.386  13.050  0.7859 -2.4261 -3.1734
  660MPD2    H1 9771   3.265   3.250  13.314  1.5865  0.8414 -0.8753
  660MPD2    H2 9772   3.373   3.514  13.000  1.5468  0.5318  3.3614
  660MPD2    H3 9773   3.442   3.383  13.185 -0.4018 -0.1990 -0.1140
  660MPD2     N 9774   3.020   3.246  13.278  0.0995 -0.0772 -0.2108
  660MPD2    H5 9775   3.069   3.200  13.354 -0.8571 -0.5339  0.1217
  660MPD2    N1 9776   3.124   3.527  12.897 -0.9685  0.2696 -0.9161
  660MPD2    H7 9777   3.024   3.527  12.884 -1.0798  0.3951 -0.0084
  661TMC3    C1 9778   3.120   3.594  12.669 -0.3357  0.2682 -0.0688
  661TMC3    C2 9779   3.184   3.611  12.545  0.0689  0.2413  0.2392
  661TMC3    C3 9780   3.113   3.645  12.431 -0.2182 -0.5357 -0.7843
  661TMC3    C4 9781   2.982   3.590  12.672  0.1914 -0.4520  0.2356
  661TMC3    C5 9782   2.910   3.615  12.553 -0.5507  0.1280 -0.6767
  661TMC3    C6 9783   2.977   3.649  12.437 -0.6049  0.4145  0.5648
  661TMC3     C 9784   3.202   3.563  12.786 -0.0486  0.3661  0.1541
  661TMC3     O 9785   3.324   3.567  12.773 -0.3178  0.1102  0.1995
  661TMC3     H 9786   3.290   3.605  12.523 -0.3881 -2.9410 -1.1155
  661TMC3    H1 9787   2.921   3.562  12.758 -0.7939  0.1851 -0.2455
  661TMC3    H2 9788   2.924   3.671  12.344 -0.5240 -0.5052  0.3049
  661TMC3    C7 9789   2.764   3.632  12.557  0.1868  0.0666 -0.4741
  661TMC3    C8 9790   3.180   3.733  12.335  0.0177  0.8226  0.8154
  661TMC3    O1 9791   2.710   3.639  12.666 -0.2483 -0.4697  0.3300
  661TMC3    O2 9792   3.288   3.704  12.284  0.3271 -0.0450  0.1189
  662MPD2     C 9793   3.069   2.923  17.485  0.2822  0.1865 -0.3293
  662MPD2    C1 9794   3.119   3.026  17.561  0.1518  0.3643  0.0246
  662MPD2    C2 9795   3.102   3.154  17.525 -0.2025 -0.2816  0.3146
  662MPD2    C3 9796   3.018   3.190  17.430  0.9236  0.2260  0.0544
  662MPD2    C4 9797   2.947   3.091  17.357 -0.7499  0.5389 -0.1590
  662MPD2    C5 9798   2.975   2.957  17.384 -0.8353 -0.0708  0.2163
  662MPD2     H 9799   3.152   3.232  17.581  0.5938 -1.2447  0.9443
  662MPD2    H1 9800   2.869   3.119  17.286 -0.2316  1.4712 -0.3645
  662MPD2    H2 9801   3.097   2.821  17.506  0.6495  0.0405 -1.5304
  662MPD2    H3 9802   2.917   2.887  17.325  2.6104 -3.1797  0.4956
  662MPD2     N 9803   2.986   3.325  17.382 -0.5339  0.3996  0.1268
  662MPD2    H5 9804   2.914   3.340  17.313 -0.8825 -0.0428  0.3927
  662MPD2    N1 9805   3.209   3.006  17.667 -0.2121  0.5851  0.0468
  662MPD2    H7 9806   3.260   3.085  17.705  0.1546  1.0440 -1.3972
  663TMC3    C1 9807   3.336   2.888   0.117  0.7981  0.2184 -0.1180
  663TMC3    C2 9808   3.390   3.011   0.133 -0.1085  0.2009 -0.0809
  663TMC3    C3 9809   3.526   3.011   0.163  0.1521 -0.1405  0.4328
  663TMC3    C4 9810   3.412   2.777   0.114 -0.4393 -0.5370  0.6760
  663TMC3    C5 9811   3.542   2.781   0.139  0.7946  0.0687 -0.1775
  663TMC3    C6 9812   3.603   2.897   0.158  0.0090  0.5283  1.0835
  663TMC3     C 9813   3.225   2.883   0.027  0.1448  0.5733 -0.2475
  663TMC3     O 9814   3.173   2.777   0.006 -0.0391  0.2537 -0.3008
  663TMC3     H 9815   3.338   3.100   0.168  0.1800 -0.0972  1.1130
  663TMC3    H1 9816   3.363   2.681   0.104  0.5474 -0.9712  0.0950
  663TMC3    H2 9817   3.704   2.892   0.197  0.2181 -0.5327  0.4122
  663TMC3    C7 9818   3.616   2.655   0.156 -0.2313  0.7531  0.1003
  663TMC3    C8 9819   3.560   3.097   0.277  0.3139  0.7345 -0.1571
  663TMC3    O1 9820   3.737   2.662   0.131  0.4137  0.3317  0.7625
  663TMC3    O2 9821   3.615   3.037   0.369 -0.1425 -0.0023  0.4046
  664MPD2     C 9822   1.480   1.692   0.523  0.2548 -0.4509  0.0049
  664MPD2    C1 9823   1.555   1.797   0.488 -0.0273 -0.9934  0.0777
  664MPD2    C2 9824   1.598   1.892   0.581 -0.2486  0.7761 -0.2259
  664MPD2    C3 9825   1.567   1.872   0.712  0.2573  1.0395 -0.0490
  664MPD2    C4 9826   1.494   1.760   0.753  0.2215  0.1493 -0.5298
  664MPD2    C5 9827   1.448   1.675   0.651  0.4804  0.1278  0.2548
  664MPD2     H 9828   1.656   1.981   0.559 -0.0407  0.3242 -1.5035
  664MPD2    H1 9829   1.459   1.740   0.853  0.6537  3.4404  0.2890
  664MPD2    H2 9830   1.448   1.611   0.459  3.1524 -0.5430 -1.3427
  664MPD2    H3 9831   1.396   1.582   0.674  0.9465 -0.1469  0.1950
  664MPD2     N 9832   1.620   1.968   0.812 -0.1481  0.5346 -0.0494
  664MPD2    H5 9833   1.664   2.051   0.773 -0.8353  0.5298 -0.8248
  664MPD2    N1 9834   1.587   1.827   0.356  0.1351 -0.2437 -0.0420
  664MPD2    H7 9835   1.668   1.888   0.344  0.4295 -0.8183 -1.0306
  665TMC3    C1 9836   1.674   2.077   1.020  0.2822  0.3128 -0.0905
  665TMC3    C2 9837   1.712   2.046   1.142 -0.3056  0.0793  0.0259
  665TMC3    C3 9838   1.761   2.142   1.229 -0.5738  0.2490  0.7800
  665TMC3    C4 9839   1.688   2.203   0.967  0.4324  0.0545 -0.5322
  665TMC3    C5 9840   1.727   2.302   1.060  0.6895  0.7014  0.8457
  665TMC3    C6 9841   1.773   2.274   1.188  0.3773  0.2787 -0.2884
  665TMC3     C 9842   1.613   1.959   0.947 -0.7585  0.7258  0.0406
  665TMC3     O 9843   1.595   1.857   1.006 -0.2678 -0.0703  0.0871
  665TMC3     H 9844   1.707   1.947   1.187  0.0563  0.2864  0.5225
  665TMC3    H1 9845   1.656   2.228   0.866  0.0901  3.4052  0.4160
  665TMC3    H2 9846   1.824   2.353   1.241  0.5761 -1.3405  1.9391
  665TMC3    C7 9847   1.685   2.433   1.033 -0.4373  0.3544  0.5141
  665TMC3    C8 9848   1.733   2.143   1.366  0.6049  0.1245 -0.6531
  665TMC3    O1 9849   1.590   2.435   0.957 -0.5817 -0.3725 -0.0289
  665TMC3    O2 9850   1.683   2.247   1.407  0.5031  1.0196 -0.5757
  666TMC3    C1 9851   0.801   1.071  10.373  0.6396  0.6489  0.1454
  666TMC3    C2 9852   0.861   1.027  10.481 -0.4370 -0.2953  0.4664
  666TMC3    C3 9853   0.983   1.082  10.521  0.0187  0.7561 -0.4394
  666TMC3    C4 9854   0.851   1.175  10.304  0.2127 -0.1311 -0.4742
  666TMC3    C5 9855   0.967   1.243  10.349 -0.6364 -0.7635  0.3307
  666TMC3    C6 9856   1.032   1.193  10.458 -0.5613 -0.8752  0.4076
  666TMC3     C 9857   0.656   1.036  10.351 -0.1349 -0.3751 -0.0805
  666TMC3     O 9858   0.628   1.040  10.233  0.6355  0.1051 -0.2077
  666TMC3     H 9859   0.837   0.932  10.526 -0.1910 -0.7162 -0.2866
  666TMC3    H1 9860   0.789   1.220  10.228 -0.7735 -0.0135  0.4026
  666TMC3    H2 9861   1.121   1.247  10.487 -1.8533  0.7087  1.4136
  666TMC3    C7 9862   0.953   1.388  10.365  0.3770  0.0274  1.2911
  666TMC3    C8 9863   1.037   1.045  10.649 -0.0788 -0.6514  0.8637
  666TMC3    O1 9864   0.956   1.427  10.480  0.2015 -0.2539 -0.1721
  666TMC3    O2 9865   0.963   0.986  10.726  0.2238  0.3285 -0.7660
  667MPD2     C 9866   1.928   1.970  15.023  0.1662 -0.5639  0.1758
  667MPD2    C1 9867   1.864   1.936  15.136 -0.3750 -0.0964  0.3768
  667MPD2    C2 9868   1.740   1.878  15.132 -0.0277 -0.6324 -0.3142
  667MPD2    C3 9869   1.674   1.865  15.011  0.0803  0.2032 -0.1566
  667MPD2    C4 9870   1.742   1.895  14.900  0.3749  0.1765  0.2804
  667MPD2    C5 9871   1.869   1.937  14.903 -0.6593 -0.6816 -0.4117
  667MPD2     H 9872   1.698   1.853  15.229  1.4712  0.5386  0.6397
  667MPD2    H1 9873   1.696   1.882  14.802  0.7026  0.5173  0.0803
  667MPD2    H2 9874   2.025   2.017  15.019 -0.5614  0.6395 -3.2287
  667MPD2    H3 9875   1.929   1.950  14.814  0.6709  0.3361  0.6286
  667MPD2     N 9876   1.538   1.835  15.001  0.2349 -0.2845 -0.0325
  667MPD2    H5 9877   1.492   1.847  14.911 -1.4666  0.0515  0.8869
  667MPD2    N1 9878   1.923   1.957  15.259  0.0177 -0.4820 -0.8292
  667MPD2    H7 9879   1.887   1.908  15.341  1.6952  2.7968  1.9004
  668TMC3    C1 9880   2.085   2.024  15.427  0.7088  0.5552  0.0372
  668TMC3    C2 9881   2.203   2.089  15.451  0.0237 -0.1844  0.0105
  668TMC3    C3 9882   2.235   2.128  15.580 -0.0089 -0.2454  0.2225
  668TMC3    C4 9883   1.991   2.022  15.528  0.7059  0.2528 -0.0195
  668TMC3    C5 9884   2.031   2.053  15.657  0.2800  0.4089  0.3575
  668TMC3    C6 9885   2.155   2.092  15.688 -0.1879 -0.4611  0.5430
  668TMC3     C 9886   2.036   2.032  15.288 -0.2574  0.1570 -0.6838
  668TMC3     O 9887   2.109   2.093  15.209  0.7030 -0.1782 -0.1297
  668TMC3     H 9888   2.267   2.104  15.365  1.1164 -0.3232  0.7836
  668TMC3    H1 9889   1.888   2.001  15.503  0.7735  0.0231 -0.0997
  668TMC3    H2 9890   2.184   2.117  15.790  3.1322 -0.8770 -0.3273
  668TMC3    C7 9891   1.945   2.037  15.771 -0.1322 -0.0098  0.2052
  668TMC3    C8 9892   2.332   2.232  15.603 -0.4609 -1.2397 -0.1107
  668TMC3    O1 9893   1.966   2.107  15.868  0.9358  0.2451  0.7045
  668TMC3    O2 9894   2.350   2.263  15.717  0.1547 -0.1113 -0.0533
  669TMC3    C1 9895   0.187   1.344  14.294 -0.1668  0.3886  0.8476
  669TMC3    C2 9896   0.080   1.355  14.213  0.1411  0.5690  0.0093
  669TMC3    C3 9897   0.078   1.465  14.132 -0.4086  0.7467 -0.1579
  669TMC3    C4 9898   0.285   1.445  14.299 -0.4458  0.1287 -0.2523
  669TMC3    C5 9899   0.276   1.550  14.215 -0.2128  0.4901 -0.7453
  669TMC3    C6 9900   0.171   1.568  14.134 -0.4050 -0.2204  0.0337
  669TMC3     C 9901   0.209   1.220  14.373 -0.5802  0.0411  0.3891
  669TMC3     O 9902   0.113   1.165  14.422  0.2288 -0.1037  0.3907
  669TMC3     H 9903   0.009   1.273  14.215 -0.4872  1.0879 -0.9103
  669TMC3    H1 9904   0.365   1.436  14.371 -0.9624 -1.7892  0.0859
  669TMC3    H2 9905   0.160   1.656  14.072 -2.6251  1.5045  2.8599
  669TMC3    C7 9906   0.385   1.657  14.224  0.1697  0.0643 -0.1210
  669TMC3    C8 9907   4.700   1.466  14.037  0.4995  0.1227  0.2044
  669TMC3    O1 9908   0.471   1.643  14.309 -0.1993 -1.0205 -0.3755
  669TMC3    O2 9909   4.612   1.387  14.047  0.0863  0.4797 -0.2674
  670MPD2     C 9910   3.331   4.102  13.439 -0.6480  0.5649  0.6340
  670MPD2    C1 9911   3.413   4.137  13.543  0.0204  0.2678  0.5853
  670MPD2    C2 9912   3.346   4.139  13.667  0.6429  0.0291  0.1601
  670MPD2    C3 9913   3.216   4.113  13.693 -1.0413 -0.0207  0.3903
  670MPD2    C4 9914   3.143   4.076  13.584 -0.7767  0.8016 -0.4765
  670MPD2    C5 9915   3.198   4.075  13.459 -0.4816  0.8601  0.1458
  670MPD2     H 9916   3.411   4.163  13.750  0.0865  0.1289  0.5665
  670MPD2    H1 9917   3.037   4.053  13.592 -0.3581 -0.3280  1.7880
  670MPD2    H2 9918   3.363   4.092  13.336 -1.3431  0.6942  0.4122
  670MPD2    H3 9919   3.134   4.040  13.379 -1.3202  2.0319  0.2982
  670MPD2     N 9920   3.164   4.117  13.824 -0.2778  0.1944  0.8542
  670MPD2    H5 9921   3.235   4.139  13.893  1.4387  0.0896 -0.8600
  670MPD2    N1 9922   3.545   4.178  13.524 -0.2826  0.1924  0.1749
  670MPD2    H7 9923   3.593   4.213  13.605 -0.8269  0.6594  0.2925
  671TMC3    C1 9924   3.014   4.143  14.001  0.5097  0.5503 -0.3917
  671TMC3    C2 9925   3.119   4.118  14.093 -0.6789  0.1067 -0.5410
  671TMC3    C3 9926   3.075   4.066  14.212 -0.2028 -0.9426 -0.1494
  671TMC3    C4 9927   2.879   4.146  14.045  0.7027  0.2269 -0.0341
  671TMC3    C5 9928   2.850   4.119  14.174 -0.6153  0.2841  0.1591
  671TMC3    C6 9929   2.945   4.077  14.261  0.1352 -1.3261 -0.1555
  671TMC3     C 9930   3.028   4.120  13.857 -0.5769 -0.5374  0.0791
  671TMC3     O 9931   2.931   4.093  13.788  0.3582 -0.0157 -0.0034
  671TMC3     H 9932   3.210   4.076  14.052  0.4585  1.1890  0.8737
  671TMC3    H1 9933   2.797   4.153  13.974  2.2842 -3.9089 -2.2988
  671TMC3    H2 9934   2.912   4.029  14.353 -2.3591 -2.1632 -1.4910
  671TMC3    C7 9935   2.734   4.038  14.173  0.0717 -0.1262  0.4335
  671TMC3    C8 9936   3.139   3.930  14.237  0.9957 -0.4548  0.0153
  671TMC3    O1 9937   2.757   3.919  14.140 -0.1549  0.2947 -0.3402
  671TMC3    O2 9938   3.168   3.869  14.134  0.1527 -0.1951 -0.0780
  672MPD2     C 9939   0.145   0.272   0.291 -0.5545 -0.4540  1.1777
  672MPD2    C1 9940   0.148   0.191   0.403 -0.6495  0.5289  0.0736
  672MPD2    C2 9941   0.232   0.226   0.509 -0.2733 -0.0959 -0.3800
  672MPD2    C3 9942   0.312   0.339   0.516 -0.5255 -0.3481  1.0842
  672MPD2    C4 9943   0.312   0.416   0.396  0.1814 -0.2475 -0.9208
  672MPD2    C5 9944   0.236   0.376   0.289  0.2208 -0.1018 -0.1062
  672MPD2     H 9945   0.230   0.164   0.598  0.8756  1.0815  0.4679
  672MPD2    H1 9946   0.370   0.508   0.391 -1.5205  0.8046 -1.4016
  672MPD2    H2 9947   0.078   0.254   0.208 -1.9198  0.3450  2.1004
  672MPD2    H3 9948   0.244   0.445   0.206  0.8381 -1.0133 -0.8004
  672MPD2     N 9949   0.376   0.396   0.629 -0.0501 -0.2189 -0.0565
  672MPD2    H5 9950   0.411   0.491   0.622 -0.5006  0.1501  2.7843
  672MPD2    N1 9951   0.054   0.090   0.419  0.1801  0.4326 -0.3448
  672MPD2    H7 9952   0.025   0.053   0.510 -2.0653 -0.2102 -1.3113
  673TMC3    C1 9953   4.637   4.640   0.338 -0.2941 -0.0923 -0.0261
  673TMC3    C2 9954   4.680   4.516   0.313 -0.3040 -0.0786  0.1462
  673TMC3    C3 9955   4.651   4.415   0.400 -0.5153 -0.5314 -0.0388
  673TMC3    C4 9956   4.552   4.663   0.443  0.4560  0.1327 -0.5516
  673TMC3    C5 9957   4.502   4.558   0.520  0.3792 -1.2984 -0.2815
  673TMC3    C6 9958   4.564   4.437   0.508  0.1233 -0.1383 -0.2349
  673TMC3     C 9959   0.007   0.013   0.312 -0.3646 -0.4746  0.1893
  673TMC3     O 9960   0.032   0.021   0.193 -0.3179 -0.0166  0.2898
  673TMC3     H 9961   0.036   4.505   0.242 -0.3693  0.0262  0.0548
  673TMC3    H1 9962   4.507   0.034   0.457  0.5440  0.0746  0.1464
  673TMC3    H2 9963   4.522   4.363   0.576  0.4749 -0.5713 -0.4849
  673TMC3    C7 9964   4.351   4.550   0.526 -0.1972  1.0299 -0.7520
  673TMC3    C8 9965   0.002   4.291   0.402  0.0250  0.5251 -0.3349
  673TMC3    O1 9966   4.293   4.442   0.510  0.4125 -0.1494  0.4293
  673TMC3    O2 9967   0.055   4.260   0.292  0.1690 -0.1852  0.2212
  674MPD2     C 9968   3.657   0.177   0.386 -0.5372 -0.6489 -0.0237
  674MPD2    C1 9969   3.665   0.053   0.332 -0.1059  0.1703  0.0593
  674MPD2    C2 9970   3.545   4.720   0.293  0.2269  0.0257  0.2816
  674MPD2    C3 9971   3.429   0.062   0.308 -0.2310 -0.1184  0.2050
  674MPD2    C4 9972   3.422   0.201   0.353  0.5113  0.2656 -0.5652
  674MPD2    C5 9973   3.543   0.253   0.388  0.2617 -0.2093  0.5067
  674MPD2     H 9974   3.540   4.623   0.246 -1.1968 -0.2280  0.9670
  674MPD2    H1 9975   3.337   0.268   0.359  0.6126  0.6918 -3.5830
  674MPD2    H2 9976   3.753   0.214   0.421 -0.0171 -2.4058  0.4117
  674MPD2    H3 9977   3.543   0.354   0.428 -2.2581  1.0696 -2.7202
  674MPD2     N 9978   3.306   4.722   0.265 -0.2711 -0.4616 -0.4962
  674MPD2    H5 9979   3.312   4.623   0.245 -1.0103 -0.9141  1.5862
  674MPD2    N1 9980   3.791   4.715   0.310  0.2807  0.9214 -0.6045
  674MPD2    H7 9981   3.867   0.051   0.337  0.1075  0.6000  0.6432
  675TMC3    C1 9982   3.948   4.548   0.220 -0.1017  0.6712 -0.9017
  675TMC3    C2 9983   3.972   4.406   0.226 -0.0440 -0.0915 -0.1049
  675TMC3    C3 9984   4.104   4.374   0.213  0.5761  0.0113 -0.2452
  675TMC3    C4 9985   4.047   4.640   0.196  0.2305  0.3940 -0.1145
  675TMC3    C5 9986   4.174   4.593   0.190  0.0211  0.0794  0.3016
  675TMC3    C6 9987   4.206   4.460   0.211  0.3010 -0.6805 -0.4119
  675TMC3     C 9988   3.809   4.590   0.250 -0.4373 -0.3192  0.5110
  675TMC3     O 9989   3.721   4.502   0.234  0.2767 -0.1073  0.3244
  675TMC3     H 9990   3.894   4.333   0.244 -1.6903  1.3636 -1.3841
  675TMC3    H1 9991   4.026   0.020   0.203  1.2526  0.7508 -2.3958
  675TMC3    H2 9992   4.307   4.423   0.221  1.3875  2.2978 -0.4281
  675TMC3    C7 9993   4.282   4.688   0.195  0.0733  0.3715  0.0967
  675TMC3    C8 9994   4.132   4.236   0.255 -0.6930  0.2555  0.1343
  675TMC3    O1 9995   4.396   4.648   0.172  0.1695  0.6220 -0.0982
  675TMC3    O2 9996   4.075   4.139   0.200 -0.0869 -0.1265 -0.2644
  676MPD2     C 9997   1.388   2.505  11.379 -0.5338 -0.0236 -0.1891
  676MPD2    C1 9998   1.264   2.437  11.383  0.2755  0.7393  0.6814
  676MPD2    C2 9999   1.252   2.306  11.344  0.3818 -0.4784 -0.0520
  676MPD2    C310000   1.362   2.240  11.299  0.2540  0.6743  0.1841
  676MPD2    C410001   1.475   2.312  11.285 -0.2043 -0.6548  0.3015
  676MPD2    C510002   1.492   2.440  11.325  0.2220  0.1321 -0.8610
  676MPD2     H10003   1.156   2.255  11.349 -0.3543  1.0987  1.5334
  676MPD2    H110004   1.556   2.260  11.234  1.5244  1.8837  0.4362
  676MPD2    H210005   1.391   2.597  11.435 -1.5728  0.0435 -0.2458
  676MPD2    H310006   1.594   2.475  11.318 -0.1577  1.0628 -1.7933
  676MPD2     N10007   1.361   2.114  11.254 -0.5316 -0.3689 -0.3930
  676MPD2    H510008   1.442   2.068  11.213 -2.4838 -2.6458 -1.7383
  676MPD2    N110009   1.142   2.507  11.430  0.0220  0.2974 -0.1911
  676MPD2    H710010   1.065   2.443  11.444  0.8118 -1.2220 -2.9891
  677TMC3    C110011   1.003   2.675  11.535 -0.2070 -0.2104  0.3590
  677TMC3    C210012   0.914   2.570  11.554 -0.8358 -0.2465  0.1256
  677TMC3    C310013   0.835   2.573  11.660  0.2479  0.1555 -0.0176
  677TMC3    C410014   1.004   2.785  11.618  0.2384 -0.1866  0.3891
  677TMC3    C510015   0.924   2.778  11.728  0.4437  0.0472 -0.3887
  677TMC3    C610016   0.850   2.672  11.754  0.6761 -0.2538  0.5562
  677TMC3     C10017   1.135   2.642  11.479  0.2101 -0.1246 -0.6504
  677TMC3     O10018   1.223   2.723  11.497  0.1451 -0.1657 -0.3099
  677TMC3     H10019   0.908   2.485  11.487 -2.2124  0.3613 -0.5185
  677TMC3    H110020   1.067   2.871  11.597  0.2459 -0.0071  1.1385
  677TMC3    H210021   0.777   2.672  11.835 -0.7572  1.7705 -0.7415
  677TMC3    C710022   0.925   2.889  11.819  0.7516  0.4522  0.4184
  677TMC3    C810023   0.786   2.444  11.700  0.0655  0.2482  0.7277
  677TMC3    O110024   0.836   2.883  11.904 -0.1654 -0.0901  0.6460
  677TMC3    O210025   0.663   2.451  11.704  0.4475  0.2615 -0.1840
  678MPD2     C10026   2.656   3.741   1.603  0.2408 -0.2920  0.5080
  678MPD2    C110027   2.644   3.702   1.471 -0.3806  0.6208 -0.4173
  678MPD2    C210028   2.514   3.677   1.428  0.5155 -0.5886 -0.6397
  678MPD2    C310029   2.400   3.702   1.506 -0.1199  0.0632  0.7624
  678MPD2    C410030   2.419   3.738   1.635  0.4889  0.5562  0.7392
  678MPD2    C510031   2.546   3.745   1.690 -0.2537  0.1276  0.0303
  678MPD2     H10032   2.492   3.635   1.331  0.6317  0.7750 -1.2549
  678MPD2    H110033   2.337   3.740   1.706 -0.9729  0.1694 -0.9281
  678MPD2    H210034   2.756   3.746   1.643 -0.6129 -2.0130  2.8429
  678MPD2    H310035   2.558   3.764   1.796 -0.2943 -2.1632  0.4440
  678MPD2     N10036   2.266   3.687   1.448 -0.4662 -0.3073 -0.4515
  678MPD2    H510037   2.258   3.621   1.371 -1.2251  1.4843 -1.8839
  678MPD2    N110038   2.758   3.673   1.390 -0.3138  0.0546 -0.4214
  678MPD2    H710039   2.743   3.619   1.305  1.3743 -3.4161  1.4992
  679TMC3    C110040   3.137   3.549   1.284  0.0163 -0.8082 -0.3893
  679TMC3    C210041   3.008   3.576   1.333  0.1135 -1.1541  0.7160
  679TMC3    C310042   2.973   3.707   1.310  0.5498  0.5148 -0.9606
  679TMC3    C410043   3.214   3.648   1.232 -0.4328  0.1425 -0.4716
  679TMC3    C510044   3.178   3.780   1.221 -0.0078  0.3856  0.0025
  679TMC3    C610045   3.052   3.809   1.268  0.0710  0.4742  0.2816
  679TMC3     C10046   3.186   3.409   1.308 -0.3447 -0.5776 -0.3220
  679TMC3     O10047   3.113   3.336   1.377 -0.4601  0.4255 -0.3273
  679TMC3     H10048   2.938   3.501   1.368  1.7132 -1.9587  2.1926
  679TMC3    H110049   3.314   3.619   1.201  0.0568  0.6840  0.6033
  679TMC3    H210050   3.003   3.902   1.244  0.4026  0.1753 -1.5557
  679TMC3    C710051   3.244   3.860   1.114  0.0851  0.0779  0.4675
  679TMC3    C810052   2.871   3.747   1.404  0.4374  0.1992  0.1962
  679TMC3    O110053   3.294   3.796   1.020  0.0302 -0.0826  0.6959
  679TMC3    O210054   2.895   3.846   1.478  0.0737  0.8785 -0.1383
  680MPD2     C10055   2.956   1.657  13.949  0.4437  0.1666 -0.2201
  680MPD2    C110056   3.003   1.562  14.032  0.1039  0.0972  0.0770
  680MPD2    C210057   3.055   1.605  14.154  0.5182  0.4015  0.1085
  680MPD2    C310058   3.068   1.738  14.178  0.4223 -0.3145  0.0573
  680MPD2    C410059   3.029   1.833  14.085  0.4166  0.0620  0.3878
  680MPD2    C510060   2.968   1.794  13.972  0.2175 -0.1977  0.8002
  680MPD2     H10061   3.107   1.543  14.227  1.5036  1.6011  0.4150
  680MPD2    H110062   3.043   1.936  14.117  0.2008  0.2389 -0.0782
  680MPD2    H210063   2.910   1.641  13.852 -0.6598 -0.0283  0.3348
  680MPD2    H310064   2.942   1.860  13.890  1.7721 -0.8868 -0.2415
  680MPD2     N10065   3.131   1.793  14.292 -0.3077 -0.1721  0.1020
  680MPD2    H510066   3.149   1.892  14.281  2.1872 -0.7530 -1.0921
  680MPD2    N110067   2.990   1.422  14.006 -0.7888 -0.2751  0.1050
  680MPD2    H710068   3.031   1.360  14.075 -0.4761 -0.2796 -0.0812
  681TMC3    C110069   2.970   1.219  13.881 -0.0526  0.2671  0.0158
  681TMC3    C210070   2.947   1.140  13.988 -0.5748  0.2473  0.9372
  681TMC3    C310071   2.966   1.009  13.978 -0.3418  0.1017 -0.1649
  681TMC3    C410072   3.018   1.178  13.763 -0.1360 -0.1774 -0.5251
  681TMC3    C510073   3.040   1.043  13.754 -0.7381  0.1519  0.4315
  681TMC3    C610074   3.008   0.952  13.857  0.0794  0.1691 -0.0944
  681TMC3     C10075   2.943   1.362  13.891 -0.3046 -0.4682  0.1064
  681TMC3     O10076   2.908   1.418  13.790  0.0170 -0.3782 -0.2679
  681TMC3     H10077   2.884   1.173  14.070 -1.2663 -1.9521  1.2964
  681TMC3    H110078   3.043   1.251  13.687  1.9201 -0.0486  0.2794
  681TMC3    H210079   3.027   0.846  13.851 -0.0821  0.1906 -0.9987
  681TMC3    C710080   3.070   0.999  13.620 -0.3308 -0.3182 -0.2120
  681TMC3    C810081   2.961   0.917  14.093 -0.1831  0.3713  0.0549
  681TMC3    O110082   3.145   1.072  13.558 -0.2598 -0.3505  0.1674
  681TMC3    O210083   2.993   0.802  14.067 -0.0906 -0.2325 -0.5255
  682MPD2     C10084   0.290   2.574  10.812  0.6273  0.8592 -0.4370
  682MPD2    C110085   0.250   2.447  10.845 -0.1916  0.3415  0.3043
  682MPD2    C210086   0.144   2.425  10.926 -0.0468  0.2284 -0.1084
  682MPD2    C310087   0.095   2.534  10.990 -0.5760  0.1079  0.0179
  682MPD2    C410088   0.141   2.661  10.963 -0.7217 -0.0364 -0.1962
  682MPD2    C510089   0.237   2.680  10.871 -0.1702  0.2003 -0.6317
  682MPD2     H10090   0.101   2.327  10.942 -1.9574  1.2739  1.1488
  682MPD2    H110091   0.111   2.753  11.013 -1.2851  0.6228 -1.7430
  682MPD2    H210092   0.378   2.593  10.752  0.4461  0.0164 -0.9797
  682MPD2    H310093   0.283   2.777  10.853  1.8655 -0.9340 -1.4870
  682MPD2     N10094   4.721   2.502  11.084  0.2051  0.1315 -0.1541
  682MPD2    H510095   4.703   2.403  11.095  0.5892 -0.2355 -2.7134
  682MPD2    N110096   0.313   2.328  10.788  0.1234  0.1118 -0.3938
  682MPD2    H710097   0.271   2.244  10.827  1.7114 -0.0907  0.8915
  683TMC3    C110098   4.499   2.453  11.456 -0.3763 -0.1873 -0.5418
  683TMC3    C210099   4.431   2.352  11.393 -0.3525  0.9029  0.6341
  683TMC3    C310100   4.416   2.358  11.259 -0.4916 -0.2831 -0.5612
  683TMC3    C410101   4.571   2.544  11.382 -0.6486  0.3823 -0.3308
  683TMC3    C510102   4.564   2.532  11.249 -0.3224 -0.5452 -0.2894
  683TMC3    C610103   4.491   2.444  11.188  0.0862 -0.3823  0.4009
  683TMC3     C10104   4.490   2.475  11.595 -0.4466  0.9399  0.1768
  683TMC3     O10105   4.421   2.388  11.649  0.2767 -0.4420 -0.5120
  683TMC3     H10106   4.377   2.281  11.453 -0.7126 -1.2230 -2.2033
  683TMC3    H110107   4.646   2.610  11.425 -2.8788  2.4563  0.3713
  683TMC3    H210108   4.493   2.444  11.080 -0.2480 -0.9938  0.3977
  683TMC3    C710109   4.661   2.597  11.167 -0.0887  0.3047  0.1328
  683TMC3    C810110   4.382   2.238  11.188  1.3894 -0.2090 -0.6120
  683TMC3    O110111   4.691   2.715  11.193 -0.2839  0.1497  0.4313
  683TMC3    O210112   4.409   2.230  11.069 -0.2611 -0.4598 -0.6276
  684MPD2     C10113   3.133   1.561  16.775  0.3071  0.6232  0.1964
  684MPD2    C110114   3.077   1.621  16.669  0.0447 -0.0466 -0.2512
  684MPD2    C210115   3.100   1.757  16.653 -0.2167  0.7642 -0.3204
  684MPD2    C310116   3.166   1.838  16.744  0.0861  0.2357 -0.7064
  684MPD2    C410117   3.211   1.774  16.857 -0.1943  1.0674 -0.7945
  684MPD2    C510118   3.198   1.642  16.865  0.3525  0.1701  0.3394
  684MPD2     H10119   3.070   1.791  16.555  0.7365  0.6209 -0.6559
  684MPD2    H110120   3.264   1.822  16.938  1.0030 -0.8995 -0.4101
  684MPD2    H210121   3.136   1.453  16.787  0.1568  0.1774 -3.9622
  684MPD2    H310122   3.250   1.596  16.947  0.4460 -0.4250 -0.0588
  684MPD2     N10123   3.194   1.969  16.711  0.3919  0.5709 -0.1350
  684MPD2    H510124   3.263   2.021  16.765 -0.6468 -1.5976  3.1987
  684MPD2    N110125   3.003   1.550  16.574  0.3109  0.2694  0.8598
  684MPD2    H710126   2.965   1.606  16.499 -1.0109 -2.1421 -0.2724
  685TMC3    C110127   2.926   1.367  16.450  0.0360 -0.6629  0.1934
  685TMC3    C210128   2.859   1.461  16.372 -0.4210 -0.5408  0.5729
  685TMC3    C310129   2.861   1.448  16.235 -0.4422 -0.7231 -0.6786
  685TMC3    C410130   2.997   1.264  16.391  0.1774 -0.4477 -0.0680
  685TMC3    C510131   2.995   1.259  16.256 -0.0745  0.4488 -0.1750
  685TMC3    C610132   2.930   1.344  16.175 -0.1460  0.6283 -0.6102
  685TMC3     C10133   2.989   1.416  16.575  0.0127  0.1208  0.4739
  685TMC3     O10134   3.035   1.325  16.644  0.1595 -0.0061 -0.5616
  685TMC3     H10135   2.798   1.538  16.417 -2.9203 -1.9001 -0.5135
  685TMC3    H110136   3.056   1.192  16.446  0.1407  0.7625  1.5374
  685TMC3    H210137   2.956   1.344  16.070  0.6519 -1.3403 -0.3970
  685TMC3    C710138   3.114   1.205  16.203  0.8409 -0.1590 -0.4860
  685TMC3    C810139   2.773   1.521  16.154  0.0820 -0.6065 -0.6547
  685TMC3    O110140   3.109   1.123  16.109 -0.2782 -0.6998 -0.3911
  685TMC3    O210141   2.758   1.473  16.040 -0.2880  0.1265  0.5066
  686MPD2     C10142   4.398   2.083  16.080  0.1179 -0.7569 -0.7412
  686MPD2    C110143   4.471   1.975  16.042 -0.2118  0.0576  0.0411
  686MPD2    C210144   4.606   1.984  16.022 -0.6094  0.0773 -0.5256
  686MPD2    C310145   4.675   2.103  16.042  0.1799 -0.6489  0.2880
  686MPD2    C410146   4.603   2.210  16.084 -0.7332 -0.2940  0.3412
  686MPD2    C510147   4.468   2.199  16.096 -0.8143 -0.4531  0.6793
  686MPD2     H10148   4.665   1.896  16.000 -0.1308  0.3190 -0.2088
  686MPD2    H110149   4.651   2.303  16.113 -0.7790 -0.1469 -0.0541
  686MPD2    H210150   4.290   2.082  16.075  0.1302 -2.0303 -0.5405
  686MPD2    H310151   4.411   2.286  16.130 -1.5242  0.2103 -2.2338
  686MPD2     N10152   0.082   2.108  16.005 -0.0009  0.7385  0.0012
  686MPD2    H510153   0.117   2.022  15.964  0.5449 -0.3873  2.8234
  686MPD2    N110154   4.400   1.856  16.028 -0.6394 -0.3241 -0.3748
  686MPD2    H710155   4.300   1.870  16.036 -0.6051  0.4878 -1.4339
  687TMC3    C110156   0.268   2.188  15.916 -0.2294  0.2892  0.2345
  687TMC3    C210157   0.228   2.119  15.806 -0.2288 -0.3074  0.1299
  687TMC3    C310158   0.313   2.025  15.748  0.3376 -0.0810 -0.2564
  687TMC3    C410159   0.399   2.178  15.959 -0.9845  0.2949  0.8915
  687TMC3    C510160   0.481   2.078  15.907  0.5469 -0.1762 -0.3432
  687TMC3    C610161   0.439   2.017  15.794 -0.4707  0.5825 -0.0518
  687TMC3     C10162   0.160   2.217  16.008 -0.0838 -0.0464  0.2493
  687TMC3     O10163   0.156   2.323  16.068 -0.1307 -0.0897  0.2849
  687TMC3     H10164   0.133   2.147  15.763 -0.5392  1.7224  2.1184
  687TMC3    H110165   0.425   2.219  16.056 -0.7356  0.6586  0.6746
  687TMC3    H210166   0.503   1.943  15.747 -1.8302  0.0120 -1.0135
  687TMC3    C710167   0.557   2.005  16.004  0.7812 -0.0371  0.3730
  687TMC3    C810168   0.260   1.896  15.757  0.2809 -0.2056 -0.8011
  687TMC3    O110169   0.591   2.064  16.108 -0.3005 -0.0519  0.3025
  687TMC3    O210170   0.333   1.802  15.786  0.2745 -0.3304  0.6149
  688MPD2     C10171   4.051   0.970  17.224  0.8246  0.6081 -0.1747
  688MPD2    C110172   4.113   0.860  17.276  0.4286 -0.7533  1.0335
  688MPD2    C210173   4.187   0.779  17.188 -0.3790 -0.0811 -0.2018
  688MPD2    C310174   4.205   0.808  17.056  0.1587  0.0621 -0.4646
  688MPD2    C410175   4.149   0.932  17.011  0.0785  0.7614  0.2997
  688MPD2    C510176   4.066   1.010  17.094 -0.0162  0.4419  0.1750
  688MPD2     H10177   4.235   0.693  17.234  0.6457  0.3671 -0.4314
  688MPD2    H110178   4.170   0.963  16.909 -0.0959 -1.8548 -0.5235
  688MPD2    H210179   3.990   1.030  17.290  1.7201  0.4160  0.8376
  688MPD2    H310180   4.027   1.104  17.057 -1.0914  0.1592  0.5854
  688MPD2     N10181   4.287   0.740  16.962 -0.4992  0.2894  0.1577
  688MPD2    H510182   4.301   0.781  16.870 -0.3837 -2.2165 -0.9280
  688MPD2    N110183   4.094   0.813  17.406  0.5377 -0.2725  0.0478
  688MPD2    H710184   4.137   0.723  17.424  0.5867  0.1005  1.7416
  689TMC3    C110185   4.024   0.815  17.640  0.3452 -0.2408  0.5086
  689TMC3    C210186   4.031   0.892   0.047 -0.4605 -0.9923  0.0555
  689TMC3    C310187   4.042   0.821   0.165  0.5636 -0.1398 -0.5460
  689TMC3    C410188   4.011   0.676  17.641  0.2254  0.1334  0.7514
  689TMC3    C510189   4.012   0.613   0.058 -0.7253 -1.0295 -0.0393
  689TMC3    C610190   4.042   0.683   0.171  0.2089  0.0639  0.0808
  689TMC3     C10191   4.025   0.883  17.511  0.1816 -0.1130  0.1793
  689TMC3     O10192   3.982   0.997  17.518  0.4640 -0.7687 -0.2178
  689TMC3     H10193   4.044   0.999   0.043 -4.2974 -0.6122 -1.6527
  689TMC3    H110194   4.025   0.625  17.546  0.6301 -2.9160  2.4495
  689TMC3    H210195   4.061   0.637   0.267 -3.3327  0.9898  1.2164
  689TMC3    C710196   4.043   0.476   0.058 -0.4111 -0.2037  0.1133
  689TMC3    C810197   4.031   0.876   0.294  0.1647 -0.0741  0.2579
  689TMC3    O110198   4.130   0.439   0.134 -0.0912 -0.6837  0.2279
  689TMC3    O210199   4.094   0.811   0.378 -0.4880 -0.3807 -0.8295
  690MPD2     C10200   1.455   2.874  15.788 -0.3667 -0.5714 -0.5374
  690MPD2    C110201   1.412   2.863  15.656 -0.0259 -0.5048 -1.3535
  690MPD2    C210202   1.465   2.953  15.565  0.0348  0.1701  0.6398
  690MPD2    C310203   1.554   3.049  15.599  0.0450 -0.0432  0.4863
  690MPD2    C410204   1.584   3.068  15.735 -0.1415  0.5293 -0.2340
  690MPD2    C510205   1.531   2.981  15.824 -0.4090  0.3467  0.3808
  690MPD2     H10206   1.442   2.937  15.461  0.7110  0.7162  0.3992
  690MPD2    H110207   1.637   3.153  15.775  1.5959 -0.3456 -0.6639
  690MPD2    H210208   1.400   2.816  15.862  1.0763  0.2741  1.1754
  690MPD2    H310209   1.570   2.995  15.924 -1.5073  0.4085  0.7973
  690MPD2     N10210   1.598   3.134  15.495 -0.3578  1.1923  0.5098
  690MPD2    H510211   1.590   3.108  15.397 -1.4632  0.8957  0.6797
  690MPD2    N110212   1.327   2.761  15.600  0.0409  0.3365 -0.2797
  690MPD2    H710213   1.298   2.784  15.506 -0.9475  1.4417  0.2939
  691TMC3    C110214   1.194   2.567  15.591  0.7803  0.3671 -0.3792
  691TMC3    C210215   1.123   2.608  15.477 -0.2880  0.2229 -0.3383
  691TMC3    C310216   1.042   2.517  15.415  0.8960  0.8121  0.3932
  691TMC3    C410217   1.189   2.437  15.633  0.3142 -0.2952 -0.3976
  691TMC3    C510218   1.104   2.353  15.565  0.0153 -0.1125  0.1563
  691TMC3    C610219   1.029   2.392  15.459 -0.7148  1.0712  0.1964
  691TMC3     C10220   1.282   2.653  15.670  0.6809  0.3587  0.1206
  691TMC3     O10221   1.311   2.614  15.784 -0.2177 -0.4996 -0.3383
  691TMC3     H10222   1.141   2.710  15.446  2.0181  0.2555  1.0827
  691TMC3    H110223   1.239   2.410  15.725  0.5994  2.7590  0.3471
  691TMC3    H210224   0.966   2.315  15.417  1.6650 -1.0558  0.5107
  691TMC3    C710225   1.058   2.227  15.638 -0.1057  1.0296  0.0506
  691TMC3    C810226   0.934   2.561  15.337 -0.0864  0.2353  0.8959
  691TMC3    O110227   0.953   2.175  15.608 -0.3394  0.0192 -0.2550
  691TMC3    O210228   0.874   2.482  15.269 -0.8750  0.1664 -0.1696
  692TMC3    C110229   2.984   3.407  16.274 -0.4212  0.8241  0.0636
  692TMC3    C210230   3.087   3.423  16.360  0.5131  0.0180 -0.5536
  692TMC3    C310231   3.156   3.315  16.407 -0.3950 -0.6012  0.6135
  692TMC3    C410232   2.956   3.285  16.223  0.2661 -0.2162  0.2076
  692TMC3    C510233   3.032   3.180  16.266 -0.2846 -0.0050 -1.2969
  692TMC3    C610234   3.128   3.193  16.359 -0.1071  0.0365 -0.2367
  692TMC3     C10235   2.886   3.512  16.265 -0.9335  0.3453  0.5734
  692TMC3     O10236   2.775   3.493  16.224  0.0612  0.5028 -0.3187
  692TMC3     H10237   3.084   3.511  16.424  0.8451 -0.4807  0.1415
  692TMC3    H110238   2.879   3.272  16.148  1.7356  2.8001 -1.8368
  692TMC3    H210239   3.204   3.116  16.369 -0.7725 -0.5124  0.4802
  692TMC3    C710240   2.979   3.046  16.237  0.2289  0.0385 -0.6730
  692TMC3    C810241   3.208   3.312  16.545  0.1570  0.5251  0.4799
  692TMC3    O110242   2.892   3.044  16.149  0.2055 -0.4347  0.1541
  692TMC3    O210243   3.219   3.196  16.585  0.8266  0.0441  0.4907
  693MPD2     C10244   2.468   1.635  10.422  0.7125  0.2950  0.1313
  693MPD2    C110245   2.420   1.531  10.504  1.2693 -0.3953 -0.5288
  693MPD2    C210246   2.520   1.438  10.550  0.1672 -0.0146  0.6668
  693MPD2    C310247   2.653   1.449  10.516 -0.9852  0.3781 -0.9063
  693MPD2    C410248   2.687   1.549  10.427  0.6207  0.0314  0.6668
  693MPD2    C510249   2.595   1.646  10.385  0.1753  0.4564 -0.9911
  693MPD2     H10250   2.483   1.363  10.619 -0.2139 -3.1825 -2.9772
  693MPD2    H110251   2.788   1.552  10.388  1.2159  2.0174  2.3523
  693MPD2    H210252   2.405   1.721  10.407 -0.6531 -0.4869  1.2676
  693MPD2    H310253   2.626   1.719  10.311  3.3347  0.8080  0.6731
  693MPD2     N10254   2.746   1.364  10.571  0.5868 -0.1760  0.2844
  693MPD2    H510255   2.832   1.361  10.518  0.8578 -0.9718  0.7739
  693MPD2    N110256   2.286   1.535  10.549  0.0713 -0.0640 -0.2106
  693MPD2    H710257   2.230   1.619  10.536  0.9453  0.2874 -1.6079
  694TMC3    C110258   2.097   1.463  10.669 -0.4364  0.1470 -0.2970
  694TMC3    C210259   2.016   1.366  10.627 -0.5414  0.4175  0.2939
  694TMC3    C310260   1.928   1.307  10.716  0.4601  0.3079  0.1154
  694TMC3    C410261   2.083   1.517  10.795 -0.2861  0.0261  0.0355
  694TMC3    C510262   2.000   1.457  10.889 -0.8273 -0.5161  0.2780
  694TMC3    C610263   1.916   1.356  10.847  0.7184 -0.7394 -0.0563
  694TMC3     C10264   2.224   1.435  10.622  0.1837  0.4825  0.2771
  694TMC3     O10265   2.257   1.319  10.627 -0.2571  0.3918 -0.5104
  694TMC3     H10266   2.042   1.320  10.533  1.1011 -1.7571  1.8319
  694TMC3    H110267   2.157   1.591  10.821 -0.9605  0.6046  0.3077
  694TMC3    H210268   1.827   1.326  10.902  0.4366 -3.7639 -2.1676
  694TMC3    C710269   1.983   1.521  11.016  0.3600 -0.1021  0.1927
  694TMC3    C810270   1.853   1.184  10.681 -0.4706 -0.1403  0.1840
  694TMC3    O110271   2.029   1.633  11.031 -1.0508 -0.3815 -0.0244
  694TMC3    O210272   1.796   1.136  10.776  0.6467 -0.3007  0.0468
  695MPD2     C10273   3.214   3.462  13.653  0.2879 -0.0910 -0.8093
  695MPD2    C110274   3.149   3.417  13.766  0.3978 -0.4036 -0.0709
  695MPD2    C210275   3.013   3.422  13.772  0.3293  0.2669 -0.0638
  695MPD2    C310276   2.931   3.455  13.665  0.1839  0.1239 -1.2207
  695MPD2    C410277   2.997   3.492  13.554  0.2671 -0.0857  0.0719
  695MPD2    C510278   3.134   3.505  13.542 -0.1320  0.6183 -0.6588
  695MPD2     H10279   2.967   3.406  13.868  3.6095 -0.8525  1.3165
  695MPD2    H110280   2.937   3.506  13.464  1.5517  2.0340 -0.4485
  695MPD2    H210281   3.321   3.470  13.638  0.1391  1.5540 -0.9191
  695MPD2    H310282   3.181   3.537  13.450  1.4298 -0.4584 -0.2269
  695MPD2     N10283   2.791   3.452  13.697 -0.4645  0.2317  0.0903
  695MPD2    H510284   2.756   3.419  13.786 -0.9102  0.3348 -0.0447
  695MPD2    N110285   3.217   3.362  13.879 -0.4727 -0.3206  0.5740
  695MPD2    H710286   3.164   3.342  13.963 -1.2277 -0.9448 -0.0530
  696TMC3    C110287   2.560   3.497  13.684 -0.5818  0.0247  0.7804
  696TMC3    C210288   2.554   3.514  13.825  0.1371 -0.6788  0.4403
  696TMC3    C310289   2.432   3.546  13.878  0.0538 -0.4523 -0.7977
  696TMC3    C410290   2.446   3.498  13.612 -0.6717  0.5080  0.0331
  696TMC3    C510291   2.324   3.542  13.662 -0.0960 -0.0996  0.5827
  696TMC3    C610292   2.321   3.557  13.798 -0.7444 -0.1604  0.0076
  696TMC3     C10293   2.685   3.484  13.612 -0.1804  0.1769 -0.2510
  696TMC3     O10294   2.688   3.486  13.487 -0.0939 -0.2472  0.1797
  696TMC3     H10295   2.641   3.520  13.890  0.0983  0.4163  0.3882
  696TMC3    H110296   2.456   3.493  13.504 -1.5617  0.4077 -0.0497
  696TMC3    H210297   2.224   3.568  13.844 -1.6123 -1.1908 -1.5777
  696TMC3    C710298   2.281   3.663  13.596  0.3808  0.3550  0.2535
  696TMC3    C810299   2.451   3.650  13.978 -0.7774  0.7249  0.6468
  696TMC3    O110300   2.230   3.655  13.487  0.1771 -0.3166  0.1785
  696TMC3    O210301   2.539   3.619  14.056  0.0329  0.3276 -0.3360
  697MPD2     C10302   2.269   0.485  15.656  0.6426  0.6523  0.2661
  697MPD2    C110303   2.249   0.475  15.526 -0.9241  0.1427 -0.3578
  697MPD2    C210304   2.267   0.592  15.448  0.3581 -0.1375  0.2188
  697MPD2    C310305   2.327   0.706  15.506 -0.7571 -0.5039  0.5006
  697MPD2    C410306   2.365   0.695  15.638  0.1178 -0.1845  0.9002
  697MPD2    C510307   2.337   0.586  15.715 -0.0310 -0.2855 -0.3837
  697MPD2     H10308   2.233   0.592  15.345  2.8595  0.7959 -0.5796
  697MPD2    H110309   2.421   0.776  15.683 -0.2195  0.2764  0.4959
  697MPD2    H210310   2.233   0.407  15.721  0.9334  0.2758 -0.0277
  697MPD2    H310311   2.368   0.568  15.817 -1.1957 -1.2119 -0.1926
  697MPD2     N10312   2.334   0.823  15.431  0.0251 -0.1331  0.1524
  697MPD2    H510313   2.281   0.818  15.345 -2.3342  0.1288  1.5786
  697MPD2    N110314   2.207   0.354  15.477  0.6293 -0.0124  0.5603
  697MPD2    H710315   2.200   0.282  15.549 -1.3967 -0.1299  0.2379
  698TMC3    C110316   2.380   1.056  15.371  0.2974 -0.7047 -0.2354
  698TMC3    C210317   2.409   1.186  15.402 -0.0103 -0.7260 -0.1420
  698TMC3    C310318   2.439   1.271  15.298 -1.2514  0.2217 -0.6909
  698TMC3    C410319   2.395   1.012  15.243  0.8540  0.2462  0.2427
  698TMC3    C510320   2.437   1.100  15.143  0.1519 -0.2178  0.7323
  698TMC3    C610321   2.449   1.234  15.170  1.1389  0.0446  0.1662
  698TMC3     C10322   2.382   0.948  15.472  0.2045  0.3498 -0.4238
  698TMC3     O10323   2.446   0.980  15.570  0.3265  0.3356 -0.4813
  698TMC3     H10324   2.410   1.212  15.507 -3.2226 -1.5327  0.0935
  698TMC3    H110325   2.385   0.909  15.214  2.0077 -0.3598  1.9788
  698TMC3    H210326   2.485   1.297  15.090  0.0486  1.1582  0.5466
  698TMC3    C710327   2.491   1.060  15.016 -0.9425  0.6943  0.5875
  698TMC3    C810328   2.503   1.395  15.330 -0.0071 -0.2269  0.0920
  698TMC3    O110329   2.459   1.123  14.917  0.2183 -0.0263 -0.1365
  698TMC3    O210330   2.480   1.477  15.239  0.0521  0.2152 -0.3402
  699TMC3    C110331   2.812   3.216  13.385  0.4542  0.0899 -0.1759
  699TMC3    C210332   2.865   3.169  13.500 -0.3391  0.7326  0.2104
  699TMC3    C310333   2.785   3.106  13.593 -0.0594  0.1489 -0.7015
  699TMC3    C410334   2.676   3.196  13.365  0.3854 -0.5650 -0.8886
  699TMC3    C510335   2.597   3.143  13.463 -0.2671 -1.1441 -0.1175
  699TMC3    C610336   2.647   3.111  13.584 -0.2635 -0.0677 -0.3547
  699TMC3     C10337   2.883   3.249  13.265  0.6268 -0.1590  0.8218
  699TMC3     O10338   2.815   3.270  13.163 -0.2198 -0.8349 -0.2812
  699TMC3     H10339   2.972   3.182  13.514 -0.2356 -0.7958  0.7102
  699TMC3    H110340   2.634   3.181  13.266 -1.1247  0.9795 -0.4728
  699TMC3    H210341   2.579   3.080  13.663  0.0094  2.4776  0.8996
  699TMC3    C710342   2.455   3.141  13.441 -0.2653  0.6480  0.3439
  699TMC3    C810343   2.837   3.038  13.708 -0.2147 -0.5752  0.0232
  699TMC3    O110344   2.387   3.075  13.516 -0.1594 -0.0440  0.1321
  699TMC3    O210345   2.743   2.998  13.777 -0.2253 -0.5738  0.0077
  700TMC3    C110346   1.734   1.181  17.652 -0.3021  0.1261 -0.0959
  700TMC3    C210347   1.787   1.060  17.623 -0.1740  0.0845  0.5387
  700TMC3    C310348   1.908   1.032  17.689  0.4634  0.0377 -0.0011
  700TMC3    C410349   1.786   1.252   0.048  0.6456  0.3025 -0.6043
  700TMC3    C510350   1.896   1.211   0.128  0.1665  0.5768  0.3842
  700TMC3    C610351   1.965   1.101   0.092  0.6003 -0.2449  0.1664
  700TMC3     C10352   1.711   1.267  17.536 -0.2406  0.2823  0.3656
  700TMC3     O10353   1.633   1.234  17.446 -0.2067 -0.5135  0.4715
  700TMC3     H10354   1.746   0.991  17.550 -1.3286 -1.6037  2.7690
  700TMC3    H110355   1.758   1.357   0.056  2.1182  0.6696 -0.4045
  700TMC3    H210356   2.054   1.064   0.142  0.6514  0.6831  0.7755
  700TMC3    C710357   1.964   1.303   0.215  0.0891  0.0840  0.8166
  700TMC3    C810358   1.978   0.903  17.663 -0.2100 -1.4445  0.4496
  700TMC3    O110359   2.071   1.261   0.259 -0.1882 -0.1564 -0.2844
  700TMC3    O210360   2.100   0.902  17.670  0.1951 -0.2241 -0.2463
  701TMC3    C110361   1.602   0.097  15.526 -0.8021  0.8869  0.0374
  701TMC3    C210362   1.613   0.041  15.404 -0.4764  0.4344  0.2020
  701TMC3    C310363   1.719   0.086  15.323  0.1114 -0.5211 -0.4627
  701TMC3    C410364   1.676   0.200  15.567  0.4918  0.5009  0.6686
  701TMC3    C510365   1.771   0.252  15.482  0.2452 -0.0086  0.6241
  701TMC3    C610366   1.794   0.193  15.358 -0.5206  0.0528 -0.3827
  701TMC3     C10367   1.485   0.073  15.616  0.0736 -0.4591 -0.2393
  701TMC3     O10368   1.486   0.137  15.719  0.5359 -0.7091  0.1262
  701TMC3     H10369   1.563   4.675  15.377  0.0573 -0.2306  1.4367
  701TMC3    H110370   1.663   0.246  15.664 -0.3806 -0.4155  0.9950
  701TMC3    H210371   1.866   0.244  15.295  2.3567 -0.5432  2.4024
  701TMC3    C710372   1.825   0.390  15.498  0.3379  0.7614  0.5167
  701TMC3    C810373   1.751   0.019  15.203 -0.6202  0.5364 -0.1856
  701TMC3    O110374   1.867   0.442  15.397  0.0065 -0.6985  0.0119
  701TMC3    O210375   1.867   0.030  15.157  0.0552  0.5927 -0.1065
  702MPD2     C10376   1.422   1.759  10.609  0.0886 -0.1304  0.7705
  702MPD2    C110377   1.399   1.869  10.691 -0.1688  0.4060  0.2175
  702MPD2    C210378   1.425   1.999  10.648  0.1608  0.1502  0.1960
  702MPD2    C310379   1.494   2.023  10.530  0.3858 -0.1975  0.2664
  702MPD2    C410380   1.522   1.910  10.452  0.3576  0.2003 -0.0702
  702MPD2    C510381   1.489   1.788  10.493 -0.2680 -0.2075 -0.6252
  702MPD2     H10382   1.397   2.088  10.702  1.0273 -0.1830  1.2026
  702MPD2    H110383   1.570   1.924  10.356 -0.6914  1.0148 -0.4745
  702MPD2    H210384   1.408   1.656  10.638 -2.3488  0.2989  1.0857
  702MPD2    H310385   1.525   1.709  10.428 -0.5537  0.4160 -1.5493
  702MPD2     N10386   1.542   2.156  10.513  0.2620 -0.1563  0.1169
  702MPD2    H510387   1.505   2.222  10.580 -0.1540 -0.3990  0.1270
  702MPD2    N110388   1.349   1.862  10.817  0.5034  0.0509 -0.3616
  702MPD2    H710389   1.336   1.950  10.864 -0.0371  0.0526 -0.5146
  703TMC3    C110390   1.634   2.344  10.405  0.2733 -0.0631  0.0432
  703TMC3    C210391   1.546   2.416  10.478 -0.3251 -0.0508  0.0637
  703TMC3    C310392   1.567   2.544  10.509  0.1862 -0.2780 -0.4433
  703TMC3    C410393   1.741   2.400  10.348 -0.5783  0.0313  0.0820
  703TMC3    C510394   1.761   2.533  10.374  0.5578 -0.2531 -0.6646
  703TMC3    C610395   1.682   2.605  10.457 -0.0334  0.1556 -0.4775
  703TMC3     C10396   1.623   2.195  10.413 -0.2690 -0.2558 -0.0245
  703TMC3     O10397   1.699   2.128  10.345 -0.1120  0.2773  0.0884
  703TMC3     H10398   1.452   2.374  10.514  0.9970 -1.5850  1.7194
  703TMC3    H110399   1.813   2.345  10.289  1.5932  1.4450  1.4535
  703TMC3    H210400   1.689   2.710  10.482 -1.0776  0.6794 -2.3943
  703TMC3    C710401   1.888   2.600  10.345  0.8125  0.3916 -0.8635
  703TMC3    C810402   1.500   2.609  10.620  0.1043  0.1576  0.3595
  703TMC3    O110403   1.912   2.699  10.411  0.1143 -0.1595 -0.1147
  703TMC3    O210404   1.573   2.675  10.693  0.4083 -0.2433  0.0402
  704TMC3    C110405   4.192   0.081  12.749 -0.0475  0.1163 -0.5163
  704TMC3    C210406   4.264   0.031  12.648  0.6580  0.0778  0.0348
  704TMC3    C310407   4.320   4.635  12.679 -0.6750  0.0079 -0.0137
  704TMC3    C410408   4.190   0.036  12.876  0.1356 -0.3117 -0.5326
  704TMC3    C510409   4.236   4.640  12.901  0.8899  0.0727 -0.0759
  704TMC3    C610410   4.303   4.575  12.799 -0.4643 -0.1094  0.4103
  704TMC3     C10411   4.055   0.106  12.706 -0.0504 -0.0495 -0.3321
  704TMC3     O10412   3.973   0.132  12.792  0.2619 -0.2821  0.5822
  704TMC3     H10413   4.266   0.066  12.545  1.5081  1.6610  0.5836
  704TMC3    H110414   4.144   0.098  12.953  0.2075 -0.1437 -0.6248
  704TMC3    H210415   4.341   4.475  12.814  2.8557  0.7579 -2.1339
  704TMC3    C710416   4.136   4.550  12.955  0.3527  0.5254  0.2866
  704TMC3    C810417   4.311   4.548  12.562  0.5276  0.0245 -0.8869
  704TMC3    O110418   4.132   4.435  12.907  0.0335 -0.2328 -0.4875
  704TMC3    O210419   4.198   4.513  12.533  0.0043 -0.1765  0.0557
  705MPD2     C10420   3.314   2.738  16.708  0.0036 -0.1062 -0.3256
  705MPD2    C110421   3.315   2.880  16.723 -0.7772 -0.4456  0.6430
  705MPD2    C210422   3.213   2.932  16.800 -0.9149 -0.1067 -0.5139
  705MPD2    C310423   3.113   2.860  16.862  0.1545 -0.2151  0.2872
  705MPD2    C410424   3.123   2.718  16.859 -0.5959  0.2997 -0.5026
  705MPD2    C510425   3.224   2.661  16.779  0.2177 -0.6932 -0.3984
  705MPD2     H10426   3.212   3.040  16.788 -0.0761 -0.2088 -1.5195
  705MPD2    H110427   3.055   2.655  16.915  0.7029 -1.2241 -0.6181
  705MPD2    H210428   3.378   2.694  16.633  1.6231 -1.7872  2.0565
  705MPD2    H310429   3.209   2.557  16.753  0.4372 -0.4246 -1.5777
  705MPD2     N10430   2.999   2.915  16.923  0.0132 -0.1634  0.3613
  705MPD2    H510431   2.923   2.850  16.943 -1.4338  1.5523  0.3712
  705MPD2    N110432   3.408   2.965  16.649 -0.0126  0.7639  0.1017
  705MPD2    H710433   3.394   3.061  16.679  1.4053  0.5654  1.4414
  706TMC3    C110434   3.642   3.075  16.259 -0.2809 -0.5314 -0.8002
  706TMC3    C210435   3.596   3.199  16.263 -0.4026  0.1290 -0.4725
  706TMC3    C310436   3.541   3.239  16.380 -0.4563  0.1732  0.1953
  706TMC3    C410437   3.647   2.992  16.364 -0.1238 -0.4938  0.0635
  706TMC3    C510438   3.574   3.029  16.474  0.3820  0.9503 -0.0670
  706TMC3    C610439   3.517   3.156  16.479 -0.9190 -0.2691 -0.1687
  706TMC3     C10440   3.737   3.038  16.152 -0.4217  0.1924  0.1475
  706TMC3     O10441   3.819   2.951  16.178  0.3291 -0.2941 -0.0486
  706TMC3     H10442   3.619   3.280  16.194  1.2840  0.6774  0.7504
  706TMC3    H110443   3.700   2.897  16.366  0.1833 -0.2765  1.8217
  706TMC3    H210444   3.455   3.197  16.558  1.0552  2.3863 -0.0178
  706TMC3    C710445   3.501   2.923  16.549 -0.7482 -0.0208 -0.2533
  706TMC3    C810446   3.525   3.379  16.400  0.7838  0.2639  0.2672
  706TMC3    O110447   3.516   2.815  16.496  0.0726 -0.6979 -0.4264
  706TMC3    O210448   3.492   3.446  16.302  0.3487  0.0123  0.2213
  707TMC3    C110449   0.861   3.155   1.868  0.3041 -0.0331 -0.5207
  707TMC3    C210450   0.935   3.116   1.980 -0.2845  0.4320  0.2895
  707TMC3    C310451   0.957   3.217   2.077 -0.1779 -0.4668 -0.0792
  707TMC3    C410452   0.805   3.277   1.858 -0.2329  0.3760 -0.3239
  707TMC3    C510453   0.820   3.362   1.959  0.0688  0.3241 -0.1608
  707TMC3    C610454   0.898   3.339   2.068 -0.1028  0.1673  0.5460
  707TMC3     C10455   0.901   3.083   1.755 -0.6322  0.9986 -0.3657
  707TMC3     O10456   1.009   3.031   1.763  0.1669 -0.0847 -0.0835
  707TMC3     H10457   0.953   3.011   2.002  0.9827  0.4802 -0.5680
  707TMC3    H110458   0.754   3.311   1.769  0.1264 -1.5197 -1.2485
  707TMC3    H210459   0.893   3.408   2.151  0.4071  1.2083 -0.2991
  707TMC3    C710460   0.731   3.474   1.960  0.0794 -0.1156 -0.3442
  707TMC3    C810461   1.049   3.185   2.189  0.3757 -0.1893 -0.5096
  707TMC3    O110462   0.629   3.457   1.893 -0.5378  0.4352 -0.5545
  707TMC3    O210463   1.063   3.265   2.281  0.0878 -0.1121  0.1012
  708MPD2     C10464   1.987   2.053  13.817 -0.3610 -0.2948 -0.6316
  708MPD2    C110465   1.899   1.983  13.901 -0.0876 -0.0003 -0.4956
  708MPD2    C210466   1.956   1.891  13.984 -0.5429 -0.3454  0.5414
  708MPD2    C310467   2.092   1.859  13.978  0.1871  0.2783 -0.2847
  708MPD2    C410468   2.175   1.933  13.891  0.1255  0.6672 -0.4158
  708MPD2    C510469   2.122   2.030  13.815 -0.3376 -0.5260 -0.2699
  708MPD2     H10470   1.892   1.838  14.053 -2.0655 -0.2583 -0.8168
  708MPD2    H110471   2.281   1.912  13.881  0.0974  0.7637 -0.9196
  708MPD2    H210472   1.949   2.138  13.762  1.7112 -0.6557 -2.6255
  708MPD2    H310473   2.182   2.083  13.742 -1.1411  0.6286 -0.0989
  708MPD2     N10474   2.136   1.769  14.073 -0.0100  1.0263 -0.1284
  708MPD2    H510475   2.068   1.728  14.136  1.6529  1.1733  1.7483
  708MPD2    N110476   1.760   1.999  13.906  0.0785  0.0605 -0.3489
  708MPD2    H710477   1.713   1.949  13.980 -0.0296  0.1487 -0.3578
  709TMC3    C110478   1.558   2.094  13.916 -0.3223 -0.0201 -0.4124
  709TMC3    C210479   1.458   2.020  13.853 -0.8576 -0.2473 -0.5516
  709TMC3    C310480   1.390   1.924  13.927 -0.3255  0.9608  0.5103
  709TMC3    C410481   1.585   2.073  14.050  0.4304  0.2380 -0.7019
  709TMC3    C510482   1.507   1.988  14.123  0.7910  0.6818 -0.0020
  709TMC3    C610483   1.408   1.911  14.065 -0.3052 -0.4770 -0.1063
  709TMC3     C10484   1.682   2.099  13.848  0.7225 -0.3114  0.3498
  709TMC3     O10485   1.710   2.196  13.780 -0.1416  0.3029  0.1859
  709TMC3     H10486   1.443   2.046  13.749 -1.3124 -1.4264 -0.7830
  709TMC3    H110487   1.671   2.123  14.093  0.8297 -1.3701  0.3869
  709TMC3    H210488   1.352   1.838  14.122  2.1774 -0.9611  1.7192
  709TMC3    C710489   1.585   1.939  14.239  0.0611 -0.6164 -0.2892
  709TMC3    C810490   1.276   1.847  13.872 -0.0316  0.1730 -0.2612
  709TMC3    O110491   1.706   1.964  14.254  0.0283 -0.2589 -0.0906
  709TMC3    O210492   1.218   1.772  13.950 -0.1563 -0.4609 -0.6122
  710TMC3    C110493   3.277   4.046   0.305 -0.3885  0.2362  0.6653
  710TMC3    C210494   3.343   3.930   0.264  0.5758 -0.0327  0.1461
  710TMC3    C310495   3.452   3.890   0.334 -0.4377  0.1241  0.5784
  710TMC3    C410496   3.316   4.113   0.422  0.6080  0.3729 -0.3608
  710TMC3    C510497   3.418   4.060   0.493 -0.2698  0.2207  0.3111
  710TMC3    C610498   3.482   3.949   0.453 -1.1080 -1.0923 -0.5896
  710TMC3     C10499   3.138   4.045   0.252 -0.5726  0.7907 -0.0362
  710TMC3     O10500   3.107   3.961   0.164 -0.1152 -0.0165  0.5708
  710TMC3     H10501   3.299   3.874   0.182  1.5798 -1.9356  0.9139
  710TMC3    H110502   3.259   4.202   0.447  0.1291 -0.3506  1.1032
  710TMC3    H210503   3.575   3.921   0.500 -0.4565 -1.6197 -2.2043
  710TMC3    C710504   3.427   4.085   0.633 -0.1517 -0.0919  0.3900
  710TMC3    C810505   3.497   3.755   0.298  0.3783 -0.2649 -0.2626
  710TMC3    O110506   3.490   4.003   0.698  0.2344 -0.0968  0.1036
  710TMC3    O210507   3.465   3.707   0.189 -0.3335 -0.5446  0.2205
  711TMC3    C110508   2.650   3.852  15.302  0.0010  0.2072 -0.6758
  711TMC3    C210509   2.640   3.957  15.393  0.4698  0.8188  0.1138
  711TMC3    C310510   2.699   3.938  15.517  0.6546  0.0103  0.0981
  711TMC3    C410511   2.718   3.737  15.326  0.5381  0.2142  0.6576
  711TMC3    C510512   2.762   3.726  15.454 -0.2613 -0.2904 -0.7089
  711TMC3    C610513   2.766   3.824  15.553  0.4560  0.2976  0.3495
  711TMC3     C10514   2.615   3.874  15.166  0.7549  0.2086 -0.3019
  711TMC3     O10515   2.591   3.766  15.107  0.5635  0.1603 -0.1134
  711TMC3     H10516   2.597   4.055  15.380  3.7455  2.2386 -0.1768
  711TMC3    H110517   2.714   3.658  15.253  0.0686  1.9994 -1.2455
  711TMC3    H210518   2.796   3.797  15.653 -1.7856  1.3196  1.3043
  711TMC3    C710519   2.787   3.596  15.501  0.0170  0.2451 -0.0688
  711TMC3    C810520   2.706   4.053  15.610 -0.3441  0.3930 -0.4330
  711TMC3    O110521   2.873   3.589  15.590 -0.1751  0.7967 -0.5241
  711TMC3    O210522   2.641   4.154  15.590 -0.3672  1.0300  0.1053
  712MPD2     C10523   3.553   0.130  13.408 -0.4111 -1.0892  0.7400
  712MPD2    C110524   3.458   0.222  13.456  0.4676 -0.1676  0.2258
  712MPD2    C210525   3.504   0.329  13.532  0.4997  0.4163  0.0461
  712MPD2    C310526   3.641   0.342  13.552 -0.7804 -0.5100  0.9018
  712MPD2    C410527   3.730   0.245  13.511 -1.1021 -0.2303  0.5081
  712MPD2    C510528   3.687   0.143  13.443 -0.2276 -0.6494 -0.3666
  712MPD2     H10529   3.435   0.405  13.566 -1.6402 -0.6017 -1.9762
  712MPD2    H110530   3.838   0.252  13.521 -0.9383  1.6932 -2.5649
  712MPD2    H210531   3.533   0.051  13.336  1.1654  0.0509 -0.9513
  712MPD2    H310532   3.772   0.081  13.415 -0.7435 -1.2811 -0.5209
  712MPD2     N10533   3.701   0.460  13.605  0.1188  0.2748 -0.3163
  712MPD2    H510534   3.801   0.476  13.600  0.3700 -0.6912  1.5337
  712MPD2    N110535   3.318   0.219  13.421  0.4653 -0.2528 -0.0428
  712MPD2    H710536   3.262   0.295  13.458 -1.0864 -1.0283 -0.8505
  713TMC3    C110537   3.727   0.649  13.740 -0.4690  0.4473 -0.2425
  713TMC3    C210538   3.861   0.637  13.735  0.5016 -0.0255  0.2314
  713TMC3    C310539   3.940   0.730  13.788 -0.1978  0.3253 -1.0724
  713TMC3    C410540   3.678   0.761  13.796  0.2054 -0.3821 -0.6882
  713TMC3    C510541   3.760   0.859  13.849  0.0090  0.4686  0.1119
  713TMC3    C610542   3.897   0.835  13.860 -0.1269  0.5748 -0.7534
  713TMC3     C10543   3.636   0.562  13.677 -0.1135 -0.4221 -0.0816
  713TMC3     O10544   3.520   0.568  13.708 -0.2918  0.6901  0.4427
  713TMC3     H10545   3.909   0.551  13.689 -0.1629  0.0122 -0.5230
  713TMC3    H110546   3.571   0.775  13.787  0.4338  1.3458 -0.8013
  713TMC3    H210547   3.964   0.912  13.895 -0.2103 -0.1440  1.0202
  713TMC3    C710548   3.714   0.988  13.882 -0.4102  0.5055 -0.5082
  713TMC3    C810549   4.064   0.752  13.718 -0.5165 -0.3090  0.2635
  713TMC3    O110550   3.772   1.034  13.980  0.0339  0.6813  0.4215
  713TMC3    O210551   4.050   0.728  13.602  0.4889  0.1792 -0.1376
  714MPD2     C10552   1.060   4.349   1.173  0.5057  0.4394 -0.2120
  714MPD2    C110553   1.136   4.244   1.126  0.3129  0.2776  0.5894
  714MPD2    C210554   1.068   4.151   1.051  0.1112 -0.2812  0.9748
  714MPD2    C310555   0.934   4.148   1.043  0.2265 -0.2375  0.8109
  714MPD2    C410556   0.858   4.254   1.086 -0.1928  0.0664  0.4629
  714MPD2    C510557   0.925   4.354   1.148 -0.3750 -0.4035  0.0451
  714MPD2     H10558   1.122   4.070   1.002 -2.2343 -1.4631  0.3543
  714MPD2    H110559   0.755   4.266   1.055 -0.3733 -2.1427  0.2062
  714MPD2    H210560   1.099   4.438   1.221  2.5609 -0.8189  0.4901
  714MPD2    H310561   0.866   4.427   1.201 -1.2621 -0.2266 -1.1958
  714MPD2     N10562   0.876   4.048   0.967 -0.3557  0.0286 -0.9514
  714MPD2    H510563   0.940   3.971   0.949  0.2519  0.4752 -0.6776
  714MPD2    N110564   1.272   4.260   1.145 -0.6693  0.4658 -0.5317
  714MPD2    H710565   1.299   4.325   1.218  1.0893 -1.9344  0.9305
  715TMC3    C110566   1.512   4.235   1.113 -0.3571 -0.3715 -0.8961
  715TMC3    C210567   1.613   4.160   1.073  0.2251  0.3861 -0.2919
  715TMC3    C310568   1.742   4.191   1.109  0.2898 -0.4052 -1.0668
  715TMC3    C410569   1.533   4.362   1.170 -0.3742 -0.6762 -0.2368
  715TMC3    C510570   1.657   4.395   1.210 -0.5061 -0.7615  0.3374
  715TMC3    C610571   1.763   4.311   1.180 -0.3052  0.3340 -0.9317
  715TMC3     C10572   1.371   4.197   1.075  0.0873 -0.7545 -0.1215
  715TMC3     O10573   1.358   4.105   0.995 -0.2207  0.8337  0.0184
  715TMC3     H10574   1.585   4.070   1.019 -0.4776  1.4278 -1.6661
  715TMC3    H110575   1.453   4.434   1.182 -0.9387 -1.0120 -1.9915
  715TMC3    H210576   1.865   4.342   1.197 -0.0540 -1.2931  0.5315
  715TMC3    C710577   1.696   4.520   1.265  0.5171 -0.7207  0.6757
  715TMC3    C810578   1.847   4.096   1.074 -0.2476  0.5712  0.1417
  715TMC3    O110579   1.813   4.542   1.279  0.5893 -0.1909  0.2903
  715TMC3    O210580   1.807   4.007   1.007 -0.2208  0.0675  0.2751
  716MPD2     C10581   1.222   1.652  10.234 -0.1883  0.3661 -0.0772
  716MPD2    C110582   1.250   1.594  10.119  0.2281 -0.2497 -0.5303
  716MPD2    C210583   1.313   1.468  10.124 -0.3477  0.8353 -0.1310
  716MPD2    C310584   1.324   1.393  10.239 -0.7574  0.6130 -0.0646
  716MPD2    C410585   1.292   1.451  10.361 -1.0061 -0.2958  0.3125
  716MPD2    C510586   1.245   1.583  10.348 -0.1432 -0.5026  0.3045
  716MPD2     H10587   1.333   1.425  10.026  1.9447  1.4236  0.0875
  716MPD2    H110588   1.304   1.402  10.457 -0.0971 -0.3606  0.1656
  716MPD2    H210589   1.185   1.754  10.233 -0.0268  0.4013 -1.6174
  716MPD2    H310590   1.224   1.639  10.438  0.0008  0.0112  0.0163
  716MPD2     N10591   1.373   1.262  10.227  0.3045 -0.3088 -0.0950
  716MPD2    H510592   1.388   1.219  10.136  1.7553  0.3989 -0.1870
  716MPD2    N110593   1.209   1.664  10.002  0.3023 -0.3455 -0.2691
  716MPD2    H710594   1.158   1.752  10.013 -0.4128 -0.7158 -0.6174
  717TMC3    C110595   1.428   1.045  10.254  0.0652 -0.2602 -0.1863
  717TMC3    C210596   1.497   1.065  10.139 -0.4892  0.1591 -0.0333
  717TMC3    C310597   1.498   0.972  10.038  0.2372 -0.1096 -0.6107
  717TMC3    C410598   1.355   0.935  10.277  0.0460 -0.4438 -0.2771
  717TMC3    C510599   1.369   0.839  10.181  0.3531  0.0873  0.5258
  717TMC3    C610600   1.425   0.853  10.059 -0.2977  0.2638 -0.6295
  717TMC3     C10601   1.387   1.164  10.324 -0.4030  0.1879  0.2364
  717TMC3     O10602   1.340   1.159  10.437 -0.3634 -0.2082  0.1969
  717TMC3     H10603   1.551   1.157  10.118  1.4005 -1.1960 -1.1694
  717TMC3    H110604   1.292   0.917  10.363  2.1706  1.1620  1.6166
  717TMC3    H210605   1.439   0.774   9.987 -0.2193  0.3451 -0.7047
  717TMC3    C710606   1.277   0.730  10.201 -0.7757  0.3177  0.9925
  717TMC3    C810607   1.452   1.052   9.922 -0.3418  0.6501  0.2128
  717TMC3    O110608   1.258   0.690  10.315  0.3577  0.2506  0.5398
  717TMC3    O210609   1.405   1.160   9.952 -0.1216  0.0801 -0.1905
  718MPD2     C10610   0.719   0.912  13.383  0.3463  0.0587  0.0861
  718MPD2    C110611   0.709   0.884  13.248  0.0825 -0.3252  0.1546
  718MPD2    C210612   0.603   0.811  13.204  0.5602 -0.0458 -0.1325
  718MPD2    C310613   0.514   0.751  13.292 -1.2400  0.1198 -0.3765
  718MPD2    C410614   0.526   0.774  13.430 -0.0049  0.2879  0.5298
  718MPD2    C510615   0.627   0.862  13.467 -0.3446 -0.0686  0.1290
  718MPD2     H10616   0.594   0.788  13.098 -1.4975 -0.2280  0.0857
  718MPD2    H110617   0.464   0.737  13.511 -1.7753  1.0051 -0.4985
  718MPD2    H210618   0.797   0.977  13.420 -0.1049 -0.3311  1.7635
  718MPD2    H310619   0.638   0.890  13.571 -1.5592  0.0476  0.2305
  718MPD2     N10620   0.414   0.670  13.233 -0.1549 -0.1693 -0.8355
  718MPD2    H510621   0.420   0.671  13.132 -1.9461  0.2509 -0.9369
  718MPD2    N110622   0.793   0.954  13.155 -0.0967 -0.4620 -0.2850
  718MPD2    H710623   0.878   0.995  13.193 -0.9637 -0.4645  1.6849
  719TMC3    C110624   0.873   1.024  12.939 -0.0300 -0.5609  0.2111
  719TMC3    C210625   0.851   0.989  12.806  0.5418 -0.2029 -0.4863
  719TMC3    C310626   0.834   1.089  12.709  0.2350  0.5495 -0.0919
  719TMC3    C410627   0.903   1.155  12.964 -0.0956  0.6946 -0.6028
  719TMC3    C510628   0.900   1.244  12.869 -0.3143 -0.5322 -0.0527
  719TMC3    C610629   0.859   1.223  12.737 -0.5861 -0.0381  1.0522
  719TMC3     C10630   0.761   0.973  13.023 -0.6910 -0.4489 -0.6528
  719TMC3     O10631   0.656   0.944  12.970  0.4815 -0.2281 -0.3339
  719TMC3     H10632   0.822   0.885  12.791 -2.9441  0.5166  1.2332
  719TMC3    H110633   0.943   1.181  13.062  0.4981  0.1734 -0.7094
  719TMC3    H210634   0.867   1.291  12.653 -1.0274  1.6028  2.3305
  719TMC3    C710635   0.969   1.363  12.894 -0.1421 -0.3842  0.6999
  719TMC3    C810636   0.719   1.072  12.618 -0.6472  0.6038  0.1208
  719TMC3    O110637   1.043   1.364  12.992  0.4320 -0.0818  0.2387
  719TMC3    O210638   0.701   1.153  12.528  0.2122  0.1102 -0.0598
  720MPD2     C10639   3.768   2.456  14.396 -0.3078 -0.4752  0.2450
  720MPD2    C110640   3.828   2.409  14.274 -0.1751 -0.7549 -0.5881
  720MPD2    C210641   3.950   2.336  14.278 -0.5154  0.0547 -0.0442
  720MPD2    C310642   4.011   2.297  14.397 -0.3558 -0.3662 -0.4021
  720MPD2    C410643   3.943   2.340  14.509  0.4982 -0.2762  0.1215
  720MPD2    C510644   3.832   2.416  14.504  0.0941  0.1278  0.8034
  720MPD2     H10645   3.994   2.308  14.183 -0.7351 -2.2134  0.5158
  720MPD2    H110646   3.985   2.313  14.605 -0.8822 -0.8426  0.5608
  720MPD2    H210647   3.678   2.515  14.405  0.5173  0.2085  3.6655
  720MPD2    H310648   3.789   2.450  14.598  1.9320  1.6662  1.0738
  720MPD2     N10649   4.129   2.222  14.394 -0.1547 -0.3355  0.1778
  720MPD2    H510650   4.177   2.216  14.305  1.1590 -0.0221  0.8799
  720MPD2    N110651   3.785   2.457  14.149 -0.3027 -0.4148  0.4534
  720MPD2    H710652   3.836   2.425  14.067  0.0522  0.8995  0.1713
  721TMC3    C110653   4.309   2.085  14.471  0.4382  0.1271 -0.2242
  721TMC3    C210654   4.345   1.991  14.560  0.6134  0.2143  0.1028
  721TMC3    C310655   4.457   1.919  14.532  0.2974  0.3551  0.1000
  721TMC3    C410656   4.391   2.124  14.372 -0.0472  0.3926  1.1996
  721TMC3    C510657   4.510   2.055  14.353 -0.2178 -0.2283  1.5766
  721TMC3    C610658   4.541   1.948  14.427  0.2608 -0.2164  0.2868
  721TMC3     C10659   4.186   2.165  14.503  0.2459 -0.2318 -0.1177
  721TMC3     O10660   4.143   2.132  14.615  0.0059  0.2454  0.9490
  721TMC3     H10661   4.288   1.964  14.649  0.9915  2.5124  1.0447
  721TMC3    H110662   4.387   2.221  14.324 -2.8153 -0.1664  0.3034
  721TMC3    H210663   4.615   1.875  14.396  0.0780 -0.6824  0.9624
  721TMC3    C710664   4.626   2.130  14.312  0.5569 -0.0638 -0.3767
  721TMC3    C810665   4.523   1.845  14.634  0.2319  0.5896  0.2101
  721TMC3    O110666   4.618   2.217  14.226 -0.2414 -0.2278  0.5873
  721TMC3    O210667   4.638   1.801  14.613 -0.0540  0.3745  0.0832
  722MPD2     C10668   2.801   1.104  13.156  0.0813 -0.1900  0.2856
  722MPD2    C110669   2.740   1.182  13.249  0.3744 -0.0669 -0.1267
  722MPD2    C210670   2.597   1.175  13.239 -0.1296  0.1686  0.1619
  722MPD2    C310671   2.524   1.095  13.150 -0.5479  0.0781  0.2991
  722MPD2    C410672   2.600   1.004  13.076 -0.2540 -0.1202  0.0341
  722MPD2    C510673   2.732   1.023  13.068  0.0848 -0.1192  0.1042
  722MPD2     H10674   2.541   1.251  13.291 -1.6394 -1.2252  0.5775
  722MPD2    H110675   2.559   0.934  13.005 -2.4870 -0.2715  1.4962
  722MPD2    H210676   2.909   1.094  13.149  0.2722  0.6534  2.0021
  722MPD2    H310677   2.788   0.974  12.988 -0.4311  0.5637 -0.6718
  722MPD2     N10678   2.385   1.099  13.146 -0.0648 -0.1170 -0.2989
  722MPD2    H510679   2.339   1.167  13.206  0.3391 -2.1108  2.3143
  722MPD2    N110680   2.807   1.273  13.332 -0.5975 -0.0773 -0.5758
  722MPD2    H710681   2.750   1.325  13.399  1.2563  0.8398  0.2890
  723TMC3    C110682   2.165   1.024  13.119 -0.2916 -0.6242  0.7669
  723TMC3    C210683   2.087   0.913  13.103 -0.0213  1.0586  0.4012
  723TMC3    C310684   1.951   0.930  13.115 -0.2247 -0.4088 -0.4604
  723TMC3    C410685   2.120   1.152  13.142  0.3513  0.2123 -0.4592
  723TMC3    C510686   1.986   1.162  13.168  0.2907 -0.0318  0.5013
  723TMC3    C610687   1.903   1.055  13.151  0.3001 -0.3537 -0.2058
  723TMC3     C10688   2.306   1.003  13.084 -0.2581 -0.2561 -0.0382
  723TMC3     O10689   2.330   0.897  13.032 -0.2304 -0.6183  0.0734
  723TMC3     H10690   2.128   0.816  13.077 -0.8729  0.4799  1.2118
  723TMC3    H110691   2.188   1.236  13.143  0.7799 -0.1338 -0.6597
  723TMC3    H210692   1.797   1.078  13.145  0.6846  0.7178 -2.7799
  723TMC3    C710693   1.919   1.292  13.184  0.3661  0.2170  0.4226
  723TMC3    C810694   1.873   0.860  13.010  0.2656 -0.2579 -0.2305
  723TMC3    O110695   1.799   1.289  13.215 -0.0523  0.2976  0.2690
  723TMC3    O210696   1.808   0.947  12.952  0.3129  0.3984 -0.7019
  724TMC3    C110697   3.143   4.627   8.941  0.2599 -0.2994  0.0433
  724TMC3    C210698   3.202   4.666   9.058 -0.1805 -0.2640  0.3455
  724TMC3    C310699   3.246   4.557   9.126 -0.4103  0.0864  0.2704
  724TMC3    C410700   3.144   4.501   8.878  0.7466  0.3997 -0.4375
  724TMC3    C510701   3.205   4.405   8.956 -0.2368 -0.2076 -0.0392
  724TMC3    C610702   3.252   4.425   9.084 -0.0824 -0.0409  0.1887
  724TMC3     C10703   3.098   0.007   8.846  0.5798 -0.6327  0.2109
  724TMC3     O10704   3.020   4.708   8.757  0.5873  0.4662  0.1008
  724TMC3     H10705   3.179   0.035   9.105 -0.3072  1.3608 -3.0368
  724TMC3    H110706   3.093   4.478   8.785  1.0030  0.8553 -0.6898
  724TMC3    H210707   3.269   4.339   9.148  0.8573  0.1547  0.1905
  724TMC3    C710708   3.214   4.269   8.894  0.2450  0.4947  0.5485
  724TMC3    C810709   3.283   4.579   9.263  0.8925 -0.1301 -0.0712
  724TMC3    O110710   3.303   4.203   8.944 -0.1256 -0.2742 -0.1316
  724TMC3    O210711   3.290   4.476   9.330  0.6904  0.1571 -0.3145
  725TMC3    C110712   4.199   2.838  12.884 -0.0852  0.3450  0.6324
  725TMC3    C210713   4.118   2.860  12.775 -0.1530 -0.2301  0.7485
  725TMC3    C310714   4.030   2.762  12.738 -0.6948  0.1965 -0.2943
  725TMC3    C410715   4.197   2.715  12.948 -0.0107 -0.2369 -0.2442
  725TMC3    C510716   4.117   2.617  12.904 -0.4345 -0.4007 -0.2705
  725TMC3    C610717   4.026   2.644  12.804 -0.4412 -0.5330 -0.0266
  725TMC3     C10718   4.281   2.948  12.944  0.2901 -0.2101  0.3577
  725TMC3     O10719   4.290   3.045  12.871  0.0083 -0.2638 -0.3111
  725TMC3     H10720   4.111   2.961  12.739 -0.9701 -0.6875 -0.3654
  725TMC3    H110721   4.272   2.683  13.019 -0.7864  1.7234  1.4852
  725TMC3    H210722   3.960   2.564  12.773  0.2853 -0.5810 -1.4430
  725TMC3    C710723   4.179   2.494  12.873  0.9329 -0.2964 -0.3464
  725TMC3    C810724   4.009   2.736  12.594 -0.3091  0.5295  0.5473
  725TMC3    O110725   4.306   2.501  12.873  0.4913 -0.2288  0.2975
  725TMC3    O210726   3.920   2.660  12.561 -0.2642 -0.7804 -0.1140
  726MPD2     C10727   2.598   4.026  10.536  0.2193 -0.3811 -0.2195
  726MPD2    C110728   2.569   4.143  10.610 -0.8504  0.1404 -0.2503
  726MPD2    C210729   2.478   4.141  10.716  0.2445 -0.4784 -0.1754
  726MPD2    C310730   2.403   4.030  10.735  0.2249 -0.3631  0.0239
  726MPD2    C410731   2.433   3.913  10.658  0.0737 -0.1373  0.2613
  726MPD2    C510732   2.522   3.911  10.557  0.6837 -0.7514  0.4623
  726MPD2     H10733   2.454   4.233  10.769  1.2633 -0.4171  0.1731
  726MPD2    H110734   2.391   3.815  10.674 -1.4226  0.5555  0.5633
  726MPD2    H210735   2.677   4.024  10.462 -1.7959 -1.3530 -2.3614
  726MPD2    H310736   2.537   3.823  10.494  0.4678 -1.5243  1.4922
  726MPD2     N10737   2.295   4.021  10.822  0.0378 -0.1458  0.4446
  726MPD2    H510738   2.234   3.942  10.810 -1.3182  0.5756  2.6127
  726MPD2    N110739   2.624   4.265  10.578 -0.6917 -0.3185 -0.3829
  726MPD2    H710740   2.601   4.344  10.637  0.1109 -0.2074 -0.2199
  727TMC3    C110741   2.725   4.431  10.468  0.8797  0.4088 -0.9149
  727TMC3    C210742   2.849   4.462  10.430 -0.2941 -0.1502  0.3778
  727TMC3    C310743   2.869   4.595  10.396  0.1065 -0.8828  0.1487
  727TMC3    C410744   2.619   4.515  10.474 -0.0682  0.3977  0.5876
  727TMC3    C510745   2.642   4.639  10.434  0.5578  0.0446 -0.5722
  727TMC3    C610746   2.766   4.679  10.392  0.0004 -0.7187 -1.3151
  727TMC3     C10747   2.696   4.291  10.465 -0.3450 -0.4924  0.1625
  727TMC3     O10748   2.684   4.235  10.356 -0.3406 -0.0050  0.8013
  727TMC3     H10749   2.923   4.383  10.421 -1.5954 -1.5547  2.0388
  727TMC3    H110750   2.520   4.471  10.477 -0.3439  0.9867 -0.0052
  727TMC3    H210751   2.758   0.034  10.321 -0.5264 -0.3002 -0.7772
  727TMC3    C710752   2.527   0.004  10.413 -0.4825  0.3089  0.0385
  727TMC3    C810753   2.983   4.633  10.334 -0.6024  0.3563 -0.1326
  727TMC3    O110754   2.546   0.113  10.363 -0.3509 -0.5652 -0.1423
  727TMC3    O210755   3.062   4.547  10.299 -0.2954 -0.1484 -0.2808
  728TMC3    C110756   1.732   3.312  15.402 -0.5866 -0.2308 -0.2271
  728TMC3    C210757   1.798   3.422  15.434 -0.0076 -0.4871 -0.3290
  728TMC3    C310758   1.906   3.447  15.363 -0.4773 -0.1326 -0.2622
  728TMC3    C410759   1.769   3.222  15.300  0.5455 -0.3638 -0.4057
  728TMC3    C510760   1.890   3.249  15.244  0.4964 -0.4551  0.0294
  728TMC3    C610761   1.957   3.362  15.271 -0.8762  0.1372 -0.0804
  728TMC3     C10762   1.662   3.251  15.515  0.1429  0.1163  0.8078
  728TMC3     O10763   1.651   3.325  15.611 -0.1002  0.1900  0.4292
  728TMC3     H10764   1.765   3.500  15.502  0.3520 -0.7239  0.1211
  728TMC3    H110765   1.713   3.131  15.280  2.0044 -0.5828 -3.3662
  728TMC3    H210766   2.059   3.385  15.241 -1.1962  0.0982 -1.1814
  728TMC3    C710767   1.929   3.163  15.131 -0.3453 -0.2859 -0.2212
  728TMC3    C810768   1.986   3.565  15.401  0.1179  0.5362 -0.1618
  728TMC3    O110769   1.888   3.048  15.132  0.0332 -0.3297 -0.3357
  728TMC3    O210770   1.962   3.608  15.514 -0.3746  0.0553  0.0843
  729MPD2     C10771   3.896   3.952  17.080  0.2850 -0.2519  0.2612
  729MPD2    C110772   3.933   3.829  17.033  0.3459  0.6634  0.0372
  729MPD2    C210773   4.000   3.743  17.125  0.7994 -0.0321 -0.1217
  729MPD2    C310774   4.044   3.800  17.239 -0.2665 -0.4947  0.2919
  729MPD2    C410775   4.010   3.926  17.284 -0.4535  0.0917 -0.0319
  729MPD2    C510776   3.918   3.989  17.207 -0.1591 -0.2903  0.8684
  729MPD2     H10777   4.045   3.651  17.090  0.5533 -0.4689  0.6980
  729MPD2    H110778   4.054   3.969  17.373 -0.1893  1.6840 -0.9267
  729MPD2    H210779   3.820   4.007  17.025 -0.8670 -0.9173  1.1850
  729MPD2    H310780   3.902   4.091  17.240 -1.4151  0.6952 -2.8086
  729MPD2     N10781   4.135   3.729  17.320 -0.2067 -0.4501  0.5016
  729MPD2    H510782   4.160   3.772  17.408 -0.1056 -2.3195  1.3933
  729MPD2    N110783   3.917   3.812  16.899  0.3094 -0.0827  0.0762
  729MPD2    H710784   3.881   3.892  16.848  0.0720 -0.2094  0.0435
  730TMC3    C110785   4.305   3.597  17.406 -0.3708  0.2382  0.2395
  730TMC3    C210786   4.436   3.573  17.368  0.0387  0.4276  0.0912
  730TMC3    C310787   4.525   3.641  17.447  0.1370 -0.4151  0.5792
  730TMC3    C410788   4.265   3.671  17.515 -0.5114 -0.3779 -0.6398
  730TMC3    C510789   4.360   3.739  17.586  0.7071 -0.0769  0.1857
  730TMC3    C610790   4.495   3.714  17.558 -0.1756  0.3117 -0.4250
  730TMC3     C10791   4.204   3.607  17.299  0.5510 -0.4712 -0.4571
  730TMC3     O10792   4.202   3.534  17.203 -0.2602 -0.1076 -0.0157
  730TMC3     H10793   4.473   3.545  17.269 -1.1876 -0.5492 -0.0793
  730TMC3    H110794   4.165   3.680  17.556 -1.4731  0.9513 -3.3091
  730TMC3    H210795   4.570   3.745  17.630 -0.8807  0.2792  0.3270
  730TMC3    C710796   4.331   3.881  17.596 -0.3313  0.2426  0.2074
  730TMC3    C810797   4.656   3.645  17.394  0.7149 -0.0291  0.0713
  730TMC3    O110798   4.218   3.907  17.556 -0.3598  0.2801 -0.6219
  730TMC3    O210799   0.014   3.581  17.453 -0.4398  0.1848 -0.7527
  731MPD2     C10800   3.553   1.360  11.907 -0.3802  0.4506  0.0702
  731MPD2    C110801   3.671   1.407  11.957 -0.6357  0.1559 -0.5426
  731MPD2    C210802   3.683   1.397  12.094 -0.0497  0.2649  0.2530
  731MPD2    C310803   3.577   1.365  12.179 -0.2081  0.1732  0.2417
  731MPD2    C410804   3.462   1.320  12.123 -0.0744 -0.3138  0.5324
  731MPD2    C510805   3.457   1.309  11.987 -0.3054  0.9058  0.3886
  731MPD2     H10806   3.777   1.420  12.141 -0.5769  0.6419  1.1074
  731MPD2    H110807   3.384   1.275  12.184 -1.9893  1.1301 -0.8731
  731MPD2    H210808   3.530   1.354  11.801 -1.8025 -0.2781  0.4245
  731MPD2    H310809   3.369   1.267  11.940 -0.2977 -0.7224  1.8565
  731MPD2     N10810   3.603   1.359  12.314 -0.0675 -0.4648 -0.0858
  731MPD2    H510811   3.700   1.354  12.343  0.9233  0.5297 -3.1920
  731MPD2    N110812   3.757   1.468  11.863 -0.2825 -0.0376 -0.2591
  731MPD2    H710813   3.711   1.480  11.774 -0.6351  0.2633 -0.0348
  732TMC3    C110814   3.923   1.620  11.777  0.7564 -0.3797 -0.0677
  732TMC3    C210815   3.836   1.612  11.671 -0.0274  0.6761 -0.2336
  732TMC3    C310816   3.755   1.721  11.633 -0.0717 -0.3044  0.0753
  732TMC3    C410817   3.948   1.744  11.828  0.8679  0.1013  0.1665
  732TMC3    C510818   3.877   1.852  11.789 -0.1957 -0.3415 -0.0591
  732TMC3    C610819   3.773   1.841  11.700 -0.6158  0.7322 -0.0197
  732TMC3     C10820   3.879   1.530  11.885  0.2223 -0.3925  0.0814
  732TMC3     O10821   3.938   1.545  11.994  0.1188  0.0610  0.4197
  732TMC3     H10822   3.817   1.518  11.620 -1.9502  1.5314 -1.1066
  732TMC3    H110823   4.024   1.748  11.905 -0.3894  0.2850  1.3769
  732TMC3    H210824   3.704   1.924  11.696 -1.7816 -0.2240  0.3954
  732TMC3    C710825   3.918   1.992  11.830 -0.1525  0.3071 -0.3784
  732TMC3    C810826   3.614   1.684  11.613 -0.6077  0.7608  0.5449
  732TMC3    O110827   3.833   2.083  11.826 -0.6134 -0.4923  0.0942
  732TMC3    O210828   3.586   1.604  11.527 -0.1910 -0.2528  0.0257
  733TMC3    C110829   0.028   0.658  13.093  0.1610 -0.2011 -0.2833
  733TMC3    C210830   0.089   0.616  13.209 -0.0815  0.5152 -0.3549
  733TMC3    C310831   0.219   0.563  13.193  0.0043 -0.1113 -0.0319
  733TMC3    C410832   0.083   0.652  12.966 -0.5165 -0.1294 -0.1736
  733TMC3    C510833   0.203   0.585  12.955  0.1951 -0.7923 -0.1221
  733TMC3    C610834   0.267   0.538  13.067  0.3769  0.2852  0.0741
  733TMC3     C10835   4.612   0.685  13.096 -0.0617  0.3127 -0.3366
  733TMC3     O10836   4.560   0.747  13.010 -0.1947  0.5308  0.3245
  733TMC3     H10837   0.052   0.647  13.307  0.2061  1.7811 -0.6496
  733TMC3    H110838   0.028   0.708  12.891 -0.8378 -0.0647  0.1104
  733TMC3    H210839   0.361   0.488  13.047  1.0093  1.5484 -0.0853
  733TMC3    C710840   0.290   0.672  12.890 -0.1356 -0.2622 -0.0944
  733TMC3    C810841   0.304   0.616  13.301  0.0722 -0.0838  0.4083
  733TMC3    O110842   0.390   0.703  12.957 -0.1116 -0.1772 -0.7658
  733TMC3    O210843   0.266   0.608  13.418  0.4302  0.3181 -0.2650
  734MPD2     C10844   2.226   3.166  12.588 -0.2058 -0.0336 -0.0688
  734MPD2    C110845   2.127   3.113  12.507 -0.3915  0.4304  0.0097
  734MPD2    C210846   2.132   3.147  12.374  0.0158  0.1874  0.3771
  734MPD2    C310847   2.233   3.220  12.319 -0.0676 -0.3693  0.3656
  734MPD2    C410848   2.322   3.277  12.404 -0.2619 -0.1108  1.3231
  734MPD2    C510849   2.313   3.260  12.540 -0.2689  0.4745  0.7904
  734MPD2     H10850   2.058   3.105  12.307  0.5173 -0.6652  0.3547
  734MPD2    H110851   2.408   3.340  12.382 -2.2800  1.7493 -1.2099
  734MPD2    H210852   2.244   3.137  12.691 -0.1743 -0.6833 -0.2525
  734MPD2    H310853   2.402   3.290  12.595 -0.1182  1.4437  0.0166
  734MPD2     N10854   2.239   3.226  12.177 -0.0659  0.7329  0.1817
  734MPD2    H510855   2.158   3.200  12.123  0.8523 -1.6764 -0.0096
  734MPD2    N110856   2.035   3.017  12.560 -0.2853 -0.7112 -0.4432
  734MPD2    H710857   2.039   3.009  12.661 -1.0167  0.7500 -0.3030
  735TMC3    C110858   1.868   2.845  12.564  0.1915  0.1975  0.6982
  735TMC3    C210859   1.778   2.782  12.485 -0.6285 -0.0359  0.0684
  735TMC3    C310860   1.780   2.646  12.476 -0.0442 -0.0768  1.0205
  735TMC3    C410861   1.958   2.764  12.634 -0.5038 -0.1085  0.6408
  735TMC3    C510862   1.953   2.628  12.631  0.4973 -0.4146  0.2289
  735TMC3    C610863   1.868   2.564  12.547  0.1356  0.3692 -0.0436
  735TMC3     C10864   1.936   2.949  12.492 -0.3408  0.7511 -0.0682
  735TMC3     O10865   1.918   2.956  12.373 -0.1173  0.1065  0.0878
  735TMC3     H10866   1.705   2.841  12.431  2.0422  1.8449 -1.4948
  735TMC3    H110867   2.037   2.810  12.693 -0.7976  0.3804  0.6588
  735TMC3    H210868   1.877   2.460  12.520 -0.0628  0.6865 -1.3580
  735TMC3    C710869   2.072   2.558  12.670  0.2215  0.0590  0.5041
  735TMC3    C810870   1.772   2.596  12.340 -0.4511  0.4692  0.6554
  735TMC3    O110871   2.173   2.628  12.691  0.3100  0.4555  0.3202
  735TMC3    O210872   1.774   2.479  12.313 -0.3082 -0.2000  0.3931
  736MPD2     C10873   2.143   2.198  12.730 -0.1788 -0.7485 -0.1798
  736MPD2    C110874   2.161   2.331  12.690 -0.3542 -1.0417 -0.4919
  736MPD2    C210875   2.287   2.357  12.626  0.1847 -0.2861  0.7483
  736MPD2    C310876   2.379   2.258  12.602 -0.7070  0.3921  0.2659
  736MPD2    C410877   2.346   2.123  12.645 -0.0771 -0.6925  0.0338
  736MPD2    C510878   2.235   2.104  12.713 -0.4487  0.5184  0.3002
  736MPD2     H10879   2.323   2.454  12.594  0.7469 -1.6780 -2.8396
  736MPD2    H110880   2.420   2.044  12.648  1.2020  0.5327  0.7806
  736MPD2    H210881   2.051   2.174  12.783 -0.2887 -0.0680 -0.0560
  736MPD2    H310882   2.208   2.012  12.763 -2.3786  0.9386  0.0229
  736MPD2     N10883   2.500   2.273  12.541  0.3185  0.1849 -0.2157
  736MPD2    H510884   2.556   2.189  12.530  1.2185  1.1052 -2.8293
  736MPD2    N110885   2.057   2.421  12.692 -0.5712 -0.2911  0.1947
  736MPD2    H710886   1.959   2.395  12.699 -0.2646 -1.3044  0.6329
  737TMC3    C110887   2.689   2.364  12.440 -0.4950 -0.6389  0.0813
  737TMC3    C210888   2.733   2.467  12.363  0.1879  0.3090 -0.2342
  737TMC3    C310889   2.855   2.439  12.293 -0.0315 -0.5243  0.0985
  737TMC3    C410890   2.755   2.242  12.443  0.2511 -0.0664 -0.2358
  737TMC3    C510891   2.870   2.214  12.373 -0.6517  0.1788 -0.2439
  737TMC3    C610892   2.923   2.318  12.301  0.2762  0.2872 -0.3268
  737TMC3     C10893   2.562   2.391  12.505  0.6723 -0.8506 -0.1068
  737TMC3     O10894   2.512   2.501  12.490 -0.1858  0.0318  0.0263
  737TMC3     H10895   2.685   2.563  12.350 -0.4367 -0.1827 -1.5788
  737TMC3    H110896   2.719   2.165  12.511  2.0900  0.8487  1.7486
  737TMC3    H210897   3.022   2.303  12.259  1.0964  0.6550  1.4748
  737TMC3    C710898   2.883   2.082  12.319 -0.3247 -0.3630  0.0389
  737TMC3    C810899   2.923   2.547  12.227  0.6766 -0.1781 -0.2085
  737TMC3    O110900   2.861   1.987  12.394 -0.3420 -0.0547  0.2502
  737TMC3    O210901   3.048   2.545  12.222  0.1995 -0.3334  0.1805
  738MPD2     C10902   2.710   1.607  15.365  0.7635  0.2267 -0.4812
  738MPD2    C110903   2.730   1.474  15.403 -0.4257 -0.3099  0.1410
  738MPD2    C210904   2.851   1.436  15.465  0.0860  0.3163 -0.0142
  738MPD2    C310905   2.957   1.531  15.460  0.5076  0.0481 -0.3523
  738MPD2    C410906   2.938   1.652  15.406 -0.7042  0.2928 -0.0444
  738MPD2    C510907   2.815   1.694  15.362 -0.6032 -0.0513  0.5931
  738MPD2     H10908   2.851   1.340  15.517  0.4267 -0.4813 -1.4897
  738MPD2    H110909   3.021   1.721  15.403  1.3024 -2.1005  0.8773
  738MPD2    H210910   2.617   1.650  15.329  1.9035  1.8026 -1.5380
  738MPD2    H310911   2.810   1.792  15.316 -0.7300  0.5194  1.8283
  738MPD2     N10912   3.086   1.509  15.506  0.7308 -0.0761  0.3480
  738MPD2    H510913   3.155   1.582  15.491  0.3480 -0.1465 -1.8043
  738MPD2    N110914   2.621   1.376  15.396 -0.4656 -0.4188  0.0187
  738MPD2    H710915   2.642   1.283  15.429  0.6520  0.1942  1.0625
  739TMC3    C110916   3.280   1.384  15.545 -0.2614 -0.5029 -0.7013
  739TMC3    C210917   3.324   1.401  15.419 -0.7395  0.6241 -0.1022
  739TMC3    C310918   3.450   1.364  15.389 -0.1293 -0.8766 -0.5599
  739TMC3    C410919   3.351   1.316  15.638 -0.3248 -0.2442  0.0874
  739TMC3    C510920   3.481   1.284  15.606 -0.3337  0.4269  0.6664
  739TMC3    C610921   3.532   1.309  15.484 -0.3474 -0.4898  0.6301
  739TMC3     C10922   3.136   1.390  15.565  0.3500  0.0121 -0.1434
  739TMC3     O10923   3.074   1.307  15.624 -0.3517  0.3711  0.0229
  739TMC3     H10924   3.258   1.424  15.336 -1.3693  0.1647  0.2723
  739TMC3    H110925   3.303   1.299  15.734 -0.0082 -0.0265  0.2843
  739TMC3    H210926   3.633   1.279  15.457 -0.3704  1.7979 -1.9411
  739TMC3    C710927   3.566   1.234  15.713  0.7292 -0.1296  0.5564
  739TMC3    C810928   3.486   1.371  15.250 -0.9845  0.2969  1.0789
  739TMC3    O110929   3.521   1.226  15.828  0.7836  0.5904  0.1858
  739TMC3    O210930   3.395   1.388  15.170 -0.4835 -0.1456  0.1811
  740TMC3    C110931   3.724   2.820  14.554 -0.0675  0.0782 -0.6456
  740TMC3    C210932   3.775   2.794  14.671  0.3334 -0.5053 -0.1981
  740TMC3    C310933   3.913   2.767  14.677  0.5377  0.7591  0.7323
  740TMC3    C410934   3.796   2.804  14.444  0.6438 -0.0320 -0.3302
  740TMC3    C510935   3.926   2.767  14.440 -0.2121  0.4135 -0.2831
  740TMC3    C610936   3.982   2.733  14.561  0.2177  0.0038 -0.3059
  740TMC3     C10937   3.590   2.871  14.552  0.4386 -0.7966  0.2869
  740TMC3     O10938   3.558   2.957  14.465  0.1601 -0.2747 -0.7450
  740TMC3     H10939   3.725   2.830  14.760  0.1824 -0.0969 -0.4479
  740TMC3    H110940   3.758   2.843  14.349 -0.0009 -1.8162 -0.7969
  740TMC3    H210941   4.070   2.670  14.563 -0.0373 -0.3913 -1.2037
  740TMC3    C710942   3.988   2.716  14.325 -0.4706  0.2579  0.2114
  740TMC3    C810943   3.955   2.709  14.806 -0.0615  0.1001  0.6916
  740TMC3    O110944   4.081   2.644  14.342  0.0877 -0.1725 -0.0757
  740TMC3    O210945   3.862   2.663  14.872 -0.2193 -0.8169 -0.1370
  741TMC3    C110946   3.497   1.859  14.992  0.0189  0.3673  0.4636
  741TMC3    C210947   3.371   1.813  14.970 -0.5721  0.4363 -0.3407
  741TMC3    C310948   3.327   1.721  15.063 -0.5231 -0.2453  0.3421
  741TMC3    C410949   3.578   1.815  15.099  0.2127  0.0814 -0.4061
  741TMC3    C510950   3.520   1.729  15.188  0.2222  0.6532  0.4699
  741TMC3    C610951   3.386   1.694  15.182  0.3990 -0.2048  0.2302
  741TMC3     C10952   3.566   1.938  14.892  0.4061  0.1001 -0.2374
  741TMC3     O10953   3.687   1.926  14.899 -0.4003 -0.2829  0.4479
  741TMC3     H10954   3.317   1.842  14.881  0.4634 -1.9349 -1.7497
  741TMC3    H110955   3.678   1.851  15.123  0.5776 -0.9029 -0.4515
  741TMC3    H210956   3.330   1.643  15.259  1.3027  0.4530  1.3104
  741TMC3    C710957   3.569   1.705  15.319 -0.4514  0.1192  0.0389
  741TMC3    C810958   3.190   1.688  15.053 -0.0073 -0.0905  0.0452
  741TMC3    O110959   3.490   1.713  15.408  0.1559  0.4089  0.1621
  741TMC3    O210960   3.123   1.781  15.008  0.2121 -0.3807 -0.2258
  742TMC3    C110961   2.756   0.405  15.720  0.3725  0.3288 -0.6541
  742TMC3    C210962   2.680   0.401  15.607  0.4820  0.2083  0.3771
  742TMC3    C310963   2.721   0.338  15.497 -0.1822  0.4422  0.3107
  742TMC3    C410964   2.881   0.346  15.716  0.7188 -0.5000 -1.1221
  742TMC3    C510965   2.918   0.265  15.612 -0.0585  0.2640 -0.1087
  742TMC3    C610966   2.839   0.272  15.498  0.4526  0.2613  0.4978
  742TMC3     C10967   2.688   0.432  15.848 -0.1479 -0.0453  0.0302
  742TMC3     O10968   2.565   0.437  15.848 -0.6342 -0.3241 -0.0095
  742TMC3     H10969   2.576   0.431  15.603  0.3381 -0.2771  0.4518
  742TMC3    H110970   2.949   0.336  15.799 -1.2961 -0.4090  0.5477
  742TMC3    H210971   2.866   0.236  15.399 -0.1386 -3.0560  1.5645
  742TMC3    C710972   3.060   0.234  15.589 -0.6964 -0.1194 -0.5112
  742TMC3    C810973   2.636   0.327  15.381 -0.0301 -0.4781  0.7823
  742TMC3    O110974   3.087   0.153  15.501 -0.1065 -0.3684 -0.2435
  742TMC3    O210975   2.632   0.219  15.326 -0.0927  0.1179  0.2637
  743MPD2     C10976   2.103   2.899   2.319 -1.1324 -0.3595 -0.0203
  743MPD2    C110977   2.090   2.814   2.214  0.4468 -0.1388  0.2578
  743MPD2    C210978   2.191   2.820   2.118  0.0732 -0.3419 -0.1149
  743MPD2    C310979   2.295   2.906   2.132  0.3431 -0.1607 -1.0674
  743MPD2    C410980   2.314   2.973   2.251 -0.3895  0.1917  1.1381
  743MPD2    C510981   2.212   2.978   2.339  0.2797 -0.2483 -0.0048
  743MPD2     H10982   2.176   2.772   2.022 -2.4592  0.2164  0.0063
  743MPD2    H110983   2.403   3.029   2.276 -0.7562  0.9815  0.6706
  743MPD2    H210984   2.023   2.898   2.391 -0.1064  0.9836  1.1328
  743MPD2    H310985   2.216   3.029   2.434  1.0065 -0.1117 -0.1167
  743MPD2     N10986   2.385   2.910   2.024 -0.1978  0.1779  0.1185
  743MPD2    H510987   2.360   2.842   1.952 -0.0060 -0.3898  0.5885
  743MPD2    N110988   1.980   2.727   2.205  0.3990  0.5011 -0.0962
  743MPD2    H710989   1.908   2.730   2.277  0.8799  0.8517  0.3642
  744TMC3    C110990   1.832   2.571   2.089  0.5114  0.2629  0.3248
  744TMC3    C210991   1.724   2.657   2.108 -0.4019  0.2919  0.0613
  744TMC3    C310992   1.602   2.608   2.069 -0.1391  0.4596  0.2797
  744TMC3    C410993   1.818   2.450   2.031 -0.4133 -0.2287 -0.0486
  744TMC3    C510994   1.693   2.410   1.993 -0.7059 -0.8024 -0.6946
  744TMC3    C610995   1.582   2.488   2.003 -0.4499  0.2802 -0.3432
  744TMC3     C10996   1.962   2.624   2.108 -0.2532  0.7642  0.1481
  744TMC3     O10997   2.054   2.563   2.055 -0.1485 -0.5378 -0.4308
  744TMC3     H10998   1.736   2.759   2.142  2.4716  0.0089 -0.0945
  744TMC3    H110999   1.908   2.395   2.005 -1.6103 -0.7587 -3.0183
  744TMC3    H211000   1.487   2.468   1.953 -0.7449  1.0920 -0.0952
  744TMC3    C711001   1.692   2.318   1.885  0.1433 -0.2385  0.0956
  744TMC3    C811002   1.485   2.684   2.092 -0.1636  0.2400 -0.2214
  744TMC3    O111003   1.601   2.308   1.808 -0.3131  0.6304  0.3449
  744TMC3    O211004   1.376   2.672   2.038 -0.4261  0.0849 -0.1281
  745TMC3    C111005   3.137   0.201  13.274 -0.3695  0.3557 -0.0130
  745TMC3    C211006   3.041   0.214  13.369  0.8657  0.0398  0.4778
  745TMC3    C311007   2.922   0.272  13.329  0.2468  0.0696  0.7385
  745TMC3    C411008   3.131   0.277  13.158 -0.7088  0.2559 -0.1563
  745TMC3    C511009   3.021   0.346  13.126 -0.8102  0.2671 -0.2834
  745TMC3    C611010   2.912   0.336  13.206  0.6763  0.2766  0.4056
  745TMC3     C11011   3.270   0.149  13.312 -0.4454  0.5031  0.5824
  745TMC3     O11012   3.330   0.099  13.222 -0.3289 -0.0121  0.4923
  745TMC3     H11013   3.035   0.146  13.453 -1.8503  1.2810  1.3094
  745TMC3    H111014   3.219   0.268  13.096  0.8856 -0.5064  2.2133
  745TMC3    H211015   2.820   0.377  13.165 -0.2310 -0.3026  1.8648
  745TMC3    C711016   3.028   0.441  13.012  0.5152  0.5556  0.3277
  745TMC3    C811017   2.846   0.324  13.436 -0.0256  0.1968 -1.3405
  745TMC3    O111018   2.926   0.500  12.974 -0.0069  0.0446 -0.5239
  745TMC3    O211019   2.726   0.343  13.423  0.0722 -0.3940  0.5984
  746TMC3    C111020   1.301   1.891  11.213 -0.1941 -0.4096 -0.3730
  746TMC3    C211021   1.328   1.881  11.076  0.2139  0.6060  0.2643
  746TMC3    C311022   1.255   1.780  11.012 -0.1092 -0.2351 -0.2803
  746TMC3    C411023   1.230   1.799  11.287  0.9293  0.6321  0.5193
  746TMC3    C511024   1.169   1.698  11.217 -0.1205 -0.9198  0.0297
  746TMC3    C611025   1.180   1.687  11.075 -0.1496  1.0259 -0.0828
  746TMC3     C11026   1.263   2.025  11.257  0.2866  0.2761  0.0773
  746TMC3     O11027   1.150   2.031  11.306  0.8182  0.6127  0.1308
  746TMC3     H11028   1.396   1.954  11.034  0.3552  0.2283 -0.1598
  746TMC3    H111029   1.221   1.823  11.392 -1.8623 -1.5459  0.7631
  746TMC3    H211030   1.130   1.604  11.026 -0.8143  0.3374  1.7828
  746TMC3    C711031   1.053   1.638  11.268  0.3222  0.0005  0.1052
  746TMC3    C811032   1.288   1.750  10.874 -0.6022 -0.0303  0.1265
  746TMC3    O111033   0.962   1.654  11.191  0.1714 -0.1144 -0.1271
  746TMC3    O211034   1.220   1.663  10.823  0.4145 -0.0946  0.2279
  747TMC3    C111035   3.172   1.873  11.344 -0.8018  0.2179  0.1087
  747TMC3    C211036   3.099   1.810  11.443 -0.5347  0.4553 -0.0673
  747TMC3    C311037   3.129   1.840  11.574 -0.3290 -0.0072  0.9943
  747TMC3    C411038   3.275   1.965  11.379 -0.4813  0.1376  0.1273
  747TMC3    C511039   3.312   1.975  11.515  0.6531 -0.7271  0.3139
  747TMC3    C611040   3.237   1.916  11.615 -0.2136  1.0031 -0.0890
  747TMC3     C11041   3.084   1.906  11.231 -0.4691 -0.3286  0.2086
  747TMC3     O11042   2.964   1.885  11.255 -0.2922 -0.1757  0.3025
  747TMC3     H11043   3.033   1.729  11.417 -1.4393  2.1406 -3.0184
  747TMC3    H111044   3.312   2.040  11.309  0.3679  2.1970  2.7914
  747TMC3    H211045   3.261   1.936  11.719  0.1805  0.6682 -0.1154
  747TMC3    C711046   3.443   2.029  11.540 -0.1613  0.5617 -0.4695
  747TMC3    C811047   3.038   1.796  11.676  0.6954 -0.7887 -0.1923
  747TMC3    O111048   3.461   2.082  11.648  0.1380  0.1745 -0.5644
  747TMC3    O211049   2.975   1.697  11.642  0.4575 -0.1830  0.3463
  748MPD2     C11050   0.762   4.495   1.878  0.4954  0.4991 -0.4724
  748MPD2    C111051   0.729   4.408   1.772 -0.6076  0.0341 -0.2567
  748MPD2    C211052   0.831   4.325   1.726  0.1845 -0.5011 -0.0916
  748MPD2    C311053   0.956   4.319   1.784  0.4539  0.6657  0.3126
  748MPD2    C411054   0.986   4.407   1.889 -0.1958  0.7311  0.1403
  748MPD2    C511055   0.890   4.497   1.926  1.0989  0.7780 -1.0169
  748MPD2     H11056   0.800   4.249   1.655  2.1439  0.4686 -2.0127
  748MPD2    H111057   1.077   4.406   1.948  0.0997 -1.0794 -0.3295
  748MPD2    H211058   0.682   4.549   1.928 -0.6504 -1.4088 -0.2191
  748MPD2    H311059   0.915   4.558   2.011  2.0592  0.5597 -1.1436
  748MPD2     N11060   1.033   4.211   1.745  0.5141 -0.0748  0.2972
  748MPD2    H511061   1.004   4.162   1.662 -2.3551  1.9398  0.0897
  748MPD2    N111062   0.595   4.410   1.734  0.1740  0.1234 -0.4667
  748MPD2    H711063   0.531   4.465   1.790  0.8290  0.5761 -0.1678
  749TMC3    C111064   1.212   4.052   1.746  0.4649 -0.2017  0.0487
  749TMC3    C211065   1.344   4.036   1.784 -0.0594 -0.4273  0.3223
  749TMC3    C311066   1.415   3.939   1.712  0.2470 -0.1191  0.3041
  749TMC3    C411067   1.163   3.991   1.638  0.4372 -0.1441  0.2109
  749TMC3    C511068   1.233   3.891   1.574 -0.6399  0.0344 -0.1882
  749TMC3    C611069   1.356   3.864   1.610 -0.0212 -0.3971 -0.6141
  749TMC3     C11070   1.148   4.173   1.802  0.3148 -0.4831  0.1541
  749TMC3     O11071   1.212   4.232   1.893 -0.8043  0.4230  0.1689
  749TMC3     H11072   1.397   4.090   1.862  0.8641  0.5208 -0.9426
  749TMC3    H111073   1.057   4.006   1.624  0.6993  0.4481 -1.1437
  749TMC3    H211074   1.419   3.806   1.544  2.3183  2.9895 -1.3696
  749TMC3    C711075   1.189   3.874   1.439  0.5417 -0.5674 -0.1999
  749TMC3    C811076   1.553   3.907   1.755  0.7263  0.0207 -0.2814
  749TMC3    O111077   1.104   3.957   1.401  0.6805  0.0843 -0.1218
  749TMC3    O211078   1.599   3.977   1.848  0.4938 -0.2003 -0.4389
  750MPD2     C11079   1.482   3.792  11.399 -0.6551 -0.1270  0.5091
  750MPD2    C111080   1.342   3.767  11.401  0.6094  0.1874  0.3173
  750MPD2    C211081   1.296   3.670  11.312  0.1254 -0.2848  0.2519
  750MPD2    C311082   1.380   3.601  11.226  0.5620 -0.3463 -0.1499
  750MPD2    C411083   1.512   3.626  11.227  0.8107  0.0341 -0.0160
  750MPD2    C511084   1.560   3.721  11.311 -0.4862  0.1465  0.4887
  750MPD2     H11085   1.194   3.636  11.326 -0.1304  0.8436  1.0615
  750MPD2    H111086   1.582   3.577  11.160  3.0361  1.2264  1.4255
  750MPD2    H211087   1.526   3.867  11.463  1.4704  1.3506 -2.6477
  750MPD2    H311088   1.665   3.745  11.302 -0.4203  0.4445  2.0197
  750MPD2     N11089   1.339   3.509  11.126  0.3855  0.2484 -0.2682
  750MPD2    H511090   1.406   3.470  11.061 -0.7834  0.8948 -1.8621
  750MPD2    N111091   1.262   3.850  11.482 -0.1249 -0.1233 -0.0006
  750MPD2    H711092   1.315   3.907  11.547 -0.3454  0.9295 -0.7462
  751TMC3    C111093   1.182   3.388  11.006  0.6444 -0.1294 -0.0575
  751TMC3    C211094   1.095   3.282  11.037  0.6336 -0.0910 -0.0476
  751TMC3    C311095   1.069   3.187  10.940  0.0672 -0.0757 -0.0012
  751TMC3    C411096   1.264   3.382  10.897  0.2554 -0.0426 -0.4237
  751TMC3    C511097   1.246   3.273  10.813  0.1700 -0.2614 -0.2504
  751TMC3    C611098   1.142   3.184  10.826  0.1102  0.7023  0.4134
  751TMC3     C11099   1.209   3.480  11.109  0.2774 -0.1552 -0.3634
  751TMC3     O11100   1.112   3.539  11.154 -0.3438  0.1775  0.0201
  751TMC3     H11101   1.035   3.289  11.128  0.5990 -1.6800  0.0612
  751TMC3    H111102   1.348   3.450  10.891  0.7927 -0.3854  3.1996
  751TMC3    H211103   1.111   3.113  10.750  2.2012 -0.2837  0.4970
  751TMC3    C711104   1.335   3.264  10.696 -0.1068  0.7058 -0.0012
  751TMC3    C811105   0.967   3.085  10.951 -0.0262 -0.4660  0.4866
  751TMC3    O111106   1.392   3.362  10.667 -0.7340  0.0190  0.1788
  751TMC3    O211107   0.979   2.976  10.896 -0.1536  0.1152 -0.6921
  752TMC3    C111108   4.652   3.044  16.908  0.5633  0.8975 -0.5220
  752TMC3    C211109   0.040   2.970  16.924  0.5202 -0.4988 -0.1570
  752TMC3    C311110   0.083   2.952  17.049  0.4469 -0.4437  0.2067
  752TMC3    C411111   4.578   3.092  17.012 -0.4425  0.4227  0.0566
  752TMC3    C511112   4.618   3.061  17.142 -0.0854  0.2036  0.7633
  752TMC3    C611113   0.012   2.997  17.159  0.6208 -0.1070 -0.0741
  752TMC3     C11114   4.628   3.102  16.775  0.6916  0.4645  0.1210
  752TMC3     O11115   4.703   3.054  16.688  0.5191 -0.0397  0.1652
  752TMC3     H11116   0.109   2.954  16.841 -1.0424 -1.6481 -1.2210
  752TMC3    H111117   4.485   3.147  17.005  0.3718  1.7736 -0.1206
  752TMC3    H211118   0.053   2.996  17.259 -0.2524  0.0124  0.2865
  752TMC3    C711119   4.570   3.138  17.251  0.3940  0.1702  0.3597
  752TMC3    C811120   0.215   2.903  17.069 -0.0524  0.2088  0.1964
  752TMC3    O111121   4.508   3.238  17.222 -0.3080  0.6898  0.3073
  752TMC3    O211122   0.302   2.900  16.980 -0.1605  0.1893 -0.7937
  753TMC3    C111123   2.156   0.449  13.291 -0.5285  0.3064 -0.4320
  753TMC3    C211124   2.209   0.383  13.405  0.1083 -0.0970  1.0914
  753TMC3    C311125   2.163   0.261  13.438 -0.7588  0.4282  0.2498
  753TMC3    C411126   2.055   0.383  13.224  0.0871 -0.2513 -0.1530
  753TMC3    C511127   2.019   0.256  13.259 -0.5262 -0.4756  0.6037
  753TMC3    C611128   2.072   0.190  13.363  0.5386  0.4916  0.4050
  753TMC3     C11129   2.152   0.591  13.278 -0.0790  0.2545 -0.0650
  753TMC3     O11130   2.062   0.648  13.220  0.9713  0.0185  0.4968
  753TMC3     H11131   2.301   0.419  13.450 -1.3973  2.5567  2.0179
  753TMC3    H111132   1.998   0.422  13.141  0.9496  1.0758 -0.1201
  753TMC3    H211133   2.033   0.093  13.390 -0.8298  1.5239  2.1887
  753TMC3    C711134   1.890   0.220  13.210  0.1821 -0.3770 -0.6008
  753TMC3    C811135   2.182   0.206  13.570  0.7391 -0.1126  0.1796
  753TMC3    O111136   1.821   0.317  13.173  0.1875  1.2518 -0.1771
  753TMC3    O211137   2.143   0.093  13.593  0.2537  0.2247  1.0661
  754MPD2     C11138   0.722   3.513  13.140  0.2539 -0.1352  0.2883
  754MPD2    C111139   0.625   3.424  13.168 -0.2747  0.3226 -0.4691
  754MPD2    C211140   0.499   3.453  13.125 -0.5870  0.1460 -0.0570
  754MPD2    C311141   0.470   3.575  13.068  0.0168 -0.4092 -0.0259
  754MPD2    C411142   0.564   3.667  13.056 -0.3447 -0.1460  0.2598
  754MPD2    C511143   0.693   3.634  13.091 -0.1810  0.9168 -0.0421
  754MPD2     H11144   0.425   3.374  13.127 -1.6357  1.1057 -0.9087
  754MPD2    H111145   0.539   3.768  13.025  0.3835  0.7267  2.5178
  754MPD2    H211146   0.824   3.493  13.173 -0.0515 -0.0328  1.3069
  754MPD2    H311147   0.774   3.706  13.096 -0.9718  1.7295  1.0919
  754MPD2     N11148   0.334   3.606  13.028 -0.2703 -0.0464  0.1060
  754MPD2    H511149   0.321   3.701  12.994  0.9435  1.3719  3.5518
  754MPD2    N111150   0.670   3.304  13.232 -0.5258  0.0864 -0.0297
  754MPD2    H711151   0.771   3.290  13.234 -0.5032  0.3336  0.5942
  755MPD2     C11152   0.173   4.297  13.415 -0.3077  0.3803  0.1866
  755MPD2    C111153   0.067   4.227  13.469  1.1176 -0.4820 -1.0528
  755MPD2    C211154   0.017   4.117  13.403 -0.2591  0.3539  0.4055
  755MPD2    C311155   0.073   4.074  13.286 -0.3282 -0.4401 -0.9077
  755MPD2    C411156   0.173   4.146  13.234 -0.3333  0.0999 -0.4440
  755MPD2    C511157   0.213   4.261  13.289 -0.8896  0.0047  0.7240
  755MPD2     H11158   4.662   4.065  13.453  0.7081 -0.7507  0.8497
  755MPD2    H111159   0.216   4.111  13.141 -0.7532 -0.1584 -0.5396
  755MPD2    H211160   0.218   4.382  13.465  1.8338 -0.5760 -0.1247
  755MPD2    H311161   0.289   4.313  13.231 -0.5963 -1.5109 -0.2692
  755MPD2     N11162   0.041   3.953  13.221  0.8949 -0.1113  0.2595
  755MPD2    H511163   0.105   3.931  13.146  2.1012  1.3110  0.8744
  755MPD2    N111164   0.015   4.255  13.594 -0.4893  0.2494 -0.4298
  755MPD2    H711165   4.656   4.204  13.618  0.8386 -1.9275 -0.3758
  756MPD2     C11166   1.270   4.529   9.914  0.3296  0.1060  0.2827
  756MPD2    C111167   1.215   4.492  10.030 -0.4796 -0.1507  0.2808
  756MPD2    C211168   1.153   4.369  10.033 -0.0312  0.2085  0.4183
  756MPD2    C311169   1.138   4.289   9.921  0.2503 -0.6577 -0.3739
  756MPD2    C411170   1.204   4.329   9.805 -0.3101  0.1444  0.0107
  756MPD2    C511171   1.267   4.451   9.801  0.0599  0.4404 -0.1480
  756MPD2     H11172   1.096   4.343  10.121 -0.6158 -1.0742 -0.3344
  756MPD2    H111173   1.210   4.270   9.714  0.0777  1.7790 -1.0167
  756MPD2    H211174   1.320   4.624   9.905 -0.7576  0.3703 -2.9214
  756MPD2    H311175   1.320   4.487   9.713  0.0373  1.9834  0.4795
  756MPD2     N11176   1.057   4.173   9.922  0.0481  0.2855 -0.8471
  756MPD2    H511177   0.993   4.154   9.998  3.9478 -1.3973  2.0381
  756MPD2    N111178   1.210   4.570  10.148  0.1139 -0.1319 -0.2727
  756MPD2    H711179   1.169   4.515  10.222  2.4035 -1.6514 -0.1405
  757MPD2     C11180   0.340   3.805  10.455  0.4924 -0.6440  0.3079
  757MPD2    C111181   0.294   3.760  10.334 -0.0726  0.7295 -0.0691
  757MPD2    C211182   0.372   3.780  10.221 -0.6133  1.0248 -0.9349
  757MPD2    C311183   0.494   3.839  10.226 -0.7061 -0.0003 -0.6404
  757MPD2    C411184   0.539   3.880  10.352  0.3099 -0.5255 -0.0538
  757MPD2    C511185   0.459   3.867  10.459  0.1280  0.3474 -0.1993
  757MPD2     H11186   0.342   3.735  10.127 -0.7774 -0.3933 -0.2064
  757MPD2    H111187   0.632   3.935  10.359  0.2950 -0.7946  2.4366
  757MPD2    H211188   0.286   3.801  10.548 -1.0151 -0.7995 -0.5784
  757MPD2    H311189   0.482   3.916  10.553  1.3527  2.2518 -1.5121
  757MPD2     N11190   0.565   3.863  10.113  0.5352 -0.3562  0.7244
  757MPD2    H511191   0.535   3.819  10.026 -0.0539 -0.5780  1.0404
  757MPD2    N111192   0.165   3.693  10.335  0.1381 -0.3653 -0.2323
  757MPD2    H711193   0.133   3.661  10.426 -0.9601 -0.1947 -0.5563
  758MPD2     C11194   0.276   2.825  15.908 -0.0346 -0.5387 -0.3703
  758MPD2    C111195   0.376   2.767  15.982  0.5527 -0.3830  0.3175
  758MPD2    C211196   0.369   2.772  16.122  0.7369  0.0297  0.0369
  758MPD2    C311197   0.283   2.859  16.180 -0.0261  0.6752 -0.4996
  758MPD2    C411198   0.194   2.924  16.107 -0.0238 -0.0311 -0.1901
  758MPD2    C511199   0.183   2.898  15.972 -0.1494 -0.1213 -0.0058
  758MPD2     H11200   0.442   2.718  16.182  0.3790  1.1672  1.4826
  758MPD2    H111201   0.114   2.987  16.145 -0.2175 -0.2631 -0.2138
  758MPD2    H211202   0.277   2.817  15.800  0.0854  2.1660 -0.5847
  758MPD2    H311203   0.108   2.944  15.908  0.0884  0.4104  0.1013
  758MPD2     N11204   0.282   2.875  16.323  0.3368  0.2609 -0.1577
  758MPD2    H511205   0.201   2.923  16.360  0.4554  0.0106  0.4427
  758MPD2    N111206   0.478   2.707  15.910 -0.2555 -0.0645  0.6548
  758MPD2    H711207   0.484   2.725  15.810  0.3286  0.6230  0.8135
  759MPD2     C11208   4.351   2.161  10.633  0.2865  0.3433  0.2667
  759MPD2    C111209   4.362   2.023  10.638  0.4489 -0.2363  0.0740
  759MPD2    C211210   4.482   1.965  10.602  0.2754 -0.3255  0.1233
  759MPD2    C311211   4.596   2.050  10.574  0.7189 -0.8556  0.3783
  759MPD2    C411212   4.576   2.183  10.561  0.6279 -0.5128  0.0870
  759MPD2    C511213   4.453   2.239  10.586  0.3073  0.5314 -0.4582
  759MPD2     H11214   4.505   1.859  10.601  1.4504 -0.0898  1.5944
  759MPD2    H111215   4.648   2.256  10.527 -0.4939  0.0935 -0.9948
  759MPD2    H211216   4.260   2.214  10.659  0.5060  0.6928  0.3274
  759MPD2    H311217   4.447   2.345  10.567  0.2113  0.5707 -0.2152
  759MPD2     N11218   4.723   2.010  10.544 -0.1870  0.6022 -0.4015
  759MPD2    H511219   0.059   2.077  10.499  0.1423 -0.0124 -0.8634
  759MPD2    N111220   4.254   1.941  10.677 -0.6713 -0.4248  0.1996
  759MPD2    H711221   4.281   1.845  10.659 -1.1944 -0.6058  0.3732
  760MPD2     C11222   4.037   3.792  12.114  0.6615  0.2795 -0.0548
  760MPD2    C111223   4.145   3.798  12.029 -0.1191  0.6197  0.1064
  760MPD2    C211224   4.213   3.686  12.002 -0.4031  0.5912 -0.4003
  760MPD2    C311225   4.175   3.562  12.037  0.0184 -0.2022 -0.0863
  760MPD2    C411226   4.068   3.554  12.120 -0.1659  0.6074  0.7976
  760MPD2    C511227   4.004   3.666  12.159  0.2173 -0.0946  0.5601
  760MPD2     H11228   4.300   3.691  11.937  0.4167 -0.9798  0.5778
  760MPD2    H111229   4.021   3.462  12.152 -0.7753  0.7944  0.4512
  760MPD2    H211230   3.983   3.882  12.141 -2.4221 -1.5726 -0.0324
  760MPD2    H311231   3.917   3.664  12.223 -0.5689 -2.9080 -0.5642
  760MPD2     N11232   4.245   3.442  12.006  0.5954  0.3623  0.4488
  760MPD2    H511233   4.212   3.359  12.054 -2.7136  0.7610 -1.0788
  760MPD2    N111234   4.188   3.917  11.962  0.3749  0.5885 -1.2789
  760MPD2    H711235   4.274   3.934  11.912  0.4801  0.0876 -1.2644
  761MPD2     C11236   0.512   2.926  11.136  0.0305  0.2120  0.5059
  761MPD2    C111237   0.590   2.871  11.041 -0.3694 -0.3542  0.3132
  761MPD2    C211238   0.703   2.938  11.000 -0.7907  0.4079 -0.2563
  761MPD2    C311239   0.738   3.062  11.057  0.3254 -0.4119 -0.6488
  761MPD2    C411240   0.652   3.117  11.152 -0.0188  0.1190  0.1590
  761MPD2    C511241   0.538   3.049  11.186 -0.7591  0.2807 -0.3340
  761MPD2     H11242   0.772   2.888  10.932  1.1054  1.2498  1.0674
  761MPD2    H111243   0.672   3.205  11.211 -3.8022  0.1206  1.3955
  761MPD2    H211244   0.431   2.865  11.175 -0.1863 -0.3493 -0.8522
  761MPD2    H311245   0.470   3.100  11.253  0.1615  0.1723  0.6794
  761MPD2     N11246   0.859   3.130  11.031 -0.1223  0.5524 -0.0646
  761MPD2    H511247   0.854   3.227  11.059 -3.8615  0.8430 -1.6152
  761MPD2    N111248   0.557   2.739  11.007  0.2076 -0.5221 -0.5628
  761MPD2    H711249   0.493   2.698  11.074  2.2991 -0.6541  1.3548
  762MPD2     C11250   1.189   2.502  11.010  0.2923 -0.2105 -0.0518
  762MPD2    C111251   1.125   2.472  10.896 -0.0287  0.1793 -0.0209
  762MPD2    C211252   1.192   2.488  10.776 -0.0668 -0.1565  0.1477
  762MPD2    C311253   1.320   2.537  10.768  0.1515  0.4814 -0.1649
  762MPD2    C411254   1.383   2.564  10.885 -0.6836  0.1387 -0.4400
  762MPD2    C511255   1.318   2.549  11.003 -0.3280  0.3988 -0.0264
  762MPD2     H11256   1.128   2.466  10.691  1.1358  0.9567 -1.0385
  762MPD2    H111257   1.482   2.609  10.890 -0.7387  0.3585 -1.3924
  762MPD2    H211258   1.152   2.491  11.111  0.0200 -2.5481 -0.3993
  762MPD2    H311259   1.368   2.553  11.099 -3.2108 -0.2762  1.4989
  762MPD2     N11260   1.374   2.556  10.642 -0.1066 -0.3175 -0.1230
  762MPD2    H511261   1.324   2.502  10.572 -0.3943  0.8718 -0.8299
  762MPD2    N111262   0.994   2.425  10.878  0.2283 -0.0259  0.1210
  762MPD2    H711263   0.964   2.419  10.782  0.7703  0.4995 -0.0835
  763MPD2     C11264   2.797   3.141  16.537 -0.1297  0.2861  0.4161
  763MPD2    C111265   2.726   3.250  16.492 -0.5618  0.4131  0.3681
  763MPD2    C211266   2.757   3.379  16.549 -0.4562 -0.2136  0.0289
  763MPD2    C311267   2.851   3.393  16.650 -0.0432 -0.2289  0.1507
  763MPD2    C411268   2.928   3.282  16.689  0.3358 -0.3712  0.0028
  763MPD2    C511269   2.899   3.156  16.631  0.3740 -1.0291 -0.1802
  763MPD2     H11270   2.689   3.451  16.507  1.0064  1.0154 -0.2517
  763MPD2    H111271   2.991   3.286  16.777 -1.1442 -0.7006  1.0879
  763MPD2    H211272   2.782   3.041  16.497 -1.1582 -0.1019  1.7833
  763MPD2    H311273   2.950   3.066  16.663  0.8941 -1.1991 -1.4913
  763MPD2     N11274   2.883   3.509  16.724 -0.1150  0.3552  0.6987
  763MPD2    H511275   2.965   3.515  16.783 -0.8037 -1.4958  1.8285
  763MPD2    N111276   2.628   3.233  16.391  0.0856 -0.6027  0.2002
  763MPD2    H711277   2.592   3.315  16.344  0.4273 -0.0790  0.8523
  764MPD2     C11278   1.088   0.532  17.570 -0.2009 -0.3969 -0.5290
  764MPD2    C111279   1.003   0.509  17.465  0.4526  0.2252  0.6093
  764MPD2    C211280   0.903   0.411  17.474 -0.1908  0.2102  0.1966
  764MPD2    C311281   0.898   0.335  17.592 -0.5866 -0.1361  0.3093
  764MPD2    C411282   0.979   0.375  17.697  0.3794  0.5577 -0.2370
  764MPD2    C511283   1.072   0.473  17.685  0.0022  0.4204  0.4353
  764MPD2     H11284   0.839   0.389  17.389 -0.1290 -1.2310  0.5135
  764MPD2    H111285   0.967   0.320   0.084  0.0256  0.7816 -0.1476
  764MPD2    H211286   1.165   0.609  17.572  0.9801 -1.5702 -1.2790
  764MPD2    H311287   1.136   0.493   0.064  3.8180 -1.9165 -1.8820
  764MPD2     N11288   0.815   0.222  17.589 -0.1499 -0.7426  0.0787
  764MPD2    H511289   0.735   0.209  17.528 -0.1526  0.4131 -0.1710
  764MPD2    N111290   1.011   0.578  17.346  0.1782 -0.3667  0.3654
  764MPD2    H711291   0.952   0.537  17.274  0.0245 -1.0317  0.8712
  765MPD2     C11292   0.528   2.869  15.250  0.1905 -0.1679  0.1911
  765MPD2    C111293   0.587   2.905  15.366 -0.2293 -0.4379 -0.8751
  765MPD2    C211294   0.707   2.846  15.405 -0.5417 -0.3962  0.4215
  765MPD2    C311295   0.770   2.749  15.324  0.2020  0.2635 -0.7490
  765MPD2    C411296   0.701   2.711  15.207  0.4413 -0.7010  0.7104
  765MPD2    C511297   0.588   2.770  15.173  0.0641 -0.3854 -0.3136
  765MPD2     H11298   0.749   2.856  15.504  1.5491  1.2339 -0.6172
  765MPD2    H111299   0.739   2.644  15.131 -0.1115 -0.0150 -0.1635
  765MPD2    H211300   0.445   2.925  15.209 -0.6356 -0.9311  0.8521
  765MPD2    H311301   0.545   2.743  15.077 -0.2033 -4.0864  0.8337
  765MPD2     N11302   0.891   2.692  15.371  0.0007  0.4355  0.2530
  765MPD2    H511303   0.932   2.737  15.452  0.7803  0.5545 -0.2102
  765MPD2    N111304   0.513   2.990  15.453  0.7631 -0.5395  0.1554
  765MPD2    H711305   0.416   3.000  15.424  1.1423  1.2698 -0.4916
  766MPD2     C11306   4.590   3.027  15.413  0.5011  0.1105  0.2125
  766MPD2    C111307   0.001   3.000  15.401  0.8085  0.5836 -0.0968
  766MPD2    C211308   0.039   2.949  15.277  0.4199  0.4040 -0.5828
  766MPD2    C311309   4.679   2.902  15.178 -0.6399  0.6490  0.0227
  766MPD2    C411310   4.544   2.922  15.197  0.1788  0.1613  0.1825
  766MPD2    C511311   4.507   2.986  15.318  0.0664  0.4653  0.1519
  766MPD2     H11312   0.146   2.947  15.264  0.4815  2.5137 -0.4629
  766MPD2    H111313   4.472   2.887  15.124  0.4847 -0.9853  0.4321
  766MPD2    H211314   4.552   3.058  15.510 -0.3960  0.0451 -0.1159
  766MPD2    H311315   4.401   2.999  15.336 -0.1756 -0.2834 -0.7727
  766MPD2     N11316   4.725   2.846  15.054 -0.1299 -0.7419  0.1301
  766MPD2    H511317   4.662   2.823  14.979  0.6041 -1.5090 -0.2518
  766MPD2    N111318   0.106   3.049  15.485 -0.0261 -0.0865  1.0762
  766MPD2    H711319   0.201   3.039  15.450 -0.3735  1.1037 -0.1977
  767MPD2     C11320   4.344   3.175  15.045  0.9691 -0.4301 -1.1078
  767MPD2    C111321   4.473   3.172  14.986  0.3080  0.1203 -0.4779
  767MPD2    C211322   4.506   3.102  14.871 -0.0776 -0.3555 -0.1622
  767MPD2    C311323   4.401   3.032  14.807  0.3628  0.4703  0.5468
  767MPD2    C411324   4.278   3.033  14.866  0.4706  0.3436 -0.0586
  767MPD2    C511325   4.241   3.108  14.974 -0.6141 -0.8826 -0.7122
  767MPD2     H11326   4.597   3.112  14.814 -0.4335  2.5716 -0.2188
  767MPD2    H111327   4.203   2.963  14.832  1.7087 -1.1012  0.1704
  767MPD2    H211328   4.314   3.230  15.133 -0.2197  0.2425 -1.9311
  767MPD2    H311329   4.141   3.104  15.016  0.8282  1.1767  2.8866
  767MPD2     N11330   4.436   2.953  14.695 -0.1086 -0.8147 -0.3986
  767MPD2    H511331   4.532   2.955  14.659  0.2517 -0.6762  0.5839
  767MPD2    N111332   4.566   3.256  15.053 -0.3832 -0.0739  0.1313
  767MPD2    H711333   4.547   3.318  15.132  0.9864 -1.2108  1.3607
  768MPD2     C11334   0.898   1.272  10.936  0.5385  0.2728  0.7392
  768MPD2    C111335   0.885   1.239  11.071  0.2490  0.2823  0.2914
  768MPD2    C211336   0.999   1.256  11.144 -0.1628 -0.3836 -0.3635
  768MPD2    C311337   1.115   1.313  11.106  0.3228  0.0294  0.1319
  768MPD2    C411338   1.124   1.345  10.975  0.0589 -0.1319 -0.0005
  768MPD2    C511339   1.013   1.327  10.891 -0.2451 -0.4189 -0.2611
  768MPD2     H11340   0.995   1.237  11.250 -1.6923  3.4292  0.2653
  768MPD2    H111341   1.205   1.403  10.932  0.1298 -0.3448 -0.1495
  768MPD2    H211342   0.816   1.262  10.866  1.8136  1.3361 -0.9198
  768MPD2    H311343   1.023   1.346  10.785 -1.7815  0.9812 -0.1527
  768MPD2     N11344   1.221   1.338  11.195  0.2525  0.0917 -0.1845
  768MPD2    H511345   1.292   1.388  11.142 -0.4712  0.0268 -1.2070
  768MPD2    N111346   0.764   1.194  11.134  0.7625 -0.4842  0.5245
  768MPD2    H711347   0.771   1.167  11.231 -2.5256 -0.6811  0.7073
  769MPD2     C11348   1.585   4.607  14.726  0.1738 -0.1161  0.7706
  769MPD2    C111349   1.477   4.630  14.808  0.2995 -0.4048 -0.4711
  769MPD2    C211350   1.498   4.663  14.942 -0.0179 -0.0297  0.1790
  769MPD2    C311351   1.627   4.662  14.998  0.3572 -0.3324 -1.0746
  769MPD2    C411352   1.735   4.649  14.911 -0.9862 -0.4435 -0.6596
  769MPD2    C511353   1.711   4.626  14.780  0.2829 -0.9451  0.8687
  769MPD2     H11354   1.405   4.682  14.995  0.6744 -1.2222  1.8292
  769MPD2    H111355   1.837   4.639  14.947 -1.1563 -0.3832 -0.1496
  769MPD2    H211356   1.573   4.582  14.622 -0.4727  2.9089  0.1132
  769MPD2    H311357   1.800   4.624  14.718 -0.5350  0.3327 -0.3332
  769MPD2     N11358   1.643   4.693  15.138  0.4267 -0.3984  0.6634
  769MPD2    H511359   1.559   4.711  15.193 -0.7785 -2.5585 -0.4780
  769MPD2    N111360   1.350   4.606  14.752  0.4164 -0.8176 -0.2014
  769MPD2    H711361   1.346   4.549  14.669 -1.0589  0.0624 -0.7349
  770MPD2     C11362   0.915   4.180  15.515  0.4476 -0.2663  0.4423
  770MPD2    C111363   0.972   4.098  15.417  0.1274  1.1747 -0.8269
  770MPD2    C211364   0.986   4.158  15.293 -0.4598 -0.1571 -1.2210
  770MPD2    C311365   0.955   4.284  15.259 -0.0934  0.0235  0.5388
  770MPD2    C411366   0.895   4.357  15.361 -0.2243  0.7570 -0.0455
  770MPD2    C511367   0.875   4.302  15.488  0.3319 -0.1727  0.1414
  770MPD2     H11368   1.008   4.096  15.206 -0.3168  0.2283 -1.4611
  770MPD2    H111369   0.843   4.451  15.343  1.4523  1.8953  1.1193
  770MPD2    H211370   0.891   4.149  15.616 -2.8538 -0.3938 -0.3941
  770MPD2    H311371   0.818   4.361  15.559 -1.8481 -0.7224 -1.1633
  770MPD2     N11372   0.970   4.328  15.127 -0.1484  0.2992 -0.1850
  770MPD2    H511373   1.024   4.270  15.064  0.3364  2.0087 -1.3467
  770MPD2    N111374   1.005   3.962  15.444  0.1044 -0.5460  0.3412
  770MPD2    H711375   0.970   3.920  15.529 -2.0131  0.7201  0.0905
  771MPD2     C11376   2.688   2.056  14.093  0.2475  0.5498 -0.1930
  771MPD2    C111377   2.637   2.181  14.061 -0.1514  0.5245  0.2836
  771MPD2    C211378   2.569   2.194  13.934 -0.2381  1.0212  0.2079
  771MPD2    C311379   2.563   2.086  13.854 -0.6070  0.3003 -0.4217
  771MPD2    C411380   2.613   1.961  13.893  0.5683 -0.0875  0.0408
  771MPD2    C511381   2.677   1.946  14.017 -0.8477  0.4012 -0.0431
  771MPD2     H11382   2.530   2.291  13.905 -0.2952  1.2234  0.9384
  771MPD2    H111383   2.616   1.871  13.832  1.6545 -0.9063  1.3033
  771MPD2    H211384   2.739   2.031  14.185 -1.7071  1.0994  1.0304
  771MPD2    H311385   2.710   1.846  14.045 -0.2213  0.4732 -0.5457
  771MPD2     N11386   2.498   2.101  13.729  0.3089  0.3278 -0.2706
  771MPD2    H511387   2.455   2.192  13.713 -0.6944  0.1782  1.5788
  771MPD2    N111388   2.649   2.294  14.143  0.3297  0.6086  0.3990
  771MPD2    H711389   2.598   2.378  14.116  0.6365  0.4764 -0.5783
  772MPD2     C11390   2.416   2.807  13.946  0.3550 -0.6223 -0.4564
  772MPD2    C111391   2.373   2.762  14.068 -0.1024  0.2684  0.4586
  772MPD2    C211392   2.240   2.755  14.088  0.1913  0.7924  0.1260
  772MPD2    C311393   2.146   2.790  13.995  0.4843 -0.5670  0.5238
  772MPD2    C411394   2.195   2.836  13.878 -0.3064 -0.3160  0.1115
  772MPD2    C511395   2.329   2.847  13.850 -0.2332  0.2999  0.4338
  772MPD2     H11396   2.195   2.709  14.175 -0.9903  0.4906 -0.6429
  772MPD2    H111397   2.134   2.884  13.803 -0.6653 -0.9132  0.0208
  772MPD2    H211398   2.522   2.822  13.928  0.1357 -0.3032 -1.4535
  772MPD2    H311399   2.368   2.890  13.759  0.9088 -1.0613  0.2846
  772MPD2     N11400   2.003   2.768  14.003 -0.1589  0.1805 -0.6261
  772MPD2    H511401   1.947   2.787  13.921  0.3214  4.4752  0.0407
  772MPD2    N111402   2.453   2.727  14.184  0.0162 -0.4645  0.8325
  772MPD2    H711403   2.399   2.690  14.261  0.7788  0.1672  1.6660
  773MPD2     C11404   1.916   3.581  17.526 -0.0153 -0.2134 -0.1208
  773MPD2    C111405   1.794   3.531  17.556 -0.0706 -0.2399 -0.2192
  773MPD2    C211406   1.786   3.410  17.629 -0.7824 -0.9718 -0.1437
  773MPD2    C311407   1.897   3.351  17.691  0.6310  0.1251  0.0620
  773MPD2    C411408   2.016   3.410  17.668  0.1596 -0.5321 -0.4401
  773MPD2    C511409   2.026   3.522  17.585  0.1293 -0.0713  1.1963
  773MPD2     H11410   1.686   3.373  17.647 -0.7431 -1.5844 -1.1983
  773MPD2    H111411   2.117   3.383  17.696 -0.1883  0.9090  2.1758
  773MPD2    H211412   1.932   3.664  17.458  1.2179 -0.6198 -0.3205
  773MPD2    H311413   2.125   3.562  17.563 -0.6837  1.6388  0.6303
  773MPD2     N11414   1.885   3.239   0.063 -0.3639 -0.2135  0.1710
  773MPD2    H511415   1.799   3.185   0.053 -1.8432  2.1618  0.0137
  773MPD2    N111416   1.667   3.596  17.528  0.0340  0.2487 -0.1467
  773MPD2    H711417   1.582   3.541  17.534 -0.5292  1.1289 -0.1381
  774MPD2     C11418   0.078   2.622  13.707 -0.1514  0.4190  0.2025
  774MPD2    C111419   0.213   2.630  13.682 -0.2056  0.4595  0.0517
  774MPD2    C211420   0.243   2.731  13.590 -0.0072  0.4826  0.2448
  774MPD2    C311421   0.153   2.816  13.528  0.2997  0.2425  0.5246
  774MPD2    C411422   0.025   2.815  13.575  0.1941  0.9917  0.0163
  774MPD2    C511423   4.715   2.707  13.653 -0.1565  0.3698 -0.0031
  774MPD2     H11424   0.347   2.738  13.558  0.1584 -0.7961  0.5090
  774MPD2    H111425   4.676   2.878  13.529 -0.2928  0.5306  0.1743
  774MPD2    H211426   0.045   2.541  13.771 -1.3909 -0.7259 -1.8837
  774MPD2    H311427   4.609   2.696  13.674 -0.4295  1.7621 -0.7033
  774MPD2     N11428   0.204   2.912  13.432  0.3448  0.9293  0.9129
  774MPD2    H511429   0.298   2.900  13.397 -0.7603  0.3676 -1.8478
  774MPD2    N111430   0.302   2.572  13.765  0.4818  0.7398 -0.1964
  774MPD2    H711431   0.263   2.533  13.850 -1.2678  0.1219 -1.3022
  775MPD2     C11432   1.560   4.330  15.408 -0.2511  0.0957 -1.1357
  775MPD2    C111433   1.617   4.377  15.530 -0.0770  0.3205  0.2833
  775MPD2    C211434   1.733   4.453  15.513 -0.0798  0.2638  0.4690
  775MPD2    C311435   1.801   4.454  15.389 -0.9076 -0.2789  0.5968
  775MPD2    C411436   1.756   4.391  15.280 -0.6174  0.5098 -0.1732
  775MPD2    C511437   1.630   4.331  15.290  0.2626  0.9181  0.2395
  775MPD2     H11438   1.778   4.499  15.600  0.2551  0.1811  0.3391
  775MPD2    H111439   1.813   4.372  15.190 -1.4976  0.3957 -0.7073
  775MPD2    H211440   1.458   4.295  15.405 -0.9820  1.8332  3.3860
  775MPD2    H311441   1.585   4.282  15.205 -2.2521  0.4175  1.8472
  775MPD2     N11442   1.921   4.532  15.370 -0.1342  0.8371 -0.4336
  775MPD2    H511443   1.966   4.525  15.279  0.2262 -0.6183 -0.1491
  775MPD2    N111444   1.527   4.384  15.640 -0.5201 -0.3031 -0.5415
  775MPD2    H711445   1.435   4.347  15.623  0.2495 -1.0026 -3.1868
  776MPD2     C11446   1.490   4.250  11.864 -0.0513  0.6985  0.6802
  776MPD2    C111447   1.359   4.298  11.840  0.2536  0.1417  0.8688
  776MPD2    C211448   1.330   4.432  11.852 -0.0813 -0.4962  0.0015
  776MPD2    C311449   1.423   4.526  11.902 -0.1413 -0.4723  0.3045
  776MPD2    C411450   1.550   4.473  11.921  0.2858 -0.0274 -0.5624
  776MPD2    C511451   1.584   4.341  11.903 -0.0246  0.0557 -0.0242
  776MPD2     H11452   1.229   4.467  11.831  0.4947 -0.1395 -2.1218
  776MPD2    H111453   1.638   4.530  11.948  1.1150 -0.5623 -2.1685
  776MPD2    H211454   1.515   4.144  11.864 -0.2201  0.6581  0.0667
  776MPD2    H311455   1.689   4.313  11.907  0.8749  3.0923 -2.2127
  776MPD2     N11456   1.408   4.664  11.921 -0.1702  0.0991  0.1051
  776MPD2    H511457   1.493   4.709  11.953  0.5697 -1.1498 -0.0952
  776MPD2    N111458   1.258   4.197  11.802 -0.9321  0.5486 -0.9922
  776MPD2    H711459   1.287   4.101  11.790 -1.6826  0.4898 -2.3499
  777MPD2     C11460   1.639   2.920   1.183 -0.1416  0.3678  0.4877
  777MPD2    C111461   1.751   2.870   1.240 -0.2878  0.3823  0.1160
  777MPD2    C211462   1.788   2.740   1.202  0.2549 -0.3892  0.2031
  777MPD2    C311463   1.714   2.664   1.120  0.3342  0.5133 -0.3447
  777MPD2    C411464   1.601   2.720   1.063 -0.3898 -0.0127  0.2663
  777MPD2    C511465   1.565   2.845   1.093  0.1789 -0.8204  0.0843
  777MPD2     H11466   1.870   2.690   1.252 -0.0965 -2.2074 -1.0244
  777MPD2    H111467   1.537   2.667   0.993 -0.3324 -0.0048  0.2085
  777MPD2    H211468   1.616   3.025   1.200 -2.6345  0.0544 -0.9106
  777MPD2    H311469   1.479   2.890   1.046  1.3550  3.1193  1.7115
  777MPD2     N11470   1.759   2.529   1.104 -0.5524 -0.6676  0.7331
  777MPD2    H511471   1.841   2.494   1.151  0.8598 -1.3381 -2.2126
  777MPD2    N111472   1.826   2.949   1.326 -0.8081  0.3642  0.3085
  777MPD2    H711473   1.779   3.035   1.352 -1.4373  0.2559 -0.4991
  778MPD2     C11474   2.513   2.458  15.580 -0.7885 -0.0514  0.3988
  778MPD2    C111475   2.477   2.375  15.472 -1.3067 -0.4353 -0.0916
  778MPD2    C211476   2.521   2.400  15.345 -0.3684  0.1189  0.6096
  778MPD2    C311477   2.603   2.506  15.322  0.3693  0.3571  0.2583
  778MPD2    C411478   2.640   2.589  15.426 -1.0158 -0.2939 -0.3270
  778MPD2    C511479   2.603   2.560  15.553  1.1914  0.8083  0.2217
  778MPD2     H11480   2.491   2.330  15.268 -0.7828  1.2002 -0.2070
  778MPD2    H111481   2.700   2.676  15.405 -1.0167 -0.4115 -0.8044
  778MPD2    H211482   2.483   2.443  15.683  0.5329 -2.4596  0.4305
  778MPD2    H311483   2.624   2.626  15.637  0.5283 -0.5126  1.4235
  778MPD2     N11484   2.649   2.530  15.188 -0.2300  0.0645  0.2524
  778MPD2    H511485   2.620   2.465  15.115  1.0792  0.4552 -0.6013
  778MPD2    N111486   2.387   2.271  15.489 -0.4845  0.0660 -0.3058
  778MPD2    H711487   2.346   2.234  15.404 -0.7693 -1.3911  0.4699
  779MPD2     C11488   2.635   1.339  14.118  0.1088  0.2009 -0.1415
  779MPD2    C111489   2.622   1.271  14.244 -0.4254 -0.5100  0.1830
  779MPD2    C211490   2.621   1.354  14.355 -0.3902  0.1536 -0.2260
  779MPD2    C311491   2.623   1.494  14.347 -0.6113 -0.7401 -0.4953
  779MPD2    C411492   2.631   1.560  14.221 -0.0851  0.6689 -0.1411
  779MPD2    C511493   2.633   1.477  14.114  0.2087  0.2475  0.1680
  779MPD2     H11494   2.623   1.300  14.449  0.1675 -0.4524 -0.5824
  779MPD2    H111495   2.626   1.667  14.209 -1.2648  0.4618 -1.4298
  779MPD2    H211496   2.640   1.278  14.029  2.3386 -1.0331  0.8085
  779MPD2    H311497   2.641   1.523  14.017 -0.9267  3.0128  1.3783
  779MPD2     N11498   2.631   1.564  14.465  0.0498  0.2883  0.5452
  779MPD2    H511499   2.591   1.522  14.548  0.9545 -0.2529  0.7095
  779MPD2    N111500   2.595   1.131  14.264  0.3910  0.4346 -0.1661
  779MPD2    H711501   2.581   1.096  14.358  0.5783 -0.0353 -0.3134
  780MPD2     C11502   0.594   0.847  17.589 -0.1489 -0.4182 -0.5901
  780MPD2    C111503   0.705   0.772  17.611 -0.9177 -0.0240 -0.0505
  780MPD2    C211504   0.827   0.823  17.593 -1.0720 -0.4198  0.0837
  780MPD2    C311505   0.850   0.957  17.568  0.1387  0.9203 -0.2086
  780MPD2    C411506   0.742   1.039  17.563  0.0527  0.6372  0.1931
  780MPD2    C511507   0.613   0.981  17.566  0.7523  0.2406 -0.4501
  780MPD2     H11508   0.915   0.760  17.602 -1.8667 -1.5337 -0.1000
  780MPD2    H111509   0.745   1.143  17.531 -0.8048  0.1957 -1.3247
  780MPD2    H211510   0.493   0.813  17.606  0.0489 -0.9435 -0.4645
  780MPD2    H311511   0.524   1.043  17.562 -0.3530 -1.1394  3.5335
  780MPD2     N11512   0.984   1.006  17.557 -0.3835 -1.1539 -0.0817
  780MPD2    H511513   1.066   0.946  17.561  1.6761  1.7034 -0.0662
  780MPD2    N111514   0.699   0.639  17.654 -0.1780 -0.2122 -0.0575
  780MPD2    H711515   0.791   0.600  17.669 -1.1219 -1.8549  1.6249
  781MPD2     C11516   3.669   2.999  12.170 -0.4191  0.2629  0.3631
  781MPD2    C111517   3.682   2.860  12.183  0.4686  0.9079 -0.1250
  781MPD2    C211518   3.754   2.791  12.090 -0.2675  0.6134 -0.5630
  781MPD2    C311519   3.802   2.857  11.973 -0.1990 -0.5130  0.2248
  781MPD2    C411520   3.791   2.992  11.967  0.3118  0.0162  0.3287
  781MPD2    C511521   3.727   3.059  12.063 -0.4109 -0.5896  0.3340
  781MPD2     H11522   3.763   2.683  12.094 -0.7467  0.6872  2.6118
  781MPD2    H111523   3.840   3.040  11.883 -1.9603  3.7495  1.1704
  781MPD2    H211524   3.608   3.062  12.235  2.3360  2.8731  0.4404
  781MPD2    H311525   3.713   3.166  12.064  1.7141 -0.3071  0.1381
  781MPD2     N11526   3.871   2.789  11.870  0.3937  0.0482  0.1414
  781MPD2    H511527   3.919   2.850  11.805  0.6072 -1.5312 -1.1828
  781MPD2    N111528   3.625   2.787  12.292 -0.3348 -0.0184 -0.3922
  781MPD2    H711529   3.650   2.689  12.293 -0.1475  0.0224 -2.6447
  782MPD2     C11530   1.775   4.030  10.247 -1.1527  0.3194 -0.2481
  782MPD2    C111531   1.790   3.921  10.325  0.0978  0.2398 -0.2648
  782MPD2    C211532   1.800   3.943  10.460  0.4609 -0.5589  1.1041
  782MPD2    C311533   1.813   4.066  10.516  0.1708 -0.0331  0.0897
  782MPD2    C411534   1.800   4.175  10.431 -0.0259 -0.2684  0.0026
  782MPD2    C511535   1.778   4.155  10.296 -0.3015 -0.3018  0.1264
  782MPD2     H11536   1.829   3.860  10.524  0.0121 -0.4465  1.4571
  782MPD2    H111537   1.813   4.274  10.474 -0.3276 -0.9612  1.7001
  782MPD2    H211538   1.757   4.017  10.141 -1.2818 -1.2738 -0.0354
  782MPD2    H311539   1.769   4.240  10.230  2.3773  0.3834  0.6677
  782MPD2     N11540   1.838   4.088  10.653 -0.2604  0.0530  0.1961
  782MPD2    H511541   1.858   4.184  10.681  0.2419 -0.0063  0.0450
  782MPD2    N111542   1.787   3.785  10.286 -0.5304 -0.4440 -0.4723
  782MPD2    H711543   1.830   3.725  10.356  0.0975  1.7595  1.0414
  783MPD2     C11544   1.372   2.991  10.439  0.6633 -0.2520 -0.0079
  783MPD2    C111545   1.395   3.112  10.500  0.2192 -0.0086 -0.5212
  783MPD2    C211546   1.474   3.203  10.431 -1.2197  0.4435 -0.0020
  783MPD2    C311547   1.524   3.180  10.300 -0.0341  0.1944 -0.6681
  783MPD2    C411548   1.511   3.048  10.256 -0.5900  0.3609 -0.0627
  783MPD2    C511549   1.437   2.956  10.326 -0.4519 -0.2041  0.3357
  783MPD2     H11550   1.510   3.298  10.470 -1.1832 -0.7294  2.8099
  783MPD2    H111551   1.558   3.010  10.166 -2.6098 -0.0323 -0.9395
  783MPD2    H211552   1.308   2.919  10.490  0.3461  1.8800  2.6366
  783MPD2    H311553   1.410   2.857  10.291  0.1379 -0.5878  0.9725
  783MPD2     N11554   1.600   3.285  10.242 -0.0753  0.3379 -0.3383
  783MPD2    H511555   1.597   3.370  10.297 -1.1960 -0.2203  0.4756
  783MPD2    N111556   1.335   3.139  10.629 -0.1180 -0.2746  0.1778
  783MPD2    H711557   1.279   3.061  10.661  1.7742 -1.2339  1.1535
  784MPD2     C11558   0.312   3.996   0.670  0.1801  0.3382  0.2151
  784MPD2    C111559   0.266   4.090   0.757 -0.5064 -0.0822  0.5787
  784MPD2    C211560   0.176   4.182   0.700 -0.0062 -0.2523  0.3126
  784MPD2    C311561   0.131   4.169   0.568 -0.5248 -0.0782  0.0353
  784MPD2    C411562   0.173   4.064   0.487  0.4178 -0.5258  0.1747
  784MPD2    C511563   0.264   3.978   0.538  0.0637  0.2777  0.2151
  784MPD2     H11564   0.146   4.271   0.755 -0.6797  0.4554 -1.2133
  784MPD2    H111565   0.137   4.043   0.386  1.3644  2.5943 -0.8018
  784MPD2    H211566   0.384   3.921   0.703 -0.6258 -1.7766 -2.8969
  784MPD2    H311567   0.308   3.901   0.476  2.0821 -0.5559  2.7199
  784MPD2     N11568   0.042   4.265   0.527  1.0982 -0.7595  0.5954
  784MPD2    H511569   0.010   4.331   0.597 -0.6813 -0.9881 -0.0138
  784MPD2    N111570   0.312   4.112   0.896  0.1810 -0.0277  0.1131
  784MPD2    H711571   0.276   4.197   0.939 -0.5196 -2.7442  4.8747
  785MPD2     C11572   4.081   2.598  11.218 -0.7897 -0.3031  0.1736
  785MPD2    C111573   3.959   2.639  11.269 -0.4569 -0.0340 -0.4793
  785MPD2    C211574   3.851   2.556  11.257 -0.6218 -0.0150  0.0637
  785MPD2    C311575   3.867   2.437  11.187 -0.6542 -0.3362  0.8615
  785MPD2    C411576   3.988   2.399  11.134 -0.5813  0.0085  0.1059
  785MPD2    C511577   4.094   2.485  11.145 -0.3060  0.5335  0.0299
  785MPD2     H11578   3.749   2.575  11.288  0.5800  4.4673  1.1781
  785MPD2    H111579   4.009   2.303  11.089 -1.0727  0.0278 -0.1597
  785MPD2    H211580   4.169   2.661  11.220  0.8216 -2.6163  2.0948
  785MPD2    H311581   4.189   2.480  11.093 -0.8710  1.5555 -1.0939
  785MPD2     N11582   3.755   2.352  11.184  0.1140  0.3156 -0.2445
  785MPD2    H511583   3.673   2.375  11.240 -0.9066 -0.4044 -1.4316
  785MPD2    N111584   3.945   2.756  11.333  0.4467  0.4045  0.3157
  785MPD2    H711585   4.016   2.824  11.307  0.1525  1.0385  1.1627
  786MPD2     C11586   2.360   0.511  15.000  0.8079  0.3432 -0.4354
  786MPD2    C111587   2.413   0.385  15.019 -0.4138  0.6659 -0.4955
  786MPD2    C211588   2.491   0.365  15.133  0.0165 -0.0424 -0.0907
  786MPD2    C311589   2.508   0.468  15.228 -0.1642  0.1283  0.0738
  786MPD2    C411590   2.462   0.597  15.203  0.3968  0.2113 -0.2419
  786MPD2    C511591   2.389   0.614  15.087 -1.5734 -0.2375 -0.3755
  786MPD2     H11592   2.547   0.272  15.139  1.6971  0.9521 -0.3572
  786MPD2    H111593   2.495   0.675  15.270 -0.7090 -1.7713  2.6471
  786MPD2    H211594   2.286   0.526  14.921 -1.3899  0.1274  1.5772
  786MPD2    H311595   2.351   0.709  15.051  0.0609  0.3943 -0.4127
  786MPD2     N11596   2.577   0.450  15.352  0.0601 -0.0667 -0.4307
  786MPD2    H511597   2.590   0.528  15.415  0.8311 -1.6907  1.4554
  786MPD2    N111598   2.415   0.279  14.925  0.4290  0.3037 -0.7614
  786MPD2    H711599   2.478   0.202  14.942 -0.2305  0.1184  0.7945
  787MPD2     C11600   2.804   0.004  15.094 -1.2688 -0.3154  0.4003
  787MPD2    C111601   2.788   4.642  14.989 -0.7193 -0.2089  0.5156
  787MPD2    C211602   2.867   4.528  14.982  0.1932 -0.0583  0.1566
  787MPD2    C311603   2.964   4.506  15.081  0.5518  0.0478 -0.0435
  787MPD2    C411604   2.970   4.590  15.188 -0.4138 -0.1308  0.0886
  787MPD2    C511605   2.894   4.703  15.191  0.0186 -0.0959  0.6022
  787MPD2     H11606   2.858   4.460  14.898  1.5613  0.4560 -0.3919
  787MPD2    H111607   3.032   4.586  15.277  1.0143 -0.5864 -0.9339
  787MPD2    H211608   2.749   0.097  15.105 -1.5222  0.2828 -5.8748
  787MPD2    H311609   2.901   0.049  15.272 -3.7490  0.1493  0.7220
  787MPD2     N11610   3.046   4.396  15.064 -0.5074  0.9978  0.1212
  787MPD2    H511611   3.030   4.329  14.989  0.0280 -0.0528  0.9327
  787MPD2    N111612   2.702   4.685  14.885 -0.4030 -0.6094 -0.2745
  787MPD2    H711613   2.673   0.056  14.875  0.2430 -0.4466 -0.5115
  788MPD2     C11614   0.394   3.145   1.285  0.2475  0.0601  0.5629
  788MPD2    C111615   0.405   3.092   1.154 -0.4138 -0.1054 -0.0992
  788MPD2    C211616   0.420   3.170   1.041  0.0031 -0.2141 -0.0333
  788MPD2    C311617   0.429   3.305   1.058  0.6328 -0.1177  0.2275
  788MPD2    C411618   0.405   3.355   1.186  0.3861 -0.2646  0.0729
  788MPD2    C511619   0.398   3.281   1.291  0.1122  0.0660  0.0149
  788MPD2     H11620   0.432   3.119   0.947 -0.0548  1.2995 -0.8596
  788MPD2    H111621   0.408   3.462   1.201 -0.1643 -0.4858  1.7418
  788MPD2    H211622   0.371   3.092   1.376 -0.5000 -1.8852 -0.7539
  788MPD2    H311623   0.381   3.336   1.384  0.6205  0.3970 -0.0882
  788MPD2     N11624   0.448   3.401   0.954 -0.1251 -0.3423 -0.4894
  788MPD2    H511625   0.427   3.498   0.971 -2.1927 -0.6290 -1.3298
  788MPD2    N111626   0.398   2.951   1.126  0.4558 -0.6344 -0.0824
  788MPD2    H711627   0.392   2.920   1.029 -2.1076  2.3619 -0.9073
  789MPD2     C11628   0.488   2.427  16.795 -0.1217 -0.0311  0.4609
  789MPD2    C111629   0.398   2.386  16.698 -0.4060  0.6780 -0.2950
  789MPD2    C211630   0.279   2.463  16.682  0.7080 -0.4448 -0.0740
  789MPD2    C311631   0.255   2.565  16.774 -0.0616 -0.0061  0.0731
  789MPD2    C411632   0.343   2.587  16.872 -0.4852 -0.6570  0.0631
  789MPD2    C511633   0.461   2.524  16.892  0.0823  0.9023  0.5537
  789MPD2     H11634   0.212   2.434  16.602 -0.4894 -1.0799  1.1828
  789MPD2    H111635   0.319   2.667  16.940 -0.0744 -0.2601 -0.2620
  789MPD2    H211636   0.573   2.364  16.818 -2.7137 -3.1870  1.3597
  789MPD2    H311637   0.538   2.542  16.965  1.1635  0.0403 -0.3625
  789MPD2     N11638   0.143   2.649  16.763 -0.3256  0.6922 -0.4210
  789MPD2    H511639   0.130   2.718  16.837  0.1866  0.8912 -0.5139
  789MPD2    N111640   0.417   2.280  16.603 -0.5083  0.0969 -0.3490
  789MPD2    H711641   0.349   2.276  16.529 -1.5304  0.2910  0.5798
  790MPD2     C11642   1.308   0.604  12.761  0.3045  0.3068  0.2085
  790MPD2    C111643   1.318   0.568  12.891 -0.5233  0.3133  0.1137
  790MPD2    C211644   1.233   0.476  12.953  0.2061  0.0290  0.1981
  790MPD2    C311645   1.134   0.415  12.873 -0.6158  0.2341 -0.4421
  790MPD2    C411646   1.141   0.444  12.736 -0.1254  0.1875 -0.7785
  790MPD2    C511647   1.235   0.527  12.683 -0.4003 -0.1657  0.0376
  790MPD2     H11648   1.238   0.455  13.059  2.2328 -2.7804 -0.4724
  790MPD2    H111649   1.090   0.390  12.657  0.8778 -2.5630  0.4529
  790MPD2    H211650   1.369   0.682  12.716  0.2206 -0.1385 -0.6831
  790MPD2    H311651   1.248   0.551  12.578  1.2512  0.3021  0.3440
  790MPD2     N11652   1.050   0.319  12.927  0.8647 -0.1954  0.2349
  790MPD2    H511653   1.071   0.276  13.016 -0.7758 -0.1519  0.6437
  790MPD2    N111654   1.408   0.644  12.968  0.4763  0.2224  0.2660
  790MPD2    H711655   1.431   0.737  12.935 -1.9119  0.3228 -1.0693
  791MPD2     C11656   0.396   0.096  12.636 -0.5728 -0.6197 -0.1766
  791MPD2    C111657   0.462   4.708  12.677 -0.6850 -0.2164  0.5633
  791MPD2    C211658   0.396   4.586  12.658 -0.4825 -0.7440  0.1772
  791MPD2    C311659   0.269   4.586  12.603 -0.5410  0.6144 -0.4420
  791MPD2    C411660   0.202   4.704  12.572 -0.1664  0.2878  0.3858
  791MPD2    C511661   0.272   0.095  12.591  0.6035 -0.0208 -0.4957
  791MPD2     H11662   0.446   4.494  12.683 -0.0515  0.0072  2.0304
  791MPD2    H111663   0.105   4.702  12.525  0.5828  0.8816 -1.1925
  791MPD2    H211664   0.468   0.177  12.637 -0.8398 -0.3838 -0.3163
  791MPD2    H311665   0.235   0.187  12.547  2.7077  0.9457 -0.2210
  791MPD2     N11666   0.204   4.461  12.592 -0.2638 -0.7020  0.1441
  791MPD2    H511667   0.262   4.381  12.570  0.0293 -0.0027 -1.6715
  791MPD2    N111668   0.586   0.002  12.735 -0.4575 -0.0489  1.1946
  791MPD2    H711669   0.625   0.095  12.727  1.3151 -0.9282 -0.4486
  792MPD2     C11670   1.761   0.139  11.533 -0.2587  0.0302 -0.2022
  792MPD2    C111671   1.655   0.185  11.449  1.1211  0.5010  0.3638
  792MPD2    C211672   1.534   0.119  11.459 -0.0597 -1.3391 -0.0365
  792MPD2    C311673   1.513   0.010  11.546  0.7904  0.4167  0.0563
  792MPD2    C411674   1.612   4.700  11.622  0.1936 -0.1208  0.5671
  792MPD2    C511675   1.738   0.036  11.626 -0.4898  0.4868  0.1771
  792MPD2     H11676   1.447   0.157  11.407  0.5778 -1.0085 -0.8588
  792MPD2    H111677   1.596   4.618  11.691 -1.2152 -2.3532 -2.3746
  792MPD2    H211678   1.856   0.191  11.540 -0.5736  0.1887  2.8935
  792MPD2    H311679   1.807   0.006  11.704 -0.3513  0.2672 -0.0282
  792MPD2     N11680   1.397   4.658  11.565  0.2991  0.3350  0.2692
  792MPD2    H511681   1.395   4.583  11.634  1.3212 -1.5004 -1.7020
  792MPD2    N111682   1.687   0.287  11.359  0.6417  0.3838 -0.1384
  792MPD2    H711683   1.781   0.323  11.368  1.0522 -0.6352 -0.2962
  793MPD2     C11684   0.851   4.591  10.778  0.0509 -0.1616  0.2183
  793MPD2    C111685   0.978   4.614  10.824  0.1083  0.0399  0.5397
  793MPD2    C211686   1.014   4.615  10.955 -0.3531 -0.2700 -0.4171
  793MPD2    C311687   0.932   4.552  11.050 -0.5464 -0.1644 -0.2009
  793MPD2    C411688   0.801   4.528  11.003  0.0895  0.0313 -0.4765
  793MPD2    C511689   0.760   4.550  10.875 -0.1824 -0.3632  0.5837
  793MPD2     H11690   1.117   4.630  10.983 -0.2685  0.9432 -1.3583
  793MPD2    H111691   0.728   4.501  11.079 -0.5350  0.9168 -0.7606
  793MPD2    H211692   0.820   4.600  10.674  0.1839  0.6333  0.2479
  793MPD2    H311693   0.655   4.535  10.856 -0.2522  0.6982  0.1355
  793MPD2     N11694   0.980   4.539  11.185  1.0350 -0.9251 -0.4254
  793MPD2    H511695   1.072   4.574  11.208  0.9585 -1.0153  0.0051
  793MPD2    N111696   1.079   4.641  10.727  0.1582 -0.0115 -0.1879
  793MPD2    H711697   1.164   4.679  10.766 -0.2332  1.4323 -0.7700
  794MPD2     C11698   1.137   4.273  17.473  0.5689  0.3274 -0.2252
  794MPD2    C111699   1.113   4.191  17.368  1.1757  0.1954  1.0053
  794MPD2    C211700   1.004   4.224  17.289 -0.0015  0.6510 -0.0742
  794MPD2    C311701   0.923   4.335  17.312  0.1676 -0.2806 -0.2452
  794MPD2    C411702   0.943   4.406  17.424  0.0152  0.4988 -0.0157
  794MPD2    C511703   1.060   4.383  17.496  0.6380  0.3543  0.3011
  794MPD2     H11704   0.975   4.159  17.207  1.8582 -0.6849  0.3176
  794MPD2    H111705   0.883   4.493  17.449 -0.9679 -0.1047 -0.2649
  794MPD2    H211706   1.226   4.260  17.533  0.5535  1.1587 -0.0364
  794MPD2    H311707   1.090   4.446  17.579 -0.1659  0.7853  0.2670
  794MPD2     N11708   0.845   4.390  17.203  0.0767  0.0045 -0.0597
  794MPD2    H511709   0.820   4.486  17.220  1.1325  0.1064  0.9257
  794MPD2    N111710   1.191   4.075  17.338  0.5084 -0.2470 -0.1946
  794MPD2    H711711   1.179   4.031  17.247  1.1820 -2.7831  0.9791
  795MPD2     C11712   3.490   1.424  13.803 -0.0514 -0.1916  0.5154
  795MPD2    C111713   3.405   1.332  13.734 -0.4845 -0.2520 -0.6870
  795MPD2    C211714   3.450   1.197  13.742 -0.6599 -0.0657  0.5166
  795MPD2    C311715   3.571   1.165  13.805  0.1352  0.2282 -0.8401
  795MPD2    C411716   3.650   1.262  13.864  0.5235 -0.0807  0.2032
  795MPD2    C511717   3.607   1.390  13.863  0.3559  0.5279  0.2903
  795MPD2     H11718   3.394   1.112  13.705 -0.7803  0.9042 -1.5289
  795MPD2    H111719   3.746   1.241  13.911  1.2492  0.0778 -1.2188
  795MPD2    H211720   3.461   1.529  13.806  2.4151  0.4825  0.9467
  795MPD2    H311721   3.674   1.465  13.904  1.5670 -0.8308  0.8177
  795MPD2     N11722   3.616   1.036  13.801  0.5738 -0.1085 -0.1781
  795MPD2    H511723   3.565   0.973  13.741  1.4369 -1.0554  0.0734
  795MPD2    N111724   3.286   1.366  13.678  0.2994  0.4445  0.7500
  795MPD2    H711725   3.227   1.298  13.631 -0.9408  2.1244 -0.1209
  796MPD2     C11726   2.894   2.562  16.321  0.5737  0.1599  0.2875
  796MPD2    C111727   3.028   2.575  16.338  0.4125 -0.2914  0.2380
  796MPD2    C211728   3.065   2.705  16.326 -0.4199  0.4976 -0.4544
  796MPD2    C311729   2.981   2.811  16.299 -0.7984  0.1868 -0.1628
  796MPD2    C411730   2.845   2.794  16.287  0.2220  0.1837 -0.5259
  796MPD2    C511731   2.805   2.661  16.296  0.3808 -0.8753 -0.7733
  796MPD2     H11732   3.169   2.738  16.322 -0.7554  1.6621  0.7159
  796MPD2    H111733   2.772   2.869  16.259 -0.6203 -0.6846 -0.6607
  796MPD2    H211734   2.844   2.466  16.329 -1.7953  1.2815 -0.9565
  796MPD2    H311735   2.701   2.638  16.280  0.1357 -0.5878  0.4428
  796MPD2     N11736   3.041   2.939  16.294 -0.1119  0.0124 -0.0340
  796MPD2    H511737   3.140   2.939  16.314 -0.0083 -1.6097 -0.5590
  796MPD2    N111738   3.104   2.459  16.374  0.7073 -0.6063 -0.2387
  796MPD2    H711739   3.048   2.375  16.383 -1.6123  1.0137  0.3310
  797MPD2     C11740   3.677   2.341  17.451 -0.9645 -0.4774  0.1682
  797MPD2    C111741   3.697   2.471  17.500 -0.2585  0.3409  0.1827
  797MPD2    C211742   3.603   2.570  17.473 -0.6266  0.0339  0.5615
  797MPD2    C311743   3.504   2.550  17.381  0.3213 -0.4034 -0.3325
  797MPD2    C411744   3.487   2.424  17.322  0.2561 -0.2325  0.2720
  797MPD2    C511745   3.573   2.323  17.365  0.1204  0.0481 -0.5166
  797MPD2     H11746   3.613   2.666  17.523 -2.0657  0.0147  0.8926
  797MPD2    H111747   3.402   2.407  17.257  0.1279  0.4659  0.2553
  797MPD2    H211748   3.721   2.250  17.488 -0.0216 -0.1211 -0.0912
  797MPD2    H311749   3.538   2.224  17.337 -0.7818  0.6751 -1.6328
  797MPD2     N11750   3.423   2.657  17.333  0.2270  0.4730 -0.2819
  797MPD2    H511751   3.381   2.642  17.241 -0.6998 -2.7427  0.6490
  797MPD2    N111752   3.809   2.515  17.571 -0.6863 -0.4527  0.7738
  797MPD2    H711753   3.826   2.611  17.599  0.7792 -0.1224 -1.2703
  798MPD2     C11754   3.709   3.236  17.657  0.3221  0.5047  0.5704
  798MPD2    C111755   3.700   3.159  17.545 -0.7348 -0.4721 -0.5630
  798MPD2    C211756   3.794   3.051  17.545  0.4774  0.0222 -0.0026
  798MPD2    C311757   3.883   3.028  17.646  0.4759  0.6185 -0.1144
  798MPD2    C411758   3.890   3.116   0.046 -0.2229  0.4242  0.3072
  798MPD2    C511759   3.793   3.219   0.052  0.0275 -0.4253  0.1212
  798MPD2     H11760   3.786   2.980  17.464  0.7417  2.4972 -2.1924
  798MPD2    H111761   3.959   3.092   0.126 -2.3912  1.2152  2.3831
  798MPD2    H211762   3.644   3.322  17.670  1.2307  1.3739 -0.6045
  798MPD2    H311763   3.786   3.290   0.134 -1.0731 -0.1098 -0.2393
  798MPD2     N11764   3.963   2.913  17.637  0.0769  0.4822 -0.2939
  798MPD2    H511765   3.938   2.848  17.564  2.5505 -0.3953 -0.3689
  798MPD2    N111766   3.597   3.180  17.448  0.0526  0.1673 -0.1479
  798MPD2    H711767   3.520   3.243  17.470 -0.1469  0.0215 -0.4186
  799MPD2     C11768   2.913   4.494  14.606  0.0350 -0.6199 -0.5040
  799MPD2    C111769   2.848   4.389  14.543 -0.0138  0.4498  0.5877
  799MPD2    C211770   2.801   4.398  14.417 -0.4617 -0.1307  0.3068
  799MPD2    C311771   2.819   4.513  14.338 -0.1555  1.0776 -0.5094
  799MPD2    C411772   2.890   4.612  14.398  0.1379 -0.3229 -0.4858
  799MPD2    C511773   2.932   4.607  14.530  0.2453 -0.2081 -0.4155
  799MPD2     H11774   2.736   4.321  14.377  0.3830 -0.4007 -0.5513
  799MPD2    H111775   2.902   4.709  14.351 -0.6345  0.8677  1.7569
  799MPD2    H211776   2.935   4.495  14.712  2.1458 -1.6318 -0.9451
  799MPD2    H311777   2.956   4.698  14.583  0.2713  1.1080 -2.6760
  799MPD2     N11778   2.764   4.544  14.209  0.1355  0.2743 -0.1475
  799MPD2    H511779   2.806   4.626  14.167  0.3253 -0.3115 -1.1122
  799MPD2    N111780   2.823   4.270  14.622 -0.4962 -0.4891 -0.2858
  799MPD2    H711781   2.762   4.203  14.577 -2.0390  1.2111 -0.7438
  800MPD2     C11782   2.864   0.591  13.879 -0.4365 -1.0107 -0.2621
  800MPD2    C111783   2.991   0.551  13.841  0.5241 -0.6058  0.5204
  800MPD2    C211784   3.007   0.460  13.731  0.3760 -0.1406  1.2539
  800MPD2    C311785   2.900   0.434  13.653  0.6379 -0.2458 -0.1884
  800MPD2    C411786   2.773   0.482  13.686 -0.1292  0.4134  0.2790
  800MPD2    C511787   2.756   0.553  13.800 -0.2837 -0.4241 -0.9039
  800MPD2     H11788   3.107   0.427  13.703 -0.0160 -1.0453  0.9439
  800MPD2    H111789   2.691   0.461  13.619  0.1206 -0.1359  0.1435
  800MPD2    H211790   2.854   0.667  13.956 -1.2107  1.0096 -2.3906
  800MPD2    H311791   2.655   0.589  13.820 -0.3256 -1.4373  0.6604
  800MPD2     N11792   2.936   0.373  13.529  0.6950  0.1729 -0.2955
  800MPD2    H511793   3.034   0.360  13.505  0.0243 -3.0897 -1.3052
  800MPD2    N111794   3.097   0.599  13.923  0.0852 -0.1399 -0.3274
  800MPD2    H711795   3.077   0.656  14.004 -1.4740 -0.8581 -0.2192
  801MPD2     C11796   3.387   1.265  14.172  0.7854 -0.3427  0.0523
  801MPD2    C111797   3.404   1.159  14.259  0.1973  0.5862 -0.5796
  801MPD2    C211798   3.392   1.178  14.394 -0.5735 -0.6512 -0.3698
  801MPD2    C311799   3.362   1.301  14.447 -0.1259 -0.5346  0.0587
  801MPD2    C411800   3.354   1.408  14.360  0.9142 -0.2825  0.1315
  801MPD2    C511801   3.364   1.394  14.227  0.1636 -0.1266  0.0762
  801MPD2     H11802   3.394   1.089  14.457  1.5449 -0.3359  0.0120
  801MPD2    H111803   3.343   1.508  14.400 -0.0513 -0.2099 -0.3196
  801MPD2    H211804   3.372   1.263  14.065 -1.7906  1.3630  0.3849
  801MPD2    H311805   3.362   1.482  14.165 -1.9728  0.8483  1.5253
  801MPD2     N11806   3.342   1.320  14.588  0.3046 -0.0537  0.3204
  801MPD2    H511807   3.290   1.402  14.618  0.7750 -0.2922  1.7961
  801MPD2    N111808   3.431   1.024  14.212 -0.3022 -0.2060 -0.1054
  801MPD2    H711809   3.441   0.948  14.279  0.3493 -1.3394 -1.4780
  802MPD2     C11810   2.420   0.433   0.113 -0.2106 -0.1871  0.4675
  802MPD2    C111811   2.477   0.551   0.157  0.0227 -0.5224  0.1664
  802MPD2    C211812   2.608   0.569   0.121  0.5392 -0.6294  0.0902
  802MPD2    C311813   2.682   0.483   0.050  0.3555  0.4832 -0.0971
  802MPD2    C411814   2.615   0.375   0.002 -0.6408 -0.6781 -0.0745
  802MPD2    C511815   2.485   0.345   0.042 -0.3324  0.3678 -0.1489
  802MPD2     H11816   2.648   0.666   0.147 -0.7283 -0.0479 -0.1402
  802MPD2    H111817   2.675   0.294  17.667 -0.5777 -0.0744 -1.1755
  802MPD2    H211818   2.316   0.408   0.127 -0.8930  1.5625 -1.5173
  802MPD2    H311819   2.420   0.265   0.009 -1.9287  1.0313  1.3611
  802MPD2     N11820   2.812   0.526   0.012 -0.2857 -0.0170 -0.0336
  802MPD2    H511821   2.847   0.616   0.044  1.6272 -0.6196 -0.3813
  802MPD2    N111822   2.410   0.651   0.237  0.5779  0.4456 -0.0187
  802MPD2    H711823   2.467   0.731   0.259  3.4460 -0.8299 -2.9250
  803MPD2     C11824   3.542   4.582  12.206 -0.2302  0.6918  0.4940
  803MPD2    C111825   3.638   4.481  12.195 -0.7373  0.1026 -0.0829
  803MPD2    C211826   3.660   4.400  12.298 -0.3406 -0.7480  0.1878
  803MPD2    C311827   3.589   4.405  12.415  0.5895 -0.5707  0.1465
  803MPD2    C411828   3.494   4.502  12.431  0.0471  0.2855  0.4919
  803MPD2    C511829   3.473   4.588  12.324 -0.4693  0.2897 -0.2848
  803MPD2     H11830   3.741   4.329  12.288  0.2945 -0.1865  1.3890
  803MPD2    H111831   3.440   4.523  12.522  1.9999  1.4265  1.3884
  803MPD2    H211832   3.526   4.658  12.131  2.2797 -0.8162 -1.5942
  803MPD2    H311833   3.400   4.668  12.336 -0.3765  0.7841 -2.9744
  803MPD2     N11834   3.607   4.308  12.517  0.1000 -0.0925 -0.3129
  803MPD2    H511835   3.539   4.314  12.592  2.1843  1.5698  1.4441
  803MPD2    N111836   3.731   4.464  12.089 -0.5730  0.2603 -0.3507
  803MPD2    H711837   3.803   4.393  12.102 -1.3723 -0.4114  0.3492
  804MPD2     C11838   3.652   0.848  16.927 -0.1992  0.5481  0.3969
  804MPD2    C111839   3.634   0.862  17.062  0.1822  1.3715  0.2633
  804MPD2    C211840   3.662   0.983  17.121  0.0975  0.9298 -0.9012
  804MPD2    C311841   3.706   1.095  17.050 -0.5989  0.0337 -0.5730
  804MPD2    C411842   3.725   1.075  16.911  0.7372  0.1573  0.5269
  804MPD2    C511843   3.701   0.951  16.857 -0.1356  0.3581  0.6582
  804MPD2     H11844   3.663   1.005  17.227 -3.1030  1.4493 -1.0053
  804MPD2    H111845   3.759   1.147  16.837  2.9997 -2.8136 -1.3316
  804MPD2    H211846   3.636   0.754  16.876 -2.6386 -0.1606  2.4392
  804MPD2    H311847   3.717   0.937  16.751  0.9793 -1.5414  1.0855
  804MPD2     N11848   3.727   1.218  17.120 -0.5511 -0.1188  0.4612
  804MPD2    H511849   3.689   1.220  17.215 -1.1514 -0.3336  0.2276
  804MPD2    N111850   3.581   0.754  17.142 -0.5137  0.1547  0.7218
  804MPD2    H711851   3.554   0.774  17.238  3.8830 -0.3307  2.0580
  805MPD2     C11852   2.779   4.232  15.837  0.6512 -0.6130 -0.4463
  805MPD2    C111853   2.843   4.116  15.807  1.1291 -0.1537 -0.0786
  805MPD2    C211854   2.960   4.079  15.873 -0.1390 -0.6273  0.0453
  805MPD2    C311855   3.021   4.160  15.970 -0.4804 -0.0188 -0.7133
  805MPD2    C411856   2.950   4.274  16.002  0.0293  0.1195 -0.4002
  805MPD2    C511857   2.826   4.305  15.943 -0.9398  0.1321 -0.0396
  805MPD2     H11858   3.008   3.986  15.843  1.0047  0.1764 -0.6336
  805MPD2    H111859   2.969   4.338  16.087 -2.5616  2.3594 -1.4988
  805MPD2    H211860   2.702   4.280  15.779  1.5927 -1.1261 -2.1100
  805MPD2    H311861   2.784   4.404  15.952 -1.4395 -0.2872  2.2474
  805MPD2     N11862   3.144   4.116  16.020 -0.4115  0.3553 -0.1292
  805MPD2    H511863   3.185   4.036  15.972  0.7339  0.1441  1.1959
  805MPD2    N111864   2.808   4.032  15.699 -0.2149  0.5816 -0.4299
  805MPD2    H711865   2.866   3.950  15.687 -1.3479 -0.0842 -1.3112
  806MPD2     C11866   4.441   3.888   0.445  0.0877 -0.4251  0.6633
  806MPD2    C111867   4.448   3.999   0.526  0.6033 -0.4939  0.5288
  806MPD2    C211868   4.383   4.112   0.492  0.6996 -0.0426  0.0129
  806MPD2    C311869   4.309   4.109   0.374 -0.0402  0.4948 -0.3750
  806MPD2    C411870   4.302   4.001   0.293 -0.3504  0.2522  0.4186
  806MPD2    C511871   4.374   3.891   0.327 -0.2640 -0.1521  0.5115
  806MPD2     H11872   4.395   4.200   0.554  0.5281 -0.3547  0.4883
  806MPD2    H111873   4.255   3.993   0.195 -0.2647  0.3691  0.3677
  806MPD2    H211874   4.483   3.794   0.480  0.6406  0.1712  1.6207
  806MPD2    H311875   4.366   3.795   0.276 -0.4159  1.4375 -2.4370
  806MPD2     N11876   4.243   4.228   0.341  0.1192 -0.5183  0.6162
  806MPD2    H511877   4.264   4.315   0.388 -0.3526 -0.2361  0.3045
  806MPD2    N111878   4.535   3.988   0.642  0.9402  0.1831 -0.4553
  806MPD2    H711879   4.584   3.900   0.654 -0.3705 -0.3117  1.2801
  807MPD2     C11880   4.571   4.308   1.396  0.1799 -0.2020  0.3829
  807MPD2    C111881   4.501   4.247   1.294  0.0168  0.0739 -0.4807
  807MPD2    C211882   4.365   4.271   1.278  0.7286  0.6534  0.1651
  807MPD2    C311883   4.297   4.354   1.370  0.3523  0.2007  0.0707
  807MPD2    C411884   4.360   4.407   1.473  0.3511  0.2150 -0.3104
  807MPD2    C511885   4.502   4.388   1.479 -0.1978  0.3300 -0.3513
  807MPD2     H11886   4.314   4.232   1.191 -0.0910 -0.5887  1.2035
  807MPD2    H111887   4.301   4.462   1.546  0.6177  0.3256 -0.1786
  807MPD2    H211888   4.677   4.291   1.410  0.2006  1.1778  1.7545
  807MPD2    H311889   4.550   4.433   1.565  0.7339  1.2652 -1.3590
  807MPD2     N11890   4.157   4.378   1.356 -0.0675 -0.3900 -0.3643
  807MPD2    H511891   4.107   4.418   1.434 -0.5553 -1.6423 -0.0412
  807MPD2    N111892   4.558   4.161   1.194  0.2683 -0.1695  0.6190
  807MPD2    H711893   4.495   4.129   1.121 -1.2629  2.1229  0.9547
  808MPD2     C11894   3.698   1.131   9.283  0.6773 -0.0457 -0.6556
  808MPD2    C111895   3.668   1.123   9.419 -0.3248  0.0882  0.0644
  808MPD2    C211896   3.665   1.244   9.492 -0.1868  0.0897 -0.1432
  808MPD2    C311897   3.676   1.368   9.424 -0.5031 -0.3583 -0.7773
  808MPD2    C411898   3.690   1.367   9.287 -0.2524 -0.5721  0.4809
  808MPD2    C511899   3.715   1.249   9.222  0.3074 -0.2303 -0.2050
  808MPD2     H11900   3.648   1.244   9.599  1.9365  0.8155  0.1969
  808MPD2    H111901   3.698   1.457   9.227 -2.1286 -0.5579  0.2270
  808MPD2    H211902   3.703   1.042   9.221 -1.3337  0.2917 -1.3049
  808MPD2    H311903   3.742   1.248   9.117  1.1994 -1.1269  0.0403
  808MPD2     N11904   3.678   1.495   9.486 -0.3083  0.3860  0.0232
  808MPD2    H511905   3.691   1.571   9.420  0.4159  0.4368  0.2245
  808MPD2    N111906   3.660   1.006   9.499  0.1518 -0.4725  0.4986
  808MPD2    H711907   3.635   1.019   9.597 -0.4033  0.7043  0.1992
  809MPD2     C11908   4.172   2.111   9.235  0.0962  0.5771 -0.2690
  809MPD2    C111909   4.178   1.975   9.249  0.2075 -0.0742 -0.1468
  809MPD2    C211910   4.085   1.912   9.330  0.3418 -0.0504 -0.0682
  809MPD2    C311911   3.995   1.992   9.387  0.1429 -0.1575 -0.0294
  809MPD2    C411912   3.983   2.127   9.367  1.3220  0.6602  0.3728
  809MPD2    C511913   4.074   2.186   9.286  0.7143  0.7108 -0.2255
  809MPD2     H11914   4.091   1.805   9.347  0.1135  0.3260  2.3872
  809MPD2    H111915   3.903   2.186   9.410  1.6949  1.3055  0.1811
  809MPD2    H211916   4.241   2.165   9.171  1.2626 -2.5975 -1.6630
  809MPD2    H311917   4.064   2.290   9.257 -0.8818  1.0512  1.5177
  809MPD2     N11918   3.886   1.926   9.453 -0.6832 -0.2874  0.1671
  809MPD2    H511919   3.894   1.825   9.454 -1.1675 -0.3283 -0.3113
  809MPD2    N111920   4.289   1.898   9.190  0.3193  0.2003 -0.5694
  809MPD2    H711921   4.303   1.800   9.211  0.5141  0.5107  0.7219
  810MPD2     C11922   3.390   4.115   9.592  0.4652 -0.5550  0.2436
  810MPD2    C111923   3.363   4.151   9.721  0.3105  0.2874 -0.3699
  810MPD2    C211924   3.436   4.254   9.783 -0.5237 -0.8015  0.1310
  810MPD2    C311925   3.534   4.323   9.710  0.5307 -0.4486 -1.1284
  810MPD2    C411926   3.555   4.283   9.581 -1.1659 -0.3107  0.3397
  810MPD2    C511927   3.488   4.181   9.526  0.1390 -0.3429  0.5781
  810MPD2     H11928   3.414   4.276   9.886  1.1135 -2.0986  0.7524
  810MPD2    H111929   3.623   4.342   9.521  0.6609 -1.9476  0.8080
  810MPD2    H211930   3.341   4.037   9.535  2.2308 -1.2101 -0.3893
  810MPD2    H311931   3.486   4.149   9.422 -1.6965 -1.4699  0.9547
  810MPD2     N11932   3.611   4.429   9.762  0.0896  0.7234  0.1014
  810MPD2    H511933   3.681   4.473   9.705 -0.8970  0.8906 -0.9875
  810MPD2    N111934   3.258   4.082   9.790 -0.0547  0.5715 -0.1928
  810MPD2    H711935   3.179   4.042   9.741  0.2596 -0.2739  0.0025
  811MPD2     C11936   2.605   4.499  10.101 -0.1478  0.2512  0.2333
  811MPD2    C111937   2.721   4.481  10.028 -0.1747 -0.5120 -0.0097
  811MPD2    C211938   2.795   4.596   9.994 -0.4167 -0.0750 -0.2301
  811MPD2    C311939   2.752   0.002  10.025  0.1847  0.0470 -0.1689
  811MPD2    C411940   2.633   0.015  10.083  0.6323 -0.2575  0.6686
  811MPD2    C511941   2.567   4.629  10.126  0.0102 -0.2942  0.3494
  811MPD2     H11942   2.893   4.590   9.948  0.1657  0.1415  0.9821
  811MPD2    H111943   2.603   0.117  10.106 -1.3110 -0.7684  0.3755
  811MPD2    H211944   2.549   4.414  10.140  1.2831 -0.9281 -0.2840
  811MPD2    H311945   2.475   4.637  10.181  0.5516 -0.7235  1.3131
  811MPD2     N11946   2.845   0.111  10.013 -0.4838  0.3924  0.1417
  811MPD2    H511947   2.934   0.091   9.969 -0.5575  0.0197  0.1630
  811MPD2    N111948   2.759   4.349  10.009 -0.7193  0.2037 -0.1027
  811MPD2    H711949   2.700   4.281  10.056  1.9515 -2.3603 -0.4585
  812MPD2     C11950   2.151   4.244  12.352 -0.1812 -0.0737 -0.2317
  812MPD2    C111951   2.073   4.343  12.409 -0.0047  0.3248  0.2966
  812MPD2    C211952   2.010   4.310  12.528  0.0399 -0.1790 -0.3431
  812MPD2    C311953   2.024   4.188  12.586 -0.0613 -0.3943 -0.4741
  812MPD2    C411954   2.109   4.097  12.530 -0.1235  0.7034  0.3326
  812MPD2    C511955   2.171   4.124  12.406  0.5905 -0.6422  0.0189
  812MPD2     H11956   1.946   4.383  12.577  0.2739 -0.3453  0.2091
  812MPD2    H111957   2.139   4.003  12.574 -1.4518  0.2816  0.3397
  812MPD2    H211958   2.208   4.265  12.262 -0.0361  0.0196 -0.1181
  812MPD2    H311959   2.238   4.060  12.350  1.3923  0.7334 -0.5927
  812MPD2     N11960   1.950   4.162  12.703 -0.7156  0.2822 -0.2122
  812MPD2    H511961   1.887   4.238  12.729 -1.0491 -0.1523  0.2400
  812MPD2    N111962   2.064   4.463  12.334 -0.3826 -0.6763 -0.9746
  812MPD2    H711963   2.117   4.470  12.248 -0.9943 -0.9654 -1.3705
  813MPD2     C11964   0.574   2.070  12.940 -0.5401 -0.2724  0.3266
  813MPD2    C111965   0.653   1.985  13.012 -0.4191  1.0580 -0.2131
  813MPD2    C211966   0.640   1.988  13.152  0.4485  0.9843 -0.6164
  813MPD2    C311967   0.554   2.074  13.217  0.0424 -0.0808  0.0642
  813MPD2    C411968   0.473   2.161  13.144  0.2182 -0.4774 -0.9521
  813MPD2    C511969   0.489   2.158  13.009 -0.1515 -0.3190  0.3228
  813MPD2     H11970   0.708   1.925  13.209 -2.5964 -1.2206  0.5614
  813MPD2    H111971   0.398   2.230  13.180  0.5194 -1.5538  1.7765
  813MPD2    H211972   0.577   2.067  12.831  1.9883  1.2699  0.3567
  813MPD2    H311973   0.435   2.233  12.953  0.7677  1.7067  2.1707
  813MPD2     N11974   0.543   2.065  13.349 -0.7546  0.5815  0.4023
  813MPD2    H511975   0.602   1.995  13.393 -1.1214  0.5511  0.8501
  813MPD2    N111976   0.759   1.919  12.944 -0.6698 -0.5466 -0.9596
  813MPD2    H711977   0.761   1.941  12.845 -0.0279  1.8681 -0.4174
  814MPD2     C11978   1.506   3.036  12.467 -0.3643  1.3963  0.1240
  814MPD2    C111979   1.582   3.055  12.351 -0.4299 -0.2887 -0.2009
  814MPD2    C211980   1.672   3.154  12.356  0.1626 -0.1758  0.5610
  814MPD2    C311981   1.694   3.237  12.466 -0.4201 -0.9959 -0.3847
  814MPD2    C411982   1.606   3.230  12.571  0.1827 -0.0448 -0.3912
  814MPD2    C511983   1.525   3.123  12.576  0.0254 -0.2794 -0.4859
  814MPD2     H11984   1.726   3.165  12.263  2.0160  1.2447  1.7922
  814MPD2    H111985   1.615   3.300  12.654  0.7015  0.0359 -0.5182
  814MPD2    H211986   1.431   2.959  12.476 -0.8276  1.8921  0.4798
  814MPD2    H311987   1.471   3.110  12.669  0.1802 -2.4560 -0.7140
  814MPD2     N11988   1.794   3.333  12.479 -0.2177 -0.1994 -0.3716
  814MPD2    H511989   1.803   3.389  12.563  0.0451  1.7167 -1.6863
  814MPD2    N111990   1.574   2.980  12.230  0.0732  0.0906 -0.1196
  814MPD2    H711991   1.639   3.001  12.155  0.5041  1.1100  0.5379
  815MPD2     C11992   2.078   1.855  11.942 -0.5810  0.0482 -0.0485
  815MPD2    C111993   2.085   1.720  11.958 -0.1489  0.8858 -0.2737
  815MPD2    C211994   1.997   1.668  12.050 -0.0639 -0.3385 -0.1974
  815MPD2    C311995   1.908   1.751  12.117 -0.9613 -0.3463  0.4151
  815MPD2    C411996   1.900   1.889  12.096 -0.3187  0.1963 -0.2329
  815MPD2    C511997   1.988   1.931  12.004  0.3186 -0.4974 -0.1203
  815MPD2     H11998   1.998   1.562  12.075 -2.4889 -0.7116 -1.7227
  815MPD2    H111999   1.829   1.958  12.139 -1.8448 -1.1481 -0.5874
  815MPD2    H212000   2.138   1.899  11.863 -0.9834 -0.5801 -0.6964
  815MPD2    H312001   1.984   2.035  11.976 -4.1852 -0.4285  0.6357
  815MPD2     N12002   1.833   1.689  12.218  0.6296 -0.5140 -0.0029
  815MPD2    H512003   1.857   1.591  12.230  0.9736 -0.2305  1.6322
  815MPD2    N112004   2.172   1.645  11.870 -0.4914 -0.2992  0.2753
  815MPD2    H712005   2.231   1.704  11.811 -0.0154 -3.5234 -2.4393
  816MPD2     C12006   1.854   0.560  17.651  0.8252 -0.6428  0.0077
  816MPD2    C112007   1.946   0.658  17.627 -0.4405 -0.7822 -0.0910
  816MPD2    C212008   2.071   0.627  17.575  0.5104  0.1550  0.3025
  816MPD2    C312009   2.107   0.496  17.549  0.3805 -0.8243 -0.1148
  816MPD2    C412010   2.012   0.396  17.564  0.1994  0.0941  0.3257
  816MPD2    C512011   1.888   0.431  17.618 -0.0489  0.1370  0.2165
  816MPD2     H12012   2.139   0.708  17.551  1.1549 -1.0843 -2.0297
  816MPD2    H112013   2.017   0.294  17.528  0.1906 -0.6185  2.3385
  816MPD2    H212014   1.753   0.575  17.686  1.6480  1.9085  1.3044
  816MPD2    H312015   1.802   0.365  17.617 -2.0998  2.7828  2.0985
  816MPD2     N12016   2.237   0.467  17.494 -0.4233 -0.0562  0.1088
  816MPD2    H512017   2.304   0.543  17.491  0.3158 -0.7228 -0.4421
  816MPD2    N112018   1.899   0.792  17.659  0.3173  0.2459  0.3759
  816MPD2    H712019   1.800   0.792  17.681  0.1067 -1.8608 -0.6271
  817MPD2     C12020   1.511   1.848   9.999  0.0632  0.0812 -0.3686
  817MPD2    C112021   1.558   1.847   9.871 -0.0873 -0.8325  0.2835
  817MPD2    C212022   1.503   1.938   9.780 -0.5252 -0.3404 -0.0421
  817MPD2    C312023   1.421   2.041   9.819 -0.1459  0.7678  0.9214
  817MPD2    C412024   1.376   2.040   9.946  0.5326 -0.0208  0.1218
  817MPD2    C512025   1.422   1.946  10.030  0.2288 -0.4785  0.3721
  817MPD2     H12026   1.525   1.923   9.675  0.2483  0.7221 -0.0352
  817MPD2    H112027   1.305   2.110   9.991  0.3494 -1.0768  1.4870
  817MPD2    H212028   1.541   1.771  10.069  0.6602  0.0505 -0.6639
  817MPD2    H312029   1.387   1.945  10.133  0.8574 -3.0020  0.5565
  817MPD2     N12030   1.370   2.125   9.724 -0.3700  0.5768  0.4086
  817MPD2    H512031   1.378   2.089   9.629 -0.4303  1.3221  0.1268
  817MPD2    N112032   1.641   1.742   9.813  0.4561  0.1953 -1.0572
  817MPD2    H712033   1.646   1.742   9.711 -1.9870  0.9746 -1.1669
  818MPD2     C12034   0.742   1.834  10.195 -0.7091 -0.6075 -0.6793
  818MPD2    C112035   0.741   1.787  10.324  0.5222  0.3098 -0.6590
  818MPD2    C212036   0.808   1.661  10.343  0.1816 -0.4520  0.2458
  818MPD2    C312037   0.866   1.583  10.242  0.4970  0.5726 -0.0133
  818MPD2    C412038   0.865   1.648  10.118  0.2803 -0.2093  0.9979
  818MPD2    C512039   0.796   1.761  10.093  0.3891  0.6968  0.0237
  818MPD2     H12040   0.812   1.634  10.447  0.1934 -0.5527  0.2188
  818MPD2    H112041   0.902   1.594  10.032 -0.9995  0.8610 -0.2188
  818MPD2    H212042   0.683   1.922  10.171  1.8399  0.5937 -2.5134
  818MPD2    H312043   0.781   1.789   9.989 -0.6623 -1.9769 -0.5346
  818MPD2     N12044   0.917   1.452  10.249  0.3668  0.2291  0.4850
  818MPD2    H512045   0.921   1.400  10.162 -0.8234 -0.6632  0.9580
  818MPD2    N112046   0.674   1.845  10.434  0.4869  0.2877  0.5013
  818MPD2    H712047   0.695   1.801  10.523  2.0479 -0.0877 -0.0403
  819MPD2     C12048   3.350   3.551  15.770  0.0770  0.4817  0.3127
  819MPD2    C112049   3.405   3.453  15.854  0.2182 -0.2995 -0.4844
  819MPD2    C212050   3.542   3.454  15.886  0.3272 -0.1400  0.7053
  819MPD2    C312051   3.618   3.528  15.802 -0.7001  0.7037 -0.4632
  819MPD2    C412052   3.568   3.615  15.714  0.0387  0.6822  0.4539
  819MPD2    C512053   3.431   3.636  15.702  0.3850 -0.2076 -0.0101
  819MPD2     H12054   3.575   3.373  15.950  1.8320  0.6353  0.9036
  819MPD2    H112055   3.635   3.685  15.665  0.7210 -1.5745 -1.8276
  819MPD2    H212056   3.242   3.560  15.763  0.0045  1.7853  2.7401
  819MPD2    H312057   3.402   3.718  15.639 -0.8758  0.8865  1.9817
  819MPD2     N12058   3.755   3.510  15.810  0.1490 -0.7438 -0.5850
  819MPD2    H512059   3.807   3.542  15.729 -2.3622  1.6750 -1.2466
  819MPD2    N112060   3.310   3.352  15.898 -0.0863 -0.0888 -0.0327
  819MPD2    H712061   3.221   3.344  15.851  0.0742 -0.1706 -0.3198
  820MPD2     C12062   2.699   3.269  15.344 -0.0721  0.8342 -0.1051
  820MPD2    C112063   2.737   3.359  15.445  0.0301 -0.0969 -0.5287
  820MPD2    C212064   2.804   3.313  15.558 -0.0907  0.0169  0.2758
  820MPD2    C312065   2.824   3.177  15.570  1.0483  0.1799  0.0328
  820MPD2    C412066   2.794   3.099  15.464  0.7685 -0.0263  0.2862
  820MPD2    C512067   2.730   3.144  15.352 -0.0423 -0.8087 -0.2517
  820MPD2     H12068   2.837   3.380  15.637  0.4320  3.3494 -2.7425
  820MPD2    H112069   2.827   2.996  15.466  2.5172  0.5173 -0.8466
  820MPD2    H212070   2.642   3.307  15.259 -1.2229 -0.9256 -0.1278
  820MPD2    H312071   2.703   3.073  15.274 -0.9205 -0.3505 -0.3691
  820MPD2     N12072   2.882   3.114  15.678  0.2437 -0.2680  0.2545
  820MPD2    H512073   2.891   3.013  15.676 -1.9419 -0.4266 -1.1124
  820MPD2    N112074   2.718   3.501  15.429  0.2792 -0.3625  0.1744
  820MPD2    H712075   2.652   3.529  15.358  2.4125 -0.5912 -1.8888
  821MPD2     C12076   3.121   0.565  12.749  0.5055 -0.0015  0.2480
  821MPD2    C112077   3.203   0.531  12.848 -0.9528 -0.1861 -0.5184
  821MPD2    C212078   3.339   0.554  12.839 -0.0576 -0.2083 -0.1389
  821MPD2    C312079   3.382   0.642  12.742  0.2457 -0.1118  0.0643
  821MPD2    C412080   3.300   0.679  12.638 -0.1416  0.3392  0.2101
  821MPD2    C512081   3.172   0.645  12.646 -0.2511 -0.2638  0.0798
  821MPD2     H12082   3.417   0.508  12.898  0.7790  1.8532  0.3513
  821MPD2    H112083   3.335   0.741  12.557 -0.3691  1.2525  0.8028
  821MPD2    H212084   3.015   0.543  12.751 -0.0320  2.7496  1.1202
  821MPD2    H312085   3.115   0.676  12.559 -0.8114 -4.6419 -1.1529
  821MPD2     N12086   3.511   0.697  12.736 -0.0127  0.4328  0.2901
  821MPD2    H512087   3.521   0.767  12.663  0.6752 -0.1480 -0.1673
  821MPD2    N112088   3.160   0.462  12.965 -0.4516  0.3242 -0.5141
  821MPD2    H712089   3.237   0.436  13.026 -0.2784  1.0655 -0.4088
  822MPD2     C12090   3.646   0.287  16.038  0.1122 -0.1947 -0.2292
  822MPD2    C112091   3.729   0.237  16.137  0.5548  0.7724 -0.1112
  822MPD2    C212092   3.763   0.318  16.250  0.2096  0.5810 -0.6958
  822MPD2    C312093   3.722   0.451  16.255 -1.0728  0.0617  0.6345
  822MPD2    C412094   3.635   0.496  16.160  0.5834  0.3673  0.0867
  822MPD2    C512095   3.596   0.409  16.058 -0.7135 -0.4949 -0.1438
  822MPD2     H12096   3.833   0.281  16.323 -1.8675  0.1956  1.1096
  822MPD2    H112097   3.599   0.598  16.157 -1.7684 -0.5033 -1.0170
  822MPD2    H212098   3.623   0.245  15.941  0.3087  2.5238 -1.4467
  822MPD2    H312099   3.523   0.439  15.983 -0.7917  1.6284  0.7663
  822MPD2     N12100   3.754   0.529  16.365  0.0781 -0.1905 -0.0249
  822MPD2    H512101   3.800   0.477  16.439  0.4562  0.7442  0.4055
  822MPD2    N112102   3.816   0.123  16.120  0.2003 -0.0342  0.4177
  822MPD2    H712103   3.902   0.107  16.171 -0.4970 -0.8819  1.3379
  823MPD2     C12104   3.915   0.578  17.200 -0.0479 -0.3350  0.2087
  823MPD2    C112105   3.932   0.515  17.079  0.4842 -0.0611 -0.8040
  823MPD2    C212106   3.953   0.377  17.083 -0.0602  0.0805 -0.5111
  823MPD2    C312107   3.981   0.307  17.200  0.5038  0.2258 -0.7871
  823MPD2    C412108   3.967   0.382  17.315 -0.0039  0.4418  0.3256
  823MPD2    C512109   3.919   0.504  17.313  0.1933 -0.4927  0.2392
  823MPD2     H12110   3.960   0.319  16.992  0.8494  2.6790 -2.0787
  823MPD2    H112111   3.996   0.355  17.416 -1.7153  0.7356  0.8923
  823MPD2    H212112   3.888   0.683  17.200 -0.1575 -0.3631 -0.1889
  823MPD2    H312113   3.877   0.543  17.406 -0.2950 -0.7688  0.1307
  823MPD2     N12114   4.021   0.172  17.206 -0.3773 -0.3569  0.0332
  823MPD2    H512115   4.016   0.134  17.300 -0.1512  0.8755  0.5286
  823MPD2    N112116   3.903   0.589  16.965  0.2656  0.2825  0.3403
  823MPD2    H712117   3.874   0.685  16.973 -3.2444 -0.6419 -1.0741
  824MPD2     C12118   4.224   4.197  15.706  0.2958 -0.2057 -0.3797
  824MPD2    C112119   4.292   4.318  15.709 -0.0558 -0.1498  0.6728
  824MPD2    C212120   4.416   4.335  15.654  0.1158 -0.1868 -0.3875
  824MPD2    C312121   4.475   4.226  15.580  0.5036  0.0478 -0.1184
  824MPD2    C412122   4.398   4.111  15.566  0.2266  0.9536  0.4904
  824MPD2    C512123   4.272   4.102  15.626 -0.8317 -0.6801  0.7375
  824MPD2     H12124   4.463   4.432  15.656 -0.2933  0.0055 -0.2396
  824MPD2    H112125   4.437   4.021  15.521 -0.0271  1.5670 -0.9658
  824MPD2    H212126   4.126   4.182  15.750 -0.6007  0.3066 -2.2029
  824MPD2    H312127   4.218   4.009  15.611  0.2688 -1.3349  0.7822
  824MPD2     N12128   4.601   4.240  15.522  0.4280 -0.3945 -0.2729
  824MPD2    H512129   4.648   4.330  15.520 -2.4425  1.0310 -3.6291
  824MPD2    N112130   4.231   4.428  15.773 -0.4823 -0.0065 -0.4188
  824MPD2    H712131   4.284   4.514  15.778  1.6888 -1.3830  0.4181
  825MPD2     C12132   0.019   4.565  14.961 -0.0525 -0.2594  0.8902
  825MPD2    C112133   0.137   4.547  15.030  0.3910  0.1740 -0.1864
  825MPD2    C212134   0.244   4.629  14.997  0.4764  0.1004  0.3416
  825MPD2    C312135   0.227   0.010  14.905  0.1668  0.2265  0.3255
  825MPD2    C412136   0.105   0.028  14.857  0.1130  0.3767 -0.1711
  825MPD2    C512137   0.003   4.670  14.883 -0.3660  0.5453  0.5641
  825MPD2     H12138   0.339   4.605  15.043  0.9749  1.3798 -0.0241
  825MPD2    H112139   0.079   0.112  14.794  0.6023  1.0077  0.4711
  825MPD2    H212140   4.664   4.496  14.977  1.5252 -2.5171 -0.8874
  825MPD2    H312141   4.635   4.690  14.834  0.5194  0.1618 -1.2859
  825MPD2     N12142   0.319   0.114  14.868  0.4204 -0.9498 -0.3415
  825MPD2    H512143   0.284   0.191  14.812  1.7140  0.6778  1.0872
  825MPD2    N112144   0.145   4.441  15.121 -0.0802 -0.4231  0.6630
  825MPD2    H712145   0.064   4.382  15.135 -1.9032  2.0741  0.5185
  826MPD2     C12146   1.142   4.637  13.792  0.1293 -0.6115  0.6133
  826MPD2    C112147   1.016   4.598  13.764  0.4203  0.0631 -0.4530
  826MPD2    C212148   0.923   4.693  13.721 -0.0493  0.1683  0.2624
  826MPD2    C312149   0.969   0.096  13.682  0.1074  0.0616 -0.2062
  826MPD2    C412150   1.101   0.130  13.708 -0.3744  0.7615 -0.0511
  826MPD2    C512151   1.177   0.039  13.769  0.1454  0.1156 -0.4127
  826MPD2     H12152   0.817   4.673  13.711 -0.0988  0.0507  0.9731
  826MPD2    H112153   1.136   0.232  13.707 -0.1657  0.6843 -0.9948
  826MPD2    H212154   1.215   4.567  13.831  0.7657  0.2698  0.9813
  826MPD2    H312155   1.281   0.070  13.778 -0.3294  1.5495  0.2170
  826MPD2     N12156   0.880   0.199  13.643 -0.0475  0.3766  0.2542
  826MPD2    H512157   0.914   0.294  13.640 -1.2307  0.7815 -0.1786
  826MPD2    N112158   0.989   4.462  13.798 -0.3304  0.0396  0.4333
  826MPD2    H712159   1.067   4.410  13.836  0.6997  0.3949 -1.2038
  827MPD2     C12160   0.915   0.719  10.287 -0.1787  0.1846 -0.0234
  827MPD2    C112161   0.893   0.674  10.419  0.1579  0.5223 -0.2945
  827MPD2    C212162   0.765   0.639  10.464 -0.5860 -0.6396 -0.0895
  827MPD2    C312163   0.655   0.645  10.374 -0.0316  0.8401 -0.0832
  827MPD2    C412164   0.689   0.679  10.244  0.0565 -0.2625 -0.1585
  827MPD2    C512165   0.811   0.715  10.197  0.8949 -0.0582  0.1924
  827MPD2     H12166   0.743   0.610  10.566  0.6495 -0.3210  0.2698
  827MPD2    H112167   0.611   0.689  10.169 -0.9199  0.9076  1.0199
  827MPD2    H212168   1.005   0.759  10.240  2.2521 -2.3509  2.5197
  827MPD2    H312169   0.822   0.755  10.097  1.5800  0.2084  0.3759
  827MPD2     N12170   0.518   0.614  10.415 -0.0642 -0.2065  0.3731
  827MPD2    H512171   0.504   0.591  10.512 -0.9003 -2.0722 -0.1957
  827MPD2    N112172   1.007   0.679  10.498  0.3427 -0.1016 -0.2456
  827MPD2    H712173   1.097   0.701  10.456  0.9777  0.4403  1.4021
  828MPD2     C12174   4.170   0.457  12.696 -0.2410 -0.4183  0.1078
  828MPD2    C112175   4.164   0.403  12.570  0.3107 -0.1867 -0.1334
  828MPD2    C212176   4.284   0.355  12.515 -0.2226 -0.4239 -0.0892
  828MPD2    C312177   4.406   0.376  12.576 -0.0607 -0.3279 -0.1547
  828MPD2    C412178   4.411   0.432  12.705 -0.2141  0.3668  1.4707
  828MPD2    C512179   4.291   0.467  12.762  0.4769  0.1598 -0.6548
  828MPD2     H12180   4.281   0.323  12.411 -1.1425  0.7238 -0.4164
  828MPD2    H112181   4.500   0.450  12.764  0.3023  1.7455  0.2588
  828MPD2    H212182   4.086   0.495  12.753 -0.1890 -0.7777  0.4276
  828MPD2    H312183   4.292   0.512  12.861  0.7455  0.7435 -0.9236
  828MPD2     N12184   4.526   0.337  12.513 -0.0773 -0.7400  0.5548
  828MPD2    H512185   4.614   0.362  12.556  0.6543 -1.2722 -0.6301
  828MPD2    N112186   4.060   0.419  12.485  0.3634  0.2758  0.1435
  828MPD2    H712187   4.072   0.395  12.386 -1.3932  1.0294 -0.2384
  829MPD2     C12188   4.199   0.487  11.667  0.3596  0.0880  0.0533
  829MPD2    C112189   4.063   0.535  11.662 -0.6177 -0.4243  0.4550
  829MPD2    C212190   3.998   0.561  11.784  0.0639 -0.3155 -0.2105
  829MPD2    C312191   4.056   0.530  11.905 -0.1766  0.0154  0.1769
  829MPD2    C412192   4.187   0.481  11.912 -0.6864 -0.7297  0.5184
  829MPD2    C512193   4.252   0.461  11.792  0.4309 -0.0305  0.1661
  829MPD2     H12194   3.894   0.589  11.775  0.6505  2.1789  0.6133
  829MPD2    H112195   4.237   0.465  12.007 -1.9428  0.8336  1.4434
  829MPD2    H212196   4.263   0.460  11.584 -2.0688  1.7430 -2.3547
  829MPD2    H312197   4.351   0.417  11.786  1.2350  1.6700  1.0689
  829MPD2     N12198   3.984   0.522  12.029 -0.1412  0.0102  0.3992
  829MPD2    H512199   4.041   0.474  12.097  0.2791  0.4800  0.3775
  829MPD2    N112200   4.014   0.556  11.534 -0.2728  0.0557 -0.2509
  829MPD2    H712201   4.073   0.508  11.467 -0.7478 -1.1224  0.1652
  830MPD2     C12202   4.591   3.459  15.637 -0.3944 -0.2138  0.5583
  830MPD2    C112203   4.464   3.498  15.607  0.5944  0.2746 -0.3744
  830MPD2    C212204   4.441   3.593  15.514  0.2790 -0.1894  0.8483
  830MPD2    C312205   4.547   3.662  15.458  0.7661  0.6111  0.1691
  830MPD2    C412206   4.670   3.633  15.507  0.2438 -0.3986  0.1263
  830MPD2    C512207   4.693   3.527  15.584 -0.9998  0.1797 -0.6546
  830MPD2     H12208   4.338   3.615  15.491 -0.1060 -1.4923  1.3614
  830MPD2    H112209   0.031   3.689  15.475 -0.5660  1.7185  1.6576
  830MPD2    H212210   4.619   3.381  15.708 -0.5873 -1.0013 -0.2266
  830MPD2    H312211   0.068   3.503  15.612 -2.0843 -1.2060  2.0020
  830MPD2     N12212   4.534   3.756  15.348 -0.3975 -0.2786  0.1917
  830MPD2    H512213   4.613   3.815  15.326  0.7607 -1.5327  0.9788
  830MPD2    N112214   4.361   3.436  15.688  0.5502  0.4707  0.2689
  830MPD2    H712215   4.399   3.373  15.758  2.7902  0.3936 -1.0462
  831MPD2     C12216   4.139   0.586  16.414 -0.5431  0.0970  0.1548
  831MPD2    C112217   4.097   0.516  16.307 -0.5097  0.4564 -0.1852
  831MPD2    C212218   4.081   0.378  16.327  0.2521 -0.1222 -0.1554
  831MPD2    C312219   4.103   0.316  16.451 -0.0779 -0.0692  0.4191
  831MPD2    C412220   4.138   0.396  16.562 -0.7611  0.6108 -0.1176
  831MPD2    C512221   4.156   0.529  16.536 -0.1663  0.3470 -0.1321
  831MPD2     H12222   4.055   0.322  16.239  1.5644 -1.3411  0.2287
  831MPD2    H112223   4.134   0.361  16.664 -2.2371 -1.5210 -0.9283
  831MPD2    H212224   4.164   0.692  16.413 -0.8838  0.1833  0.6141
  831MPD2    H312225   4.181   0.587  16.624  0.6202 -0.5481  0.2415
  831MPD2     N12226   4.078   0.183  16.487 -0.1530 -0.1519  0.1737
  831MPD2    H512227   4.103   0.156  16.581 -1.4182  2.2614  1.1988
  831MPD2    N112228   4.074   0.574  16.184 -0.0887 -0.5071  0.3353
  831MPD2    H712229   4.040   0.510  16.113  0.3902  1.2149 -1.4628
  832MPD2     C12230   2.859   1.554   0.404  0.9596 -0.6090  0.5227
  832MPD2    C112231   2.861   1.691   0.383 -0.0016 -0.8437 -0.3206
  832MPD2    C212232   2.781   1.753   0.281 -0.8215  0.4240 -0.1491
  832MPD2    C312233   2.706   1.668   0.200  0.6571  0.4763 -1.9152
  832MPD2    C412234   2.700   1.529   0.221 -0.0372 -0.3696 -0.0434
  832MPD2    C512235   2.775   1.479   0.325 -0.3960  0.1532  0.2243
  832MPD2     H12236   2.795   1.856   0.251 -0.8577  0.8382  1.2573
  832MPD2    H112237   2.635   1.463   0.166  0.1398  0.4906 -1.2967
  832MPD2    H212238   2.931   1.502   0.466  0.2023 -1.6973  0.4832
  832MPD2    H312239   2.771   1.371   0.339  1.8682  0.2652  1.7472
  832MPD2     N12240   2.626   1.715   0.086  0.2652 -1.1569 -0.4178
  832MPD2    H512241   2.585   1.641   0.030 -3.5306 -0.5901  1.6152
  832MPD2    N112242   2.951   1.764   0.465  0.0513 -0.1346 -0.2978
  832MPD2    H712243   2.994   1.708   0.538  0.2619 -1.9239 -1.7826
  833MPD2     C12244   4.620   3.238  12.720  1.0824 -0.2333  0.0324
  833MPD2    C112245   4.632   3.333  12.621  0.6285 -0.1005  0.4306
  833MPD2    C212246   4.714   3.305  12.514 -0.2740 -0.8239 -0.5060
  833MPD2    C312247   0.064   3.186  12.514  0.6375 -0.4222 -0.3166
  833MPD2    C412248   0.061   3.104  12.625 -0.5406  0.5681 -0.3828
  833MPD2    C512249   4.703   3.131  12.726  0.1503  0.1425  1.0832
  833MPD2     H12250   0.006   3.368  12.427 -0.6194  0.7950  0.6000
  833MPD2    H112251   0.116   3.011  12.615 -1.2878  0.0524  0.2718
  833MPD2    H212252   4.558   3.254  12.807  1.9446  1.1737  0.3924
  833MPD2    H312253   4.690   3.063  12.809 -0.2760 -0.1334  0.7916
  833MPD2     N12254   0.138   3.155  12.397 -0.0876 -0.3084  0.3702
  833MPD2    H512255   0.143   3.228  12.327 -2.5911 -0.2040  0.2973
  833MPD2    N112256   4.553   3.453  12.629  1.1611 -0.1450  0.3428
  833MPD2    H712257   4.472   3.445  12.690  1.0276 -3.9422 -0.2936
  834MPD2     C12258   4.443   2.594  11.857 -0.5737  0.2255 -0.3796
  834MPD2    C112259   4.553   2.621  11.779 -0.3507 -0.2558 -0.2180
  834MPD2    C212260   4.651   2.703  11.844  0.0441  0.2157 -0.2390
  834MPD2    C312261   4.637   2.758  11.972 -0.2511  0.2555  0.6516
  834MPD2    C412262   4.540   2.717  12.049 -0.4925 -0.3793  0.1865
  834MPD2    C512263   4.444   2.640  11.988  0.3693  0.4722  0.1641
  834MPD2     H12264   0.003   2.742  11.781  0.8940  1.1081  1.3577
  834MPD2    H112265   4.509   2.766  12.140 -0.3773 -1.1892  0.6604
  834MPD2    H212266   4.361   2.536  11.816  0.4079 -2.4068  1.3359
  834MPD2    H312267   4.363   2.615  12.056 -2.5272  3.7739 -2.1260
  834MPD2     N12268   4.722   2.857  12.028 -0.6029  0.0857 -0.2997
  834MPD2    H512269   4.709   2.891  12.122  0.9048  2.5604 -0.9823
  834MPD2    N112270   4.565   2.580  11.647 -0.0308 -0.4896  0.5462
  834MPD2    H712271   4.641   2.620  11.595  0.0718 -1.4908 -0.0816
  835MPD2     C12272   0.200   0.942  11.129  0.4292 -0.0859  0.5495
  835MPD2    C112273   0.162   0.917  11.260 -0.3444  0.3732 -0.2740
  835MPD2    C212274   0.229   0.828  11.340  0.9092  0.4834  0.1892
  835MPD2    C312275   0.335   0.750  11.291 -0.6168  0.1792 -0.6144
  835MPD2    C412276   0.368   0.772  11.158  0.1534 -0.1010 -0.2670
  835MPD2    C512277   0.300   0.867  11.078 -0.4361  0.6226  0.6242
  835MPD2     H12278   0.195   0.800  11.439 -0.1038  1.6012  0.1553
  835MPD2    H112279   0.441   0.704  11.115 -0.4316 -0.7192 -0.2854
  835MPD2    H212280   0.140   1.006  11.065  0.6476  0.3278  0.7584
  835MPD2    H312281   0.334   0.868  10.975  2.9089  2.2198  1.7526
  835MPD2     N12282   0.384   0.634  11.363 -0.2768  0.0779 -0.6010
  835MPD2    H512283   0.401   0.551  11.306 -0.3417  0.0918 -0.6404
  835MPD2    N112284   0.056   0.993  11.313 -0.0053  0.1783  0.2598
  835MPD2    H712285   0.010   1.059  11.251  2.0240  2.4814  1.2222
  836MPD2     C12286   4.515   0.621  11.304 -0.5300 -0.3030 -0.2709
  836MPD2    C112287   4.542   0.620  11.439  0.0634 -0.0411 -0.2536
  836MPD2    C212288   4.456   0.686  11.527 -0.0138  0.0161  0.7443
  836MPD2    C312289   4.334   0.743  11.483  0.1012  0.3417 -0.8299
  836MPD2    C412290   4.310   0.732  11.345  0.5767  0.5630  0.5767
  836MPD2    C512291   4.395   0.664  11.258 -0.3284 -0.1615  0.3502
  836MPD2     H12292   4.482   0.685  11.633  0.9755  0.8794  0.5141
  836MPD2    H112293   4.218   0.774  11.307  1.2728  1.7886  0.2516
  836MPD2    H212294   4.586   0.570  11.240  0.0298  0.6217 -0.3870
  836MPD2    H312295   4.365   0.649  11.155 -0.1219  0.9217  0.1348
  836MPD2     N12296   4.252   0.822  11.568 -0.2850  0.2437 -0.3061
  836MPD2    H512297   4.286   0.831  11.663  1.0892 -0.6465 -0.7073
  836MPD2    N112298   4.658   0.555  11.484 -0.7121 -0.8334 -0.2360
  836MPD2    H712299   4.714   0.516  11.409  2.0344  1.8637  0.4421
  837MPD2     C12300   2.935   0.989  10.157  0.5392  0.2920  1.1650
  837MPD2    C112301   2.852   0.921  10.077  0.0130  0.5111 -0.0715
  837MPD2    C212302   2.757   0.986  10.001  0.1028  0.3153  0.4682
  837MPD2    C312303   2.742   1.116  10.008 -0.4835 -0.1944  0.3819
  837MPD2    C412304   2.830   1.189  10.090  0.0826  0.2166  0.3004
  837MPD2    C512305   2.921   1.127  10.163 -0.2918 -1.0346  0.6227
  837MPD2     H12306   2.697   0.926   9.934 -0.1710  1.2944 -0.1583
  837MPD2    H112307   2.825   1.298  10.091  2.1234  0.3073 -0.3336
  837MPD2    H212308   3.004   0.944  10.228 -1.2174 -2.2230  1.2530
  837MPD2    H312309   2.978   1.193  10.227 -2.8614  2.9448 -1.2250
  837MPD2     N12310   2.641   1.171   9.930 -0.1514 -0.3305 -0.4151
  837MPD2    H512311   2.598   1.100   9.871 -2.0872  2.1406 -1.9575
  837MPD2    N112312   2.854   0.781  10.059  0.2308  0.5601 -0.2609
  837MPD2    H712313   2.784   0.747   9.994  1.1092 -2.4774  0.3853
  838MPD2     C12314   1.129   3.079  11.303  0.2602 -0.1184  0.1962
  838MPD2    C112315   1.105   3.192  11.386  0.0406  0.1434 -0.3088
  838MPD2    C212316   0.988   3.194  11.453  0.1435  1.2389  0.2904
  838MPD2    C312317   0.900   3.087  11.449  0.6305 -0.2694 -0.2055
  838MPD2    C412318   0.928   2.980  11.361 -0.2411  0.0861 -0.0972
  838MPD2    C512319   1.041   2.979  11.292  0.2434 -0.4898 -0.1072
  838MPD2     H12320   0.964   3.280  11.514 -1.8304  1.4976 -0.8530
  838MPD2    H112321   0.856   2.899  11.354 -1.5359  1.1084  1.3218
  838MPD2    H212322   1.208   3.081  11.229 -0.9673  3.3813 -0.9835
  838MPD2    H312323   1.064   2.891  11.233  1.1858 -0.6327  0.4767
  838MPD2     N12324   0.780   3.102  11.525 -0.7401 -0.5494 -0.1507
  838MPD2    H512325   0.772   3.187  11.581 -0.0549 -0.4151 -0.2570
  838MPD2    N112326   1.200   3.294  11.411 -0.3866 -0.4425  1.2169
  838MPD2    H712327   1.171   3.378  11.461  1.1078  1.0035 -0.3361
  839MPD2     C12328   0.949   3.166  11.932  0.0606 -0.5242 -0.2465
  839MPD2    C112329   1.056   3.088  11.879  0.1493 -0.3541  0.4384
  839MPD2    C212330   1.170   3.156  11.851  0.4011 -0.4231 -0.0128
  839MPD2    C312331   1.183   3.288  11.880 -0.1873  0.2032  0.2637
  839MPD2    C412332   1.085   3.356  11.946  0.2463  0.6493  0.5130
  839MPD2    C512333   0.966   3.294  11.966 -0.0476  0.2018 -0.3612
  839MPD2     H12334   1.240   3.104  11.787  0.8740  1.8292 -1.3146
  839MPD2    H112335   1.092   3.462  11.967  0.9175  0.4299  1.3654
  839MPD2    H212336   0.849   3.126  11.925  0.1418 -1.0960  1.7093
  839MPD2    H312337   0.877   3.345  12.001 -0.5928 -0.8262 -0.2666
  839MPD2     N12338   1.293   3.375  11.867  0.0890 -0.4267  0.2757
  839MPD2    H512339   1.286   3.476  11.864 -1.5899 -0.6524 -3.2741
  839MPD2    N112340   1.041   2.958  11.822  0.2941  0.6583  0.1733
  839MPD2    H712341   1.122   2.920  11.776  1.0999  0.9709  1.3320
  840MPD2     C12342   1.646   0.824  10.383  0.2856 -0.2672 -0.1504
  840MPD2    C112343   1.607   0.856  10.509  0.1674 -0.7843  0.5524
  840MPD2    C212344   1.675   0.960  10.572 -0.1144  0.1485 -0.7697
  840MPD2    C312345   1.776   1.030  10.499 -0.5072  0.1268 -0.5644
  840MPD2    C412346   1.811   0.990  10.376  0.5872  0.1730  0.7580
  840MPD2    C512347   1.742   0.884  10.315  0.5748 -0.0588  0.6997
  840MPD2     H12348   1.660   0.979  10.678 -2.6445  1.0939 -1.2842
  840MPD2    H112349   1.902   1.027  10.330  0.1683  0.4538  0.1564
  840MPD2    H212350   1.599   0.740  10.334 -0.5404  1.1517 -1.7666
  840MPD2    H312351   1.776   0.844  10.220  2.5550  0.4330  1.1942
  840MPD2     N12352   1.863   1.130  10.555 -0.5548  0.1720  0.3396
  840MPD2    H512353   1.935   1.158  10.489 -0.9694  0.9313  0.2018
  840MPD2    N112354   1.516   0.767  10.573  0.1557 -0.1533  0.5145
  840MPD2    H712355   1.456   0.717  10.507 -1.0860  0.7450  0.9555
  841MPD2     C12356   1.218   0.936  15.308  0.4323 -0.6175  0.2731
  841MPD2    C112357   1.237   0.955  15.170  0.3979 -0.3892  0.7425
  841MPD2    C212358   1.210   1.078  15.112 -0.5803  0.0623 -0.1854
  841MPD2    C312359   1.177   1.191  15.186 -0.6461 -0.3737 -0.0553
  841MPD2    C412360   1.179   1.177  15.322 -0.3093 -0.0329  0.1674
  841MPD2    C512361   1.195   1.051  15.381  0.3129 -0.1601  0.4972
  841MPD2     H12362   1.207   1.073  15.004 -2.0934 -0.8170 -0.1066
  841MPD2    H112363   1.154   1.258  15.391  0.6809  0.6581 -0.2900
  841MPD2    H212364   1.248   0.846  15.361  0.1883 -0.6023  0.4380
  841MPD2    H312365   1.187   1.034  15.488 -2.8498 -0.4911  0.1941
  841MPD2     N12366   1.168   1.317  15.121  0.7092  0.0762 -0.1984
  841MPD2    H512367   1.180   1.322  15.020 -1.1105 -1.6491 -0.5141
  841MPD2    N112368   1.308   0.860  15.091 -0.8789  0.2087 -0.3865
  841MPD2    H712369   1.338   0.876  14.995 -1.5558  1.2935 -0.4197
  842MPD2     C12370   2.152   2.250  17.416  1.2560 -0.7675  0.4422
  842MPD2    C112371   2.031   2.231  17.352  0.3565 -0.2201 -0.6796
  842MPD2    C212372   1.948   2.139  17.401 -0.2013 -0.1916 -0.1257
  842MPD2    C312373   1.968   2.078  17.524  0.6004  0.7144 -0.2179
  842MPD2    C412374   2.085   2.097  17.592  0.0043 -0.6140 -0.3896
  842MPD2    C512375   2.176   2.185  17.539  0.0441  0.8260  0.1496
  842MPD2     H12376   1.849   2.116  17.363 -1.0402  2.5721  0.4030
  842MPD2    H112377   2.121   2.043  17.679 -1.2913 -0.4771  0.2315
  842MPD2    H212378   2.226   2.314  17.369 -0.5662  0.1939 -1.1570
  842MPD2    H312379   2.266   2.208  17.594 -0.8703  1.2652  1.4746
  842MPD2     N12380   1.875   1.985  17.570 -0.0068 -0.0909  0.9108
  842MPD2    H512381   1.802   1.980  17.499 -0.7473 -0.2326  1.6886
  842MPD2    N112382   2.016   2.295  17.228 -0.8984 -0.2777 -0.4081
  842MPD2    H712383   2.089   2.362  17.208 -1.3501  0.3938  0.1924
  843MPD2     C12384   3.725   2.625   0.530  0.6199 -0.1840  0.1086
  843MPD2    C112385   3.820   2.530   0.539 -0.8342 -0.8506  0.3933
  843MPD2    C212386   3.951   2.561   0.502 -0.1728 -0.0198 -0.4988
  843MPD2    C312387   3.981   2.686   0.455  0.6140 -0.8109  0.8787
  843MPD2    C412388   3.887   2.780   0.432  0.2861 -0.0210  0.2617
  843MPD2    C512389   3.757   2.753   0.481  0.3576  0.0591 -0.0848
  843MPD2     H12390   4.027   2.487   0.524  0.1534  0.5725  0.3621
  843MPD2    H112391   3.903   2.885   0.409  0.3623 -0.3598 -1.2461
  843MPD2    H212392   3.625   2.596   0.559  0.4093  0.9055  0.4734
  843MPD2    H312393   3.679   2.827   0.473  0.8693  0.4702 -1.2208
  843MPD2     N12394   4.115   2.711   0.418  0.1983 -0.0500  0.4733
  843MPD2    H512395   4.125   2.807   0.387  2.2878 -0.9551 -1.6618
  843MPD2    N112396   3.784   2.406   0.594  0.1834  0.0783  0.2496
  843MPD2    H712397   3.695   2.398   0.643  0.1339  1.2249  0.3334
  844MPD2     C12398   2.470   1.647  17.065  0.3426 -0.7492  0.2614
  844MPD2    C112399   2.512   1.529  17.107  1.2867 -0.1467 -1.0294
  844MPD2    C212400   2.594   1.525  17.219  0.1897  0.0679 -0.0584
  844MPD2    C312401   2.652   1.641  17.269  0.8203 -0.6671  0.1662
  844MPD2    C412402   2.608   1.763  17.218  0.0989 -0.4912  0.6673
  844MPD2    C512403   2.522   1.762  17.117  0.0251  0.2510  0.2650
  844MPD2     H12404   2.626   1.426  17.252  2.0486  0.6838 -0.0346
  844MPD2    H112405   2.643   1.860  17.253  0.4426 -1.2688  2.4690
  844MPD2    H212406   2.399   1.661  16.984 -0.0372 -0.2932  0.6782
  844MPD2    H312407   2.493   1.864  17.093 -1.9931  0.1429  2.2155
  844MPD2     N12408   2.732   1.625  17.384 -0.0137  0.5232 -0.2083
  844MPD2    H512409   2.746   1.532  17.421  0.0569  0.6459  0.0679
  844MPD2    N112410   2.486   1.405  17.049  0.6106 -0.4122 -0.4002
  844MPD2    H712411   2.513   1.322  17.101 -0.3876  0.8177  2.0611
  845MPD2     C12412   3.282   2.339   0.132 -0.1360  0.4438 -0.0631
  845MPD2    C112413   3.163   2.316   0.198  0.2026 -0.0747 -0.0398
  845MPD2    C212414   3.103   2.196   0.176 -0.1934  0.3096 -0.3575
  845MPD2    C312415   3.159   2.100   0.090 -0.2956 -0.2619  0.3010
  845MPD2    C412416   3.276   2.123   0.021  0.6218  0.4240  0.2480
  845MPD2    C512417   3.335   2.243   0.049 -0.3989 -0.0678  0.7821
  845MPD2     H12418   2.999   2.179   0.202  0.1525  1.2491  1.6541
  845MPD2    H112419   3.329   2.054  17.662 -1.9192  0.8596 -2.3108
  845MPD2    H212420   3.333   2.433   0.148 -0.8905  0.8685 -0.1320
  845MPD2    H312421   3.426   2.267  17.701 -1.4282  0.4688 -0.7152
  845MPD2     N12422   3.080   1.985   0.061 -0.1015  0.3415  0.1773
  845MPD2    H512423   2.987   1.987   0.102 -0.5548 -0.9708 -0.8035
  845MPD2    N112424   3.107   2.403   0.299  0.0029 -0.1620 -0.1490
  845MPD2    H712425   3.019   2.370   0.337  0.0352  0.1836  0.2296
  846MPD2     C12426   4.120   2.702  13.837 -0.4356 -0.0554  0.0974
  846MPD2    C112427   4.042   2.817  13.862 -0.8882 -0.5731 -0.1057
  846MPD2    C212428   3.974   2.827  13.980 -0.9638  0.0443  0.1242
  846MPD2    C312429   3.997   2.735  14.079  0.3705  0.1294 -0.6856
  846MPD2    C412430   4.079   2.623  14.057  0.2118  0.2937  0.6191
  846MPD2    C512431   4.136   2.609  13.936  0.5737  0.0968 -0.6283
  846MPD2     H12432   3.897   2.901  13.999 -0.2614  0.6300  0.7062
  846MPD2    H112433   4.108   2.547  14.129 -0.3812 -1.1499 -0.6675
  846MPD2    H212434   4.172   2.680  13.745 -3.0293 -3.0415 -0.6954
  846MPD2    H312435   4.193   2.520  13.912 -1.0586 -0.5187 -2.3127
  846MPD2     N12436   3.945   2.771  14.208 -0.4720 -0.3095 -0.0220
  846MPD2    H512437   3.884   2.851  14.218 -0.3081  0.1914 -2.9174
  846MPD2    N112438   4.046   2.919  13.770 -0.2210  0.1758  0.2668
  846MPD2    H712439   4.011   3.004  13.812  3.3033  1.8678 -0.2027
  847MPD2     C12440   3.815   3.501  14.326  0.9606 -0.6091  0.1701
  847MPD2    C112441   3.906   3.580  14.261 -0.0235 -0.4844  0.5926
  847MPD2    C212442   4.043   3.553  14.272 -0.1329 -0.0361  0.2350
  847MPD2    C312443   4.088   3.442  14.347  0.7078 -0.3680 -0.8457
  847MPD2    C412444   3.993   3.362  14.411 -0.6625  0.7354 -0.0289
  847MPD2    C512445   3.861   3.388  14.391  0.7223 -0.5914 -0.4459
  847MPD2     H12446   4.123   3.611  14.227 -1.0360  0.9256 -0.1205
  847MPD2    H112447   4.029   3.281  14.474  0.4565  0.0762 -1.5277
  847MPD2    H212448   3.710   3.527  14.331  1.0464  0.1442 -2.1939
  847MPD2    H312449   3.788   3.325  14.441  0.0300  1.1653  0.8041
  847MPD2     N12450   4.227   3.430  14.355 -0.5033 -0.5708 -0.1823
  847MPD2    H512451   4.284   3.508  14.322  0.1368 -0.5608  0.9528
  847MPD2    N112452   3.867   3.696  14.192 -0.0811 -0.0032 -0.0623
  847MPD2    H712453   3.944   3.740  14.143 -0.4481  0.7942  0.0772
  848MPD2     C12454   2.567   2.276  17.195  0.2999  0.6505 -0.5438
  848MPD2    C112455   2.554   2.304  17.335 -0.4551 -0.3384  0.7021
  848MPD2    C212456   2.559   2.435  17.378 -0.1399 -0.0982 -0.4278
  848MPD2    C312457   2.582   2.538  17.290  0.5248  0.0686 -0.7325
  848MPD2    C412458   2.595   2.507  17.151  1.3721  0.1205 -0.2504
  848MPD2    C512459   2.585   2.377  17.105  0.7189 -0.6277  0.2937
  848MPD2     H12460   2.537   2.460  17.481  0.6506  1.7145 -0.6977
  848MPD2    H112461   2.609   2.583  17.075  1.0762  0.3745 -0.0582
  848MPD2    H212462   2.552   2.178  17.151 -1.0578  0.8414 -0.5008
  848MPD2    H312463   2.592   2.361  16.998  1.5603 -0.0240  0.2594
  848MPD2     N12464   2.568   2.674  17.319 -0.1454  0.2308  0.1248
  848MPD2    H512465   2.539   2.733  17.242 -0.7217  0.9401  0.8785
  848MPD2    N112466   2.511   2.197  17.421  0.0478 -0.0960  0.3225
  848MPD2    H712467   2.508   2.216  17.521 -0.8542 -2.7948  0.8003
  849MPD2     C12468   1.486   1.701  14.502 -0.1275  0.3721 -0.3219
  849MPD2    C112469   1.569   1.763  14.408 -0.4407  0.2796 -0.3530
  849MPD2    C212470   1.694   1.711  14.385  0.0667 -0.3446 -0.4133
  849MPD2    C312471   1.748   1.612  14.467  0.1989  0.3709  0.2602
  849MPD2    C412472   1.667   1.566  14.573  0.2677  0.0772 -0.2596
  849MPD2    C512473   1.539   1.605  14.586  1.4392 -0.4907 -0.2209
  849MPD2     H12474   1.756   1.749  14.304 -1.3524  0.6463 -1.0326
  849MPD2    H112475   1.707   1.494  14.644  0.4237 -1.1191 -1.5709
  849MPD2    H212476   1.387   1.740  14.522  0.1398  0.0890  1.5167
  849MPD2    H312477   1.481   1.557  14.664  0.1875  0.8369 -0.3394
  849MPD2     N12478   1.878   1.547  14.438  0.6042 -0.7023  0.0463
  849MPD2    H512479   1.930   1.495  14.508 -1.3367 -4.1079 -1.0820
  849MPD2    N112480   1.517   1.862  14.325  0.6556  0.0400  0.1699
  849MPD2    H712481   1.417   1.855  14.311  0.9865  0.8618 -2.7128
  850MPD2     C12482   3.664   4.118  15.137  0.4024  0.0491  0.1808
  850MPD2    C112483   3.622   4.235  15.199  0.0525  0.5074  0.3864
  850MPD2    C212484   3.678   4.358  15.156 -0.3472 -0.1995  0.0063
  850MPD2    C312485   3.769   4.364  15.048  0.5682 -0.3917  0.2725
  850MPD2    C412486   3.808   4.252  14.995 -0.3472 -0.1610  0.3200
  850MPD2    C512487   3.757   4.132  15.035 -0.3435  0.1364 -0.4688
  850MPD2     H12488   3.648   4.443  15.218  2.1888 -1.9703  3.6987
  850MPD2    H112489   3.889   4.245  14.922 -0.0212  0.4041  0.6261
  850MPD2    H212490   3.622   4.024  15.171  0.5914  0.8074  2.4829
  850MPD2    H312491   3.787   4.044  14.979  1.1007  1.4235 -1.7233
  850MPD2     N12492   3.820   4.485  14.995  0.1272  0.6940 -0.5111
  850MPD2    H512493   3.887   4.476  14.919  1.8961 -2.5100  1.3934
  850MPD2    N112494   3.533   4.221  15.313  0.0932 -0.2114 -0.1620
  850MPD2    H712495   3.477   4.137  15.321 -0.4191  0.0343 -1.0914
  851MPD2     C12496   4.209   4.599  15.259  0.3189  0.0803 -0.1653
  851MPD2    C112497   4.155   4.490  15.321  0.7354  0.3423  0.5481
  851MPD2    C212498   4.214   4.361  15.303 -0.0400  0.8832  0.3806
  851MPD2    C312499   4.321   4.350  15.217  0.4819  0.3194 -0.5002
  851MPD2    C412500   4.374   4.464  15.154 -0.3589  0.2434 -0.0458
  851MPD2    C512501   4.314   4.583  15.172  0.6142  0.3779  0.4041
  851MPD2     H12502   4.167   4.270  15.338  0.6746  0.7339  0.9392
  851MPD2    H112503   4.453   4.463  15.079 -0.3762  0.4582 -0.0653
  851MPD2    H212504   4.170   4.698  15.283  1.7593  0.7137 -0.4339
  851MPD2    H312505   4.358   4.668  15.121  0.4147 -0.2232 -0.7699
  851MPD2     N12506   4.377   4.219  15.196  0.3439  0.1608 -0.4163
  851MPD2    H512507   4.319   4.138  15.217 -0.2400  0.8812  0.7389
  851MPD2    N112508   4.037   4.505  15.400  0.1039  0.6408 -0.4414
  851MPD2    H712509   3.995   4.597  15.405 -0.2658  0.4035  0.7693
  852MPD2     C12510   3.305   2.327  10.573 -0.0424  0.2168  0.7454
  852MPD2    C112511   3.406   2.391  10.647 -0.3564  0.9734 -0.5348
  852MPD2    C212512   3.488   2.493  10.597  0.0949  0.4582 -0.2326
  852MPD2    C312513   3.468   2.536  10.471 -0.4462  0.2739 -0.9807
  852MPD2    C412514   3.363   2.481  10.393 -0.4964 -0.0393 -0.2235
  852MPD2    C512515   3.287   2.382  10.451 -0.1923 -0.3277  0.0191
  852MPD2     H12516   3.568   2.526  10.663  0.6681 -2.8748  0.7354
  852MPD2    H112517   3.337   2.511  10.292 -0.5939  1.1830  0.1696
  852MPD2    H212518   3.239   2.245  10.597 -0.2249  0.0831 -0.2007
  852MPD2    H312519   3.214   2.335  10.387 -0.9456  2.1115 -0.9393
  852MPD2     N12520   3.549   2.647  10.422 -0.0827 -0.0397 -0.6908
  852MPD2    H512521   3.609   2.694  10.489  0.4051  0.6694 -1.6259
  852MPD2    N112522   3.433   2.346  10.782 -0.2136  0.1510  0.1201
  852MPD2    H712523   3.510   2.390  10.831 -0.3167  0.7081 -0.2066
  853MPD2     C12524   1.161   2.105  12.531 -0.4812  0.1101 -0.5562
  853MPD2    C112525   1.036   2.103  12.488 -1.1215  0.0382 -0.0390
  853MPD2    C212526   1.006   2.048  12.364 -0.1181 -0.8972  0.0415
  853MPD2    C312527   1.102   1.977  12.288 -0.3280 -1.5501  0.6772
  853MPD2    C412528   1.230   1.973  12.335 -0.0766 -0.1271 -0.3602
  853MPD2    C512529   1.256   2.047  12.452  0.6014  0.1972 -0.7395
  853MPD2     H12530   0.909   2.062  12.317  0.5444  0.4875 -0.9148
  853MPD2    H112531   1.309   1.916  12.287  1.4293  2.9821 -1.5064
  853MPD2    H212532   1.194   2.165  12.615  0.6952 -0.1823 -0.8083
  853MPD2    H312533   1.360   2.048  12.481  0.1430 -0.4632  0.9161
  853MPD2     N12534   1.089   1.912  12.162  0.3520 -0.4212  0.1634
  853MPD2    H512535   1.180   1.887  12.125  0.1437 -1.2058  0.1641
  853MPD2    N112536   0.948   2.185  12.562 -0.4956 -0.1022 -0.2232
  853MPD2    H712537   0.982   2.222  12.651  1.1910  1.9619 -1.7259
  854MPD2     C12538   2.712   2.398  13.527 -0.1515  0.5992  0.3433
  854MPD2    C112539   2.762   2.377  13.398  0.2972 -0.8836 -0.2259
  854MPD2    C212540   2.887   2.311  13.396 -0.1542  0.1075 -0.1793
  854MPD2    C312541   2.946   2.267  13.514  0.7850 -0.0630 -0.2008
  854MPD2    C412542   2.897   2.296  13.638 -0.0314 -0.7547  0.5658
  854MPD2    C512543   2.778   2.359  13.645  0.2153 -0.2368  0.0838
  854MPD2     H12544   2.917   2.283  13.295  1.2648 -0.6176  0.4510
  854MPD2    H112545   2.950   2.268  13.729  1.9391  1.5625  0.1166
  854MPD2    H212546   2.618   2.448  13.544  0.3677  1.4806  0.6589
  854MPD2    H312547   2.734   2.396  13.737 -1.1961 -0.3145 -0.5526
  854MPD2     N12548   3.052   2.170  13.509  0.9369 -0.9254 -0.3755
  854MPD2    H512549   3.087   2.143  13.600  0.7233 -1.7190 -0.5205
  854MPD2    N112550   2.681   2.416  13.287 -0.2497 -0.0751 -0.3082
  854MPD2    H712551   2.597   2.465  13.313 -0.6270 -0.2855 -1.1243
  855MPD2     C12552   3.777   1.725  14.044  0.6369 -0.6765 -0.1586
  855MPD2    C112553   3.657   1.789  14.063 -0.4541  0.5788  0.0041
  855MPD2    C212554   3.584   1.829  13.953  0.0692  0.2580  0.6646
  855MPD2    C312555   3.616   1.793  13.827  0.1526  0.7325  0.3669
  855MPD2    C412556   3.731   1.724  13.811 -0.0878 -0.5395 -0.0981
  855MPD2    C512557   3.813   1.693  13.919 -0.3652 -0.1394 -0.0177
  855MPD2     H12558   3.499   1.890  13.980 -1.9754 -2.6818  0.9216
  855MPD2    H112559   3.769   1.702  13.712 -3.6102 -1.1265 -1.2990
  855MPD2    H212560   3.839   1.691  14.126  0.7140  3.2448  1.4393
  855MPD2    H312561   3.907   1.647  13.892 -0.5318 -0.5952  0.1829
  855MPD2     N12562   3.541   1.837  13.715  0.3915  0.0856 -0.3380
  855MPD2    H512563   3.576   1.803  13.626  1.2756  1.7995 -0.6359
  855MPD2    N112564   3.588   1.805  14.187 -0.5336  0.4667 -0.4371
  855MPD2    H712565   3.495   1.844  14.179 -0.6561 -0.0050 -1.3342
  856MPD2     C12566   0.626   2.950  13.648 -0.1409  0.2139  0.3147
  856MPD2    C112567   0.697   3.067  13.641  0.2012 -0.3717 -0.4122
  856MPD2    C212568   0.636   3.177  13.688 -0.3718  0.1937  0.1162
  856MPD2    C312569   0.503   3.174  13.734  0.0336 -0.6788 -0.2020
  856MPD2    C412570   0.430   3.052  13.739 -0.0044 -0.0265  0.1067
  856MPD2    C512571   0.502   2.939  13.699 -0.0082  0.7986 -0.1667
  856MPD2     H12572   0.698   3.266  13.685  0.4261 -0.3169  1.8168
  856MPD2    H112573   0.325   3.054  13.766 -0.0054 -0.1018  0.1073
  856MPD2    H212574   0.664   2.851  13.626 -1.3681 -0.2540  0.2883
  856MPD2    H312575   0.455   2.841  13.706  0.7678  0.5769  2.0097
  856MPD2     N12576   0.432   3.286  13.795  0.0900 -0.3575  0.2466
  856MPD2    H512577   0.350   3.261  13.848 -0.5626 -0.4591 -0.8195
  856MPD2    N112578   0.832   3.077  13.596  0.5657  0.2020 -0.4702
  856MPD2    H712579   0.882   3.164  13.612 -0.2097  0.5049  0.3009
  857MPD2     C12580   1.738   0.474  12.686 -0.2611  0.2881 -0.1279
  857MPD2    C112581   1.827   0.423  12.781 -0.2939 -0.2495 -0.7984
  857MPD2    C212582   1.880   0.513  12.875  0.4581 -0.2547  0.6926
  857MPD2    C312583   1.854   0.649  12.873 -0.0376  0.4212 -0.2717
  857MPD2    C412584   1.771   0.701  12.775  0.3816  0.8603 -0.0218
  857MPD2    C512585   1.714   0.610  12.682 -0.8466 -0.2589  0.0794
  857MPD2     H12586   1.939   0.474  12.957  0.9833 -0.7735  0.0681
  857MPD2    H112587   1.754   0.808  12.766 -2.9869  0.4200  1.2601
  857MPD2    H212588   1.688   0.405  12.618 -3.2088  1.4546  0.8443
  857MPD2    H312589   1.651   0.648  12.602 -2.0762 -0.0169  1.1469
  857MPD2     N12590   1.913   0.731  12.978  0.2563 -0.4421 -0.1718
  857MPD2    H512591   1.974   0.682  13.043  2.1709 -0.5311 -2.0512
  857MPD2    N112592   1.865   0.284  12.787 -0.3746  0.1567 -0.2437
  857MPD2    H712593   1.814   0.207  12.744  1.3995 -1.4613  0.5660
  858MPD2     C12594   2.714   4.370  16.791  1.0167 -0.4089  0.2021
  858MPD2    C112595   2.746   4.292  16.899  0.1538  0.2414  0.2035
  858MPD2    C212596   2.716   4.331  17.030 -0.7698 -0.2214 -0.3481
  858MPD2    C312597   2.652   4.445  17.054  0.5705  0.4139 -0.5968
  858MPD2    C412598   2.610   4.517  16.945 -0.0604  0.3184  0.6558
  858MPD2    C512599   2.638   4.479  16.818 -0.1350 -0.4093  1.0032
  858MPD2     H12600   2.744   4.266  17.112  0.7294  0.3422 -0.4128
  858MPD2    H112601   2.550   4.607  16.956 -0.4360  0.0977  0.4490
  858MPD2    H212602   2.736   4.348  16.687 -0.8703 -0.4323 -0.1853
  858MPD2    H312603   2.607   4.547  16.739  1.2290 -0.7141  0.1925
  858MPD2     N12604   2.630   4.495  17.184 -0.0047 -0.4318  0.0859
  858MPD2    H512605   2.587   4.587  17.187  1.7317  0.4700 -3.0446
  858MPD2    N112606   2.810   4.169  16.880 -0.0252 -0.2017  0.5461
  858MPD2    H712607   2.835   4.120  16.965 -0.7447  0.1856  0.9778
  859MPD2     C12608   1.317   1.480  15.768 -0.1722 -0.2203 -0.4853
  859MPD2    C112609   1.378   1.535  15.655 -0.3966 -0.0867 -0.7074
  859MPD2    C212610   1.433   1.459  15.562 -0.0197 -0.1638  0.4127
  859MPD2    C312611   1.421   1.318  15.564 -0.2468  0.2687 -0.0986
  859MPD2    C412612   1.363   1.265  15.675 -0.3995  0.5178 -0.1649
  859MPD2    C512613   1.305   1.344  15.775  0.0870  0.1540 -0.5111
  859MPD2     H12614   1.479   1.505  15.475 -2.0605 -0.2543 -0.7295
  859MPD2    H112615   1.353   1.158  15.684 -0.7704  0.4548 -1.3519
  859MPD2    H212616   1.280   1.546  15.846  0.7041  0.8344 -0.9628
  859MPD2    H312617   1.259   1.299  15.863  1.2153 -1.9125 -0.9805
  859MPD2     N12618   1.486   1.232  15.476  0.2550  0.3883  0.0430
  859MPD2    H512619   1.486   1.133  15.497  0.9207  0.3888  0.0207
  859MPD2    N112620   1.374   1.679  15.660  0.0800 -0.0077 -0.3210
  859MPD2    H712621   1.317   1.724  15.731  0.3673  1.5998 -1.0911
  860MPD2     C12622   3.332   1.577  11.684  0.7447  0.0441  0.5199
  860MPD2    C112623   3.410   1.662  11.760  0.1116  0.1555  0.1487
  860MPD2    C212624   3.360   1.688  11.884 -0.8876 -0.0057  0.4161
  860MPD2    C312625   3.257   1.619  11.938 -0.6625  0.7180  0.2699
  860MPD2    C412626   3.197   1.521  11.875 -0.0466 -0.3157 -0.1434
  860MPD2    C512627   3.233   1.507  11.745  0.1383  0.0531  0.6654
  860MPD2     H12628   3.412   1.763  11.942  2.8607 -1.5196 -0.9776
  860MPD2    H112629   3.117   1.461  11.917 -0.7207  1.3850  0.9852
  860MPD2    H212630   3.368   1.566  11.582 -2.3119 -0.6935 -0.4840
  860MPD2    H312631   3.171   1.435  11.693  0.7923 -1.0490  1.4089
  860MPD2     N12632   3.227   1.662  12.065  0.6860 -0.6207  0.2584
  860MPD2    H512633   3.268   1.748  12.099  2.0789 -2.0395  2.1084
  860MPD2    N112634   3.534   1.729  11.718  0.0815  0.6510 -0.2409
  860MPD2    H712635   3.579   1.800  11.776 -1.4727  0.8991  0.6677
  861MPD2     C12636   2.776   0.329  11.025 -0.5295 -0.6218  0.0180
  861MPD2    C112637   2.668   0.387  11.098  0.0333  0.0554  0.0309
  861MPD2    C212638   2.594   0.487  11.038 -0.2193  0.2867 -0.2886
  861MPD2    C312639   2.613   0.522  10.904  0.4421  0.1438 -0.4390
  861MPD2    C412640   2.714   0.460  10.833  0.3218 -0.0643 -0.0762
  861MPD2    C512641   2.799   0.374  10.902  0.2314  0.6999 -0.1386
  861MPD2     H12642   2.510   0.519  11.099  1.1868 -0.0838  1.8545
  861MPD2    H112643   2.739   0.500  10.735 -1.8901 -0.1652 -0.6906
  861MPD2    H212644   2.857   0.285  11.083  0.5226  0.0654 -0.9284
  861MPD2    H312645   2.891   0.353  10.849 -0.5703 -1.0259 -0.8344
  861MPD2     N12646   2.531   0.608  10.822 -0.1706 -0.2364 -0.5486
  861MPD2    H512647   2.540   0.618  10.721  1.8028  1.9292 -0.1754
  861MPD2    N112648   2.648   0.356  11.231 -0.3397  0.0302  0.1190
  861MPD2    H712649   2.562   0.390  11.271 -1.0096 -2.7537  1.0579
  862MPD2     C12650   2.107   0.817  10.312  0.3309 -0.0522  0.6045
  862MPD2    C112651   2.226   0.815  10.386 -0.1441  0.0900  0.1854
  862MPD2    C212652   2.283   0.697  10.423  0.6226  0.0931 -0.7735
  862MPD2    C312653   2.204   0.582  10.402  0.1007  0.4191 -0.1643
  862MPD2    C412654   2.089   0.587  10.326  0.6918 -0.7415 -0.6152
  862MPD2    C512655   2.042   0.702  10.281 -0.7942  0.5219 -0.0988
  862MPD2     H12656   2.374   0.701  10.482 -0.6635 -0.7986  1.2829
  862MPD2    H112657   2.025   0.500  10.317 -1.0855  0.5237 -0.1872
  862MPD2    H212658   2.069   0.909  10.268 -0.7546 -0.9506 -0.3162
  862MPD2    H312659   1.948   0.705  10.227 -1.8351  0.5670  1.7237
  862MPD2     N12660   2.226   0.461  10.465  0.2793  0.3562  0.0060
  862MPD2    H512661   2.160   0.384  10.463 -0.0603  0.6676 -0.9497
  862MPD2    N112662   2.275   0.945  10.419  0.5210 -0.0736  0.0293
  862MPD2    H712663   2.204   1.017  10.410 -1.1802 -2.1643 -3.1385
  863MPD2     C12664   0.857   2.623  16.863  0.1179 -0.5146  0.4695
  863MPD2    C112665   0.820   2.756  16.856 -0.5794 -0.0100 -0.2299
  863MPD2    C212666   0.903   2.848  16.922 -0.6858 -0.0719  0.8203
  863MPD2    C312667   1.015   2.807  16.991  0.0932 -0.6819  0.1322
  863MPD2    C412668   1.041   2.668  17.002  0.7895  0.3158 -0.3790
  863MPD2    C512669   0.963   2.577  16.931  0.0552  0.7438 -0.7780
  863MPD2     H12670   0.878   2.952  16.938  1.3138  0.7073 -1.2378
  863MPD2    H112671   1.130   2.639  17.058  0.2854  0.4501  0.4906
  863MPD2    H212672   0.809   2.548  16.802  1.8499 -0.0385 -1.4939
  863MPD2    H312673   0.982   2.471  16.942 -1.9647  0.4372 -0.2571
  863MPD2     N12674   1.112   2.889  17.049 -0.5266  0.3751  0.1636
  863MPD2    H512675   1.193   2.842  17.090 -0.5456  0.2914  0.1031
  863MPD2    N112676   0.696   2.790  16.794 -1.0456 -0.5665  0.0426
  863MPD2    H712677   0.629   2.721  16.762  1.1874 -2.7214  0.1087
  864MPD2     C12678   1.069   0.367  16.767 -0.3233 -0.1010  0.0366
  864MPD2    C112679   1.135   0.248  16.792 -0.2071 -0.5371 -0.1926
  864MPD2    C212680   1.273   0.241  16.771 -0.5485  0.0247 -0.1665
  864MPD2    C312681   1.342   0.354  16.718 -0.2838  0.4758  0.4461
  864MPD2    C412682   1.270   0.465  16.687  0.3167  0.1203  0.5626
  864MPD2    C512683   1.137   0.468  16.708  0.0117 -0.0149 -0.3351
  864MPD2     H12684   1.325   0.147  16.785 -2.2390 -1.0151 -0.8386
  864MPD2    H112685   1.323   0.553  16.654  1.9549 -1.6122 -1.3616
  864MPD2    H212686   0.963   0.381  16.784 -0.0495  0.7191  1.1013
  864MPD2    H312687   1.082   0.560  16.696  0.8707  0.3239 -1.6941
  864MPD2     N12688   1.482   0.353  16.694  0.4863  0.5990 -0.8615
  864MPD2    H512689   1.527   0.433  16.650  0.5976  0.8113 -0.3633
  864MPD2    N112690   1.068   0.142  16.850  0.2667  0.0885 -0.1601
  864MPD2    H712691   0.981   0.160  16.898  0.9913 -1.2849  1.6482
  865MPD2     C12692   1.518   0.344  16.003 -0.3170  0.2403  0.6200
  865MPD2    C112693   1.557   0.226  16.066 -0.1293  0.0894  0.5518
  865MPD2    C212694   1.654   0.233  16.165  1.0786  0.1709  0.2366
  865MPD2    C312695   1.699   0.352  16.213  0.1029  0.1368 -0.1513
  865MPD2    C412696   1.670   0.469  16.142  0.6507  0.1529  0.3803
  865MPD2    C512697   1.580   0.462  16.037  0.1032  0.0711 -0.2667
  865MPD2     H12698   1.682   0.137  16.207  0.6151  1.0701  2.5830
  865MPD2    H112699   1.706   0.564  16.179  1.0410  0.1740 -0.0610
  865MPD2    H212700   1.431   0.357  15.940  0.7310 -0.2597 -0.9166
  865MPD2    H312701   1.541   0.551  15.989 -0.9365 -0.2546 -0.0144
  865MPD2     N12702   1.776   0.352  16.331 -0.1673 -0.4422 -0.2482
  865MPD2    H512703   1.786   0.440  16.380  1.1678 -2.0773  2.3867
  865MPD2    N112704   1.494   0.110  16.014  1.4078 -0.3484  0.3144
  865MPD2    H712705   1.451   0.116  15.923 -2.0695  2.4792  2.1478
  866MPD2     C12706   3.209   0.250  11.148  0.0463 -0.4059  0.3639
  866MPD2    C112707   3.199   0.354  11.060 -0.1644 -0.6028 -0.9722
  866MPD2    C212708   3.123   0.465  11.096  0.6315  0.2451  0.1238
  866MPD2    C312709   3.057   0.463  11.220  0.0847  0.7105  0.1660
  866MPD2    C412710   3.062   0.355  11.297  0.0053 -0.2803 -0.2489
  866MPD2    C512711   3.140   0.247  11.265 -1.0266  0.0311  0.2061
  866MPD2     H12712   3.120   0.549  11.029  1.3198  1.0212  1.0693
  866MPD2    H112713   3.011   0.359  11.393 -1.2623  0.6066 -0.9594
  866MPD2    H212714   3.247   0.156  11.109  0.5153 -0.5828  1.2558
  866MPD2    H312715   3.145   0.155  11.322 -2.7313  0.2106  0.6680
  866MPD2     N12716   2.988   0.581  11.262  0.7292  0.0572  0.2876
  866MPD2    H512717   2.931   0.580  11.347 -1.4956  0.3112 -1.2030
  866MPD2    N112718   3.263   0.334  10.934 -0.3732 -0.5727  0.0532
  866MPD2    H712719   3.306   0.243  10.922  2.3851  0.5619  1.4165
  867MPD2     C12720   0.535   0.265  16.650 -0.4918  0.8249  0.7408
  867MPD2    C112721   0.617   0.229  16.756  0.1594  0.5822 -0.4544
  867MPD2    C212722   0.680   0.325  16.822 -0.7357  0.7619  0.8818
  867MPD2    C312723   0.660   0.459  16.809  0.1744 -0.0006 -0.2683
  867MPD2    C412724   0.574   0.492  16.711 -0.4723  0.1863  0.0888
  867MPD2    C512725   0.523   0.400  16.622 -0.2057  0.5781 -0.2560
  867MPD2     H12726   0.745   0.294  16.903 -0.3567 -1.9104 -0.4414
  867MPD2    H112727   0.569   0.597  16.683  0.7383  0.4243  0.7561
  867MPD2    H212728   0.477   0.203  16.583  3.6123 -1.5447 -0.6169
  867MPD2    H312729   0.458   0.429  16.540 -0.1087  2.0198  0.1828
  867MPD2     N12730   0.735   0.554  16.886 -0.6048  0.8921 -0.0077
  867MPD2    H512731   0.728   0.651  16.857  2.0835  0.5775 -1.6862
  867MPD2    N112732   0.623   0.090  16.789  0.3535 -0.4693 -0.1745
  867MPD2    H712733   0.566   0.025  16.736  0.2461 -0.5030 -0.0198
  868MPD2     C12734   2.238   3.283  13.177  0.6964  0.0921 -0.0866
  868MPD2    C112735   2.277   3.230  13.296  0.3940 -0.6997 -0.2514
  868MPD2    C212736   2.178   3.201  13.391  0.0029  0.0632 -0.1674
  868MPD2    C312737   2.045   3.229  13.363 -0.3886  0.1948 -0.1702
  868MPD2    C412738   2.007   3.275  13.237 -0.2816 -0.1686 -0.3678
  868MPD2    C512739   2.104   3.304  13.145  0.3390 -0.0509 -0.6989
  868MPD2     H12740   2.191   3.164  13.493  1.6053  3.3152  0.8064
  868MPD2    H112741   1.907   3.285  13.197  0.0124 -0.8005 -1.2624
  868MPD2    H212742   2.310   3.313  13.102  1.5810  1.8284  1.4279
  868MPD2    H312743   2.086   3.343  13.046 -0.1086  0.3365 -0.4644
  868MPD2     N12744   1.950   3.200  13.462  0.2665  0.0354 -0.6971
  868MPD2    H512745   1.982   3.148  13.543 -0.1156 -1.9616 -1.8098
  868MPD2    N112746   2.415   3.207  13.323  0.2794  0.1336 -0.5464
  868MPD2    H712747   2.487   3.239  13.259 -1.8417  1.4354 -2.2525
  869MPD2     C12748   2.823   2.685   2.193 -0.0247  0.5693 -0.2091
  869MPD2    C112749   2.899   2.577   2.177  0.7272  0.6021  0.9096
  869MPD2    C212750   3.000   2.576   2.087  0.1387  0.4137  0.0749
  869MPD2    C312751   3.017   2.692   2.004 -0.8776  0.2386  0.6717
  869MPD2    C412752   2.936   2.803   2.034  0.1283  0.6581 -0.3414
  869MPD2    C512753   2.844   2.802   2.130 -0.0795  0.3946 -0.4581
  869MPD2     H12754   3.056   2.490   2.053  1.2893  0.7689  1.0810
  869MPD2    H112755   2.961   2.895   1.981  0.5307  0.6036 -0.2500
  869MPD2    H212756   2.750   2.686   2.273  2.0087  1.7886  1.6577
  869MPD2    H312757   2.771   2.881   2.147  0.0133  0.2124  0.7315
  869MPD2     N12758   3.103   2.705   1.893 -0.6530  0.2002  0.6409
  869MPD2    H512759   3.119   2.799   1.856 -1.2697 -0.6854 -1.8413
  869MPD2    N112760   2.869   2.460   2.256  0.7842 -0.2971  0.1297
  869MPD2    H712761   2.783   2.467   2.311 -0.1403 -3.7271 -0.9363
  870MPD2     C12762   3.153   1.426   1.676 -0.6631  0.6190 -0.2848
  870MPD2    C112763   3.196   1.318   1.602 -0.3916 -0.5473 -0.1608
  870MPD2    C212764   3.223   1.322   1.470  0.0613  0.5194 -0.0896
  870MPD2    C312765   3.193   1.442   1.406  0.5849 -0.0874 -0.1974
  870MPD2    C412766   3.151   1.551   1.477 -0.1951 -0.0042 -0.6246
  870MPD2    C512767   3.132   1.541   1.610 -0.0836 -0.5933 -0.2041
  870MPD2     H12768   3.253   1.235   1.412  0.3295 -0.3428  1.3517
  870MPD2    H112769   3.119   1.646   1.435 -0.2287  0.0685 -0.4363
  870MPD2    H212770   3.127   1.420   1.781  1.9650  1.6502  0.4167
  870MPD2    H312771   3.090   1.618   1.674 -1.8029 -1.7916  0.1300
  870MPD2     N12772   3.218   1.445   1.270 -0.5240 -0.1361  0.0938
  870MPD2    H512773   3.265   1.362   1.235 -0.0105  1.1664 -2.3434
  870MPD2    N112774   3.204   1.195   1.675  0.2027 -0.2491  0.3651
  870MPD2    H712775   3.187   1.201   1.775 -0.3680  1.9598  0.1289
  871MPD2     C12776   4.207   4.405  16.614 -0.2674 -0.0028 -0.1073
  871MPD2    C112777   4.157   4.345  16.727  0.3298  0.4207  0.3928
  871MPD2    C212778   4.091   4.225  16.708  0.0392  0.7715  0.0953
  871MPD2    C312779   4.079   4.170  16.581  0.2409  0.3981 -1.1083
  871MPD2    C412780   4.130   4.238  16.470  0.2073 -0.3226 -0.4695
  871MPD2    C512781   4.194   4.359  16.485  0.2189  0.7680  0.8496
  871MPD2     H12782   4.037   4.180  16.790 -0.9909  0.4621 -0.7446
  871MPD2    H112783   4.112   4.201  16.370 -2.4299 -0.0649 -0.0894
  871MPD2    H212784   4.249   4.505  16.620 -2.7692  1.0099  0.2923
  871MPD2    H312785   4.216   4.419  16.398 -1.7002 -1.9532 -1.4936
  871MPD2     N12786   4.008   4.051  16.565  0.3035 -0.3662 -0.3413
  871MPD2    H512787   3.956   4.015  16.645 -0.0614  0.1262 -0.3584
  871MPD2    N112788   4.158   4.412  16.850 -0.6295  0.1414  0.3580
  871MPD2    H712789   4.198   4.505  16.844  1.3689 -0.6567  1.1031
  872MPD2     C12790   0.401   2.151  14.389 -0.1534 -1.3331 -0.3687
  872MPD2    C112791   0.324   2.228  14.300 -0.0400 -0.4193  0.5432
  872MPD2    C212792   0.190   2.204  14.297  0.2720 -0.0382  0.8338
  872MPD2    C312793   0.142   2.100  14.379  0.3783  0.0903  0.6055
  872MPD2    C412794   0.219   2.026  14.471  1.0756 -0.7532  0.3603
  872MPD2    C512795   0.356   2.055  14.478  0.2790 -0.4267  0.2576
  872MPD2     H12796   0.122   2.260  14.233  1.0635 -0.7795 -0.6637
  872MPD2    H112797   0.186   1.937  14.525 -0.6905 -1.8384 -2.4808
  872MPD2    H212798   0.509   2.155  14.383 -0.2844  0.2124 -1.5879
  872MPD2    H312799   0.421   1.993  14.538 -0.1692 -0.4542  0.7179
  872MPD2     N12800   4.725   2.071  14.387  0.4112 -0.4281  0.7289
  872MPD2    H512801   4.700   2.012  14.465 -3.0295 -0.1748 -0.1897
  872MPD2    N112802   0.376   2.323  14.205 -0.1595 -0.6262  1.1805
  872MPD2    H712803   0.310   2.358  14.136 -1.2049 -0.5899  2.2039
  873MPD2     C12804   1.606   3.415   0.978  0.8263  0.4090 -0.0929
  873MPD2    C112805   1.736   3.398   1.028  0.1154 -0.0952 -0.6981
  873MPD2    C212806   1.805   3.278   1.007 -0.0217 -0.0717 -0.4993
  873MPD2    C312807   1.749   3.188   0.919  0.3779 -0.2470 -0.1410
  873MPD2    C412808   1.615   3.205   0.877 -0.5431 -0.3596  0.2010
  873MPD2    C512809   1.542   3.316   0.906  0.7085  0.0311 -0.1451
  873MPD2     H12810   1.896   3.252   1.060 -0.2670  0.4058  0.1596
  873MPD2    H112811   1.575   3.136   0.804 -0.8771 -0.2432  0.2702
  873MPD2    H212812   1.548   3.505   0.999 -0.6726 -0.6559  0.3946
  873MPD2    H312813   1.440   3.333   0.873  0.4652 -1.2098 -0.0475
  873MPD2     N12814   1.808   3.066   0.895 -0.4311  0.2855  0.2654
  873MPD2    H512815   1.748   2.993   0.857 -1.6594  1.0645  0.7311
  873MPD2    N112816   1.788   3.513   1.096 -0.6934  0.5040 -0.5285
  873MPD2    H712817   1.722   3.589   1.102  0.9388  1.9236 -0.5945
  874MPD2     C12818   2.004   3.101  16.911 -0.1655  0.2987  0.5843
  874MPD2    C112819   2.039   2.975  16.957  0.2843 -0.7249 -0.3042
  874MPD2    C212820   2.157   2.961  17.028 -0.2210 -0.5383 -0.2798
  874MPD2    C312821   2.218   3.078  17.073  0.3471  0.3678 -0.0162
  874MPD2    C412822   2.179   3.206  17.026  0.3936 -0.5231  0.3089
  874MPD2    C512823   2.081   3.210  16.931  0.4016  0.4207 -0.3698
  874MPD2     H12824   2.193   2.864  17.059 -0.8602 -0.8800 -0.6016
  874MPD2    H112825   2.233   3.295  17.056 -0.2229 -0.3911  1.0052
  874MPD2    H212826   1.912   3.103  16.853  0.6472 -0.3529 -0.7345
  874MPD2    H312827   2.044   3.299  16.881  2.1394  0.1917 -2.0951
  874MPD2     N12828   2.327   3.051  17.157  0.2050 -0.6400 -0.1847
  874MPD2    H512829   2.352   2.953  17.168  2.5404 -0.1991 -1.5520
  874MPD2    N112830   1.948   2.867  16.947 -0.6801 -0.2475  0.0187
  874MPD2    H712831   1.890   2.871  16.863 -0.6938  2.3109  0.1366
  875MPD2     C12832   2.677   0.658  14.765 -0.6624 -1.1110 -0.6348
  875MPD2    C112833   2.605   0.766  14.719 -0.1682 -0.3378  0.0515
  875MPD2    C212834   2.570   0.865  14.806  1.0485  0.4391 -0.3615
  875MPD2    C312835   2.612   0.863  14.937  0.9918 -0.8027 -0.0276
  875MPD2    C412836   2.673   0.746  14.985  0.3912  0.7199  0.0734
  875MPD2    C512837   2.717   0.655  14.896  0.5053 -0.0389  0.0850
  875MPD2     H12838   2.503   0.939  14.764 -0.9832 -0.1849  1.7820
  875MPD2    H112839   2.708   0.735  15.087 -0.2209 -1.5898  0.0381
  875MPD2    H212840   2.704   0.572  14.705 -0.6322 -1.2650 -0.3997
  875MPD2    H312841   2.761   0.560  14.927  0.5826 -0.1924 -0.5022
  875MPD2     N12842   2.561   0.947  15.038  0.7816 -0.3180  0.7221
  875MPD2    H512843   2.581   0.920  15.134 -1.1083 -0.9337  0.9412
  875MPD2    N112844   2.555   0.772  14.586  0.2478 -0.7669 -0.4352
  875MPD2    H712845   2.506   0.857  14.561  0.5298 -1.2481 -2.5950
  876MPD2     C12846   1.948   2.450  16.281 -0.0037 -0.7413 -0.3025
  876MPD2    C112847   1.872   2.381  16.188 -0.4193  0.0794  0.1635
  876MPD2    C212848   1.851   2.253  16.201  0.3610  0.5818 -0.3639
  876MPD2    C312849   1.902   2.183  16.313 -0.8093 -0.9834 -0.3474
  876MPD2    C412850   1.971   2.248  16.412  0.4257 -0.2989 -0.6063
  876MPD2    C512851   1.985   2.383  16.394  0.1926  1.3133  0.1028
  876MPD2     H12852   1.791   2.204  16.125 -0.1487  1.1147 -0.2980
  876MPD2    H112853   2.009   2.200  16.502 -0.4934 -1.0785 -0.6396
  876MPD2    H212854   1.960   2.558  16.288  1.0609 -0.8577 -0.2825
  876MPD2    H312855   2.023   2.436  16.480  1.1548  0.1114  0.4239
  876MPD2     N12856   1.881   2.045  16.308 -0.1207  0.1708 -0.0488
  876MPD2    H512857   1.815   2.016  16.236  0.8962 -0.6010 -0.6764
  876MPD2    N112858   1.830   2.452  16.075 -0.5484 -0.1155 -0.3273
  876MPD2    H712859   1.871   2.544  16.065  2.9891 -1.6588  0.0040
  877MPD2     C12860   1.453   2.504  15.288  0.4658 -0.4362 -0.5179
  877MPD2    C112861   1.568   2.581  15.306 -0.2442 -0.3589  0.4511
  877MPD2    C212862   1.642   2.609  15.191  0.0464 -0.4189  0.4807
  877MPD2    C312863   1.617   2.546  15.071 -0.0888 -0.1013 -0.1817
  877MPD2    C412864   1.504   2.476  15.052 -0.3251 -0.0418 -0.1016
  877MPD2    C512865   1.422   2.462  15.158  0.9271 -0.0102  1.0020
  877MPD2     H12866   1.732   2.670  15.201  0.2928 -0.7825  0.4782
  877MPD2    H112867   1.480   2.426  14.958 -0.1823 -0.2156 -0.0469
  877MPD2    H212868   1.385   2.473  15.366 -1.6082 -0.7547 -2.4485
  877MPD2    H312869   1.337   2.398  15.139  1.5370 -0.6115  0.2961
  877MPD2     N12870   1.707   2.551  14.968 -0.0828 -0.4798 -0.7458
  877MPD2    H512871   1.676   2.504  14.884  0.6794  0.6525 -1.6633
  877MPD2    N112872   1.611   2.624  15.433 -0.3098  0.1529  0.6420
  877MPD2    H712873   1.683   2.697  15.434  1.1445 -1.2278 -2.6326
  878MPD2     C12874   0.969   1.758  13.462  0.3420  0.3149 -0.8776
  878MPD2    C112875   1.094   1.789  13.418 -0.7865  0.3688 -0.6078
  878MPD2    C212876   1.193   1.822  13.511 -0.4388 -0.0457 -0.5987
  878MPD2    C312877   1.167   1.812  13.648 -0.2791 -0.0581  0.3360
  878MPD2    C412878   1.046   1.766  13.688 -0.6507 -0.5211 -0.6027
  878MPD2    C512879   0.947   1.749  13.595 -0.1209  0.6493 -0.4447
  878MPD2     H12880   1.288   1.864  13.480  0.9306 -2.9585 -0.3999
  878MPD2    H112881   1.016   1.764  13.792 -2.2346  0.6067 -1.0390
  878MPD2    H212882   0.893   1.736  13.388  0.2874  0.5715 -0.8993
  878MPD2    H312883   0.851   1.718  13.636 -0.0393 -1.3660 -1.8234
  878MPD2     N12884   1.271   1.852  13.739 -0.5585  0.6479  0.1375
  878MPD2    H512885   1.350   1.893  13.690 -0.6491 -0.0586 -0.5930
  878MPD2    N112886   1.102   1.798  13.272  0.0329  0.3272  0.5410
  878MPD2    H712887   1.018   1.796  13.216 -0.0668  3.4593  0.6051
  879MPD2     C12888   1.536   3.173  16.839  0.1156  0.4246 -0.1262
  879MPD2    C112889   1.587   3.079  16.924  0.2621 -0.3368  0.2337
  879MPD2    C212890   1.531   2.950  16.927 -0.6845  0.9969 -0.0728
  879MPD2    C312891   1.434   2.917  16.839 -0.1175  0.1531 -0.0450
  879MPD2    C412892   1.385   3.010  16.757 -0.0514 -0.6494 -0.8221
  879MPD2    C512893   1.428   3.139  16.760  0.5933  0.2783 -0.5311
  879MPD2     H12894   1.573   2.871  16.987 -2.3356  1.0717  1.1981
  879MPD2    H112895   1.309   2.997  16.681 -0.7610  2.7471 -0.6909
  879MPD2    H212896   1.569   3.277  16.841  1.3510  0.1285 -3.9810
  879MPD2    H312897   1.378   3.221  16.709 -4.2280 -0.3364  3.1792
  879MPD2     N12898   1.377   2.785  16.819 -0.5330  0.0189 -0.0373
  879MPD2    H512899   1.309   2.780  16.745  0.0396 -2.9033 -0.3495
  879MPD2    N112900   1.684   3.126  17.022  0.0977 -0.1171  0.2510
  879MPD2    H712901   1.736   3.210  16.997  1.2981 -0.1740  2.4985
  880MPD2     C12902   3.874   0.027   0.615  0.6657  0.0346 -0.2837
  880MPD2    C112903   3.968   0.122   0.617  0.1974 -0.1340 -0.1447
  880MPD2    C212904   4.096   0.092   0.597  0.2208 -0.2167 -0.1857
  880MPD2    C312905   4.146   4.693   0.572 -0.6176  0.1062  0.4753
  880MPD2    C412906   4.051   4.587   0.567  0.2842  0.1382 -0.2369
  880MPD2    C512907   3.920   4.623   0.593 -0.3314  0.5519 -0.0035
  880MPD2     H12908   4.176   0.164   0.608 -2.6650  3.4013 -2.8124
  880MPD2    H112909   4.071   4.481   0.562 -1.4671 -0.0635 -2.8821
  880MPD2    H212910   3.767   0.042   0.624  0.3766 -1.6386 -0.9025
  880MPD2    H312911   3.845   4.547   0.578 -2.9783  3.2735 -0.3965
  880MPD2     N12912   4.289   4.676   0.555  0.2153  0.4998  0.4144
  880MPD2    H512913   4.350   0.027   0.580 -0.0079  0.1093  2.1629
  880MPD2    N112914   3.921   0.257   0.630 -0.1635  0.5844 -0.1394
  880MPD2    H712915   3.823   0.274   0.650 -0.5131 -0.2601 -1.1294
  881MPD2     C12916   3.516   0.917   0.014  0.4631  1.0563  0.2620
  881MPD2    C112917   3.597   0.809   0.003 -0.1969  0.1729  0.0452
  881MPD2    C212918   3.628   0.754   0.126  0.3502  0.1171  0.6489
  881MPD2    C312919   3.619   0.821   0.249  0.1007 -0.2066  0.1218
  881MPD2    C412920   3.562   0.951   0.251  0.5113 -0.4053 -0.3799
  881MPD2    C512921   3.509   0.988   0.135  0.1213 -1.0146 -0.0451
  881MPD2     H12922   3.675   0.657   0.130 -1.2924 -0.6510  1.1041
  881MPD2    H112923   3.557   1.008   0.343 -2.1079 -1.3065  0.0394
  881MPD2    H212924   3.468   0.970  17.638  0.1039  0.3009 -0.0247
  881MPD2    H312925   3.447   1.077   0.140 -0.2615 -1.1540 -2.1125
  881MPD2     N12926   3.665   0.767   0.372  0.6864 -0.4262  0.4749
  881MPD2    H512927   3.647   0.825   0.453  2.3651 -0.6870  1.0378
  881MPD2    N112928   3.576   0.723  17.595 -0.0799  0.0053 -0.4927
  881MPD2    H712929   3.536   0.767  17.513 -2.1393 -0.7856  0.0868
  882MPD2     C12930   1.685   2.407  14.212 -0.0215  0.1499  0.3901
  882MPD2    C112931   1.663   2.375  14.343 -0.3598  0.5120  0.4364
  882MPD2    C212932   1.537   2.316  14.383  0.2222 -0.0184  0.3110
  882MPD2    C312933   1.438   2.303  14.293 -0.2621 -0.4220 -0.0673
  882MPD2    C412934   1.465   2.353  14.168 -0.0061 -0.0942  0.2776
  882MPD2    C512935   1.588   2.402  14.127 -0.4076  0.4458  0.7230
  882MPD2     H12936   1.536   2.271  14.481  1.8390  1.1674  0.8790
  882MPD2    H112937   1.395   2.344  14.085 -0.3984 -1.6971  0.7988
  882MPD2    H212938   1.782   2.450  14.191 -0.2642 -0.1711 -1.4489
  882MPD2    H312939   1.609   2.421  14.022 -3.1645  2.9877  0.6217
  882MPD2     N12940   1.303   2.269  14.322  0.2205 -0.3508  0.4216
  882MPD2    H512941   1.231   2.262  14.250 -0.1120  0.9346  0.6110
  882MPD2    N112942   1.761   2.399  14.440  0.0563  0.5931  0.1900
  882MPD2    H712943   1.854   2.420  14.402  0.0289  0.7038  0.1847
  883MPD2     C12944   3.524   1.869  16.615 -0.0543 -0.6124 -0.1667
  883MPD2    C112945   3.559   1.939  16.502 -0.0747 -0.5469 -0.7042
  883MPD2    C212946   3.666   2.026  16.499 -0.8884  0.3126  0.0288
  883MPD2    C312947   3.735   2.048  16.609  0.1996  0.1969 -0.3255
  883MPD2    C412948   3.709   1.981  16.725  0.6348 -0.7354 -0.3600
  883MPD2    C512949   3.601   1.897  16.729 -0.1944  0.3188  0.1061
  883MPD2     H12950   3.681   2.078  16.405  2.0333 -2.0062 -0.7716
  883MPD2    H112951   3.772   1.980  16.813  0.1462 -2.3272 -0.0289
  883MPD2    H212952   3.441   1.800  16.621  0.0951 -0.8046 -0.3095
  883MPD2    H312953   3.575   1.839  16.817  0.3631  0.6376  0.4814
  883MPD2     N12954   3.847   2.138  16.602  0.0764 -0.3993  0.1244
  883MPD2    H512955   3.875   2.158  16.506 -2.2018 -0.2122 -0.5047
  883MPD2    N112956   3.498   1.917  16.378  0.3522  0.1557 -0.4773
  883MPD2    H712957   3.536   1.958  16.293  0.3480  0.3444 -0.3893
  884MPD2     C12958   0.844   3.234  15.206 -0.2354 -0.1861 -0.1815
  884MPD2    C112959   0.828   3.368  15.230 -0.6296  0.7212 -0.8811
  884MPD2    C212960   0.700   3.421  15.243  0.9292 -0.2493  0.3154
  884MPD2    C312961   0.585   3.340  15.234 -0.2151 -0.2021  0.1281
  884MPD2    C412962   0.607   3.204  15.192  0.5647 -0.0017 -1.0096
  884MPD2    C512963   0.734   3.155  15.178  0.0327  0.4252 -0.8759
  884MPD2     H12964   0.684   3.528  15.252  1.9306 -0.0624 -0.1712
  884MPD2    H112965   0.527   3.133  15.179 -0.5617  1.5211 -2.4118
  884MPD2    H212966   0.942   3.190  15.190 -0.8661 -0.5666 -3.0425
  884MPD2    H312967   0.749   3.058  15.132 -0.4363 -0.1934  0.3016
  884MPD2     N12968   0.454   3.396  15.263  0.0483  0.3483 -0.0503
  884MPD2    H512969   0.441   3.496  15.254  1.0099  0.3947 -0.9702
  884MPD2    N112970   0.944   3.450  15.247 -0.2167 -0.2144  0.0736
  884MPD2    H712971   0.926   3.550  15.252  2.2729  0.3258 -1.3932
  885MPD2     C12972   4.118   3.500   0.484  0.2248  0.9130 -0.0381
  885MPD2    C112973   4.116   3.373   0.437 -0.1700 -0.1028  0.3507
  885MPD2    C212974   4.096   3.345   0.300 -0.6350  0.7374  0.2385
  885MPD2    C312975   4.086   3.452   0.212 -0.1741  0.1958 -0.4678
  885MPD2    C412976   4.113   3.581   0.252 -0.0028 -0.9171 -0.2381
  885MPD2    C512977   4.127   3.600   0.386 -0.1564  0.2387  0.2545
  885MPD2     H12978   4.091   3.243   0.263 -2.3843  0.8279  0.2532
  885MPD2    H112979   4.133   3.661   0.183 -2.0404 -0.1189  0.1122
  885MPD2    H212980   4.147   3.524   0.586 -2.2815  1.0730  0.6309
  885MPD2    H312981   4.129   3.705   0.412  1.8995  1.0727 -3.2528
  885MPD2     N12982   4.049   3.422   0.079  0.2331 -0.2530  0.2991
  885MPD2    H512983   4.049   3.326   0.047 -0.1985  0.0964 -0.7519
  885MPD2    N112984   4.123   3.268   0.538  0.2185 -0.7292 -0.3597
  885MPD2    H712985   4.140   3.301   0.633 -1.6347 -1.8396  0.3518
  886MPD2     C12986   0.309   1.679  15.468 -1.0916 -0.8486  0.2743
  886MPD2    C112987   0.436   1.727  15.483 -0.3437 -0.2973 -0.2596
  886MPD2    C212988   0.478   1.831  15.398  0.0580 -0.1029  0.1937
  886MPD2    C312989   0.392   1.884  15.305 -0.6285 -0.3134  0.3033
  886MPD2    C412990   0.257   1.843  15.307 -0.0123  0.3530  0.3024
  886MPD2    C512991   0.221   1.742  15.390 -0.8641  0.0138 -0.6271
  886MPD2     H12992   0.584   1.855  15.389 -0.2734  1.0632 -0.6229
  886MPD2    H112993   0.175   1.880  15.247  0.0216  0.8431  0.5522
  886MPD2    H212994   0.280   1.609  15.546  0.4066 -0.6420  1.0104
  886MPD2    H312995   0.117   1.722  15.412 -0.3840  0.2432  1.8429
  886MPD2     N12996   0.446   1.961  15.199 -0.4449 -0.0466 -0.5429
  886MPD2    H512997   0.545   1.964  15.176 -0.0838 -0.5329  0.9544
  886MPD2    N112998   0.532   1.673  15.572 -0.1418 -0.0755 -0.4418
  886MPD2    H712999   0.627   1.708  15.566 -0.2719  0.7320  2.3519
  887MPD2     C13000   1.146   1.822  15.936 -0.9119  0.2094  0.5152
  887MPD2    C113001   1.059   1.840  15.831  0.0568 -0.1920 -0.2635
  887MPD2    C213002   1.049   1.962  15.770 -0.8395  0.6209 -0.5850
  887MPD2    C313003   1.135   2.060  15.808 -0.3133  0.3587 -0.5435
  887MPD2    C413004   1.232   2.041  15.900 -0.5182  0.1914  0.3838
  887MPD2    C513005   1.234   1.922  15.968 -0.5793 -0.2430  0.5981
  887MPD2     H13006   0.973   1.970  15.692  0.0851  1.2245 -1.4311
  887MPD2    H113007   1.293   2.125  15.931 -0.8294  0.6088 -0.1289
  887MPD2    H213008   1.147   1.730  15.993  0.6151 -0.3852 -0.4889
  887MPD2    H313009   1.301   1.919  16.053  0.4988  3.5173 -0.1353
  887MPD2     N13010   1.145   2.184  15.744  0.7531 -0.1228 -0.8298
  887MPD2    H513011   1.215   2.247  15.784  0.0416 -0.7410  1.4280
  887MPD2    N113012   0.967   1.737  15.801 -0.0613 -0.7097 -0.4042
  887MPD2    H713013   0.895   1.756  15.732  0.9451 -1.8973 -1.7803
  888MPD2     C13014   2.535   2.021  15.293 -0.5919 -0.1597  0.3345
  888MPD2    C113015   2.621   2.029  15.407  0.4388 -0.2170 -0.3869
  888MPD2    C213016   2.728   2.111  15.403  0.3166  0.3259 -1.1904
  888MPD2    C313017   2.765   2.172  15.283 -0.4435  0.0038 -0.0854
  888MPD2    C413018   2.682   2.165  15.172  0.2649  0.5579 -0.4479
  888MPD2    C513019   2.568   2.086  15.177  0.4673 -0.0112  0.0512
  888MPD2     H13020   2.777   2.140  15.495 -0.9880  0.0599 -0.4175
  888MPD2    H113021   2.712   2.212  15.080  0.9049  2.6287  0.8221
  888MPD2    H213022   2.443   1.963  15.286 -1.1715  0.6123  1.4260
  888MPD2    H313023   2.509   2.086  15.086  2.7294  2.5143 -1.4209
  888MPD2     N13024   2.885   2.247  15.286 -0.5409 -0.4376 -0.3832
  888MPD2    H513025   2.925   2.254  15.379 -0.2338 -0.6452 -0.5012
  888MPD2    N113026   2.606   1.960  15.529 -0.3930  0.1321  0.1569
  888MPD2    H713027   2.666   1.984  15.607 -1.0789  2.2095  0.0363
  889MPD2     C13028   1.840   1.564  13.154  0.3991 -0.1038 -0.4768
  889MPD2    C113029   1.953   1.524  13.224 -0.2261  0.1661  0.4944
  889MPD2    C213030   2.049   1.618  13.263  0.5599 -0.6049  0.1213
  889MPD2    C313031   2.017   1.756  13.240 -0.5687 -0.7339 -0.7063
  889MPD2    C413032   1.911   1.794  13.166  1.0988  0.0250 -0.0897
  889MPD2    C513033   1.822   1.695  13.128 -0.3400  0.6261 -0.0428
  889MPD2     H13034   2.148   1.596  13.300  0.3451 -0.2814  0.8765
  889MPD2    H113035   1.885   1.895  13.138 -2.5107 -0.3547  1.9614
  889MPD2    H213036   1.782   1.498  13.092 -0.7440  0.0829  0.3854
  889MPD2    H313037   1.737   1.723  13.065  0.8462  0.2910 -1.7994
  889MPD2     N13038   2.113   1.842  13.303 -0.5297  0.0979  0.0584
  889MPD2    H513039   2.192   1.800  13.350  0.2519 -0.3144 -1.6313
  889MPD2    N113040   2.005   1.400  13.191  0.5005  0.0236  0.0111
  889MPD2    H713041   2.101   1.383  13.219  1.0273  2.7520 -0.1730
  890MPD2     C13042   2.126   3.110  14.663  0.5118  0.3831  0.2380
  890MPD2    C113043   2.166   3.233  14.711  0.1645 -0.2284  0.8898
  890MPD2    C213044   2.104   3.270  14.837  0.6924 -0.3048 -0.4611
  890MPD2    C313045   2.038   3.186  14.914  0.1995  0.6340 -0.0613
  890MPD2    C413046   2.019   3.059  14.868 -0.0664 -0.1087  0.0604
  890MPD2    C513047   2.064   3.020  14.746  0.1851  0.4662  0.4391
  890MPD2     H13048   2.115   3.374  14.864 -2.4760  0.3379 -1.6959
  890MPD2    H113049   1.968   2.980  14.922 -1.9127  1.2687  0.3160
  890MPD2    H213050   2.149   3.074  14.563  2.5445 -3.2533  1.9940
  890MPD2    H313051   2.047   2.921  14.705  0.9276 -0.0691  1.4031
  890MPD2     N13052   1.994   3.236  15.038  0.3729  0.4082 -0.7173
  890MPD2    H513053   2.008   3.333  15.064  1.7401 -0.4694  1.8946
  890MPD2    N113054   2.219   3.327  14.623 -0.2967 -0.1029 -0.1870
  890MPD2    H713055   2.241   3.300  14.527 -1.9483  0.6102 -0.7544
  891MPD2     C13056   4.421   1.281  16.532 -0.1954 -0.3959  0.1431
  891MPD2    C113057   4.379   1.360  16.635  0.5104 -0.0511  0.6064
  891MPD2    C213058   4.466   1.397  16.740  0.1859  0.0967  0.4803
  891MPD2    C313059   4.596   1.356  16.731  0.0656 -1.3044 -0.5547
  891MPD2    C413060   4.635   1.269  16.630 -0.3161 -0.9937 -0.0893
  891MPD2    C513061   4.548   1.234  16.532 -0.2386  0.2544 -0.6943
  891MPD2     H13062   4.444   1.470  16.818 -0.3836  0.2960  0.1343
  891MPD2    H113063   0.009   1.229  16.633  0.9886  2.2239  0.2436
  891MPD2    H213064   4.356   1.258  16.449  1.5277 -0.1039 -1.3013
  891MPD2    H313065   4.594   1.169  16.460 -0.8452 -0.7543 -0.1655
  891MPD2     N13066   4.689   1.412  16.820  0.1230 -0.1333 -0.3389
  891MPD2    H513067   4.648   1.468  16.895  2.6887 -0.2146  1.1131
  891MPD2    N113068   4.237   1.386  16.633 -0.2966 -0.4763  0.6615
  891MPD2    H713069   4.186   1.386  16.545 -1.4950 -0.6192  1.3654
  892MPD2     C13070   0.715   2.918  14.460 -0.7625  0.3905  0.1414
  892MPD2    C113071   0.664   2.836  14.556 -1.0467 -0.0143  0.3762
  892MPD2    C213072   0.720   2.708  14.585 -0.4859  0.5439 -0.6782
  892MPD2    C313073   0.837   2.669  14.519  0.1032  0.4908 -0.6278
  892MPD2    C413074   0.894   2.769  14.436 -0.0226  0.3741  0.4315
  892MPD2    C513075   0.839   2.891  14.403  0.0551  0.3706 -0.1933
  892MPD2     H13076   0.681   2.647  14.666  3.6022  0.1493  1.0155
  892MPD2    H113077   0.987   2.745  14.386  0.9851 -0.6129  2.8295
  892MPD2    H213078   0.662   3.010  14.439 -1.1890  0.5365  1.8588
  892MPD2    H313079   0.878   2.961  14.330  0.8188 -1.6462 -1.7093
  892MPD2     N13080   0.888   2.542  14.524 -0.0192 -0.0035  0.7234
  892MPD2    H513081   0.970   2.513  14.472  0.6651  0.1654  1.7012
  892MPD2    N113082   0.542   2.885  14.617 -0.8401 -0.0237  0.4169
  892MPD2    H713083   0.502   2.970  14.579 -0.1966 -0.4876 -1.3047
  893MPD2     C13084   3.380   1.832   1.206 -0.3601  0.3392 -0.0751
  893MPD2    C113085   3.341   1.859   1.336  0.0135  0.0023 -0.0111
  893MPD2    C213086   3.280   1.984   1.361  0.3313 -0.3838  0.6213
  893MPD2    C313087   3.259   2.086   1.267 -0.0638  0.5295 -0.4548
  893MPD2    C413088   3.302   2.061   1.138 -0.8447  0.1550 -0.3837
  893MPD2    C513089   3.353   1.936   1.111 -0.1532  0.3461 -0.2066
  893MPD2     H13090   3.257   2.006   1.465  0.6352 -0.7946  0.7768
  893MPD2    H113091   3.283   2.127   1.055 -0.2185  0.4262 -0.3037
  893MPD2    H213092   3.436   1.745   1.175 -0.7765 -0.7209  2.1800
  893MPD2    H313093   3.367   1.919   1.005 -2.5708 -1.1179 -0.2962
  893MPD2     N13094   3.198   2.213   1.291  0.2139  0.0866  0.1226
  893MPD2    H513095   3.186   2.277   1.213 -0.4077  1.0037  0.9668
  893MPD2    N113096   3.376   1.781   1.447 -0.1160  0.0789 -0.4379
  893MPD2    H713097   3.329   1.808   1.532 -2.6147 -2.8673 -0.9083
  894MPD2     C13098   1.073   3.231   1.039 -0.4269 -0.4216  0.5534
  894MPD2    C113099   1.024   3.325   1.128  0.2039  0.3979 -0.2144
  894MPD2    C213100   0.941   3.420   1.077 -0.2444 -0.1950 -0.1511
  894MPD2    C313101   0.919   3.429   0.947 -0.4690  0.2372 -0.0096
  894MPD2    C413102   0.968   3.340   0.856  0.1466  0.1325 -1.0288
  894MPD2    C513103   1.043   3.235   0.906  0.0603 -0.6186 -0.8858
  894MPD2     H13104   0.907   3.495   1.148 -0.9058 -2.0714  1.5056
  894MPD2    H113105   0.947   3.333   0.750  1.1527 -0.0505 -1.2105
  894MPD2    H213106   1.124   3.143   1.077  0.7577 -0.4012 -0.9350
  894MPD2    H313107   1.079   3.153   0.844 -0.8661 -1.5228 -0.2258
  894MPD2     N13108   0.847   3.545   0.905  0.4270 -0.1529 -0.3197
  894MPD2    H513109   0.837   3.624   0.967  1.2902 -0.1924 -0.1304
  894MPD2    N113110   1.050   3.323   1.270  0.4981  0.0552 -0.3532
  894MPD2    H713111   0.991   3.378   1.332 -2.6012 -1.6566 -1.7765
  895MPD2     C13112   4.514   1.839  13.325  0.2881 -0.2211 -0.4195
  895MPD2    C113113   4.422   1.747  13.290  0.1896 -0.7322  0.6641
  895MPD2    C213114   4.463   1.624  13.236  0.2068 -0.0715 -0.8492
  895MPD2    C313115   4.596   1.585  13.238 -0.4616 -0.3806 -0.2467
  895MPD2    C413116   4.690   1.680  13.289 -0.2943 -0.4264 -0.6219
  895MPD2    C513117   4.646   1.803  13.335  0.2336 -1.2336 -0.4755
  895MPD2     H13118   4.382   1.553  13.220  2.1139 -2.7419  1.2243
  895MPD2    H113119   0.069   1.659  13.299 -0.1895 -0.5282 -1.9671
  895MPD2    H213120   4.482   1.931  13.373  2.0201 -0.2063  0.6980
  895MPD2    H313121   4.722   1.868  13.375  1.2884 -1.7994 -1.5381
  895MPD2     N13122   4.620   1.449  13.208  0.7729  0.1872 -0.0287
  895MPD2    H513123   4.545   1.395  13.167  1.5049  0.5760 -1.8968
  895MPD2    N113124   4.288   1.764  13.298  0.0990  0.3670  0.1548
  895MPD2    H713125   4.234   1.691  13.254 -0.3891  1.3066 -0.7808
  896MPD2     C13126   2.150   0.764   1.209 -0.6382  0.1557 -0.0283
  896MPD2    C113127   2.194   0.636   1.183  0.1361 -0.2545 -0.3147
  896MPD2    C213128   2.095   0.539   1.159  0.7676 -0.7373 -0.6543
  896MPD2    C313129   1.961   0.569   1.171  0.2365 -0.4787  0.3199
  896MPD2    C413130   1.927   0.697   1.196 -0.6913 -0.3510 -0.1239
  896MPD2    C513131   2.020   0.795   1.218 -0.2882 -0.0337 -0.3465
  896MPD2     H13132   2.123   0.437   1.135  2.8509  0.2195 -2.3178
  896MPD2    H113133   1.823   0.726   1.207 -0.8680 -1.1387  0.2431
  896MPD2    H213134   2.221   0.840   1.241  0.7600 -0.5730 -1.3953
  896MPD2    H313135   1.990   0.891   1.258  3.1133  0.9376 -0.1639
  896MPD2     N13136   1.866   0.461   1.156  0.0572  0.2113 -0.5230
  896MPD2    H513137   1.899   0.378   1.108  0.6031  0.5348 -0.7028
  896MPD2    N113138   2.338   0.603   1.180 -0.1255 -0.3465  0.0985
  896MPD2    H713139   2.402   0.673   1.215  0.8795 -2.5689  2.7056
  897MPD2     C13140   3.630   1.311  10.366 -0.3994  0.1289 -0.7735
  897MPD2    C113141   3.509   1.382  10.382  0.5244 -0.8855 -0.1016
  897MPD2    C213142   3.389   1.314  10.412 -0.0226  0.1239  0.5411
  897MPD2    C313143   3.388   1.177  10.443 -0.5236  0.0037 -0.2691
  897MPD2    C413144   3.511   1.114  10.443 -0.2345 -1.1065 -0.2302
  897MPD2    C513145   3.625   1.175  10.400 -0.2086 -0.2279  0.3711
  897MPD2     H13146   3.295   1.362  10.438 -0.7123 -1.6071  1.2509
  897MPD2    H113147   3.510   1.009  10.471  1.0560 -1.1731 -0.4014
  897MPD2    H213148   3.722   1.347  10.321  0.2425 -0.5106  0.0189
  897MPD2    H313149   3.719   1.121  10.412 -0.6369 -1.0805 -0.1393
  897MPD2     N13150   3.271   1.108  10.478  0.1702 -0.4922  0.6747
  897MPD2    H513151   3.288   1.009  10.493 -1.5768 -0.8013  0.5700
  897MPD2    N113152   3.487   1.514  10.344 -0.2222  0.1716  0.6202
  897MPD2    H713153   3.541   1.549  10.266 -2.0941  0.5058 -0.5392
  898MPD2     C13154   0.613   1.796   0.609  0.1658  0.3735  0.5152
  898MPD2    C113155   0.680   1.874   0.515  0.2832 -0.2788 -0.4273
  898MPD2    C213156   0.599   1.940   0.423  0.5976  0.0065  0.7042
  898MPD2    C313157   0.461   1.939   0.427 -0.5012 -0.2258 -0.0232
  898MPD2    C413158   0.398   1.873   0.529 -0.0154 -0.4921 -0.4467
  898MPD2    C513159   0.478   1.797   0.613  0.2957  0.0874 -0.0983
  898MPD2     H13160   0.653   1.983   0.341  0.6091 -0.4804  0.4534
  898MPD2    H113161   0.291   1.864   0.535  0.0115 -1.0049 -0.7511
  898MPD2    H213162   0.656   1.728   0.681  0.3491  0.5611  0.5807
  898MPD2    H313163   0.430   1.746   0.695 -0.2278 -0.5640 -0.8080
  898MPD2     N13164   0.399   1.986   0.316 -0.3796 -0.1842  0.3774
  898MPD2    H513165   0.458   2.031   0.247 -1.1161 -1.4637 -1.0929
  898MPD2    N113166   0.814   1.907   0.512 -0.0592 -0.2208  0.0867
  898MPD2    H713167   0.848   1.965   0.435  2.5960 -1.3261  0.4276
  899MPD2     C13168   1.404   2.714  17.547 -0.0249 -0.0751 -0.4839
  899MPD2    C113169   1.381   2.845  17.566  0.5736 -0.0629  0.2664
  899MPD2    C213170   1.385   2.897  17.693 -0.3488  0.4642  0.1062
  899MPD2    C313171   1.392   2.815   0.101  0.8513  0.1959  0.2482
  899MPD2    C413172   1.411   2.682   0.074 -0.0855 -1.1063 -0.0030
  899MPD2    C513173   1.432   2.636  17.654  0.2091  0.2784 -0.7678
  899MPD2     H13174   1.363   3.002   0.002 -0.5510  0.8129 -2.7034
  899MPD2    H113175   1.401   2.615   0.158  0.2948  1.5005  2.1258
  899MPD2    H213176   1.432   2.673  17.450 -1.8222  0.4143 -1.2102
  899MPD2    H313177   1.456   2.533  17.630  4.1458  0.8837  0.6946
  899MPD2     N13178   1.372   2.853   0.236 -0.3951 -0.3793  0.5423
  899MPD2    H513179   1.320   2.789   0.295 -0.7505 -1.4536 -0.9463
  899MPD2    N113180   1.362   2.920  17.446 -0.4532  0.0913  0.5960
  899MPD2    H713181   1.347   2.859  17.367  0.7365  1.4392 -0.6793
  900MPD2     C13182   1.114   4.615  12.611 -0.9542 -0.5231  0.1894
  900MPD2    C113183   1.026   4.515  12.621  0.1121 -0.6246 -0.2336
  900MPD2    C213184   0.898   4.538  12.584  0.6671  0.4297 -0.2801
  900MPD2    C313185   0.858   4.647  12.506  0.2248 -0.4827 -0.2072
  900MPD2    C413186   0.947   0.022  12.495 -0.2620  0.0449 -0.1378
  900MPD2    C513187   1.071   0.007  12.545  0.2249 -0.5514 -0.5383
  900MPD2     H13188   0.811   4.474  12.594  1.4159 -0.8905 -2.2107
  900MPD2    H113189   0.927   0.113  12.439  3.2952  1.1035  0.3614
  900MPD2    H213190   1.217   4.602  12.642 -0.5114  0.0109 -1.0335
  900MPD2    H313191   1.143   0.086  12.526  0.4547 -0.4703  0.6749
  900MPD2     N13192   0.733   4.633  12.439  0.6144 -0.5467  0.1349
  900MPD2    H513193   0.683   4.546  12.456 -0.1181  0.2190  1.7868
  900MPD2    N113194   1.074   4.391  12.664  0.5000 -0.7216 -1.0852
  900MPD2    H713195   1.174   4.375  12.672  0.6294  0.3934 -0.5340
  901MPD2     C13196   0.824   3.403  12.372  0.2961  0.5549  0.2105
  901MPD2    C113197   0.914   3.379  12.473 -0.4702  1.2784  0.0596
  901MPD2    C213198   0.953   3.484  12.548 -0.3662  0.0558  0.5290
  901MPD2    C313199   0.915   3.616  12.523 -0.2891  0.8370  0.4083
  901MPD2    C413200   0.817   3.636  12.428  0.3890 -0.1746  0.9700
  901MPD2    C513201   0.783   3.531  12.346  0.0804 -0.4097  0.0413
  901MPD2     H13202   1.023   3.471  12.629 -1.6866 -0.7757  1.5353
  901MPD2    H113203   0.772   3.733  12.413 -1.2034 -1.2328 -1.1872
  901MPD2    H213204   0.781   3.326  12.309 -0.0613  0.7091  0.2690
  901MPD2    H313205   0.716   3.543  12.262  1.0297  2.4893 -0.3341
  901MPD2     N13206   0.964   3.714  12.609 -0.7182  0.2442 -0.6994
  901MPD2    H513207   1.044   3.684  12.663 -1.6325 -0.8366  0.0479
  901MPD2    N113208   0.950   3.245  12.496 -0.3853  0.9261  0.6944
  901MPD2    H713209   0.923   3.184  12.420  0.3928  0.8578  0.4696
  902MPD2     C13210   4.010   2.174  12.822 -0.3559 -0.1404 -0.3511
  902MPD2    C113211   4.121   2.258  12.820 -0.8626  0.4684  0.1773
  902MPD2    C213212   4.243   2.215  12.772  0.8920 -0.2015  0.5661
  902MPD2    C313213   4.257   2.092  12.710 -0.2317  0.1497 -0.1161
  902MPD2    C413214   4.145   2.010  12.724 -0.1584 -0.2531 -0.1602
  902MPD2    C513215   4.028   2.050  12.767  0.4876 -0.5318  0.4889
  902MPD2     H13216   4.326   2.284  12.784  1.0621 -0.2580 -0.3097
  902MPD2    H113217   4.146   1.906  12.693  0.6004 -0.7052  1.3719
  902MPD2    H213218   3.917   2.222  12.850 -0.1059 -1.1399  2.1472
  902MPD2    H313219   3.945   1.981  12.760  0.2771 -0.0888 -1.5724
  902MPD2     N13220   4.369   2.053  12.647 -0.1594 -0.2444 -0.2457
  902MPD2    H513221   4.372   1.965  12.596 -0.7226  1.0193 -2.4738
  902MPD2    N113222   4.086   2.390  12.867 -0.0623 -0.1066  0.1836
  902MPD2    H713223   3.987   2.403  12.883  0.4319  0.4250  2.8637
  903MPD2     C13224   4.250   2.330  12.057  0.0494 -0.4930  0.6262
  903MPD2    C113225   4.298   2.207  12.061 -0.5370 -0.6691 -0.0642
  903MPD2    C213226   4.234   2.101  11.986  0.1459 -0.1708  0.2258
  903MPD2    C313227   4.109   2.118  11.928  0.1323  0.0112 -0.5467
  903MPD2    C413228   4.054   2.242  11.935 -0.3353 -0.2797 -0.4603
  903MPD2    C513229   4.132   2.343  11.990 -0.2237 -0.0877  0.1844
  903MPD2     H13230   4.261   1.997  12.000  3.4959  0.3474 -2.3942
  903MPD2    H113231   3.957   2.267  11.893 -1.1962 -1.5630  0.7407
  903MPD2    H213232   4.294   2.415  12.108  1.4466  0.0326 -1.4611
  903MPD2    H313233   4.086   2.442  11.999  0.4460  0.0210  2.4371
  903MPD2     N13234   4.045   1.997  11.883  0.2825  0.1640  0.0487
  903MPD2    H513235   4.102   1.915  11.866 -0.8015 -0.6217  0.1868
  903MPD2    N113236   4.406   2.181  12.147 -0.0559  0.2059  0.2125
  903MPD2    H713237   4.442   2.268  12.187 -0.7225  0.6349 -0.1229
  904MPD2     C13238   4.296   1.295  13.544  1.0815 -0.1959 -0.6385
  904MPD2    C113239   4.297   1.223  13.666  0.1425 -1.0803  0.0932
  904MPD2    C213240   4.416   1.200  13.729 -0.0258 -0.2828  0.5225
  904MPD2    C313241   4.533   1.251  13.680 -0.1417  0.2383 -0.1024
  904MPD2    C413242   4.531   1.325  13.564  0.0834 -0.0868  0.0547
  904MPD2    C513243   4.414   1.338  13.491 -0.0341  0.3595  0.2215
  904MPD2     H13244   4.414   1.155  13.828  0.5338 -3.2712 -0.8262
  904MPD2    H113245   4.617   1.364  13.509  1.6443 -3.3161  0.1797
  904MPD2    H213246   4.203   1.322  13.495  0.0289 -1.7186  0.5235
  904MPD2    H313247   4.418   1.408  13.409  2.9700  0.1862  0.2030
  904MPD2     N13248   4.645   1.224  13.751 -0.0426  0.5102  0.1734
  904MPD2    H513249   4.634   1.170  13.837  0.9113  0.9595  0.5716
  904MPD2    N113250   4.180   1.157  13.721 -0.3220  0.0907  0.3405
  904MPD2    H713251   4.191   1.094  13.800  1.9547 -0.3963 -0.3775
  905MPD2     C13252   3.902   1.207  13.095 -0.3617 -0.7543 -0.5612
  905MPD2    C113253   3.985   1.277  13.179  0.0419 -0.9538  0.1036
  905MPD2    C213254   4.115   1.249  13.176 -0.0988 -1.2178  0.0707
  905MPD2    C313255   4.161   1.153  13.081 -0.3365  0.3362  0.0661
  905MPD2    C413256   4.074   1.095  12.992 -0.1664  0.2756  0.1113
  905MPD2    C513257   3.943   1.121  13.009  0.1010  0.1602  0.5980
  905MPD2     H13258   4.183   1.278  13.255  1.6516 -0.8426 -1.5779
  905MPD2    H113259   4.116   1.019  12.928  1.1767  2.3082 -1.4257
  905MPD2    H213260   3.793   1.207  13.099 -0.4592 -0.6129 -3.2834
  905MPD2    H313261   3.868   1.066  12.954  1.9385 -0.2878 -1.4536
  905MPD2     N13262   4.293   1.112  13.081  0.6203  0.6796  0.2025
  905MPD2    H513263   4.322   1.034  13.023  0.5021 -1.3965  2.9038
  905MPD2    N113264   3.925   1.358  13.275 -0.7755  0.0190  0.1221
  905MPD2    H713265   3.830   1.336  13.302 -0.1636  0.3697  2.5730
  906MPD2     C13266   1.983   1.579  11.320 -0.3269 -0.7198  0.0460
  906MPD2    C113267   1.939   1.460  11.261 -0.0910  1.2242 -0.4050
  906MPD2    C213268   1.898   1.356  11.347 -0.4369  0.0561 -0.2734
  906MPD2    C313269   1.899   1.359  11.483  0.3764  0.1517 -0.0968
  906MPD2    C413270   1.948   1.473  11.539  0.1264  0.5173  0.0269
  906MPD2    C513271   1.981   1.582  11.460  0.9470 -0.4317  0.5410
  906MPD2     H13272   1.867   1.265  11.297 -1.0878  0.4255 -0.5341
  906MPD2    H113273   1.974   1.474  11.644  2.3631 -2.3641 -0.4947
  906MPD2    H213274   2.032   1.657  11.263 -0.5434 -1.1489 -0.7310
  906MPD2    H313275   2.022   1.666  11.515 -2.4961  0.2749  2.0429
  906MPD2     N13276   1.862   1.247  11.571  0.8932  0.1852  0.1834
  906MPD2    H513277   1.869   1.272  11.670 -0.5094  0.8900  0.1147
  906MPD2    N113278   1.936   1.436  11.117 -0.1791 -0.4119 -0.2178
  906MPD2    H713279   1.921   1.340  11.090  1.6099 -0.3607 -1.4244
  907MPD2     C13280   0.873   0.559  15.275  0.2699 -0.6212 -0.4207
  907MPD2    C113281   0.776   0.458  15.277  0.1115  0.1331 -0.6774
  907MPD2    C213282   0.718   0.417  15.394 -0.0456  0.4122 -0.5020
  907MPD2    C313283   0.765   0.474  15.515 -0.0478  0.2943  0.0600
  907MPD2    C413284   0.863   0.574  15.515 -0.5762  0.2913  0.2467
  907MPD2    C513285   0.921   0.605  15.395  0.1116 -0.2822  0.4696
  907MPD2     H13286   0.641   0.341  15.396 -0.7646  1.1534 -0.2246
  907MPD2    H113287   0.901   0.612  15.609 -0.0131 -0.4108  0.2997
  907MPD2    H213288   0.931   0.582  15.186  1.5449  2.6005  1.2452
  907MPD2    H313289   1.012   0.663  15.400 -0.6577  0.6649  3.4275
  907MPD2     N13290   0.704   0.430  15.637 -0.0074 -0.5859  0.2669
  907MPD2    H513291   0.625   0.366  15.628  0.4372 -0.5893 -3.8378
  907MPD2    N113292   0.729   0.400  15.155 -0.6179  0.8082 -0.3701
  907MPD2    H713293   0.663   0.324  15.163 -0.1006  0.6357  2.0484
  908MPD2     C13294   3.228   1.698   9.559 -0.2852  0.3226 -0.1008
  908MPD2    C113295   3.257   1.585   9.629 -0.5508  0.0918  0.4074
  908MPD2    C213296   3.278   1.613   9.766  0.2608  0.1582  0.7767
  908MPD2    C313297   3.252   1.733   9.835 -0.2562 -0.2049  0.8862
  908MPD2    C413298   3.199   1.836   9.756 -0.5532  0.5972  0.0861
  908MPD2    C513299   3.191   1.821   9.621  0.1577  0.6357 -0.1176
  908MPD2     H13300   3.331   1.541   9.828 -0.9913 -1.5339 -0.1018
  908MPD2    H113301   3.157   1.926   9.800  0.2212  0.5620  0.8974
  908MPD2    H213302   3.205   1.693   9.453  1.1327 -1.0039 -0.3337
  908MPD2    H313303   3.157   1.908   9.566 -2.1725 -0.8356 -1.0104
  908MPD2     N13304   3.278   1.750   9.975 -0.3567 -0.2965 -0.5470
  908MPD2    H513305   3.301   1.665  10.026 -0.9238 -0.5742 -0.7516
  908MPD2    N113306   3.281   1.458   9.569 -0.4848  0.1933  0.2887
  908MPD2    H713307   3.316   1.383   9.628 -0.9460 -1.4634 -1.5038
  909MPD2     C13308   3.765   4.282  11.508 -0.2749 -0.3507 -0.0205
  909MPD2    C113309   3.645   4.347  11.507  0.1124 -0.6280 -0.3287
  909MPD2    C213310   3.572   4.341  11.621  0.2940 -0.3922 -0.3858
  909MPD2    C313311   3.612   4.280  11.735  0.3186 -0.5046  1.3311
  909MPD2    C413312   3.733   4.210  11.731  0.1292  0.4062 -0.7317
  909MPD2    C513313   3.808   4.218  11.620  0.1708  0.6512  0.0190
  909MPD2     H13314   3.483   4.403  11.626  0.3225 -0.2436 -1.6927
  909MPD2    H113315   3.762   4.146  11.814  1.3695 -1.0544 -2.3008
  909MPD2    H213316   3.823   4.267  11.417 -0.4293  0.1655 -0.2050
  909MPD2    H313317   3.900   4.161  11.618  0.2064  0.7410 -1.0353
  909MPD2     N13318   3.532   4.288  11.848  0.5392  0.8046 -0.1473
  909MPD2    H513319   3.453   4.351  11.840  0.3328  0.5018 -0.4902
  909MPD2    N113320   3.584   4.411  11.396 -0.5558  0.3891 -0.1511
  909MPD2    H713321   3.483   4.417  11.393 -0.5703  1.1129  1.8610
  910MPD2     C13322   0.482   0.728  15.733 -0.4152  0.6410  0.2049
  910MPD2    C113323   0.365   0.664  15.695 -0.4285 -0.3708  0.2634
  910MPD2    C213324   0.342   0.655  15.552 -0.2183  0.0800  0.5140
  910MPD2    C313325   0.438   0.692  15.454 -0.2206 -0.4736  0.6389
  910MPD2    C413326   0.554   0.749  15.496 -0.3023 -0.0558 -0.1853
  910MPD2    C513327   0.575   0.757  15.637  0.9111  0.8158 -0.8319
  910MPD2     H13328   0.248   0.611  15.518 -0.1922  0.5733 -0.1879
  910MPD2    H113329   0.638   0.785  15.438 -0.0848 -2.2503 -1.1967
  910MPD2    H213330   0.514   0.731  15.837 -0.0046  0.6912  0.0757
  910MPD2    H313331   0.666   0.812  15.661  1.4289 -0.8759  1.0697
  910MPD2     N13332   0.414   0.672  15.312  0.3756 -0.3061  0.2081
  910MPD2    H513333   0.490   0.697  15.249  0.2427 -1.7428 -0.5128
  910MPD2    N113334   0.272   0.604  15.786  0.4710 -0.4011  0.2107
  910MPD2    H713335   0.187   0.562  15.748  0.8681 -1.4888  0.5115
  911MPD2     C13336   2.745   1.512  16.815  0.5530 -0.4187 -0.5447
  911MPD2    C113337   2.788   1.623  16.884  0.3666  0.2683 -0.2350
  911MPD2    C213338   2.736   1.747  16.856  0.5430  0.0690 -0.0250
  911MPD2    C313339   2.638   1.755  16.759 -0.3861 -0.2265 -0.5314
  911MPD2    C413340   2.600   1.646  16.681 -0.2987 -0.5030 -0.0743
  911MPD2    C513341   2.658   1.525  16.710  0.1350  0.0595  0.6690
  911MPD2     H13342   2.758   1.833  16.917  0.6224 -0.2381  0.3752
  911MPD2    H113343   2.527   1.645  16.601 -0.6260 -0.9694  0.2307
  911MPD2    H213344   2.784   1.413  16.832 -1.1531 -0.4637  3.0196
  911MPD2    H313345   2.632   1.433  16.657  2.0773  1.1757 -2.2064
  911MPD2     N13346   2.571   1.874  16.727  0.3679  0.1973 -0.6970
  911MPD2    H513347   2.481   1.868  16.680  0.4768 -2.0829 -0.5890
  911MPD2    N113348   2.868   1.601  16.996 -0.2443 -0.0033  0.9701
  911MPD2    H713349   2.897   1.507  17.022 -1.3338  0.0658  2.4339
  912MPD2     C13350   2.272   1.670  16.279 -0.5515 -0.4252 -0.7383
  912MPD2    C113351   2.272   1.694  16.413 -0.4994  0.2857 -0.3758
  912MPD2    C213352   2.269   1.592  16.503 -0.7175 -0.0305 -0.1936
  912MPD2    C313353   2.300   1.464  16.460 -0.5111 -0.2197 -0.6594
  912MPD2    C413354   2.331   1.440  16.323 -0.7187 -0.1096 -0.2571
  912MPD2    C513355   2.318   1.542  16.233  0.6609 -0.2178  0.8918
  912MPD2     H13356   2.253   1.616  16.608 -2.1394 -0.7448 -0.2532
  912MPD2    H113357   2.357   1.346  16.278 -0.7758 -0.3378  0.1818
  912MPD2    H213358   2.251   1.758  16.220 -2.4806  1.5599  2.9225
  912MPD2    H313359   2.331   1.516  16.129  2.5825  1.7416  0.6496
  912MPD2     N13360   2.323   1.364  16.559  0.2902  0.3267  0.2804
  912MPD2    H513361   2.313   1.383  16.659  2.2290  0.8306  0.3837
  912MPD2    N113362   2.271   1.827  16.460  0.5655  0.5874  0.2268
  912MPD2    H713363   2.271   1.898  16.388 -0.1289 -0.9501 -1.3017
  913MPD2     C13364   2.628   2.716  10.470  0.4832  0.4292 -0.0440
  913MPD2    C113365   2.733   2.798  10.510  0.2901  0.3666  0.3411
  913MPD2    C213366   2.798   2.875  10.410  0.5568 -0.4472 -0.0926
  913MPD2    C313367   2.762   2.883  10.279 -0.0199 -0.0565 -0.7815
  913MPD2    C413368   2.663   2.799  10.249  0.2571  0.4378 -0.0961
  913MPD2    C513369   2.595   2.717  10.339  0.0776  0.6111 -0.2287
  913MPD2     H13370   2.895   2.921  10.429  0.3662  1.3071 -3.3302
  913MPD2    H113371   2.640   2.787  10.144  1.0312 -2.6308  0.0699
  913MPD2    H213372   2.573   2.647  10.534 -0.2254 -0.7594 -1.9453
  913MPD2    H313373   2.514   2.649  10.316  0.9471 -0.2545 -0.7090
  913MPD2     N13374   2.823   2.959  10.175 -0.2993 -0.4627  0.3209
  913MPD2    H513375   2.803   2.944  10.077  0.8001  0.2284 -0.0048
  913MPD2    N113376   2.767   2.809  10.646 -0.7327 -0.1888 -0.3578
  913MPD2    H713377   2.716   2.738  10.697  0.1485  0.5819  1.5927
  914MPD2     C13378   0.599   2.589  12.068  0.5149  0.1465 -0.3015
  914MPD2    C113379   0.596   2.727  12.069  0.0410 -1.1468 -0.6199
  914MPD2    C213380   0.670   2.793  12.165 -0.2802  0.4107 -0.2239
  914MPD2    C313381   0.732   2.727  12.264 -0.0703 -0.4543 -0.2301
  914MPD2    C413382   0.721   2.592  12.262  0.4293  0.2434  0.7958
  914MPD2    C513383   0.663   2.513  12.164 -0.3183 -0.5872  0.8452
  914MPD2     H13384   0.683   2.901  12.163  2.6516  0.0289 -1.6533
  914MPD2    H113385   0.775   2.537  12.338  2.8005  1.6249  0.1123
  914MPD2    H213386   0.549   2.525  11.996  2.1706 -0.7303 -0.6635
  914MPD2    H313387   0.671   2.406  12.174 -2.1641 -0.7051  1.2066
  914MPD2     N13388   0.834   2.795  12.342 -0.0552 -0.1294  0.0919
  914MPD2    H513389   0.846   2.894  12.321 -1.5878  0.3029  1.2686
  914MPD2    N113390   0.524   2.797  11.970  0.0511 -0.0869 -0.0991
  914MPD2    H713391   0.465   2.743  11.908  0.2163  1.3448 -1.5129
  915MPD2     C13392   3.847   3.033  15.656  0.1140  0.1422  0.2311
  915MPD2    C113393   3.726   3.094  15.664  0.7641  0.4500  0.6227
  915MPD2    C213394   3.680   3.123  15.793 -0.2932  0.0003  0.0017
  915MPD2    C313395   3.748   3.079  15.904  0.2555 -0.2388 -0.0404
  915MPD2    C413396   3.865   3.007  15.888 -0.0876 -0.0025 -0.3730
  915MPD2    C513397   3.910   2.976  15.766 -0.0270 -0.1824 -0.0658
  915MPD2     H13398   3.587   3.172  15.815  0.7621  0.5156  3.4297
  915MPD2    H113399   3.927   2.973  15.971 -0.4855 -2.6296 -1.1463
  915MPD2    H213400   3.897   3.015  15.561 -1.3951  0.2711 -0.5826
  915MPD2    H313401   3.999   2.916  15.747 -0.4975 -0.5415 -1.1614
  915MPD2     N13402   3.690   3.094  16.031  0.1651 -0.1213 -0.4477
  915MPD2    H513403   3.604   3.147  16.040 -0.1457 -0.6742 -0.2010
  915MPD2    N113404   3.659   3.123  15.549  0.1826  0.2215  0.0551
  915MPD2    H713405   3.712   3.102  15.466  0.0116 -2.1249  0.5401
  916MPD2     C13406   2.122   1.743  15.853  0.0398  0.2415  0.6208
  916MPD2    C113407   2.020   1.659  15.887  0.0234  0.2602 -0.3431
  916MPD2    C213408   1.981   1.573  15.790 -0.2957 -0.1024  0.8274
  916MPD2    C313409   2.030   1.579  15.664 -0.9203 -0.3938 -0.2380
  916MPD2    C413410   2.131   1.670  15.639  0.8101 -0.2777 -0.0584
  916MPD2    C513411   2.176   1.757  15.727 -0.0313 -0.4121  0.0570
  916MPD2     H13412   1.905   1.499  15.810 -0.3111 -0.7903 -1.7623
  916MPD2    H113413   2.179   1.675  15.543 -1.5066 -0.1470 -1.2172
  916MPD2    H213414   2.159   1.822  15.918 -0.3043  2.4310 -1.8262
  916MPD2    H313415   2.258   1.821  15.697  0.0828 -0.6018 -0.0380
  916MPD2     N13416   1.978   1.491  15.563 -0.1124 -0.1992 -0.4521
  916MPD2    H513417   1.899   1.433  15.587  0.2254  0.1037  1.3620
  916MPD2    N113418   1.970   1.669  16.019  0.1592  0.2407  0.2960
  916MPD2    H713419   2.006   1.750  16.069  1.7716 -1.3800  1.7758
  917MPD2     C13420   2.274   3.678  11.192  0.4301 -0.3287  0.2078
  917MPD2    C113421   2.344   3.714  11.308 -0.2461  0.8852 -1.4980
  917MPD2    C213422   2.447   3.809  11.297 -0.3731  0.6494  0.1730
  917MPD2    C313423   2.482   3.870  11.173 -1.1161 -0.0854  0.5640
  917MPD2    C413424   2.407   3.826  11.063  0.4527  0.2266 -0.0702
  917MPD2    C513425   2.306   3.733  11.071  0.1484  0.1861 -0.6517
  917MPD2     H13426   2.503   3.838  11.386 -0.1521 -0.3259  0.3534
  917MPD2    H113427   2.420   3.857  10.960  1.0360  0.9582  0.2256
  917MPD2    H213428   2.195   3.603  11.188 -0.9968  1.2286 -0.5021
  917MPD2    H313429   2.259   3.698  10.980  3.4029 -1.4972 -1.6662
  917MPD2     N13430   2.588   3.966  11.145  0.1415 -0.1789  0.2686
  917MPD2    H513431   2.613   3.988  11.049  1.4655  0.3042  0.7225
  917MPD2    N113432   2.297   3.663  11.433  0.1932  0.1441  0.6364
  917MPD2    H713433   2.213   3.606  11.429  0.0077  0.4038  0.7840
  918MPD2     C13434   2.488   3.698  12.479 -0.4686  1.0928 -0.0887
  918MPD2    C113435   2.576   3.636  12.395  0.0654  0.1294  0.4878
  918MPD2    C213436   2.539   3.611  12.258  0.0941 -0.4122  0.1572
  918MPD2    C313437   2.417   3.651  12.212  0.0605 -0.0135  0.5246
  918MPD2    C413438   2.330   3.706  12.300 -0.2583  0.1551 -0.2008
  918MPD2    C513439   2.363   3.730  12.429  0.0283 -0.3532  0.4516
  918MPD2     H13440   2.605   3.562  12.187 -0.0456 -2.1691  1.2213
  918MPD2    H113441   2.237   3.753  12.271  0.4016  0.5751 -1.5872
  918MPD2    H213442   2.509   3.731  12.580  1.2109 -0.4668  0.0526
  918MPD2    H313443   2.294   3.785  12.492 -0.0818  1.0520 -0.8976
  918MPD2     N13444   2.386   3.636  12.077 -0.1202  0.0343  0.0442
  918MPD2    H513445   2.456   3.589  12.020 -2.1916 -0.8739 -1.7716
  918MPD2    N113446   2.713   3.605  12.430 -0.9146  0.4175  0.2976
  918MPD2    H713447   2.774   3.565  12.361 -1.3893  0.3284 -0.0677
  919MPD2     C13448   2.972   2.785  12.057 -0.2525 -0.1539 -0.1752
  919MPD2    C113449   2.855   2.712  12.045 -0.1199  0.4361 -0.1663
  919MPD2    C213450   2.769   2.746  11.942 -0.4102  0.3422  0.1596
  919MPD2    C313451   2.794   2.832  11.841 -0.2700 -0.7612  0.3013
  919MPD2    C413452   2.914   2.895  11.856 -0.3552 -0.4693  0.3290
  919MPD2    C513453   2.998   2.876  11.962 -0.5771 -0.4040 -0.5284
  919MPD2     H13454   2.682   2.682  11.934 -0.0184 -0.3499  1.3798
  919MPD2    H113455   2.948   2.971  11.786 -0.7485  0.3910  1.0832
  919MPD2    H213456   3.035   2.771  12.144 -2.3038  0.8319  1.4805
  919MPD2    H313457   3.082   2.944  11.965 -0.5567 -0.3533 -2.3649
  919MPD2     N13458   2.715   2.858  11.725 -0.3847 -0.3585 -0.5052
  919MPD2    H513459   2.747   2.930  11.662 -0.7366  0.9368  0.8026
  919MPD2    N113460   2.834   2.604  12.140  0.1280  0.0233 -0.4060
  919MPD2    H713461   2.746   2.555  12.129  0.3863 -0.3652 -0.7240
  920MPD2     C13462   2.755   3.224  10.809  0.4108  0.4198 -0.2605
  920MPD2    C113463   2.640   3.152  10.788 -0.1611 -0.7182  0.5864
  920MPD2    C213464   2.590   3.079  10.901 -0.3194  0.7175 -0.2506
  920MPD2    C313465   2.646   3.099  11.026 -0.4494 -0.5978  0.1446
  920MPD2    C413466   2.749   3.173  11.044 -0.1192 -0.2600  0.0630
  920MPD2    C513467   2.803   3.239  10.935  0.0772 -0.2422  0.4070
  920MPD2     H13468   2.507   3.009  10.889  2.0771 -2.1022 -0.4262
  920MPD2    H113469   2.807   3.185  11.135  0.1442 -2.5821  0.1945
  920MPD2    H213470   2.816   3.278  10.738  1.0783 -0.4268 -0.3282
  920MPD2    H313471   2.882   3.313  10.947  0.8113 -0.7885 -1.0903
  920MPD2     N13472   2.585   3.040  11.138  0.3796 -0.6344  0.2553
  920MPD2    H513473   2.493   3.001  11.120 -0.3689  1.1387  0.1583
  920MPD2    N113474   2.590   3.131  10.658 -0.3936  0.0749 -0.2215
  920MPD2    H713475   2.532   3.048  10.657  1.4916 -1.2639  1.0725
  921MPD2     C13476   3.763   1.868  17.068  0.8486  0.0867  0.8519
  921MPD2    C113477   3.712   1.757  17.015 -0.1941  0.0959  0.0453
  921MPD2    C213478   3.590   1.712  17.065 -0.4871 -0.1902  0.3377
  921MPD2    C313479   3.520   1.787  17.165 -0.6160  0.3137  0.6268
  921MPD2    C413480   3.574   1.902  17.204  0.1366  0.1600  0.1767
  921MPD2    C513481   3.688   1.948  17.147  0.1931 -0.1572 -1.1627
  921MPD2     H13482   3.542   1.626  17.021 -0.1077  0.1010 -0.6497
  921MPD2    H113483   3.528   1.960  17.283  0.9468  1.0841 -0.0251
  921MPD2    H213484   3.858   1.906  17.032  0.4483  0.4235  0.1543
  921MPD2    H313485   3.731   2.038  17.189  1.3332 -0.6559 -1.2793
  921MPD2     N13486   3.403   1.745  17.233  0.5057 -0.6050 -0.1867
  921MPD2    H513487   3.353   1.812  17.292  2.3104 -0.1703  0.8534
  921MPD2    N113488   3.785   1.696  16.911  0.4315  0.0021  0.1851
  921MPD2    H713489   3.873   1.742  16.889 -0.6350  2.0380  0.2221
  922MPD2     C13490   0.298   3.815  17.088 -0.3480 -0.5016 -0.1214
  922MPD2    C113491   0.184   3.880  17.054  0.0682  0.4046  0.4224
  922MPD2    C213492   0.067   3.843  17.114 -0.6180 -0.0367 -0.0403
  922MPD2    C313493   0.065   3.751  17.222 -0.1498 -0.6537  0.6177
  922MPD2    C413494   0.187   3.692  17.258 -0.3622  0.1955  0.1728
  922MPD2    C513495   0.297   3.716  17.182  0.5781 -0.5194 -0.2247
  922MPD2     H13496   4.704   3.898  17.087  1.0247  2.4567 -0.4664
  922MPD2    H113497   0.184   3.610  17.329  0.3187  1.1235  1.2785
  922MPD2    H213498   0.385   3.840  17.029 -0.8216 -0.6268 -0.8765
  922MPD2    H313499   0.388   3.660  17.201 -0.5743 -1.6287  2.1518
  922MPD2     N13500   4.669   3.730  17.287  0.5642  0.1060 -0.2817
  922MPD2    H513501   4.583   3.778  17.263 -0.6144 -1.5284  0.6278
  922MPD2    N113502   0.189   3.972  16.942 -0.1264  0.5520 -0.3110
  922MPD2    H713503   0.285   3.996  16.919  0.4034 -1.7989 -0.5933
  923MPD2     C13504   1.279   1.072   9.444  0.2086  0.5605  0.3016
  923MPD2    C113505   1.248   1.150   9.554  0.2575  0.5026  0.3195
  923MPD2    C213506   1.306   1.128   9.677 -0.2112 -0.2536 -0.4633
  923MPD2    C313507   1.396   1.029   9.678  0.2742  0.0602  0.1606
  923MPD2    C413508   1.423   0.950   9.575  0.5142 -0.1141  0.7302
  923MPD2    C513509   1.368   0.968   9.450  0.6317  0.1212 -0.7416
  923MPD2     H13510   1.286   1.198   9.757 -1.3318 -1.2394  0.1068
  923MPD2    H113511   1.495   0.870   9.586 -2.3259 -2.6493  0.7954
  923MPD2    H213512   1.240   1.086   9.343  0.0338 -1.3272  0.1047
  923MPD2    H313513   1.384   0.904   9.363 -0.9704  0.7610 -1.5085
  923MPD2     N13514   1.460   0.986   9.800  0.1446 -0.0534 -0.9916
  923MPD2    H513515   1.516   0.902   9.791  0.0090 -0.2742  0.2698
  923MPD2    N113516   1.149   1.246   9.536 -0.3246  0.0251 -0.3686
  923MPD2    H713517   1.116   1.263   9.442  0.2302  1.6384 -0.2746
  924MPD2     C13518   0.597   4.401  15.667  0.8787 -0.7019 -0.5168
  924MPD2    C113519   0.648   4.448  15.788 -0.1444  0.9158  0.1321
  924MPD2    C213520   0.620   4.575  15.825 -0.0301  0.3077  0.4340
  924MPD2    C313521   0.544   4.656  15.748 -0.6176  0.1329 -0.8202
  924MPD2    C413522   0.494   4.610  15.628 -0.6773  0.8243 -0.0177
  924MPD2    C513523   0.525   4.485  15.591  0.1230  0.5241  0.0281
  924MPD2     H13524   0.669   4.612  15.915 -1.0199 -1.1014  1.5566
  924MPD2    H113525   0.433   4.675  15.567 -1.4561 -0.6059 -0.7513
  924MPD2    H213526   0.615   4.300  15.631  1.0435 -0.6863 -0.4808
  924MPD2    H313527   0.486   4.459  15.494 -0.0302 -2.2182  0.8273
  924MPD2     N13528   0.503   0.060  15.793 -0.0038  0.1365 -0.0739
  924MPD2    H513529   0.434   0.110  15.737  0.9988  0.7377 -0.7704
  924MPD2    N113530   0.730   4.360  15.858 -0.0827  0.1299 -0.3267
  924MPD2    H713531   0.707   4.263  15.840  0.8359 -0.1136 -0.2023
  925MPD2     C13532   4.615   1.732  14.892  0.2612 -0.5347  0.1315
  925MPD2    C113533   4.489   1.777  14.866 -0.0382  0.4410  0.3033
  925MPD2    C213534   4.401   1.777  14.971 -0.2270  0.2725  0.0329
  925MPD2    C313535   4.438   1.752  15.105 -0.3891  0.6801 -1.0086
  925MPD2    C413536   4.557   1.702  15.124  0.0773  0.0969 -0.1211
  925MPD2    C513537   4.643   1.690  15.019  0.0857 -0.6270 -0.8708
  925MPD2     H13538   4.299   1.807  14.950  0.3691  1.7330 -0.8065
  925MPD2    H113539   4.590   1.667  15.221  0.2563 -0.1314 -0.2635
  925MPD2    H213540   4.695   1.731  14.819  0.9977 -0.8555  0.9520
  925MPD2    H313541   0.015   1.648  15.039  1.2453  2.3894 -0.2067
  925MPD2     N13542   4.347   1.759  15.210  0.2880  0.0620  0.0322
  925MPD2    H513543   4.385   1.736  15.302  0.5623  0.0242 -0.0896
  925MPD2    N113544   4.438   1.821  14.745  0.1127 -0.5675 -0.1352
  925MPD2    H713545   4.347   1.864  14.737  0.5484  0.1419 -1.1605
  926MPD2     C13546   2.897   0.736  13.431 -0.9621 -0.2457 -0.1531
  926MPD2    C113547   2.982   0.841  13.450  0.0071 -0.7982 -0.5157
  926MPD2    C213548   3.038   0.895  13.329 -0.4575  0.8677 -0.0124
  926MPD2    C313549   3.004   0.839  13.204  0.3577 -0.2897 -0.1716
  926MPD2    C413550   2.896   0.751  13.194  0.0415 -0.0069  0.5969
  926MPD2    C513551   2.850   0.700  13.311 -0.1080 -0.3406 -0.1352
  926MPD2     H13552   3.101   0.983  13.335 -1.6941  1.7274  0.2621
  926MPD2    H113553   2.878   0.688  13.108 -0.2438  2.7450 -1.3860
  926MPD2    H213554   2.865   0.692  13.524  2.0952  0.2172  1.1264
  926MPD2    H313555   2.781   0.616  13.305 -1.4214  0.7639 -0.4275
  926MPD2     N13556   3.060   0.887  13.082  0.3169  0.0332 -0.5195
  926MPD2    H513557   3.003   0.854  13.005  1.0264 -1.8034 -0.2737
  926MPD2    N113558   3.002   0.887  13.584  0.1095 -0.4034 -0.6869
  926MPD2    H713559   2.940   0.859  13.660  0.8672  0.2323  0.1636
  927MPD2     C13560   3.706   3.536   0.493  0.2778  0.2632  0.7607
  927MPD2    C113561   3.620   3.566   0.392  0.9050 -0.2801  0.2503
  927MPD2    C213562   3.563   3.463   0.313  0.1067  0.0252 -0.7203
  927MPD2    C313563   3.602   3.335   0.338 -0.6962  0.1388  0.2697
  927MPD2    C413564   3.698   3.311   0.436 -0.0898 -0.1045 -0.3029
  927MPD2    C513565   3.740   3.405   0.516  0.4889  0.1784 -0.3982
  927MPD2     H13566   3.483   3.489   0.244  1.0266  0.3090 -1.6904
  927MPD2    H113567   3.740   3.212   0.443  0.5616  0.2019  0.1237
  927MPD2    H213568   3.749   3.603   0.567 -0.0801  1.5338 -0.1686
  927MPD2    H313569   3.803   3.370   0.597 -0.2086 -0.7390 -0.2616
  927MPD2     N13570   3.545   3.236   0.257 -0.2739  0.6109  0.0605
  927MPD2    H513571   3.488   3.269   0.180 -2.2407 -3.6068 -0.2564
  927MPD2    N113572   3.572   3.697   0.396 -0.7782  0.1645  0.9389
  927MPD2    H713573   3.603   3.757   0.472  1.3553  0.1877  0.0604
  928MPD2     C13574   1.929   2.048   1.831  0.4336 -0.1933  0.3192
  928MPD2    C113575   1.825   2.128   1.802 -0.7426 -0.2847  0.4093
  928MPD2    C213576   1.774   2.129   1.668 -0.3210 -0.0533 -0.1882
  928MPD2    C313577   1.834   2.052   1.571  0.7682  0.4758 -0.4377
  928MPD2    C413578   1.935   1.967   1.608 -0.4173  0.0381 -0.2018
  928MPD2    C513579   1.986   1.966   1.736  0.0711  0.5500  0.6793
  928MPD2     H13580   1.697   2.200   1.638 -1.4236 -0.5502  1.4598
  928MPD2    H113581   1.989   1.906   1.536  0.4807  0.5295  0.0577
  928MPD2    H213582   1.975   2.043   1.929 -1.5914 -0.5812  1.2535
  928MPD2    H313583   2.081   1.915   1.742  0.5277  1.3935  0.5910
  928MPD2     N13584   1.799   2.046   1.432  0.2091  0.5999 -0.1340
  928MPD2    H513585   1.847   1.979   1.373 -3.7690  0.5916 -3.3193
  928MPD2    N113586   1.784   2.217   1.904  0.2253  0.2438  0.0944
  928MPD2    H713587   1.827   2.202   1.995  0.8894  4.2918  0.4565
  929MPD2     C13588   1.432   1.073  10.980  0.6285 -0.4428  0.0638
  929MPD2    C113589   1.300   1.027  11.004 -0.4543  0.2675  0.1005
  929MPD2    C213590   1.217   1.020  10.891  0.0309  0.1062 -0.3121
  929MPD2    C313591   1.253   1.054  10.761 -0.0696  0.2637  0.1723
  929MPD2    C413592   1.386   1.093  10.751  0.2899 -0.0593 -0.1781
  929MPD2    C513593   1.476   1.095  10.851  0.0020  0.7719 -0.3759
  929MPD2     H13594   1.112   1.000  10.907 -0.1980  1.1422 -0.5174
  929MPD2    H113595   1.435   1.113  10.656 -0.3692  1.1415 -0.2542
  929MPD2    H213596   1.504   1.089  11.059 -0.3306  1.4050  0.5672
  929MPD2    H313597   1.575   1.139  10.841  0.2534  0.1877 -0.4338
  929MPD2     N13598   1.169   1.075  10.653  0.1381 -0.1103 -0.1698
  929MPD2    H513599   1.221   1.110  10.573  0.3574  0.9922  0.4571
  929MPD2    N113600   1.258   0.981  11.132  0.5063 -0.2239 -0.3953
  929MPD2    H713601   1.331   0.986  11.203  0.4898 -1.7848 -0.2832
  930MPD2     C13602   2.382   4.140  14.118 -0.2164  0.2610  0.2058
  930MPD2    C113603   2.488   4.054  14.133  0.4169 -0.0538  0.2104
  930MPD2    C213604   2.469   3.924  14.094 -0.0922 -0.3384  0.2218
  930MPD2    C313605   2.356   3.867  14.039 -0.1265  0.6892 -0.1400
  930MPD2    C413606   2.246   3.955  14.036  0.0237 -0.2103 -0.2904
  930MPD2    C513607   2.267   4.096  14.060 -0.2895  0.0141 -0.4030
  930MPD2     H13608   2.561   3.867  14.094 -0.5156 -1.0113  0.5995
  930MPD2    H113609   2.156   3.912  13.993 -0.9974  1.3573  0.2935
  930MPD2    H213610   2.402   4.243  14.143  0.5144 -0.2241  1.6442
  930MPD2    H313611   2.191   4.173  14.060  0.5444  0.8470 -2.7773
  930MPD2     N13612   2.349   3.739  13.985  0.1840  0.3626 -0.0185
  930MPD2    H513613   2.267   3.709  13.933  0.7367 -0.5113 -0.3919
  930MPD2    N113614   2.615   4.111  14.168  0.3438 -0.0070 -0.4799
  930MPD2    H713615   2.624   4.209  14.193  1.5755  0.1224 -1.4422
  931MPD2     C13616   3.237   4.300   0.846 -0.8084  0.2058 -0.5672
  931MPD2    C113617   3.276   4.179   0.809  0.0335 -0.0329 -1.6523
  931MPD2    C213618   3.283   4.079   0.900  0.4831 -0.0243  0.0203
  931MPD2    C313619   3.240   4.101   1.033  0.0869  0.1381  0.6907
  931MPD2    C413620   3.201   4.225   1.070  1.0142  0.1763  0.0876
  931MPD2    C513621   3.202   4.327   0.976  0.4735 -0.0996  0.2346
  931MPD2     H13622   3.306   3.979   0.866 -0.9638 -0.4802  0.3809
  931MPD2    H113623   3.167   4.255   1.168 -0.9418 -0.1827 -0.4677
  931MPD2    H213624   3.238   4.386   0.780  0.1984  1.2815  0.8423
  931MPD2    H313625   3.172   4.426   1.006  0.5145  0.4000 -1.3552
  931MPD2     N13626   3.233   3.995   1.130 -0.4283  0.0445  0.1631
  931MPD2    H513627   3.198   4.021   1.222 -1.6018 -0.8409 -0.0249
  931MPD2    N113628   3.330   4.172   0.679 -0.6378 -0.2869  0.4694
  931MPD2    H713629   3.318   4.252   0.618  1.3314 -0.3244  0.0417
  932MPD2     C13630   4.316   1.969  11.081 -0.2909 -0.0539 -0.7725
  932MPD2    C113631   4.333   1.996  11.214 -0.5416  0.1129  0.1633
  932MPD2    C213632   4.353   1.884  11.296  0.2984  0.5094  0.5755
  932MPD2    C313633   4.352   1.756  11.247 -0.3468  0.7768  0.0381
  932MPD2    C413634   4.324   1.734  11.113 -0.6588 -0.0027  0.6307
  932MPD2    C513635   4.311   1.840  11.030  0.0623  0.0547 -0.7126
  932MPD2     H13636   4.362   1.901  11.403 -0.2159 -0.2741  0.7424
  932MPD2    H113637   4.319   1.635  11.071 -0.9968 -0.2864  1.3442
  932MPD2    H213638   4.310   2.048  11.007  0.7546  2.5434  1.9015
  932MPD2    H313639   4.326   1.825  10.924 -2.2937 -2.3981 -0.6970
  932MPD2     N13640   4.385   1.637  11.326 -0.1830  0.1583  0.9617
  932MPD2    H513641   4.389   1.544  11.285  1.8835 -0.4779  2.6472
  932MPD2    N113642   4.354   2.127  11.267 -0.3340  0.5489 -0.4098
  932MPD2    H713643   4.371   2.132  11.367  0.8334 -2.1705 -0.4885
  933MPD2     C13644   1.455   2.937   2.364  0.3882 -0.6077 -0.2661
  933MPD2    C113645   1.423   2.881   2.240 -0.1074 -0.5136 -0.3241
  933MPD2    C213646   1.313   2.934   2.168 -0.2084 -0.4039  0.2205
  933MPD2    C313647   1.241   3.034   2.232  0.7904 -0.0946 -0.5464
  933MPD2    C413648   1.271   3.084   2.357 -0.3289  0.2601  0.1731
  933MPD2    C513649   1.379   3.034   2.421  0.6548 -0.2641  1.0987
  933MPD2     H13650   1.290   2.898   2.069 -1.4611  0.8746  0.0514
  933MPD2    H113651   1.208   3.150   2.413 -1.2462  1.6082 -2.4432
  933MPD2    H213652   1.525   2.874   2.418  0.1060 -1.4561 -0.8928
  933MPD2    H313653   1.405   3.071   2.519  1.9044  0.8583  0.3550
  933MPD2     N13654   1.131   3.079   2.157 -0.2255 -0.5711  0.0952
  933MPD2    H513655   1.115   3.051   2.060  0.5595 -2.1523  0.4157
  933MPD2    N113656   1.508   2.770   2.198 -0.2411  0.0248  0.1657
  933MPD2    H713657   1.590   2.753   2.255  0.5815  0.1010 -0.9979
  934MPD2     C13658   1.611   0.236   1.530  0.0593 -0.4722  0.0811
  934MPD2    C113659   1.727   0.188   1.470 -0.8769  0.3705 -0.2560
  934MPD2    C213660   1.721   0.070   1.391 -0.3166 -0.6192  0.1569
  934MPD2    C313661   1.604   0.002   1.374  0.8844 -0.5238 -0.0751
  934MPD2    C413662   1.492   0.053   1.431 -0.0858  0.6251  0.3816
  934MPD2    C513663   1.498   0.165   1.507  0.7606 -0.0221 -0.3204
  934MPD2     H13664   1.807   0.031   1.338 -2.1932 -0.1121 -3.2154
  934MPD2    H113665   1.391   0.016   1.420  0.4579 -0.8215  0.3367
  934MPD2    H213666   1.622   0.319   1.599 -0.1799 -0.2704 -0.1252
  934MPD2    H313667   1.407   0.187   1.562  1.3194  0.5327  0.3776
  934MPD2     N13668   1.589   4.607   1.293  0.3437  0.4860  0.1947
  934MPD2    H513669   1.497   4.563   1.294  0.7124 -0.2559  1.5238
  934MPD2    N113670   1.850   0.263   1.474  0.1035  0.4887  0.1006
  934MPD2    H713671   1.923   0.240   1.408 -0.0983 -1.4291  0.5478
  935MPD2     C13672   2.287   3.857   1.147  0.0038  0.3954  0.1544
  935MPD2    C113673   2.186   3.832   1.059  0.4019 -0.4954  0.4151
  935MPD2    C213674   2.084   3.927   1.056  0.0510  0.2660  0.9512
  935MPD2    C313675   2.078   4.036   1.136 -0.0821  0.2290 -0.1373
  935MPD2    C413676   2.177   4.051   1.230  0.2593  0.0930 -0.0601
  935MPD2    C513677   2.282   3.968   1.229  0.4692  0.6219  0.3098
  935MPD2     H13678   2.007   3.894   0.987 -1.2002 -1.4677  3.1705
  935MPD2    H113679   2.171   4.138   1.294  2.1938 -0.6390  1.1007
  935MPD2    H213680   2.376   3.796   1.154 -1.1424 -1.1226  1.3573
  935MPD2    H313681   2.361   3.984   1.301  0.9216 -1.6042  0.3026
  935MPD2     N13682   1.970   4.123   1.135 -0.8053  0.0202 -0.0718
  935MPD2    H513683   1.981   4.204   1.196  0.8062  1.0165 -1.6868
  935MPD2    N113684   2.183   3.732   0.961 -0.6964 -0.1391  0.3456
  935MPD2    H713685   2.119   3.747   0.883  1.2483  1.8469 -0.8620
  936MPD2     C13686   0.271   0.834  12.557  0.6966 -0.5654 -0.5506
  936MPD2    C113687   0.313   0.815  12.685 -0.2763 -0.1699  0.3037
  936MPD2    C213688   0.437   0.868  12.722  0.8646  0.2478 -0.6235
  936MPD2    C313689   0.511   0.944  12.636  0.4718 -0.3340 -0.4983
  936MPD2    C413690   0.461   0.965  12.510 -0.0500  0.2186 -0.6558
  936MPD2    C513691   0.345   0.908  12.466  0.0336 -0.8983  0.6269
  936MPD2     H13692   0.473   0.854  12.823 -0.3164  1.1832 -0.0785
  936MPD2    H113693   0.523   1.017  12.438  2.2604 -0.0672  1.1270
  936MPD2    H213694   0.181   0.791  12.517 -0.4420  1.1762  0.1387
  936MPD2    H313695   0.311   0.931  12.365 -1.9349  0.5068  1.5995
  936MPD2     N13696   0.634   0.993  12.687  0.0244  0.1817  0.4399
  936MPD2    H513697   0.668   0.963  12.777 -0.1818 -1.6782 -0.1089
  936MPD2    N113698   0.240   0.721  12.766  0.4221 -0.4914 -0.2338
  936MPD2    H713699   0.151   0.690  12.728  0.0583 -0.3836  0.5263
  937MPD2     C13700   2.853   1.854  12.147 -0.6391 -0.0808  0.0187
  937MPD2    C113701   2.917   1.972  12.106 -0.0354  1.1260 -0.1443
  937MPD2    C213702   2.949   1.984  11.978 -0.0504  0.0326  0.0230
  937MPD2    C313703   2.950   1.876  11.897  0.1092  0.3349 -0.1990
  937MPD2    C413704   2.896   1.762  11.932 -0.1035  0.0260  0.5662
  937MPD2    C513705   2.838   1.755  12.058 -0.1495 -1.1197 -0.0994
  937MPD2     H13706   3.002   2.073  11.947  0.9678 -0.7122 -0.3899
  937MPD2    H113707   2.889   1.678  11.864 -3.5630  2.6976 -2.4184
  937MPD2    H213708   2.813   1.849  12.247  1.0161  0.0092  0.6940
  937MPD2    H313709   2.776   1.670  12.082 -0.6104 -1.1338 -1.3187
  937MPD2     N13710   3.023   1.891  11.776  0.1655  0.4111 -0.1279
  937MPD2    H513711   3.061   1.983  11.760  1.7946 -0.0489  1.1117
  937MPD2    N113712   2.908   2.087  12.187  0.4542  0.6850 -0.4458
  937MPD2    H713713   2.931   2.175  12.141 -0.6994  0.6727 -1.0508
  938MPD2     C13714   1.226   3.647   0.976 -0.1078  0.2286 -0.0460
  938MPD2    C113715   1.207   3.781   1.010  0.1364 -0.3318 -0.1906
  938MPD2    C213716   1.219   3.820   1.141 -0.2823  0.0778  0.7325
  938MPD2    C313717   1.240   3.730   1.241 -0.1827 -0.1493 -0.3136
  938MPD2    C413718   1.265   3.599   1.203 -0.4563  0.2222 -0.3544
  938MPD2    C513719   1.255   3.559   1.077 -0.5514  0.5694 -0.3027
  938MPD2     H13720   1.200   3.925   1.162 -2.1237 -0.0245 -0.3897
  938MPD2    H113721   1.279   3.522   1.279  0.6696  0.1382 -0.6424
  938MPD2    H213722   1.223   3.599   0.879  4.8332 -0.2352  0.0433
  938MPD2    H313723   1.267   3.455   1.048 -0.2668  0.2348  1.0101
  938MPD2     N13724   1.252   3.767   1.377  0.4669  0.1573 -0.2070
  938MPD2    H513725   1.303   3.703   1.437 -0.0132  0.2842  0.3399
  938MPD2    N113726   1.200   3.880   0.903 -0.0419 -0.1882  0.6185
  938MPD2    H713727   1.243   3.970   0.924 -2.7874  0.8879  1.5582
  939MPD2     C13728   1.862   1.099   0.849 -0.0885  0.1099 -0.2116
  939MPD2    C113729   1.799   0.985   0.800  0.3308 -0.6813  0.0589
  939MPD2    C213730   1.874   0.873   0.785  0.2162 -0.7385 -0.1033
  939MPD2    C313731   2.007   0.867   0.816  0.0632 -0.2773 -0.3665
  939MPD2    C413732   2.069   0.981   0.856 -0.1547 -0.8175 -0.0006
  939MPD2    C513733   1.994   1.092   0.881 -0.0892 -0.2706  0.4278
  939MPD2     H13734   1.820   0.783   0.758  0.7054 -1.6200  1.8060
  939MPD2    H113735   2.175   0.985   0.881 -0.0800  6.1868 -1.4231
  939MPD2    H213736   1.807   1.188   0.876 -0.2842  0.0164 -0.3052
  939MPD2    H313737   2.039   1.183   0.918 -0.0583 -0.1208  0.0253
  939MPD2     N13738   2.070   0.742   0.793 -0.0873 -0.0078 -0.0207
  939MPD2    H513739   2.014   0.669   0.749  2.3969 -0.2336 -2.8312
  939MPD2    N113740   1.662   0.989   0.779 -0.5187 -0.3711 -0.1927
  939MPD2    H713741   1.606   1.072   0.799 -0.2840 -0.3313  0.2727
  940MPD2     C13742   0.921   0.560  13.378  0.5066  0.5243  0.3316
  940MPD2    C113743   1.026   0.650  13.412  0.1994 -0.5667  0.1962
  940MPD2    C213744   1.079   0.728  13.317 -0.4966 -0.5560 -0.8485
  940MPD2    C313745   1.046   0.722  13.182  0.1797 -0.6089 -0.1212
  940MPD2    C413746   0.957   0.625  13.145 -0.4134  0.0116 -0.2361
  940MPD2    C513747   0.899   0.541  13.247 -0.5093  0.4995  0.1348
  940MPD2     H13748   1.154   0.791  13.362 -1.8296  0.4765 -0.0520
  940MPD2    H113749   0.929   0.608  13.042  0.1086  2.5307 -0.7908
  940MPD2    H213750   0.862   0.496  13.442 -0.4641 -0.2720 -1.3772
  940MPD2    H313751   0.826   0.468  13.215  0.3116  0.3759 -1.4389
  940MPD2     N13752   1.107   0.791  13.081  0.2313 -0.5467  0.3348
  940MPD2    H513753   1.072   0.769  12.988  1.0161  3.0175 -0.8234
  940MPD2    N113754   1.064   0.674  13.548 -0.4323  0.0025 -0.3717
  940MPD2    H713755   1.100   0.768  13.565  2.0167 -0.9976 -0.1112
  941MPD2     C13756   0.619   4.096   9.692 -0.2912 -0.4846 -0.1450
  941MPD2    C113757   0.578   4.195   9.772  0.6612  1.1325  0.0563
  941MPD2    C213758   0.454   4.172   9.835  0.3276  0.5382  0.4797
  941MPD2    C313759   0.384   4.051   9.821 -0.3750  0.1531 -0.4583
  941MPD2    C413760   0.420   3.971   9.712 -0.0478 -0.9974  0.7398
  941MPD2    C513761   0.540   3.992   9.652 -0.1765  0.5263 -0.7437
  941MPD2     H13762   0.424   4.246   9.909 -3.5294 -0.9879  0.4562
  941MPD2    H113763   0.371   3.879   9.685 -2.0218 -0.1629  1.5046
  941MPD2    H213764   0.711   4.093   9.634  0.7470 -0.4494  1.5190
  941MPD2    H313765   0.577   3.930   9.571 -0.1625 -1.2929  0.6468
  941MPD2     N13766   0.263   4.020   9.883 -1.1636 -0.9289  0.3888
  941MPD2    H513767   0.214   3.939   9.846  1.6722 -1.8214 -1.4419
  941MPD2    N113768   0.661   4.305   9.810 -0.0549 -0.8151  0.3026
  941MPD2    H713769   0.636   4.369   9.884 -0.9176 -0.6559 -0.1207
  942MPD2     C13770   4.614   1.588  10.297 -0.1280  0.0701 -0.1888
  942MPD2    C113771   4.577   1.654  10.178 -0.2100 -1.1322 -0.9548
  942MPD2    C213772   4.668   1.657  10.075  0.1483  0.3964 -0.3044
  942MPD2    C313773   0.067   1.600  10.087  0.3519  0.9907  0.0592
  942MPD2    C413774   0.109   1.545  10.210 -0.3984 -0.3678  0.0483
  942MPD2    C513775   0.014   1.526  10.308 -0.3849 -0.0766 -0.5199
  942MPD2     H13776   4.634   1.712   9.987 -2.2041  0.0275  0.3669
  942MPD2    H113777   0.201   1.490  10.220 -0.8487 -1.5428 -2.3542
  942MPD2    H213778   4.537   1.577  10.372 -0.2080  0.4161 -0.2199
  942MPD2    H313779   0.045   1.464  10.391  0.9473  1.8368  0.3995
  942MPD2     N13780   0.163   1.604   9.989  0.0354  0.1592 -0.3862
  942MPD2    H513781   0.254   1.573  10.022  0.3940  1.3153 -0.2588
  942MPD2    N113782   4.442   1.710  10.152  0.2805  0.4243 -0.3118
  942MPD2    H713783   4.422   1.742  10.058 -2.1498  0.8901  0.3661
  943MPD2     C13784   3.808   3.882   9.306 -0.4177 -0.0616  0.5035
  943MPD2    C113785   3.716   3.816   9.386 -0.0007 -0.1651 -0.2158
  943MPD2    C213786   3.616   3.742   9.329 -0.3755  0.0151 -0.8130
  943MPD2    C313787   3.617   3.721   9.193  0.4417 -0.1309  0.2861
  943MPD2    C413788   3.706   3.785   9.114  0.4615 -0.3438 -0.5760
  943MPD2    C513789   3.800   3.867   9.171 -0.2020 -0.3479  0.1428
  943MPD2     H13790   3.541   3.697   9.393  1.3402 -0.7526  0.6662
  943MPD2    H113791   3.715   3.781   9.006 -0.2897  4.0553 -0.8018
  943MPD2    H213792   3.881   3.958   9.331 -1.2059  1.1812 -0.9271
  943MPD2    H313793   3.865   3.928   9.108  2.1299 -2.3126  0.6467
  943MPD2     N13794   3.524   3.637   9.126 -0.0137  0.6169  0.3262
  943MPD2    H513795   3.534   3.636   9.025 -0.0107 -0.7976  0.3394
  943MPD2    N113796   3.702   3.848   9.518 -0.1271 -0.3565  0.1890
  943MPD2    H713797   3.625   3.807   9.571 -1.1712  1.4963  0.0747
  944MPD2     C13798   3.243   3.948  10.928 -0.4500  0.1961 -0.4880
  944MPD2    C113799   3.355   3.863  10.945  0.3176  0.1712  0.7957
  944MPD2    C213800   3.435   3.874  11.059  0.2358 -0.2618 -0.2569
  944MPD2    C313801   3.397   3.964  11.161 -0.3792 -0.2525 -0.5528
  944MPD2    C413802   3.276   4.027  11.152 -0.0040 -0.6094  0.0810
  944MPD2    C513803   3.204   4.016  11.038  0.1926 -0.0849 -0.5317
  944MPD2     H13804   3.531   3.823  11.059  0.0705 -0.5787  0.7133
  944MPD2    H113805   3.228   4.087  11.229 -1.8345  0.9895 -2.2971
  944MPD2    H213806   3.171   3.925  10.850 -0.4785 -0.7631 -0.1773
  944MPD2    H313807   3.112   4.073  11.036 -1.3040 -2.4917 -0.6257
  944MPD2     N13808   3.469   3.958  11.288  0.1335  0.1056 -0.0748
  944MPD2    H513809   3.544   3.890  11.296  1.7170  1.9913  1.0962
  944MPD2    N113810   3.399   3.777  10.843 -0.6710  0.1505 -0.0715
  944MPD2    H713811   3.487   3.727  10.849 -0.6974  0.1655  0.4224
    1TCq1    O113812   1.204   0.328  13.384 -0.1292  0.3519  0.2547
    1TCq1    C113813   1.320   0.285  13.431  0.2383 -0.9765 -1.1362
    1TCq1    O213814   1.352   0.165  13.429 -0.0060  0.6192 -0.0243
    1TCq1    C213815   1.366   0.375  13.533 -0.6563  0.4332 -0.0548
    1TCq1    C313816   1.366   0.506  13.510 -0.7776  0.3417  0.4323
    1TCq1    C413817   1.397   0.583  13.617  0.0334  0.3347  0.1864
    1TCq1    C513818   1.436   0.540  13.740 -1.0081 -0.2657 -0.4425
    1TCq1    C613819   1.431   0.401  13.753 -0.1780  0.5311  0.0485
    1TCq1    C713820   1.404   0.318  13.650 -0.0803 -0.0208  0.6436
    1TCq1    C813821   1.460   0.342  13.882 -0.0510  0.5253 -0.0341
    1TCq1    O413822   1.449   0.220  13.900 -0.2493 -0.1352 -0.0855
    1TCq1    C913823   1.400   0.730  13.607 -0.6018  0.5290 -0.4591
    1TCq1    O513824   1.369   0.778  13.495  0.1647 -0.1910 -0.5267
    1TCq1    O613825   1.410   0.795  13.715 -0.2842 -0.2428  0.5333
    1TCq1    H113826   1.201   0.422  13.413  0.5213  0.6648 -0.6748
    1TCq1    H213827   1.332   0.558  13.421 -2.0602  0.2524  0.8693
    1TCq1    H313828   1.443   0.607  13.825 -1.4207 -0.9562  0.1325
    1TCq1    H413829   1.417   0.210  13.655  0.3770  0.0305  0.6221
    2MPD2     C13830   1.578   0.387  14.377 -0.3832 -0.4741  0.0623
    2MPD2    C113831   1.556   0.510  14.318 -0.4082 -0.3976 -0.2065
    2MPD2    C213832   1.543   0.520  14.184  0.1514 -0.4653  0.2676
    2MPD2    C313833   1.521   0.407  14.109 -0.4273  0.0990  0.1256
    2MPD2    C413834   1.519   0.283  14.172 -0.6840  0.2641  0.7673
    2MPD2    C513835   1.564   0.275  14.297 -0.2448  0.4897 -0.0212
    2MPD2     H13836   1.536   0.616  14.135  1.2050 -0.8665 -0.6595
    2MPD2    H113837   1.490   0.194  14.118  0.4679  1.1018 -1.2516
    2MPD2    H213838   1.608   0.386  14.481  1.3079  1.6847 -0.4023
    2MPD2    H313839   1.585   0.177  14.337 -0.9870 -0.3919 -1.7735
    2MPD2     N13840   1.504   0.431  13.973 -0.2477 -0.6069 -0.1875
    2MPD2    H513841   1.522   0.522  13.932 -1.8386 -0.1570  0.1183
    2MPD2    N113842   1.562   0.619  14.403  0.3517  0.0180  0.4161
    2MPD2    H713843   1.571   0.599  14.502  1.1816 -1.0252  0.1272
    3TMC2    C113844   1.539   0.842  14.468  0.4194 -0.2722 -0.0188
    3TMC2    C213845   1.623   0.816  14.581  0.6544  0.7112  0.0328
    3TMC2    C313846   1.661   0.930  14.646  0.7974  0.5339  0.0851
    3TMC2    C413847   1.481   0.964  14.443 -0.3153 -0.0480  0.0683
    3TMC2    C513848   1.520   1.064  14.517 -0.3782 -0.1972 -0.4971
    3TMC2    C613849   1.621   1.054  14.611  1.0378 -0.2884  0.3381
    3TMC2     C13850   1.524   0.745  14.362  0.5201  0.2497  0.0559
    3TMC2     O13851   1.496   0.793  14.255 -0.3347 -0.2114  0.5198
    3TMC2     H13852   1.671   0.721  14.602 -0.9965  0.0919  1.0125
    3TMC2    H113853   1.399   0.974  14.374 -1.5737  0.7075  1.6713
    3TMC2    H213854   1.645   1.137  14.675 -0.2045 -2.7822  3.9963
    3TMC2    C713855   1.522   1.199  14.450 -0.3993 -0.2346  0.4820
    3TMC2    C813856   1.788   0.929  14.710  0.0242  1.0243  0.0944
    3TMC2    O113857   1.617   1.275  14.452  0.5356 -0.4420  0.2756
    3TMC2    O213858   1.814   0.973  14.821  0.0849 -0.0533  0.0075
    3TMC2    O513859   1.877   0.915  14.618  0.4915  0.5639 -0.4932
    3TMC2    H513860   1.850   0.870  14.535 -0.8674 -0.2124  0.3747
    4MPD2     C13861   0.357   1.234  13.358  0.4494 -0.2101 -0.2504
    4MPD2    C113862   0.480   1.257  13.305  0.3786 -0.0159 -0.1624
    4MPD2    C213863   0.594   1.243  13.389 -0.1095 -0.2876 -0.4167
    4MPD2    C313864   0.586   1.194  13.516  0.7800 -0.3843 -0.0348
    4MPD2    C413865   0.457   1.170  13.565 -1.1423 -0.2911 -0.3654
    4MPD2    C513866   0.342   1.193  13.486 -0.0920  0.3906 -0.8922
    4MPD2     H13867   0.692   1.272  13.352 -0.8313  0.1448 -2.0063
    4MPD2    H113868   0.439   1.150  13.670  0.4244  0.9646  0.1420
    4MPD2    H213869   0.267   1.255  13.302 -0.2213 -2.2893  0.0445
    4MPD2    H313870   0.246   1.185  13.537 -0.5559 -0.0326 -1.8262
    4MPD2     N13871   0.706   1.180  13.590  0.5133 -0.6644  0.1384
    4MPD2    H513872   0.791   1.202  13.538  0.4712  0.4706  0.5718
    4MPD2    N113873   0.481   1.289  13.167  0.2485  0.2241  0.4432
    4MPD2    H713874   0.391   1.291  13.119  1.6007  0.0672 -2.1103
    5TCq2    C113875   0.716   1.134  13.721 -0.0880 -0.2682  0.5287
    5TCq2    O213876   0.636   1.084  13.792 -0.4982  0.0817  0.1381
    5TCq2    C213877   0.854   1.133  13.761 -0.2644  0.0915 -0.1399
    5TCq2    C313878   0.952   1.094  13.671  0.6676  0.1415 -0.3531
    5TCq2    C413879   1.074   1.138  13.692 -0.6699 -0.4392  0.0813
    5TCq2    C513880   1.115   1.214  13.799  0.4552  0.6244 -0.2482
    5TCq2    C613881   1.016   1.247  13.890  0.1425 -0.1417  0.6268
    5TCq2    C713882   0.890   1.198  13.874  0.4230  0.1378  0.1599
    5TCq2    C813883   1.058   1.281  14.020 -0.1996  0.1069 -0.0937
    5TCq2    O413884   1.004   1.226  14.114 -0.3093  0.5713 -0.0806
    5TCq2    C913885   1.166   1.073  13.610  0.3204  0.1625  0.3220
    5TCq2    O513886   1.120   0.979  13.546  0.2553  0.1418 -0.2374
    5TCq2    O613887   1.281   1.123  13.587 -0.2720  0.2761 -0.1602
    5TCq2    H213888   0.916   1.028  13.593 -0.7179  2.5648 -1.7585
    5TCq2    H313889   1.221   1.234  13.811  0.8379 -3.1843  2.6529
    5TCq2    H413890   0.807   1.234  13.934  0.1928  0.6091 -0.4395
    6MPD1     C13891   4.363   2.639  13.398  0.2970 -0.3244 -0.0883
    6MPD1    C113892   4.258   2.555  13.373  0.6898  0.0225 -0.5419
    6MPD1    C213893   4.274   2.458  13.270 -0.8394 -0.7365 -0.1865
    6MPD1    C313894   4.393   2.465  13.191 -0.2926  0.1805  0.0661
    6MPD1    C413895   4.481   2.568  13.208  0.0998  0.0871  0.0355
    6MPD1    C513896   4.470   2.648  13.319  0.2158 -0.4606 -0.7585
    6MPD1     H13897   4.202   2.378  13.265  0.5444 -1.9027 -1.6258
    6MPD1    H113898   4.558   2.588  13.134 -0.2203 -0.7441 -0.5274
    6MPD1    H213899   4.359   2.712  13.478  0.9169 -1.7127  1.2063
    6MPD1    H313900   4.554   2.707  13.351  0.3029 -2.5289  2.7689
    6MPD1     N13901   4.431   2.369  13.093 -0.2331  0.2699 -0.2176
    6MPD1    H513902   4.506   2.401  13.032 -0.2116  0.8552  0.1059
    6MPD1    N113903   4.150   2.556  13.462  0.5988  0.0139 -0.1374
    6MPD1    H613904   4.141   2.634  13.526 -0.0946 -1.9256  2.1575
    6MPD1    H713905   4.064   2.523  13.419  1.1952 -2.1015  0.2595
    7MPD2     C13906   4.487   1.541  12.789 -0.2578 -0.1458 -0.7185
    7MPD2    C113907   4.591   1.592  12.869 -0.1233 -0.1091 -0.1390
    7MPD2    C213908   4.710   1.526  12.867  0.2776  0.5573 -0.4357
    7MPD2    C313909   0.006   1.422  12.784  0.2416  0.1315 -0.0619
    7MPD2    C413910   4.640   1.384  12.694 -0.3770  0.5296  0.3862
    7MPD2    C513911   4.511   1.438  12.700  0.7207  0.5935  0.6251
    7MPD2     H13912   0.055   1.569  12.937  1.4121 -0.8369 -0.7459
    7MPD2    H113913   4.657   1.306  12.621 -1.5194  0.7583 -0.1211
    7MPD2    H213914   4.388   1.583  12.776  1.6809  4.2849 -1.1582
    7MPD2    H313915   4.429   1.401  12.639  2.0874 -1.4411  0.0455
    7MPD2     N13916   0.134   1.365  12.768 -0.1621 -0.9351  0.7794
    7MPD2    H513917   0.153   1.315  12.682 -1.7000  0.7963 -0.5785
    7MPD2    N113918   4.588   1.712  12.938  0.8532  0.5290  0.4390
    7MPD2    H713919   4.674   1.740  12.984  0.9959  1.2499 -0.2797
    8TMC3    C113920   0.363   1.333  12.814 -0.3291 -0.3554  0.8514
    8TMC3    C213921   0.427   1.276  12.913  0.6051  0.3443 -0.2324
    8TMC3    C313922   0.536   1.342  12.955 -0.1898 -0.0016  0.2262
    8TMC3    C413923   0.412   1.442  12.745  0.5368 -0.3984 -0.0861
    8TMC3    C513924   0.527   1.506  12.782  0.8267  0.1872 -0.2106
    8TMC3    C613925   0.586   1.455  12.895 -0.0175  0.3475 -0.0945
    8TMC3     C13926   0.232   1.373  12.865  0.8093 -0.0163 -0.1902
    8TMC3     O13927   0.227   1.397  12.984 -0.2213  0.0539 -0.5730
    8TMC3     H13928   0.386   1.185  12.955 -1.5318  0.7880 -1.3698
    8TMC3    H113929   0.349   1.474  12.663  1.2699  2.3863  0.4416
    8TMC3    H213930   0.677   1.497  12.936 -0.1131  0.7794 -0.3289
    8TMC3    C713931   0.500   1.644  12.803  0.2418 -0.0117 -0.1205
    8TMC3    C813932   0.590   1.315  13.086 -0.3776 -0.4328  0.1290
    8TMC3    O113933   0.488   1.680  12.917  0.4578 -0.1487 -0.0090
    8TMC3    O213934   0.708   1.315  13.115 -0.5022  0.0130 -0.1233
    9TMC3    C113935   4.468   2.152  12.998  0.2525 -0.1982 -1.1003
    9TMC3    C213936   4.584   2.198  12.937  0.2111  0.3703 -0.4255
    9TMC3    C313937   4.679   2.098  12.905 -0.2603  0.3077 -0.4366
    9TMC3    C413938   4.426   2.021  12.988  0.1372  0.7958  0.6884
    9TMC3    C513939   4.528   1.932  12.969 -0.2853  0.0671 -0.0809
    9TMC3    C613940   4.655   1.967  12.929 -0.1533  0.2490 -0.3989
    9TMC3     C13941   4.392   2.235  13.089 -0.0486  0.0296  0.1865
    9TMC3     O13942   4.308   2.180  13.156 -0.0690 -0.0575  0.1859
    9TMC3     H13943   4.601   2.304  12.921  1.0252  0.1619 -0.9560
    9TMC3    H113944   4.328   1.995  13.026 -0.1464 -1.5240 -1.6326
    9TMC3    H213945   4.717   1.884  12.896  4.0972  2.8685  1.0431
    9TMC3    C713946   4.483   1.797  12.941 -0.8577  0.0345 -0.2188
    9TMC3    C813947   0.061   2.132  12.828 -0.3757 -0.7442 -0.3271
    9TMC3    O113948   4.366   1.777  12.908 -0.1668 -0.8613  0.3129
    9TMC3    O213949   0.059   2.228  12.751  0.9241 -0.4511 -0.1729
   10MPD2     C13950   0.396   1.877  12.540  0.1905 -0.1517 -0.3293
   10MPD2    C113951   0.402   1.826  12.665 -0.0446 -0.3002 -0.4765
   10MPD2    C213952   0.326   1.880  12.769 -0.3990  1.0188 -0.5865
   10MPD2    C313953   0.243   1.994  12.746 -0.0912 -0.4510 -0.4892
   10MPD2    C413954   0.243   2.042  12.618  0.4158  0.2113 -0.1103
   10MPD2    C513955   0.319   1.986  12.515 -0.6446  0.3534 -0.8999
   10MPD2     H13956   0.327   1.833  12.867 -0.7938 -0.0985 -1.1168
   10MPD2    H113957   0.200   2.138  12.593 -0.1708 -0.1719 -0.5907
   10MPD2    H213958   0.453   1.845  12.454  0.3136  1.3127 -0.7917
   10MPD2    H313959   0.318   2.024  12.413 -0.0484  0.6112 -0.8056
   10MPD2     N13960   0.163   2.043  12.852  0.3596  0.3127  0.1942
   10MPD2    H513961   0.155   1.995  12.942  2.1179 -1.1557 -0.4247
   10MPD2    N113962   0.480   1.711  12.678 -0.0934 -0.5996  0.3249
   10MPD2    H713963   0.520   1.671  12.594  1.0128  0.1312  0.5039
   11MPD2     C13964   1.474   1.430  14.262 -0.1484 -0.3011  0.5366
   11MPD2    C113965   1.383   1.330  14.291 -0.4329 -0.1039 -0.6244
   11MPD2    C213966   1.272   1.330  14.214 -0.1037  0.4152  0.2207
   11MPD2    C313967   1.253   1.409  14.108  0.1633 -0.5337 -1.1589
   11MPD2    C413968   1.351   1.498  14.074 -0.5643 -0.7187 -0.0970
   11MPD2    C513969   1.461   1.511  14.153  0.4782 -0.3718  0.0130
   11MPD2     H13970   1.193   1.258  14.235  1.2351 -1.7637 -2.3433
   11MPD2    H113971   1.342   1.556  13.983  0.0319 -0.1301  0.2184
   11MPD2    H213972   1.565   1.442  14.319  0.9737 -1.1886 -1.0745
   11MPD2    H313973   1.543   1.578  14.128  0.5738 -1.0358 -1.4345
   11MPD2     N13974   1.157   1.380  14.009  0.0014  0.1706  0.4518
   11MPD2    H513975   1.164   1.425  13.919  3.1152  0.1308  0.6701
   11MPD2    N113976   1.401   1.223  14.385  0.3612 -0.2541  0.5051
   11MPD2    H713977   1.331   1.149  14.383 -0.8636  0.9118 -0.8411
    1MPD1     C13978   4.355   2.498  17.403  0.8979  0.3114  0.2076
    1MPD1    C113979   4.462   2.421  17.405 -0.4236 -0.3511 -0.0155
    1MPD1    C213980   4.481   2.320  17.312 -0.5407 -0.4948  0.5876
    1MPD1    C313981   4.398   2.309  17.199 -0.0042 -0.1941  0.1657
    1MPD1    C413982   4.281   2.387  17.199 -0.0157  0.1561 -0.9308
    1MPD1    C513983   4.257   2.473  17.303 -0.2115  0.8114  0.9953
    1MPD1     H13984   4.573   2.264  17.321  0.1682  0.8417  1.6279
    1MPD1    H113985   4.214   2.392  17.114  0.6558  1.9421 -1.3536
    1MPD1    H213986   4.333   2.571  17.481  0.1709  1.7119 -1.2960
    1MPD1    H313987   4.163   2.527  17.308 -0.3361  0.5572  1.3732
    1MPD1     N13988   4.420   2.218  17.095 -0.3707 -0.3795  0.2136
    1MPD1    H513989   4.344   2.204  17.029  0.2489 -0.6269 -0.4511
    1MPD1    N113990   4.559   2.442  17.499 -0.8366  0.5258 -0.0777
    1MPD1    H613991   4.526   2.494  17.580 -2.0518 -2.8903  1.5821
    1MPD1    H713992   4.602   2.356  17.531  0.1848  1.1583  0.2776
    2MPD1     C13993   0.535   1.743  16.737 -0.6325 -0.3500 -0.2298
    2MPD1    C113994   0.528   1.864  16.799  0.1172  0.8891  0.4623
    2MPD1    C213995   0.401   1.917  16.812  0.2188  0.3119  0.4195
    2MPD1    C313996   0.281   1.845  16.783  0.2389  0.2727 -0.3015
    2MPD1    C413997   0.294   1.729  16.712 -0.4345 -0.0973  0.3917
    2MPD1    C513998   0.421   1.684  16.694  0.1537  0.0459 -0.5409
    2MPD1     H13999   0.393   2.016  16.855 -2.5971 -0.5686  1.9642
    2MPD1    H114000   0.213   1.690  16.652 -0.9548 -0.0036  1.0251
    2MPD1    H214001   0.630   1.695  16.716  0.2541  1.5415 -0.5422
    2MPD1    H314002   0.443   1.596  16.635 -0.3386 -0.4253 -0.0267
    2MPD1     N14003   0.153   1.902  16.802 -0.4349 -0.3430 -0.5100
    2MPD1    H514004   0.149   1.997  16.837  0.6517 -0.8104  0.9096
    2MPD1    N114005   0.646   1.922  16.846  0.7869  0.7266  0.1357
    2MPD1    H614006   0.639   2.014  16.804 -1.5989  0.7650  0.6585
    2MPD1    H714007   0.733   1.881  16.812 -0.6368 -1.0330 -1.3901
    3TMC3    C114008   4.652   1.932  16.796  0.6821 -0.2914 -0.2297
    3TMC3    C214009   4.535   1.907  16.726 -0.2206 -0.1391 -0.1145
    3TMC3    C314010   4.420   1.977  16.767  0.1154  0.4191  0.1197
    3TMC3    C414011   4.647   2.001  16.915 -0.3795  0.3087 -0.1270
    3TMC3    C514012   4.529   2.067  16.951  0.4146 -0.4406 -0.3950
    3TMC3    C614013   4.411   2.052  16.882 -0.2143 -0.3484  0.6752
    3TMC3     C14014   0.032   1.845  16.765  0.4235 -0.3059  0.2271
    3TMC3     O14015   0.006   1.733  16.720  0.1268 -0.0310 -0.5210
    3TMC3     H14016   4.535   1.838  16.643 -0.9462 -2.3302  1.6699
    3TMC3    H114017   0.014   2.021  16.968  0.0001 -0.8852 -0.3444
    3TMC3    H214018   4.320   2.102  16.912 -0.1180 -0.0784  0.5170
    3TMC3    C714019   4.534   2.154  17.063 -0.2870 -0.0797  0.2007
    3TMC3    C814020   4.291   1.939  16.699  0.3694  0.0864 -0.2230
    3TMC3    O114021   4.643   2.171  17.116 -0.0094  0.2392 -0.1363
    3TMC3    O214022   4.190   1.990  16.743 -0.1599 -0.7762  0.6788
    4MPD1     C14023   4.006   1.647  16.400 -0.1173 -0.1647 -0.4110
    4MPD1    C114024   4.137   1.593  16.399 -0.2910 -0.2568 -0.5283
    4MPD1    C214025   4.232   1.664  16.467  1.0161  0.3322  0.1141
    4MPD1    C314026   4.199   1.782  16.534  0.2729 -0.5766  0.0106
    4MPD1    C414027   4.072   1.838  16.522 -0.1018 -0.0147  0.3431
    4MPD1    C514028   3.976   1.769  16.452 -0.0044  0.2266  0.3209
    4MPD1     H14029   4.335   1.628  16.469  1.1009  0.6623  1.3810
    4MPD1    H114030   4.041   1.924  16.581 -1.0136 -1.1939  1.5860
    4MPD1    H214031   3.925   1.598  16.348  1.3471 -0.6635 -2.2429
    4MPD1    H314032   3.876   1.809  16.444  0.3755  0.9482 -0.8336
    4MPD1     N14033   4.298   1.834  16.610 -0.0376  0.6553 -0.2989
    4MPD1    H514034   4.387   1.786  16.610 -0.9587 -1.0412 -0.8459
    4MPD1    N114035   4.171   1.464  16.355 -0.2628  0.7010 -0.1076
    4MPD1    H614036   4.093   1.426  16.301 -0.6498  2.3663 -0.7349
    4MPD1    H714037   4.256   1.460  16.298 -0.6079 -1.9407 -0.4295
    1TCq1    O114038   0.903   1.144  11.452 -0.8066 -0.2027  0.3795
    1TCq1    C114039   0.856   1.080  11.557 -0.6476  0.7290  0.2887
    1TCq1    O214040   0.746   1.030  11.567 -0.5927 -0.0867 -0.3348
    1TCq1    C214041   0.961   1.060  11.652  0.4227 -0.2861  0.1637
    1TCq1    C314042   0.949   0.956  11.732  0.5581 -0.4578  0.0074
    1TCq1    C414043   1.026   0.963  11.846 -0.2576  0.6502  0.1373
    1TCq1    C514044   1.107   1.068  11.878 -0.3882  0.2895  0.5722
    1TCq1    C614045   1.124   1.166  11.787  0.3826 -0.0673  0.5221
    1TCq1    C714046   1.048   1.168  11.668 -0.2446  0.2503 -0.3092
    1TCq1    C814047   1.187   1.289  11.828  0.2375  0.1184  0.1641
    1TCq1    O414048   1.192   1.372  11.738 -0.3048 -0.2519  0.0707
    1TCq1    C914049   0.978   0.894  11.964 -0.2915 -0.8413  0.0170
    1TCq1    O514050   0.980   0.971  12.065  0.2744 -0.6744  0.3249
    1TCq1    O614051   0.950   0.776  11.959  0.6604 -0.4484  0.0023
    1TCq1    H114052   0.994   1.178  11.462 -1.0301  0.2958  0.7367
    1TCq1    H214053   0.869   0.884  11.734 -0.2262  0.3910 -0.8303
    1TCq1    H314054   1.152   1.068  11.976 -0.9481  0.1427  0.8304
    1TCq1    H414055   1.061   1.257  11.608 -0.0103 -2.1073 -3.7957
    2MPD1     C14056   1.357   1.629  12.176  0.4706  0.2053 -0.2330
    2MPD1    C114057   1.296   1.523  12.241  0.3586  0.0009 -0.2745
    2MPD1    C214058   1.243   1.416  12.164 -0.0976 -0.6795 -0.2602
    2MPD1    C314059   1.249   1.408  12.025  0.3266  0.3918 -0.3962
    2MPD1    C414060   1.311   1.520  11.963  0.2419  0.8514 -0.1726
    2MPD1    C514061   1.371   1.616  12.036  0.1563  0.0146 -0.1234
    2MPD1     H14062   1.200   1.328  12.211 -1.0080  0.9302  1.9330
    2MPD1    H114063   1.312   1.528  11.855  4.4071  4.6476  0.1704
    2MPD1    H214064   1.388   1.722  12.221  0.8248 -1.1920  2.4289
    2MPD1    H314065   1.420   1.699  11.987  1.6700 -1.4071 -1.0062
    2MPD1     N14066   1.187   1.300  11.962  0.0869 -0.4305  0.4207
    2MPD1    H514067   1.139   1.228  12.016 -0.3221  0.6749  1.5357
    2MPD1    N114068   1.254   1.532  12.371  0.1759  0.1504 -0.6970
    2MPD1    H614069   1.315   1.581  12.436  0.4237  1.6664 -2.0831
    2MPD1    H714070   1.232   1.439  12.407  3.2765 -0.5144 -0.4767
    1TCq1    O114071   1.115   0.226   0.504 -0.2562 -0.5710 -0.6975
    1TCq1    C114072   1.158   0.212   0.632  0.1435  0.5329 -0.7249
    1TCq1    O214073   1.105   0.147   0.723 -0.5174 -0.0147 -0.3650
    1TCq1    C214074   1.255   0.318   0.652  0.5570 -0.6974  0.0266
    1TCq1    C314075   1.365   0.312   0.570 -0.4386  0.1406  0.4306
    1TCq1    C414076   1.471   0.395   0.601  0.1781  0.2102  0.7525
    1TCq1    C514077   1.485   0.445   0.728  0.3051 -0.3696 -0.1245
    1TCq1    C614078   1.380   0.429   0.820 -0.2185 -0.0220  0.1736
    1TCq1    C714079   1.265   0.369   0.779 -0.5179 -0.2768 -0.6864
    1TCq1    C814080   1.372   0.516   0.940  0.2316 -0.0791  0.0268
    1TCq1    O414081   1.265   0.515   0.998 -0.0832  0.1080 -0.0760
    1TCq1    C914082   1.588   0.395   0.511 -0.4336  0.0452  0.0469
    1TCq1    O514083   1.570   0.346   0.397 -0.2657 -0.4875  0.6713
    1TCq1    O614084   1.694   0.430   0.564  0.0422 -0.0233  1.5880
    1TCq1    H114085   1.160   0.294   0.450  0.9093  2.0084  3.5078
    1TCq1    H214086   1.371   0.266   0.472 -0.0862  1.2747 -0.0765
    1TCq1    H314087   1.577   0.501   0.737  0.5510 -0.3179 -2.9413
    1TCq1    H414088   1.179   0.368   0.844  0.6224 -0.4549  0.8298
    2MPD1     C14089   1.521   0.895   1.235  0.4248  0.0872  0.6143
    2MPD1    C114090   1.614   0.888   1.134  0.1531  1.0449 -0.1948
    2MPD1    C214091   1.607   0.779   1.055 -0.1256 -0.8043 -0.4280
    2MPD1    C314092   1.496   0.689   1.065 -0.4275 -0.4271 -0.7002
    2MPD1    C414093   1.399   0.704   1.169 -0.0752 -0.7945  0.2423
    2MPD1    C514094   1.419   0.807   1.259 -0.0234 -0.1838  0.4372
    2MPD1     H14095   1.683   0.765   0.979  2.4793 -0.0796  2.0328
    2MPD1    H114096   1.319   0.632   1.179  1.3942 -2.4427  0.0644
    2MPD1    H214097   1.511   0.980   1.302  0.5625  0.1237  0.5882
    2MPD1    H314098   1.348   0.838   1.335 -0.6853 -2.5119  0.7776
    2MPD1     N14099   1.482   0.591   0.966  0.3809  0.6953 -0.4799
    2MPD1    H514100   1.553   0.594   0.894  1.8059 -2.4541  0.7955
    2MPD1    N114101   1.723   0.973   1.152  1.2922 -0.1848 -0.1145
    2MPD1    H614102   1.772   0.981   1.063 -0.8869  1.3843 -1.1864
    2MPD1    H714103   1.691   1.059   1.197 -0.2117 -0.6187 -0.3423
    1MPD1     C14104   1.880   1.607  12.803 -0.1189 -0.6185  0.1473
    1MPD1    C114105   1.947   1.540  12.706 -0.0298  0.4109  0.5561
    1MPD1    C214106   1.995   1.616  12.601  0.1248 -0.0318  0.0683
    1MPD1    C314107   2.003   1.753  12.608 -0.1810  1.3074  0.9922
    1MPD1    C414108   1.927   1.823  12.699 -0.1398 -0.7502  0.5484
    1MPD1    C514109   1.872   1.743  12.796  0.0295  1.1114  0.1130
    1MPD1     H14110   2.044   1.566  12.519  1.2067 -1.2999  1.4840
    1MPD1    H114111   1.935   1.930  12.713  0.6774 -0.6098 -0.9070
    1MPD1    H214112   1.816   1.558  12.876  0.1987 -1.8949 -0.4421
    1MPD1    H314113   1.816   1.796  12.872  0.5506  1.4701  0.2452
    1MPD1     N14114   2.071   1.821  12.508 -0.0686 -0.3985 -0.0198
    1MPD1    H514115   2.129   1.770  12.441  0.2531  0.9881 -0.7983
    1MPD1    N114116   1.962   1.400  12.706  0.1527 -0.1089 -0.1569
    1MPD1    H614117   1.960   1.355  12.615 -3.6551 -0.6898  0.2239
    1MPD1    H714118   1.893   1.350  12.761 -0.5666  1.1819  0.1109
    2MPD1     C14119   1.862   2.087  11.583  0.4203 -0.2629 -0.1142
    2MPD1    C114120   1.738   2.092  11.524 -0.2680 -0.0321 -0.2275
    2MPD1    C214121   1.723   2.056  11.390  0.1001  1.0123  0.1669
    2MPD1    C314122   1.832   2.025  11.310 -0.7940  0.6862 -0.0076
    2MPD1    C414123   1.958   2.018  11.372  0.5186  0.2200 -0.2681
    2MPD1    C514124   1.967   2.048  11.506 -0.0736 -0.1500  0.8753
    2MPD1     H14125   1.628   2.075  11.340 -0.3210  0.2112  0.6550
    2MPD1    H114126   2.044   1.997  11.310  0.1187 -1.7849 -0.1624
    2MPD1    H214127   1.877   2.124  11.684  0.4182  0.4913 -0.3884
    2MPD1    H314128   2.064   2.037  11.553 -0.4727  0.9546  1.9581
    2MPD1     N14129   1.824   1.988  11.177 -0.2604  0.0081  0.0258
    2MPD1    H514130   1.903   1.948  11.127  0.5727  2.0718 -0.3150
    2MPD1    N114131   1.633   2.153  11.594 -0.1020 -0.0681  0.0303
    2MPD1    H614132   1.541   2.155  11.550  0.5128 -0.1041 -1.2572
    2MPD1    H714133   1.632   2.134  11.694 -1.2104  0.2243  0.0663
    3MPD1     C14134   1.683   1.360  10.377  0.0834 -0.1199  0.5103
    3MPD1    C114135   1.745   1.473  10.329 -0.4369 -0.8614  0.1458
    3MPD1    C214136   1.784   1.569  10.428 -0.7132  0.4610  0.3230
    3MPD1    C314137   1.734   1.558  10.552  0.1585 -0.0721 -0.0923
    3MPD1    C414138   1.645   1.459  10.592 -0.2039 -0.0941  0.1800
    3MPD1    C514139   1.621   1.359  10.503 -0.2557 -0.1197 -0.5385
    3MPD1     H14140   1.845   1.653  10.398  1.7774 -0.5321  2.5429
    3MPD1    H114141   1.597   1.453  10.689  2.8395  0.8685  1.7291
    3MPD1    H214142   1.666   1.272  10.315 -1.1148  0.2274  0.3377
    3MPD1    H314143   1.571   1.268  10.532  0.2830 -0.7080 -1.4739
    3MPD1     N14144   1.777   1.654  10.646  0.1712 -0.1109 -0.0122
    3MPD1    H514145   1.850   1.719  10.617  0.5191 -1.0980 -1.3454
    3MPD1    N114146   1.814   1.481  10.203  0.2367  0.8592 -0.9329
    3MPD1    H614147   1.819   1.571  10.156  1.8286  0.0907 -2.2386
    3MPD1    H714148   1.766   1.421  10.136 -1.2752 -0.6860  1.5148
    4MPD2     C14149   2.120   2.275  11.808 -0.0557 -0.4337  0.0001
    4MPD2    C114150   2.227   2.216  11.875  0.3073  0.3028 -0.6139
    4MPD2    C214151   2.341   2.174  11.801  0.5870  0.4926  0.5190
    4MPD2    C314152   2.342   2.192  11.664  0.2754 -0.7750 -0.3838
    4MPD2    C414153   2.227   2.233  11.602  0.9479 -0.0356  0.4145
    4MPD2    C514154   2.123   2.290  11.671  0.2624 -0.5568 -0.3514
    4MPD2     H14155   2.426   2.126  11.849  0.4219 -1.8678 -1.5221
    4MPD2    H114156   2.232   2.246  11.494  2.2385 -1.5211  0.3009
    4MPD2    H214157   2.039   2.316  11.867  1.3393  1.9075  0.2974
    4MPD2    H314158   2.033   2.332  11.627 -1.0590 -2.7923  0.2233
    4MPD2     N14159   2.456   2.154  11.579  0.2301 -0.0060  0.6602
    4MPD2    H514160   2.451   2.168  11.479 -0.4882 -0.2846  0.6523
    4MPD2    N114161   2.239   2.201  12.008  0.3176 -0.0682  0.3755
    4MPD2    H714162   2.328   2.171  12.045  0.5782  0.2330 -0.0096
    5TMC3    C114163   2.175   2.190  12.229 -0.4286  0.3012 -0.3099
    5TMC3    C214164   2.080   2.110  12.293  0.5393 -0.3950 -0.0612
    5TMC3    C314165   2.115   1.999  12.350  0.0355 -0.6582 -0.2591
    5TMC3    C414166   2.306   2.153  12.226  0.0781  0.0865  0.1581
    5TMC3    C514167   2.340   2.034  12.277 -0.9096 -0.4319  0.5440
    5TMC3    C614168   2.243   1.950  12.335 -0.1614  0.1930  0.3366
    5TMC3     C14169   2.137   2.235  12.095  0.0559  0.1626 -0.0552
    5TMC3     O14170   2.015   2.250  12.084  0.4088  0.0863  0.1521
    5TMC3     H14171   1.976   2.139  12.291  0.9944  1.2851  0.2337
    5TMC3    H114172   2.383   2.224  12.198 -0.8296  0.4285 -1.4674
    5TMC3    H214173   2.273   1.854  12.374 -0.1422 -0.8615 -2.2784
    5TMC3    C714174   2.430   1.973  12.176  0.1776  0.5413 -0.0667
    5TMC3    C814175   2.032   1.952  12.461 -0.9328  0.7461 -0.0851
    5TMC3    O114176   2.480   2.056  12.098 -0.4136 -0.3499 -0.4284
    5TMC3    O214177   1.944   2.027  12.499 -0.0180  0.0510  0.1094
    6TMC3    C114178   1.739   1.972  10.959  0.1600  0.6152 -0.3819
    6TMC3    C214179   1.707   1.846  10.923  0.5687 -0.5604  0.1693
    6TMC3    C314180   1.790   1.779  10.840  0.6091 -0.5246 -0.0969
    6TMC3    C414181   1.862   2.025  10.924 -0.1831  0.0427 -0.2822
    6TMC3    C514182   1.944   1.957  10.841 -0.0270  0.1067  0.1819
    6TMC3    C614183   1.907   1.833  10.795 -0.4913  0.1050 -0.0375
    6TMC3     C14184   1.714   1.995  11.098  0.0994 -0.3055 -0.0875
    6TMC3     O14185   1.600   2.015  11.124  0.2634 -0.1631  0.9873
    6TMC3     H14186   1.621   1.802  10.973  0.6178 -0.1472  0.6247
    6TMC3    H114187   1.902   2.109  10.979 -3.3771  0.3820  1.5127
    6TMC3    H214188   1.980   1.775  10.740  0.7925  0.4133  1.3324
    6TMC3    C714189   2.083   1.968  10.877 -0.9631 -0.1280 -0.5613
    6TMC3    C814190   1.733   1.663  10.776  0.1298  0.1774 -0.2073
    6TMC3    O114191   2.112   2.023  10.982  0.4439  0.0318  0.2999
    6TMC3    O214192   1.648   1.605  10.842  0.0755 -0.1851  0.7173
    7MPD2     C14193   2.555   1.582  11.858  0.7563  0.5356 -0.2870
    7MPD2    C114194   2.554   1.719  11.835  0.1880 -0.6305  0.0839
    7MPD2    C214195   2.513   1.806  11.946  0.1489 -0.0181  0.2548
    7MPD2    C314196   2.460   1.755  12.065  0.4490 -0.6462  0.3860
    7MPD2    C414197   2.457   1.616  12.083  0.2023  0.5475  0.2135
    7MPD2    C514198   2.518   1.538  11.984 -0.0851  0.0929  0.0762
    7MPD2     H14199   2.532   1.911  11.931  1.3636 -0.1341  0.9781
    7MPD2    H114200   2.439   1.575  12.181 -1.5710  1.2535  0.1846
    7MPD2    H214201   2.611   1.520  11.788  1.7789 -0.1178  1.1194
    7MPD2    H314202   2.540   1.434  12.008  0.3551 -1.1080 -5.4158
    7MPD2     N14203   2.426   1.837  12.174  0.2786  0.3516  1.0290
    7MPD2    H514204   2.383   1.803  12.259  1.9817  1.3716  2.2920
    7MPD2    N114205   2.596   1.775  11.714 -0.3217  0.5581  0.3751
    7MPD2    H714206   2.582   1.875  11.708  1.4276  0.6924 -1.5934
    8TMC3    C114207   2.682   1.811  11.505 -0.6039 -0.6890  0.1443
    8TMC3    C214208   2.616   1.802  11.388 -0.4045  0.7261  0.4090
    8TMC3    C314209   2.577   1.922  11.331  1.4445 -0.1429  0.8685
    8TMC3    C414210   2.708   1.927  11.567  0.6182  0.2184 -0.8169
    8TMC3    C514211   2.648   2.041  11.520  0.1850  0.2010  0.1967
    8TMC3    C614212   2.592   2.045  11.394 -0.0089  0.0065  0.3500
    8TMC3     C14213   2.645   1.714  11.602  0.7845  0.2876 -0.5186
    8TMC3     O14214   2.650   1.597  11.565 -0.0827 -0.1020 -0.0108
    8TMC3     H14215   2.594   1.704  11.346 -0.4031  0.7141  0.4365
    8TMC3    H114216   2.771   1.935  11.655 -1.0864  2.4891  0.1963
    8TMC3    H214217   2.561   2.140  11.349  0.0881 -0.2008 -0.1590
    8TMC3    C714218   2.574   2.096  11.627 -0.6721  0.1316  0.4263
    8TMC3    C814219   2.488   1.916  11.217  0.3140  0.1292  0.1617
    8TMC3    O114220   2.605   2.067  11.740 -0.4744 -0.1595  0.0067
    8TMC3    O214221   2.393   1.994  11.216  0.4901 -0.2476  0.3814
    9MPD2     C14222   2.569   1.806  10.878  0.4200 -0.0526 -0.7882
    9MPD2    C114223   2.487   1.847  10.978  0.1881 -0.0157 -0.0854
    9MPD2    C214224   2.361   1.895  10.951  0.5144  0.2666 -0.0322
    9MPD2    C314225   2.307   1.871  10.825  0.4910 -0.0201 -0.1426
    9MPD2    C414226   2.385   1.823  10.724 -0.3409 -0.1049 -0.7189
    9MPD2    C514227   2.517   1.796  10.748 -0.1283  0.3133 -0.8484
    9MPD2     H14228   2.302   1.938  11.030  0.6412  1.4451 -0.5884
    9MPD2    H114229   2.348   1.815  10.622  0.8427  1.5967 -1.2781
    9MPD2    H214230   2.669   1.766  10.891  1.0281  2.2106  1.4322
    9MPD2    H314231   2.576   1.742  10.674  0.3608 -0.1136 -0.1423
    9MPD2     N14232   2.176   1.902  10.796 -0.1668  0.4339  0.5441
    9MPD2    H514233   2.154   1.890  10.698  0.2617  0.9754  0.3837
    9MPD2    N114234   2.546   1.851  11.108  0.4145  0.0170 -0.2755
    9MPD2    H714235   2.640   1.813  11.115  0.6640  1.0898  1.9143
    1MPD1     C14236   1.621   1.883  16.498 -0.5528 -0.0090 -0.2556
    1MPD1    C114237   1.677   1.905  16.623  0.0369 -0.2942  0.0133
    1MPD1    C214238   1.654   1.794  16.713  0.0660 -1.4333  0.1583
    1MPD1    C314239   1.600   1.671  16.668  0.3128  0.4027 -0.3503
    1MPD1    C414240   1.548   1.661  16.542 -0.3436  0.1750 -0.0216
    1MPD1    C514241   1.560   1.769  16.457  0.5657 -0.2222 -0.0014
    1MPD1     H14242   1.688   1.795  16.816  0.6989 -3.7333 -0.0098
    1MPD1    H114243   1.517   1.564  16.504  0.3304  0.5060 -1.3890
    1MPD1    H214244   1.617   1.959  16.420  0.1319 -0.4264 -0.7002
    1MPD1    H314245   1.517   1.760  16.357  3.3947 -0.8221 -1.1453
    1MPD1     N14246   1.602   1.554  16.750 -0.2148  0.1465  1.2615
    1MPD1    H514247   1.550   1.474  16.715  1.5472 -0.0446 -0.9487
    1MPD1    N114248   1.728   2.027  16.668 -0.0048  0.3673  0.2508
    1MPD1    H614249   1.777   2.081  16.597 -1.1584 -0.6297 -1.3027
    1MPD1    H714250   1.783   2.012  16.752 -1.4421 -1.2016  0.9179
    2MPD1     C14251   1.966   0.715  17.242 -0.2068  0.2635  0.1931
    2MPD1    C114252   1.856   0.705  17.156 -0.1007 -0.0792  0.1881
    2MPD1    C214253   1.773   0.823  17.137  0.5194 -0.6020 -0.5164
    2MPD1    C314254   1.819   0.942  17.192  0.9812  0.3107 -0.2160
    2MPD1    C414255   1.940   0.949  17.266 -0.5571  0.5320  0.1346
    2MPD1    C514256   2.001   0.835  17.295  0.3917  0.5955 -0.6965
    2MPD1     H14257   1.688   0.823  17.071 -0.8573 -1.7131  1.2586
    2MPD1    H114258   1.973   1.044  17.307 -1.3657  1.0144 -0.3215
    2MPD1    H214259   2.018   0.625  17.274  1.4303  1.0919 -0.1698
    2MPD1    H314260   2.077   0.842  17.372  0.7874 -1.0941 -0.9426
    2MPD1     N14261   1.743   1.057  17.164 -0.2699  0.9064 -0.1186
    2MPD1    H514262   1.658   1.042  17.111 -0.1161 -0.6018  0.0652
    2MPD1    N114263   1.820   0.577  17.113  0.1700 -0.8680 -0.3942
    2MPD1    H614264   1.901   0.523  17.082  1.3409 -0.2938  1.6932
    2MPD1    H714265   1.758   0.568  17.033 -2.5595  0.0688  1.5891
    3TCq2    C114266   1.787   1.185  17.175 -0.4022 -0.2205 -0.0306
    3TCq2    O214267   1.899   1.225  17.174 -0.0995 -0.3398  0.2542
    3TCq2    C214268   1.682   1.265  17.118  0.2819 -0.0870  0.1942
    3TCq2    C314269   1.552   1.223  17.123  0.1827  0.6705 -0.3604
    3TCq2    C414270   1.469   1.278  17.037  0.8712  0.0443 -0.0424
    3TCq2    C514271   1.505   1.363  16.946 -1.0210  0.0017  0.1982
    3TCq2    C614272   1.633   1.409  16.949 -0.5651  0.5794  0.2847
    3TCq2    C714273   1.730   1.364  17.035  0.4097  0.2331  0.6034
    3TCq2    C814274   1.666   1.535  16.877 -0.3326 -0.2886  0.1689
    3TCq2    O414275   1.734   1.618  16.942 -0.6863  0.4263 -0.5283
    3TCq2    C914276   1.328   1.239  17.041 -0.6683  0.0714 -0.2362
    3TCq2    O514277   1.252   1.281  16.945  0.0775 -0.1553 -0.6046
    3TCq2    O614278   1.294   1.206  17.157 -0.2733 -0.1361 -0.2505
    3TCq2    H214279   1.521   1.150  17.197  1.6953  0.3242 -0.0681
    3TCq2    H314280   1.425   1.408  16.887 -0.4883 -0.3628 -0.8039
    3TCq2    H414281   1.828   1.409  17.040  1.9592 -3.1363  0.9521
    1TCq1    O114282   4.609   4.597  12.993 -0.4472  0.2139 -0.3920
    1TCq1    C114283   4.660   4.468  13.003 -0.1462  1.6053 -0.4103
    1TCq1    O214284   4.602   4.379  13.056  0.3696 -0.3332  0.2205
    1TCq1    C214285   0.077   4.471  12.975  0.5415  0.4135 -0.1349
    1TCq1    C314286   0.134   4.353  12.941 -0.4210  0.5945 -0.9726
    1TCq1    C414287   0.267   4.347  12.922  0.0171  0.2532 -0.3758
    1TCq1    C514288   0.347   4.448  12.966 -0.3805 -0.0348  0.1156
    1TCq1    C614289   0.283   4.564  13.007  0.7788  0.1859  0.5521
    1TCq1    C714290   0.152   4.583  13.005  0.1709 -0.0741  0.6702
    1TCq1    C814291   0.359   4.672  13.063  0.1270 -0.4663 -0.0951
    1TCq1    O414292   0.316   0.059  13.052  0.0821  0.2318 -0.0065
    1TCq1    C914293   0.337   4.232  12.873 -0.4254  0.4563 -0.2131
    1TCq1    O514294   0.453   4.238  12.823 -0.0430 -0.4461  0.3899
    1TCq1    O614295   0.273   4.125  12.894  0.2578 -0.5600 -0.3177
    1TCq1    H114296   4.653   4.645  12.919  1.3498 -0.1252  0.4449
    1TCq1    H214297   0.078   4.263  12.920 -1.8981  1.2318  0.2679
    1TCq1    H314298   0.455   4.443  12.961 -0.3612  0.2985  0.1674
    1TCq1    H414299   0.112   4.682  13.023 -0.0800 -0.2717  1.1831
    2MPD2     C14300   0.583   0.112  13.159  0.2413 -0.2030  0.3590
    2MPD2    C114301   0.574   4.699  13.169 -0.2595  0.2392 -0.8316
    2MPD2    C214302   0.680   4.625  13.223 -0.4732 -0.4229  0.7096
    2MPD2    C314303   0.795   4.690  13.272  0.4860  0.4231  0.1447
    2MPD2    C414304   0.806   0.100  13.268  0.0064 -0.1617  0.1766
    2MPD2    C514305   0.700   0.168  13.204  0.2468  0.9525 -0.2063
    2MPD2     H14306   0.671   4.517  13.219 -1.4118 -0.3758  1.6228
    2MPD2    H114307   0.881   0.157  13.320 -0.7477  0.8923  0.1104
    2MPD2    H214308   0.505   0.179  13.125  2.2564  3.0492  2.0389
    2MPD2    H314309   0.707   0.275  13.190  1.7829  1.0963  1.6246
    2MPD2     N14310   0.902   4.611  13.331  0.2502  0.8614  0.0345
    2MPD2    H514311   0.873   4.513  13.337  1.4227  0.5592  0.7475
    2MPD2    N114312   0.473   4.622  13.119 -0.4901 -0.1633 -0.3531
    2MPD2    H714313   0.490   4.522  13.124 -1.3068 -0.2346  0.9185
    3TCq1    O114314   1.450   4.665  13.570  0.2733  0.6583 -0.0317
    3TCq1    C114315   1.444   4.530  13.562 -0.4210  0.2565  0.3477
    3TCq1    O214316   1.483   4.454  13.651  0.4264  0.7682 -0.4630
    3TCq1    C214317   1.338   4.493  13.478  0.0568  0.1986  0.0764
    3TCq1    C314318   1.326   4.364  13.443  0.3172 -0.1296 -0.0107
    3TCq1    C414319   1.209   4.328  13.387  0.1320  0.1330  0.4420
    3TCq1    C514320   1.103   4.416  13.363 -0.2708 -0.1510 -0.6939
    3TCq1    C614321   1.118   4.547  13.408 -0.1780 -0.0364  0.2663
    3TCq1    C714322   1.239   4.591  13.447 -0.8243  0.5345  0.3885
    3TCq1    C814323   1.029   4.656  13.370 -0.2916  0.1946 -0.9470
    3TCq1    O414324   1.081   0.035  13.343  0.1780 -0.1344  0.3545
    3TCq1    C914325   1.186   4.189  13.349 -0.3147 -1.1740  0.1834
    3TCq1    O514326   1.069   4.153  13.333  0.1763 -0.0265 -0.1788
    3TCq1    O614327   1.279   4.111  13.386 -0.1188  0.0752  0.7201
    3TCq1    H114328   1.423   4.726  13.498  0.7922 -0.2916 -1.0290
    3TCq1    H214329   1.408   4.296  13.460  0.2274  0.3662  2.3326
    3TCq1    H314330   1.009   4.379  13.324  0.1382 -1.8314 -0.0595
    3TCq1    H414331   1.236   4.692  13.488 -1.0606  1.3963 -1.7794
    1MPD2     C14332   0.043   1.040  15.134 -0.7484 -0.8410  0.1028
    1MPD2    C114333   4.677   0.943  15.163 -0.0927 -0.5226  0.4747
    1MPD2    C214334   4.660   0.840  15.073  0.0600  0.5983  0.4162
    1MPD2    C314335   0.001   0.843  14.955 -0.0866  0.4662  0.4533
    1MPD2    C414336   0.097   0.937  14.926 -0.4894  0.6204  0.0947
    1MPD2    C514337   0.115   1.042  15.015  0.1890  0.1717  0.4421
    1MPD2     H14338   4.584   0.767  15.100 -0.0512  0.6115  0.1312
    1MPD2    H114339   0.159   0.932  14.838  1.6901  5.1629  1.4162
    1MPD2    H214340   0.058   1.126  15.198  0.3346 -0.3048 -0.8618
    1MPD2    H314341   0.182   1.124  14.990  1.4219 -0.9064  0.2378
    1MPD2     N14342   4.675   0.752  14.857  0.1467  0.3910  0.4049
    1MPD2    H514343   4.604   0.693  14.899  1.6511 -0.0259  2.3579
    1MPD2    N114344   4.617   0.949  15.291 -0.4921  0.2510 -0.0063
    1MPD2    H714345   4.651   1.025  15.350 -0.8545  1.9286 -1.9710
    2TMC3    C114346   4.444   0.906  15.443  0.2635  0.7146  0.2459
    2TMC3    C214347   4.359   0.812  15.477 -1.3698  0.2462  0.1725
    2TMC3    C314348   4.225   0.837  15.496 -0.1151  0.2061 -0.4247
    2TMC3    C414349   4.389   1.031  15.413 -1.0968  0.3383  0.2728
    2TMC3    C514350   4.259   1.062  15.437  0.4649 -0.6466 -0.3548
    2TMC3    C614351   4.173   0.965  15.474  0.2310  0.6589  0.6172
    2TMC3     C14352   4.524   0.849  15.339 -0.1894 -0.2063  0.6967
    2TMC3     O14353   4.519   0.728  15.308 -0.2937  0.1524 -0.0868
    2TMC3     H14354   4.397   0.713  15.500  0.8271  1.0863  0.2020
    2TMC3    H114355   4.464   1.107  15.393 -0.2304 -0.2366  1.3531
    2TMC3    H214356   4.069   0.994  15.486  0.1343 -0.2402  1.8684
    2TMC3    C714357   4.206   1.174  15.364 -0.4076  0.2196 -0.5226
    2TMC3    C814358   4.146   0.741  15.415  0.0797  1.2093 -0.4541
    2TMC3    O114359   4.108   1.232  15.409 -0.2242 -0.2834 -0.3290
    2TMC3    O214360   4.024   0.749  15.440  0.3674 -0.1398 -0.5588
    3TCq1    O114361   0.137   1.629  14.590  0.3514  0.2011 -0.0285
    3TCq1    C114362   0.119   1.498  14.604 -0.0450 -0.1554  0.2577
    3TCq1    O214363   0.176   1.415  14.677 -0.0923 -0.3775  0.5193
    3TCq1    C214364   4.709   1.488  14.565  0.3560  0.3074 -0.0353
    3TCq1    C314365   4.677   1.548  14.449  0.0051 -0.0434  0.4555
    3TCq1    C414366   4.552   1.558  14.410 -0.1830 -0.7558 -0.8708
    3TCq1    C514367   4.450   1.511  14.488  0.0743  0.5593  0.3823
    3TCq1    C614368   4.479   1.447  14.609  0.1144 -0.3128  0.1355
    3TCq1    C714369   4.609   1.434  14.650 -0.4314 -0.2369 -0.1065
    3TCq1    C814370   4.378   1.471  14.712  0.4330  0.6833  0.6245
    3TCq1    O414371   4.272   1.524  14.676  0.1763 -0.3782 -0.4822
    3TCq1    C914372   4.524   1.623  14.286  0.1166  0.4785  0.1159
    3TCq1    O514373   4.610   1.701  14.240 -0.4753 -0.3935  0.1046
    3TCq1    O614374   4.402   1.632  14.252  0.0780 -0.1189 -0.0040
    3TCq1    H114375   0.057   1.674  14.555 -0.6028 -1.3939  0.0903
    3TCq1    H214376   0.029   1.584  14.383 -0.9424  0.2643 -0.4859
    3TCq1    H314377   4.353   1.523  14.442 -0.3928  1.5653  1.6251
    3TCq1    H414378   4.642   1.393  14.745 -0.2285  0.9350  0.3368
    4MPD2     C14379   4.225   1.501  14.968 -0.2849 -0.0931  0.0598
    4MPD2    C114380   4.329   1.407  14.947  0.6013 -0.1667  0.3274
    4MPD2    C214381   4.335   1.302  15.036  0.3178  0.5292 -0.1803
    4MPD2    C314382   4.257   1.292  15.157  0.4323 -0.2269 -0.4083
    4MPD2    C414383   4.171   1.394  15.186 -0.3041  0.5101  0.1933
    4MPD2    C514384   4.157   1.495  15.085  0.5615 -0.3639  0.4618
    4MPD2     H14385   4.410   1.230  15.008 -1.7674 -2.8753  3.0012
    4MPD2    H114386   4.121   1.403  15.281  2.4595  2.3614  1.4857
    4MPD2    H214387   4.194   1.578  14.898  0.6109 -0.5104 -0.8007
    4MPD2    H314388   4.090   1.579  15.102 -0.1796 -0.6368 -1.1164
    4MPD2     N14389   4.274   1.190  15.245 -0.1303 -0.9311 -0.2532
    4MPD2    H514390   4.333   1.113  15.214 -0.6228 -0.9300 -1.2080
    4MPD2    N114391   4.408   1.402  14.824 -0.2497 -0.0813  0.3411
    4MPD2    H714392   4.471   1.323  14.830  2.0277  1.7669  0.8615
    5TMC2    C114393   4.440   0.508  14.686 -0.3758  0.4567 -0.9334
    5TMC2    C214394   4.492   0.398  14.643 -0.5391  0.3445 -0.0271
    5TMC2    C314395   4.618   0.409  14.584  0.2410  0.3428 -0.7133
    5TMC2    C414396   4.514   0.613  14.720  0.8117 -0.1687 -0.1952
    5TMC2    C514397   4.636   0.621  14.670 -0.1757  0.1660 -0.0965
    5TMC2    C614398   4.696   0.526  14.585  0.0942  0.9742 -0.0256
    5TMC2     C14399   4.312   0.497  14.755 -1.2870  0.2288  0.3179
    5TMC2     O14400   4.239   0.412  14.710 -0.7276 -0.1176 -0.2766
    5TMC2     H14401   4.447   0.300  14.636 -4.1065  1.9767  0.5216
    5TMC2    H114402   4.468   0.711  14.735 -1.1467 -1.0653 -0.3346
    5TMC2    H214403   0.074   0.532  14.558  0.2414  2.6390  0.8896
    5TMC2    C714404   4.717   0.725  14.728 -0.4791 -0.3715 -0.5926
    5TMC2    C814405   4.658   0.287  14.513  0.2787  0.0203  0.1493
    5TMC2    O114406   0.096   0.760  14.676 -0.0244  0.3556 -0.1885
    5TMC2    O214407   4.577   0.209  14.466  0.2590  0.3471  0.2806
    5TMC2    O514408   0.024   0.248  14.604  0.1157  0.2809 -0.4932
    5TMC2    H514409   0.079   0.311  14.655 -0.4430 -1.1024  1.8140
    6MPD2     C14410   4.027   0.606  15.172  0.8789 -0.2422  0.0915
    6MPD2    C114411   4.161   0.626  15.195  0.4576  0.0965  0.6054
    6MPD2    C214412   4.253   0.610  15.099  0.4954 -0.6436  0.5022
    6MPD2    C314413   4.216   0.564  14.978 -0.0407 -0.2662 -0.6246
    6MPD2    C414414   4.082   0.541  14.951  0.4275 -0.5346 -0.1877
    6MPD2    C514415   3.986   0.563  15.050  0.2907  0.4083 -0.0677
    6MPD2     H14416   4.358   0.628  15.117  0.0326  2.9192 -0.4095
    6MPD2    H114417   4.050   0.526  14.849 -0.9463 -0.5299  0.2496
    6MPD2    H214418   3.962   0.623  15.258  0.6248 -1.9064  0.2276
    6MPD2    H314419   3.879   0.560  15.032  0.5091  0.5713 -1.4051
    6MPD2     N14420   4.323   0.535  14.885  0.4252 -0.4866  0.0978
    6MPD2    H514421   4.414   0.567  14.915  0.4611  0.7540 -1.2879
    6MPD2    N114422   4.216   0.692  15.309  0.4264  0.1668  0.0096
    6MPD2    H714423   4.315   0.708  15.297  0.6077 -2.2992 -1.7832
  945NH3     N114424   0.107   2.873   9.970 -0.3460  0.1452 -0.1847
  945NH3     H214425   0.205   2.875   9.994 -0.2313  0.9635 -0.6999
  945NH3     H314426   0.075   2.788  10.015  0.0232 -1.2044 -2.4958
  945NH3     H414427   0.063   2.939  10.034  1.7517  1.4573 -0.1186
  946SOD     NA14428   3.615   3.708  14.885 -0.2874  0.1513 -0.1951
  947SOD     NA14429   2.038   0.871  13.888 -0.0001  0.5494  0.0312
  948SOD     NA14430   3.706   1.617   4.830 -0.2257 -0.2274 -0.0785
  949SOD     NA14431   0.647   3.798   4.344 -0.0911 -0.1980  0.8622
  950SOD     NA14432   4.337   1.269   1.832  0.7328  0.2433  0.1597
  951SOD     NA14433   1.941   4.243  14.354  0.4730  0.1302 -0.4828
  952SOD     NA14434   4.043   2.973   1.718  0.2086 -0.0404 -0.0670
  953SOD     NA14435   0.624   4.268  11.901  0.1358  0.0321 -0.1683
  954SOD     NA14436   2.199   0.411  12.522  0.1077  0.0754 -0.1412
  955SOD     NA14437   1.635   3.578  13.159  0.4008  0.3372 -0.2277
  956SOD     NA14438   2.137   2.410   1.605  0.2033  0.3289 -0.6202
  957SOD     NA14439   0.439   4.016  12.764  0.3577  0.0025  1.0429
  958SOD     NA14440   2.564   1.149   1.910 -0.4334 -0.1058  0.2244
  959SOD     NA14441   1.413   0.570  15.432  0.1659  0.3999 -0.0824
  960SOD     NA14442   1.582   1.271  13.310  0.1280  0.2524  0.3986
  961SOD     NA14443   3.986   3.823  11.323 -0.3965  0.0616  0.0566
  962SOD     NA14444   4.227   4.044  10.096 -0.3241  0.2797 -0.2034
  963SOD     NA14445   2.639   3.158   0.572  0.5158 -0.1975  0.1144
  964SOD     NA14446   0.385   1.518  10.814  0.0809  0.2160  0.1715
  965SOD     NA14447   0.915   0.612  11.828 -0.0057 -0.4296  0.2496
  966SOD     NA14448   3.948   2.137  13.804  0.1901 -0.0668  0.4649
  967SOD     NA14449   1.691   2.248   5.516 -0.2452 -0.7349 -0.0189
  968SOD     NA14450   2.244   2.817  15.253  0.3884  0.4098 -0.2949
  969SOD     NA14451   3.531   3.121   9.561  0.0661 -0.4385 -0.4295
  970SOD     NA14452   0.408   1.104   5.241 -0.2545  0.0631  0.5630
  971SOD     NA14453   1.615   3.926   0.130  0.2267  0.4975  0.4010
  972SOD     NA14454   0.161   2.703  12.795  0.6295 -0.6048 -0.1199
  973SOD     NA14455   0.180   1.591  11.686 -0.3345  0.2858 -0.2541
  974SOD     NA14456   4.378   4.033  13.314  0.3529 -0.3313  0.0885
  975SOD     NA14457   1.392   0.916   7.008  0.0755  0.0489 -0.0326
  976SOD     NA14458   0.850   0.072  11.871 -0.0788  0.1866  0.2744
  977SOD     NA14459   3.555   3.181   8.371 -0.3105  0.3819  0.3816
  978SOD     NA14460   3.933   1.697   6.308  0.0308 -0.1841 -0.1425
  979SOD     NA14461   1.328   2.619  16.056  0.5024 -0.0401  0.2075
  980SOD     NA14462   1.895   0.844  14.978  0.0884  0.4752 -0.5537
  981SOD     NA14463   3.944   3.703  10.268  0.1231 -0.6638  0.0314
  982SOD     NA14464   0.175   1.938  17.405 -0.8007 -0.3759  0.0733
  983SOD     NA14465   1.579   3.160  14.515  0.1555 -0.1763  0.3251
  984SOD     NA14466   3.694   2.112  12.017 -0.2470  0.1279  0.1819
  985SOD     NA14467   3.864   3.957  10.374  0.0367 -0.0155 -0.1800
  986SOD     NA14468   1.037   0.002   0.168  0.5535  0.5255 -0.1358
  987SOD     NA14469   3.828   3.858   1.118 -0.4051 -0.2521 -0.1290
  988SOD     NA14470   0.773   4.494  10.437  0.0313  0.2777 -0.1477
  989SOD     NA14471   0.647   3.728   0.201 -0.2550 -0.1721  0.4334
  990SOD     NA14472   4.670   0.989  14.363 -0.3326  0.4757 -0.3268
  991SOD     NA14473   1.845   0.575  15.215  0.5691  0.1751 -0.0606
  992SOD     NA14474   2.780   3.953  13.685 -0.6507 -0.2320 -0.2534
  993SOD     NA14475   3.921   0.748  10.065  0.5979  0.0673 -0.0210
  994SOD     NA14476   3.483   0.221  15.288  0.0835 -0.2625 -0.2514
  995SOD     NA14477   1.483   1.199  13.602  0.5121  0.0925  0.1964
  996SOD     NA14478   1.899   0.032   0.760 -0.0193 -0.1986  0.5246
  997SOD     NA14479   2.176   4.708   8.694  0.2029 -0.4264 -0.4982
  998SOD     NA14480   4.163   4.693  11.375 -0.2989  0.3762  0.3824
  999SOD     NA14481   3.257   2.529   5.997 -0.1212 -0.2776  0.5227
 1000SOD     NA14482   1.992   2.586  10.996  0.2931 -0.0650 -0.3540
 1001SOD     NA14483   1.675   1.792   5.034  0.2538 -0.3004  0.0263
 1002SOD     NA14484   1.314   0.964  13.419 -0.0816 -0.3269 -0.2656
 1003SOD     NA14485   0.660   4.282  12.780 -0.3624 -0.5092 -0.2332
 1004SOD     NA14486   3.214   0.362  11.813  0.1400  0.0752 -0.1664
 1005SOD     NA14487   3.818   1.830  15.885 -0.0293  0.3468  0.6116
 1006SOD     NA14488   4.422   4.342   5.512 -0.4099 -0.0132 -0.6507
 1007SOD     NA14489   4.223   3.865   9.832  0.1892 -0.0203 -0.1953
 1008SOD     NA14490   2.127   1.122  15.944  0.4930 -0.0589  0.1949
 1009SOD     NA14491   3.665   0.461  10.125 -0.1334  0.3532 -0.3823
 1010SOD     NA14492   1.764   0.329   0.293 -0.7197  0.0623  0.1548
 1011SOD     NA14493   2.473   3.686   0.480 -0.2101  0.0572  0.0689
 1012SOL     OW14494   1.163   2.796   8.141 -0.7036  0.5845 -0.1609
 1012SOL    HW114495   1.082   2.755   8.110  0.2280 -0.9809 -0.4821
 1012SOL    HW214496   1.144   2.860   8.210 -0.9048 -0.7650  1.0494
 1013SOL     OW14497   2.348   2.376   0.765  0.3893 -0.0538  0.2018
 1013SOL    HW114498   2.331   2.435   0.838 -0.7777 -2.0683  1.5678
 1013SOL    HW214499   2.443   2.369   0.767  0.5764  2.6251 -0.1575
 1014SOL     OW14500   3.098   2.932   3.315  0.1161 -0.1166 -0.2159
 1014SOL    HW114501   3.124   2.846   3.348  2.6544  0.9907  0.6788
 1014SOL    HW214502   3.160   2.993   3.355 -2.0135  2.6313 -1.1113
 1015SOL     OW14503   2.146   4.269   3.162  0.2075  0.1041 -0.1375
 1015SOL    HW114504   2.221   4.311   3.121  1.9289 -0.8299  2.0827
 1015SOL    HW214505   2.123   4.186   3.120 -1.1865 -0.2951  1.4360
 1016SOL     OW14506   3.849   2.569   7.971  0.1433 -0.1479 -0.2361
 1016SOL    HW114507   3.756   2.552   7.956  0.3119 -0.3323 -1.0524
 1016SOL    HW214508   3.838   2.661   7.945  1.5539 -0.7998 -3.0747
 1017SOL     OW14509   1.591   2.381   9.171 -0.2233 -0.0332 -0.9271
 1017SOL    HW114510   1.678   2.421   9.159  0.7162 -1.7553  0.0554
 1017SOL    HW214511   1.594   2.373   9.266  0.8427 -0.5001 -0.9992
 1018SOL     OW14512   0.808   3.041  16.438  0.3833  0.4397 -0.1828
 1018SOL    HW114513   0.774   2.952  16.439  1.4654  0.0088 -1.0455
 1018SOL    HW214514   0.877   3.024  16.502  0.7528  0.5420 -0.5483
 1019SOL     OW14515   0.238   3.265  10.646  0.2613  0.0341  0.4863
 1019SOL    HW114516   0.289   3.188  10.623 -1.1182 -0.9748  0.7813
 1019SOL    HW214517   0.166   3.213  10.681  0.3789  1.1469  2.3824
 1020SOL     OW14518   1.598   4.628   7.876 -0.1558  0.0545 -0.3587
 1020SOL    HW114519   1.560   4.560   7.932  0.3509  0.2364  0.2014
 1020SOL    HW214520   1.559   4.700   7.926  1.9591  1.5512 -0.8943
 1021SOL     OW14521   3.387   0.360   7.734  0.1696  0.3466 -0.8139
 1021SOL    HW114522   3.324   0.333   7.667  0.3214 -2.4220  0.1621
 1021SOL    HW214523   3.460   0.376   7.675  2.2018  2.0072  2.1849
 1022SOL     OW14524   2.280   3.703   5.248  0.4241 -0.0072 -0.2894
 1022SOL    HW114525   2.317   3.650   5.178  1.3582 -0.2347  0.3708
 1022SOL    HW214526   2.249   3.633   5.306  0.2976  0.3289  0.0500
 1023SOL     OW14527   1.139   0.681   2.438  0.2748 -0.5028 -0.1076
 1023SOL    HW114528   1.100   0.761   2.404  1.9580  1.3454  2.3374
 1023SOL    HW214529   1.183   0.711   2.518 -0.4334  1.2010 -0.3678
 1024SOL     OW14530   1.615   3.343   5.400 -0.0090 -0.3925 -0.5026
 1024SOL    HW114531   1.551   3.380   5.339 -0.9001 -1.8253 -0.4312
 1024SOL    HW214532   1.643   3.269   5.346  1.9691  0.8628 -1.2174
 1025SOL     OW14533   1.905   0.571   0.556  0.0566 -0.1703 -0.4236
 1025SOL    HW114534   1.904   0.595   0.463  1.2552  0.5372 -0.2477
 1025SOL    HW214535   1.834   0.506   0.556  0.1464 -0.2453  2.7339
 1026SOL     OW14536   4.165   0.300  13.524  0.1440 -0.0173  0.4585
 1026SOL    HW114537   4.113   0.221  13.512  1.0446 -0.5292 -0.0994
 1026SOL    HW214538   4.096   0.365  13.510 -0.8270 -0.8838  1.2079
 1027SOL     OW14539   2.606   1.096  12.302  0.1716 -0.4360  0.4206
 1027SOL    HW114540   2.579   1.101  12.393 -0.2165  0.7771  0.2403
 1027SOL    HW214541   2.699   1.074  12.309  0.4974  1.3724  1.6379
 1028SOL     OW14542   1.710   0.241   2.694  0.2640  0.2844 -0.5132
 1028SOL    HW114543   1.703   0.253   2.599  1.8869 -0.3521 -0.7116
 1028SOL    HW214544   1.655   0.164   2.703  3.2661 -1.8947 -0.7341
 1029SOL     OW14545   3.964   1.575   7.537  0.4906  0.4890  0.5148
 1029SOL    HW114546   4.045   1.581   7.487 -0.0204 -3.0111 -0.7493
 1029SOL    HW214547   4.000   1.603   7.621  2.3056 -2.0590  0.5760
 1030SOL     OW14548   1.014   2.666  12.091  0.3217 -0.6039 -0.1302
 1030SOL    HW114549   1.059   2.617  12.023 -0.1645 -2.4866  0.9128
 1030SOL    HW214550   0.925   2.630  12.086  0.7193 -1.5661 -0.2611
 1031SOL     OW14551   4.217   0.633   1.418 -0.0099 -0.3904  0.6556
 1031SOL    HW114552   4.195   0.726   1.411  0.3698 -0.2761  1.0166
 1031SOL    HW214553   4.282   0.617   1.349  1.0690  1.3732  1.2762
 1032SOL     OW14554   3.476   2.461   3.225  0.2290  0.4289  0.2557
 1032SOL    HW114555   3.488   2.525   3.155 -2.2530 -0.2687 -0.8138
 1032SOL    HW214556   3.445   2.381   3.182  1.2852 -1.1515  2.4216
 1033SOL     OW14557   2.692   4.422   8.463  0.5480  0.3791 -0.2755
 1033SOL    HW114558   2.656   4.334   8.460 -0.4092  0.7731 -0.4239
 1033SOL    HW214559   2.637   4.457   8.534  1.2245 -4.3463  2.5387
 1034SOL     OW14560   1.103   4.626   4.816 -0.1515  0.0640  0.1091
 1034SOL    HW114561   1.115   4.710   4.861  0.0001 -0.1984  0.5518
 1034SOL    HW214562   1.032   4.581   4.861 -0.4285 -1.0882 -1.4637
 1035SOL     OW14563   1.976   0.621   3.624  0.1679  0.2071 -0.2453
 1035SOL    HW114564   1.944   0.530   3.625  2.0528 -0.4351  1.7317
 1035SOL    HW214565   1.901   0.679   3.633  1.2391  1.5398 -0.0271
 1036SOL     OW14566   2.653   3.662   7.049  0.0801  0.1499  0.6668
 1036SOL    HW114567   2.627   3.705   7.131  0.2970  0.1276  0.7478
 1036SOL    HW214568   2.744   3.692   7.047  0.7794 -2.0031  0.4211
 1037SOL     OW14569   2.147   1.441   6.124  0.4405 -0.5245 -0.2337
 1037SOL    HW114570   2.157   1.523   6.075 -0.2205  0.9374  2.1062
 1037SOL    HW214571   2.221   1.388   6.094  0.8978 -0.1744  0.2699
 1038SOL     OW14572   3.077   3.265   8.299 -0.3817 -0.2619  0.5050
 1038SOL    HW114573   3.159   3.224   8.271 -1.0310  0.6764 -2.7733
 1038SOL    HW214574   3.012   3.201   8.271 -2.0690  1.4502  0.5182
 1039SOL     OW14575   2.119   0.238  11.184 -0.1812 -0.2126 -0.1256
 1039SOL    HW114576   2.128   0.172  11.115 -0.5224 -1.5530  1.0967
 1039SOL    HW214577   2.186   0.300  11.155 -0.3694  0.3635  0.6764
 1040SOL     OW14578   2.066   2.171   7.560 -0.0646 -0.1235  0.5453
 1040SOL    HW114579   2.006   2.096   7.553 -0.8622  0.4472  1.2551
 1040SOL    HW214580   2.152   2.129   7.560 -0.1454 -0.2758 -1.1126
 1041SOL     OW14581   2.228   0.484  16.011  0.0572  0.1519 -0.4698
 1041SOL    HW114582   2.286   0.410  15.995 -0.8132 -1.1056  2.1643
 1041SOL    HW214583   2.175   0.444  16.080 -1.2136  4.2375  0.9018
 1042SOL     OW14584   1.446   0.918   8.509 -0.8959 -0.0309 -0.0726
 1042SOL    HW114585   1.470   0.957   8.593  1.0197 -0.7260 -0.3113
 1042SOL    HW214586   1.526   0.869   8.491  0.0923  1.6480 -0.1349
 1043SOL     OW14587   0.352   3.824   9.355 -0.0662  0.2044  0.1217
 1043SOL    HW114588   0.435   3.855   9.319 -0.4804  1.3999  0.1729
 1043SOL    HW214589   0.373   3.781   9.438  0.8476 -2.0652 -1.3215
 1044SOL     OW14590   0.573   0.283   1.933  0.5539  0.1061  0.1191
 1044SOL    HW114591   0.540   0.222   1.999  0.8666 -3.0249 -2.6127
 1044SOL    HW214592   0.494   0.292   1.880 -0.7075  0.0632  1.9973
 1045SOL     OW14593   0.481   1.055   8.962 -0.0850  0.0648  0.2356
 1045SOL    HW114594   0.444   0.967   8.961  0.3308 -0.0791 -2.4617
 1045SOL    HW214595   0.566   1.029   8.927 -0.7698 -1.7780 -0.0510
 1046SOL     OW14596   3.845   0.339   1.223  0.5879  0.0976  0.5290
 1046SOL    HW114597   3.904   0.405   1.187 -0.3380  0.9140  0.5075
 1046SOL    HW214598   3.765   0.384   1.251  0.4520 -0.1572  0.5463
 1047SOL     OW14599   2.311   2.643   3.742  0.3932 -0.0048  0.1635
 1047SOL    HW114600   2.378   2.622   3.806  0.4713  3.0360  1.0885
 1047SOL    HW214601   2.277   2.731   3.760 -0.9664 -0.3999 -0.4683
 1048SOL     OW14602   3.215   2.093  14.902 -0.2248  0.2861 -0.6136
 1048SOL    HW114603   3.210   2.181  14.865 -1.2778 -0.0702 -1.3073
 1048SOL    HW214604   3.123   2.075  14.923 -0.4360  1.6430 -0.3616
 1049SOL     OW14605   3.954   0.915  10.557 -0.2977  0.8533 -0.1184
 1049SOL    HW114606   3.859   0.922  10.545 -0.5826 -0.4484  1.3801
 1049SOL    HW214607   3.989   0.995  10.518  0.9730  0.5860  0.4723
 1050SOL     OW14608   4.191   3.564   4.379  0.5100  0.0073 -0.7742
 1050SOL    HW114609   4.162   3.535   4.465 -0.2733 -0.7288 -1.2826
 1050SOL    HW214610   4.229   3.484   4.342 -1.5892 -1.0044 -0.7132
 1051SOL     OW14611   0.436   3.858  14.758  0.1894 -0.2408 -0.4189
 1051SOL    HW114612   0.494   3.929  14.731  0.5271 -0.3133  0.1294
 1051SOL    HW214613   0.425   3.871  14.852  1.1330  0.2605 -0.3869
 1052SOL     OW14614   2.279   3.772   0.546  0.6916 -0.6808 -0.5462
 1052SOL    HW114615   2.244   3.860   0.540  1.1689 -0.7692 -4.4741
 1052SOL    HW214616   2.204   3.726   0.508  1.3717 -0.4958 -2.0863
 1053SOL     OW14617   4.162   3.240   2.032 -0.9180 -0.4153  0.6424
 1053SOL    HW114618   4.159   3.214   2.124  3.5258  0.2417  0.9611
 1053SOL    HW214619   4.075   3.209   2.004 -1.3930  1.1993  0.3320
 1054SOL     OW14620   1.836   3.575   3.800 -0.3991 -0.1061  0.7665
 1054SOL    HW114621   1.788   3.649   3.836  0.4488  1.4387 -1.2680
 1054SOL    HW214622   1.902   3.547   3.864  3.3244 -0.3985 -3.1937
 1055SOL     OW14623   2.837   3.986   2.941 -0.1372  0.4486 -0.1357
 1055SOL    HW114624   2.791   3.903   2.925 -0.5524  0.8554 -1.0353
 1055SOL    HW214625   2.925   3.955   2.963 -1.5958 -1.9044  2.3889
 1056SOL     OW14626   0.614   0.537   2.058  0.2856 -0.1084  0.1036
 1056SOL    HW114627   0.709   0.544   2.066  0.2962 -0.3534  0.1795
 1056SOL    HW214628   0.602   0.445   2.034 -2.6668  0.5890 -1.0926
 1057SOL     OW14629   3.522   3.706  12.168  0.4880 -0.3429 -0.1477
 1057SOL    HW114630   3.499   3.777  12.108  1.6834 -1.1761 -1.5834
 1057SOL    HW214631   3.442   3.703  12.221  1.3460 -0.5811  1.1542
 1058SOL     OW14632   2.705   0.910  15.297 -0.1105 -0.3903  0.0729
 1058SOL    HW114633   2.700   0.865  15.381 -3.7544 -0.9451 -0.4164
 1058SOL    HW214634   2.768   0.979  15.316 -1.6094  0.6147  1.4470
 1059SOL     OW14635   2.071   2.121   7.832  0.2368 -0.2465 -0.5663
 1059SOL    HW114636   2.049   2.028   7.840 -0.3026  0.0195  1.0513
 1059SOL    HW214637   2.067   2.129   7.737 -0.1791  0.1092 -0.5170
 1060SOL     OW14638   2.672   2.739   4.154 -0.1273  0.6813 -0.1666
 1060SOL    HW114639   2.642   2.689   4.078  1.1359 -1.4003  0.7194
 1060SOL    HW214640   2.737   2.795   4.111  0.2526 -1.2897 -2.1748
 1061SOL     OW14641   0.128   4.565  11.979  0.1791  0.1778  0.4271
 1061SOL    HW114642   0.118   4.660  11.986  1.3092  0.3656 -0.4194
 1061SOL    HW214643   0.141   4.552  11.885 -0.2246 -1.9996  0.6718
 1062SOL     OW14644   0.546   4.171   9.092  0.6858 -0.0489 -0.4728
 1062SOL    HW114645   0.457   4.144   9.115  0.9360 -1.1238 -0.7404
 1062SOL    HW214646   0.587   4.198   9.174  3.0651 -0.3734 -1.5393
 1063SOL     OW14647   0.711   3.277   3.534 -0.2936 -0.4561  0.0331
 1063SOL    HW114648   0.756   3.276   3.450 -1.2289  4.0134 -0.5358
 1063SOL    HW214649   0.733   3.190   3.566 -2.1332 -1.0714 -0.3746
 1064SOL     OW14650   1.847   4.663   7.651  0.0975 -0.5422  0.1858
 1064SOL    HW114651   1.883   4.664   7.740  0.4582 -1.2223  0.0486
 1064SOL    HW214652   1.925   4.670   7.596  0.4160  0.0190  0.7086
 1065SOL     OW14653   0.095   0.930   3.015 -0.5600 -0.2954  0.1680
 1065SOL    HW114654   0.021   0.899   3.067 -1.3614 -0.9825 -1.3640
 1065SOL    HW214655   0.062   0.917   2.926  1.7679 -0.8416 -0.6220
 1066SOL     OW14656   0.806   3.335  11.722 -0.4107 -0.1043  0.1795
 1066SOL    HW114657   0.851   3.276  11.783 -0.6966  0.1035  0.5891
 1066SOL    HW214658   0.861   3.411  11.705 -2.1905  1.3943  1.0908
 1067SOL     OW14659   1.665   2.451   5.392 -0.0176  0.1882 -0.0563
 1067SOL    HW114660   1.751   2.489   5.371 -0.6337  1.5407 -0.1445
 1067SOL    HW214661   1.627   2.517   5.450  1.5911  1.0117  0.0787
 1068SOL     OW14662   3.665   3.428   1.939  0.2805  0.1336  0.1285
 1068SOL    HW114663   3.626   3.404   1.855  0.5633 -0.9387  0.3040
 1068SOL    HW214664   3.659   3.522   1.920 -1.2612  0.3590  1.7811
 1069SOL     OW14665   1.549   2.035   7.506 -0.6740  0.8222  0.1494
 1069SOL    HW114666   1.527   2.118   7.462 -3.0961 -0.6984 -1.5242
 1069SOL    HW214667   1.460   2.008   7.530 -1.1265  0.0716 -2.3661
 1070SOL     OW14668   2.263   0.982  17.198  0.4654  0.3811 -0.2183
 1070SOL    HW114669   2.232   0.998  17.287  1.0845 -0.7935  0.2135
 1070SOL    HW214670   2.353   1.012  17.203  0.2608  1.0066 -0.3234
 1071SOL     OW14671   1.173   1.341   4.279  0.1333 -0.4498  0.1890
 1071SOL    HW114672   1.151   1.366   4.368 -1.9759  0.1475 -0.4830
 1071SOL    HW214673   1.162   1.424   4.233 -0.3680 -0.4394  0.3179
 1072SOL     OW14674   4.020   3.970   5.904  0.5012 -0.0426 -0.0704
 1072SOL    HW114675   4.078   4.045   5.911  0.0356  0.2404  0.8199
 1072SOL    HW214676   3.991   3.987   5.815 -0.0695 -0.3104  0.0655
 1073SOL     OW14677   1.631   2.606   4.429 -0.0047  0.2127 -0.3135
 1073SOL    HW114678   1.649   2.524   4.382  1.7279  0.4235 -0.0449
 1073SOL    HW214679   1.590   2.566   4.506 -1.3474  0.8423 -0.7069
 1074SOL     OW14680   2.612   4.166   8.453 -0.4524 -0.3107 -0.0822
 1074SOL    HW114681   2.696   4.160   8.408 -0.0907  0.6848  0.4518
 1074SOL    HW214682   2.601   4.077   8.486 -0.2490  0.4002  1.9532
 1075SOL     OW14683   4.095   3.532   4.652 -0.0684  0.0897 -0.4796
 1075SOL    HW114684   4.002   3.525   4.632 -0.3129 -1.5409  1.2315
 1075SOL    HW214685   4.091   3.591   4.728  1.9467 -0.2128 -0.1439
 1076SOL     OW14686   0.123   4.546   2.777  0.3750 -0.0747 -0.3477
 1076SOL    HW114687   0.181   4.473   2.796 -0.9881 -0.7001  1.4378
 1076SOL    HW214688   0.183   4.612   2.813  1.8687 -0.4985 -2.0769
 1077SOL     OW14689   2.496   2.943   9.969 -0.5596  0.0876  0.0061
 1077SOL    HW114690   2.574   2.916   9.921 -0.0448  1.7822 -0.1074
 1077SOL    HW214691   2.507   3.038   9.963 -3.0405  0.4043  0.4999
 1078SOL     OW14692   1.051   1.926  14.529  0.5834 -0.0601  0.2963
 1078SOL    HW114693   0.956   1.929  14.543  0.2731 -2.0070 -1.3792
 1078SOL    HW214694   1.089   1.883  14.605  1.2547 -1.6912 -0.9608
 1079SOL     OW14695   1.503   2.708   2.670 -0.1481 -0.2238  0.1805
 1079SOL    HW114696   1.407   2.708   2.680 -0.3558  0.1208 -1.9472
 1079SOL    HW214697   1.526   2.711   2.763  0.7452  2.0287 -0.1109
 1080SOL     OW14698   1.861   0.817  14.373 -0.2609  0.6270 -0.3801
 1080SOL    HW114699   1.832   0.887  14.314 -0.5059 -0.0715 -1.0857
 1080SOL    HW214700   1.902   0.760  14.308 -2.5516 -2.6261  1.0571
 1081SOL     OW14701   4.710   1.434   0.057  0.0186  0.3775 -0.1998
 1081SOL    HW114702   0.008   1.490  17.689 -1.6601  2.5866  0.8808
 1081SOL    HW214703   0.041   1.467   0.127  0.7200  0.1499 -0.6704
 1082SOL     OW14704   1.609   0.739   9.806 -0.0450 -0.1520 -0.3759
 1082SOL    HW114705   1.688   0.781   9.771 -0.0665 -0.7369 -1.1271
 1082SOL    HW214706   1.651   0.672   9.860  0.4408  0.2275 -0.2802
 1083SOL     OW14707   0.434   2.480  16.279 -0.0846  0.0651 -0.5146
 1083SOL    HW114708   0.450   2.531  16.200  1.1791 -0.4873 -0.6151
 1083SOL    HW214709   0.436   2.544  16.350  2.2394 -1.1301  0.5036
 1084SOL     OW14710   1.420   3.401   5.180 -0.3957 -0.3042  0.0450
 1084SOL    HW114711   1.429   3.401   5.085  1.3155  0.5635  0.1934
 1084SOL    HW214712   1.418   3.308   5.203  0.8803 -0.0578  1.1503
 1085SOL     OW14713   3.514   2.790  13.147  0.4808 -0.5934 -0.0878
 1085SOL    HW114714   3.525   2.885  13.145  3.7926 -0.9608  0.5512
 1085SOL    HW214715   3.604   2.764  13.125  0.5943 -1.0501  0.9163
 1086SOL     OW14716   3.353   2.722   9.937 -0.5661  0.1465 -0.1219
 1086SOL    HW114717   3.407   2.702  10.013  0.0118 -0.4705 -0.6971
 1086SOL    HW214718   3.261   2.727   9.963 -0.8098 -0.6346 -0.7961
 1087SOL     OW14719   0.586   0.797   2.147  0.4930  0.1779 -0.5711
 1087SOL    HW114720   0.568   0.704   2.132  0.1340  0.2197 -0.3983
 1087SOL    HW214721   0.647   0.793   2.221  0.9586 -3.5028 -1.1503
 1088SOL     OW14722   1.388   3.838   2.403  0.1125 -0.5454 -0.7887
 1088SOL    HW114723   1.347   3.864   2.321 -0.4010 -1.7633 -0.9084
 1088SOL    HW214724   1.479   3.860   2.386  0.6067 -2.0516 -0.0797
 1089SOL     OW14725   0.161   2.537  14.087  0.0396  0.8407 -0.1026
 1089SOL    HW114726   0.132   2.567  14.173  0.2322 -1.0634  0.6160
 1089SOL    HW214727   0.227   2.606  14.079 -0.4423  1.4954  1.5364
 1090SOL     OW14728   4.283   4.208   2.045 -0.1702 -0.6146  0.1397
 1090SOL    HW114729   4.241   4.136   1.998 -3.8716  0.8526  1.2198
 1090SOL    HW214730   4.365   4.216   1.996 -0.9598  0.9446 -0.9315
 1091SOL     OW14731   3.419   1.744   5.811 -0.0792  0.2531  0.3542
 1091SOL    HW114732   3.351   1.695   5.766 -0.3229 -0.1748  1.1931
 1091SOL    HW214733   3.409   1.718   5.902  0.1689 -0.3679  0.1996
 1092SOL     OW14734   4.259   3.323  15.400  0.3138  0.0597 -0.6160
 1092SOL    HW114735   4.166   3.335  15.382  0.2337  0.3241  0.0045
 1092SOL    HW214736   4.267   3.337  15.494 -0.1872  1.8000 -0.8344
 1093SOL     OW14737   3.353   3.773  16.210 -0.2296  0.5614 -0.2025
 1093SOL    HW114738   3.435   3.737  16.177 -0.9304  1.4772 -2.9656
 1093SOL    HW214739   3.292   3.703  16.186 -1.0640  0.7295  1.4157
 1094SOL     OW14740   2.284   2.104  17.025  0.1593 -0.8985  0.5786
 1094SOL    HW114741   2.221   2.035  17.045 -0.0372 -1.1727 -0.9788
 1094SOL    HW214742   2.349   2.099  17.095  0.3229 -0.0572  0.4925
 1095SOL     OW14743   4.023   3.203  12.104 -0.0078 -0.2771  0.3319
 1095SOL    HW114744   4.011   3.208  12.199  0.9022 -0.0700  0.4343
 1095SOL    HW214745   3.977   3.119  12.100 -2.7366  1.3181 -1.7072
 1096SOL     OW14746   4.027   4.225   9.684 -0.4964 -0.2042 -0.3116
 1096SOL    HW114747   3.961   4.236   9.753  0.3166  2.1418  0.0607
 1096SOL    HW214748   3.967   4.178   9.625 -0.6347 -1.4091  0.8003
 1097SOL     OW14749   0.765   3.129   6.773  0.1046 -0.2828  0.5329
 1097SOL    HW114750   0.813   3.131   6.691 -0.8327  1.8151  0.0190
 1097SOL    HW214751   0.724   3.043   6.765 -1.4174  0.4999 -0.2311
 1098SOL     OW14752   2.958   3.807  13.665  0.0165  0.2211  0.2491
 1098SOL    HW114753   3.013   3.770  13.596 -0.2043 -0.4288  0.4266
 1098SOL    HW214754   2.998   3.779  13.748 -3.8056 -2.1108  1.2849
 1099SOL     OW14755   4.345   2.412   6.575 -0.0728 -0.1890 -0.1760
 1099SOL    HW114756   4.355   2.320   6.548  0.6690  0.0642 -0.7563
 1099SOL    HW214757   4.438   2.418   6.599 -0.3395 -1.0912  1.1276
 1100SOL     OW14758   3.089   1.084   8.521 -0.5640 -0.5915 -0.3088
 1100SOL    HW114759   3.152   1.014   8.505 -0.4345 -0.2804 -1.1914
 1100SOL    HW214760   3.043   1.061   8.602 -1.0216  0.4613 -0.2637
 1101SOL     OW14761   0.120   3.868   2.299 -0.2919  0.3005  0.2087
 1101SOL    HW114762   0.037   3.901   2.333 -1.3403 -1.6944 -0.3991
 1101SOL    HW214763   0.094   3.783   2.264  0.6421  0.3466 -0.6030
 1102SOL     OW14764   2.409   3.629   5.605 -0.1046 -0.4486  0.7994
 1102SOL    HW114765   2.499   3.627   5.571  0.1920 -0.2104  1.5771
 1102SOL    HW214766   2.357   3.589   5.535  1.5471 -2.4264  0.6743
 1103SOL     OW14767   1.662   3.711   3.555 -0.3182 -0.2730  0.0382
 1103SOL    HW114768   1.714   3.788   3.531 -1.1988  0.2076 -0.3339
 1103SOL    HW214769   1.614   3.741   3.632 -0.3655 -0.5624  0.1199
 1104SOL     OW14770   1.708   2.769   9.495  0.0664 -0.2325 -0.2350
 1104SOL    HW114771   1.803   2.779   9.488 -0.1014  0.7449 -1.0942
 1104SOL    HW214772   1.697   2.803   9.584 -0.5876 -1.7337  0.2499
 1105SOL     OW14773   0.664   4.612   9.099  0.0870 -0.4135 -0.2255
 1105SOL    HW114774   0.654   4.705   9.078  1.6235 -0.4737 -1.1536
 1105SOL    HW214775   0.576   4.573   9.097  0.0322 -0.3263  0.4405
 1106SOL     OW14776   0.871   3.432   8.024 -0.4526  0.5928  0.6661
 1106SOL    HW114777   0.925   3.431   8.103  1.3301  1.9362 -0.5227
 1106SOL    HW214778   0.818   3.511   8.028  2.6291  2.7361 -0.9939
 1107SOL     OW14779   4.360   3.245   5.102  1.0493 -0.3132  0.6323
 1107SOL    HW114780   4.374   3.283   5.189  1.7157 -1.4936  1.0446
 1107SOL    HW214781   4.401   3.160   5.116  0.7074 -0.5134  0.4189
 1108SOL     OW14782   3.388   2.447  13.752  0.2466  0.2396 -0.7357
 1108SOL    HW114783   3.404   2.370  13.808  0.0344 -0.5262 -1.7244
 1108SOL    HW214784   3.294   2.461  13.763  0.3733  0.7550 -0.3184
 1109SOL     OW14785   2.804   2.611  16.619 -0.1417  0.3401  0.3874
 1109SOL    HW114786   2.774   2.687  16.569 -0.9695 -0.0339  0.3101
 1109SOL    HW214787   2.878   2.583  16.566 -0.1689  0.0558  0.4956
 1110SOL     OW14788   4.249   1.366   4.332 -0.1415 -0.3677 -0.2314
 1110SOL    HW114789   4.218   1.351   4.243  0.3689  0.2137 -0.5033
 1110SOL    HW214790   4.174   1.322   4.374 -0.7138  1.5318  0.7377
 1111SOL     OW14791   4.124   0.473   9.139  0.1008  0.2582  0.3608
 1111SOL    HW114792   4.088   0.445   9.055  2.3530  0.3454 -0.6531
 1111SOL    HW214793   4.216   0.457   9.115  0.2989 -0.5436  1.6610
 1112SOL     OW14794   0.302   1.340   7.748  0.8319 -0.2282  0.1943
 1112SOL    HW114795   0.396   1.336   7.734  0.8725  2.9374 -0.4400
 1112SOL    HW214796   0.290   1.432   7.725  0.5891  0.0049  1.2481
 1113SOL     OW14797   3.077   2.986   2.526 -0.0215 -0.0911 -0.3912
 1113SOL    HW114798   3.045   2.896   2.536  2.4166 -0.8140  1.0662
 1113SOL    HW214799   3.134   2.992   2.603 -0.8702 -0.8460  0.2954
 1114SOL     OW14800   1.067   1.270  10.051  0.5744  0.1372  0.4599
 1114SOL    HW114801   1.112   1.344  10.092 -1.5008  0.8347  1.4782
 1114SOL    HW214802   1.098   1.278   9.961  0.1204 -2.8547  0.0233
 1115SOL     OW14803   1.481   3.418   1.763 -0.0143  0.0592  0.3458
 1115SOL    HW114804   1.520   3.330   1.769 -2.7143 -1.0915  1.2892
 1115SOL    HW214805   1.453   3.437   1.853  1.3881 -0.7245  0.9493
 1116SOL     OW14806   0.167   4.492   8.822 -0.0103 -0.0159 -0.0686
 1116SOL    HW114807   0.199   4.575   8.856 -0.3455  0.5585 -1.1815
 1116SOL    HW214808   0.127   4.521   8.740 -1.4114 -0.3061  0.5121
 1117SOL     OW14809   2.532   2.389   6.165 -0.2151  0.4020 -0.0935
 1117SOL    HW114810   2.623   2.416   6.177  0.1435 -0.4442 -0.8841
 1117SOL    HW214811   2.501   2.444   6.093  0.3865  0.6591 -0.1635
 1118SOL     OW14812   2.463   1.444   7.203 -0.5091 -0.0425  0.0659
 1118SOL    HW114813   2.527   1.422   7.271  0.0441  1.6677  0.0828
 1118SOL    HW214814   2.477   1.537   7.185  1.6986  0.0494  2.2508
 1119SOL     OW14815   3.638   3.539   5.840 -0.2502  0.0864  0.0167
 1119SOL    HW114816   3.586   3.486   5.780 -0.2727  2.5781 -2.1731
 1119SOL    HW214817   3.627   3.627   5.802 -0.5933  0.2904  0.5838
 1120SOL     OW14818   0.158   1.836   3.449  0.0986 -0.0433  0.7142
 1120SOL    HW114819   0.238   1.797   3.483  0.7017 -0.0528 -0.6956
 1120SOL    HW214820   0.183   1.838   3.357 -2.3735  1.0870  0.0615
 1121SOL     OW14821   0.775   1.779   1.832  0.4182  0.3685  0.5877
 1121SOL    HW114822   0.777   1.846   1.764 -1.2436 -1.2176 -1.0256
 1121SOL    HW214823   0.851   1.726   1.807 -1.8533 -1.8361 -1.6448
 1122SOL     OW14824   4.200   1.319   2.701  1.1613 -0.3538  0.3412
 1122SOL    HW114825   4.111   1.290   2.679  1.5205 -0.5246 -0.8867
 1122SOL    HW214826   4.189   1.360   2.787  0.6507 -2.6113  1.3404
 1123SOL     OW14827   2.178   0.393   5.297 -0.1335 -0.0859 -0.6067
 1123SOL    HW114828   2.197   0.309   5.254 -0.7416 -0.3542 -0.3567
 1123SOL    HW214829   2.137   0.444   5.227 -0.0158 -0.3252 -0.8496
 1124SOL     OW14830   0.051   1.857  14.157  0.0416 -0.5887 -0.1342
 1124SOL    HW114831   4.711   1.794  14.183 -1.4667  1.3862  0.8148
 1124SOL    HW214832   0.029   1.923  14.223  0.3304  0.8936 -1.5143
 1125SOL     OW14833   3.822   1.704  11.054 -0.4712 -0.1232 -0.3141
 1125SOL    HW114834   3.770   1.645  11.000 -0.3924  0.1778 -0.7218
 1125SOL    HW214835   3.820   1.654  11.135 -2.6126  0.3093 -0.1081
 1126SOL     OW14836   1.318   2.597  13.162  0.3909 -0.1977  0.0230
 1126SOL    HW114837   1.366   2.589  13.079  1.7083  0.5813  0.7151
 1126SOL    HW214838   1.372   2.651  13.220 -0.0257  0.3115 -0.0630
 1127SOL     OW14839   2.990   0.948   5.128  0.3019  0.0827  0.4171
 1127SOL    HW114840   2.959   0.910   5.045  0.7091 -0.6280  0.5914
 1127SOL    HW214841   3.058   1.007   5.095  1.4867 -1.2015  0.5771
 1128SOL     OW14842   0.069   1.601  16.086  0.6389 -0.5504  0.2120
 1128SOL    HW114843   0.070   1.523  16.031 -0.1759 -0.6130  0.2928
 1128SOL    HW214844   4.723   1.655  16.053  0.7799 -0.3384  0.2491
 1129SOL     OW14845   2.516   0.971   2.813  0.7344  0.0710  0.1966
 1129SOL    HW114846   2.583   1.039   2.813  0.2730  0.5250  0.9450
 1129SOL    HW214847   2.561   0.918   2.879  0.4939 -0.4820 -0.0804
 1130SOL     OW14848   1.350   3.187   3.054 -0.0250  1.0634  0.0501
 1130SOL    HW114849   1.434   3.199   3.098  1.3409  0.3021 -2.3662
 1130SOL    HW214850   1.371   3.159   2.965 -1.1265  1.4994 -0.3494
 1131SOL     OW14851   3.268   2.675  11.748 -0.5027  0.0939 -0.6812
 1131SOL    HW114852   3.318   2.743  11.793 -2.3052  0.2028  1.1012
 1131SOL    HW214853   3.294   2.696  11.658 -0.5542  0.1589 -0.6806
 1132SOL     OW14854   1.118   0.205  13.162 -0.5505 -0.4863  0.1400
 1132SOL    HW114855   1.132   0.277  13.224  0.0555 -1.8592  1.6126
 1132SOL    HW214856   1.123   0.136  13.229  1.9701 -0.7052 -0.3014
 1133SOL     OW14857   1.931   4.356  14.557 -0.1871  0.3748 -0.3474
 1133SOL    HW114858   1.953   4.330  14.647 -0.7941  0.9853 -0.0225
 1133SOL    HW214859   1.979   4.438  14.544  1.0476 -0.4404 -0.9339
 1134SOL     OW14860   2.833   4.483   4.943  0.1919  0.7185  0.2636
 1134SOL    HW114861   2.818   4.560   4.998 -1.4076 -0.6660  1.7611
 1134SOL    HW214862   2.756   4.478   4.887 -0.8711  1.5999  1.6598
 1135SOL     OW14863   4.179   0.729   4.669  0.8351 -0.0000  0.1635
 1135SOL    HW114864   4.171   0.821   4.697  1.8733 -0.4020  1.7884
 1135SOL    HW214865   4.253   0.737   4.608 -0.3846  2.2630 -1.0271
 1136SOL     OW14866   1.744   4.188  11.427  0.4535 -0.5584 -0.1651
 1136SOL    HW114867   1.811   4.194  11.495  0.8387  0.9177 -0.6732
 1136SOL    HW214868   1.707   4.105  11.458  0.9511  0.3445  2.8144
 1137SOL     OW14869   4.491   2.983   5.131 -0.6210 -0.3648 -0.1863
 1137SOL    HW114870   4.511   2.900   5.175  0.1467  0.0560  0.2548
 1137SOL    HW214871   4.574   3.017   5.098 -1.9771  0.2037 -3.0498
 1138SOL     OW14872   1.185   1.210   2.832 -0.1001  0.2938  0.0886
 1138SOL    HW114873   1.240   1.234   2.758  1.9510  0.0156  1.5308
 1138SOL    HW214874   1.112   1.189   2.774  0.0323  0.6305 -0.1977
 1139SOL     OW14875   4.157   2.857   3.309 -0.0654 -0.0362  0.8048
 1139SOL    HW114876   4.158   2.899   3.395 -1.3327  2.0330 -0.1998
 1139SOL    HW214877   4.250   2.846   3.289 -0.2144 -1.1449  0.7231
 1140SOL     OW14878   1.003   3.943   2.340  0.4873  0.1566  0.7277
 1140SOL    HW114879   1.097   3.953   2.327  0.9109 -1.3975  2.7646
 1140SOL    HW214880   0.970   4.026   2.304  1.5146  0.8107  1.2866
 1141SOL     OW14881   0.112   0.392  15.477 -0.0764  0.4565 -0.1074
 1141SOL    HW114882   0.158   0.462  15.430 -1.6517  1.3878 -0.2427
 1141SOL    HW214883   0.094   0.337  15.401  0.0527  0.7762 -0.3699
 1142SOL     OW14884   4.465   3.664  16.749  0.1453 -0.1323  0.3612
 1142SOL    HW114885   4.483   3.730  16.815 -1.8103  0.2547  0.5168
 1142SOL    HW214886   4.411   3.599  16.795  0.8760 -1.1831 -0.2516
 1143SOL     OW14887   1.463   1.139   6.931  0.5632 -0.0128 -0.2399
 1143SOL    HW114888   1.486   1.132   6.839  0.7190  1.6914 -0.3348
 1143SOL    HW214889   1.546   1.176   6.963  1.0157 -1.9002  0.8084
 1144SOL     OW14890   1.738   3.433   7.905  0.0991 -0.0496  0.1327
 1144SOL    HW114891   1.723   3.368   7.973 -0.3704  1.1204  1.1403
 1144SOL    HW214892   1.803   3.491   7.946 -1.7299  3.2455 -1.6319
 1145SOL     OW14893   4.250   0.706   3.133  0.0348  0.3965  0.2606
 1145SOL    HW114894   4.256   0.673   3.223 -0.9129  1.3304  0.6608
 1145SOL    HW214895   4.247   0.799   3.154  0.3745  0.7156 -1.0966
 1146SOL     OW14896   2.340   3.305   7.752 -0.3530 -0.7063 -0.3907
 1146SOL    HW114897   2.404   3.251   7.706 -0.0950  0.3372 -1.2694
 1146SOL    HW214898   2.342   3.389   7.705  1.3168 -0.2520  0.5202
 1147SOL     OW14899   2.983   4.332  15.442  0.7247 -0.0165  0.2970
 1147SOL    HW114900   3.043   4.374  15.380 -0.5971 -0.2229 -1.1190
 1147SOL    HW214901   3.041   4.287  15.504  0.6370 -1.4445 -0.6669
 1148SOL     OW14902   1.124   0.717   3.508 -0.0455 -0.3923 -0.1462
 1148SOL    HW114903   1.118   0.787   3.443  0.0939  1.5492  1.9185
 1148SOL    HW214904   1.197   0.671   3.467  0.8203  1.2424 -0.4399
 1149SOL     OW14905   2.072   0.464   8.882  0.3052 -0.9523  0.4238
 1149SOL    HW114906   2.029   0.379   8.890  1.2531 -1.3863  0.9041
 1149SOL    HW214907   2.055   0.498   8.970  2.4348  1.7312 -0.2089
 1150SOL     OW14908   1.014   2.388   1.097  0.6361  0.4339 -0.0070
 1150SOL    HW114909   0.968   2.344   1.026 -3.0941 -1.8745  3.8472
 1150SOL    HW214910   1.106   2.383   1.070  0.0417 -0.1768 -1.8938
 1151SOL     OW14911   1.802   3.378  16.853  0.3756  0.7544 -0.1460
 1151SOL    HW114912   1.849   3.363  16.771 -0.2408  1.1645 -0.5682
 1151SOL    HW214913   1.787   3.472  16.848 -0.9247  0.6025  0.9661
 1152SOL     OW14914   3.140   3.252   6.189  0.1464 -0.3061 -0.4162
 1152SOL    HW114915   3.059   3.236   6.142 -1.2244  2.3359  1.0963
 1152SOL    HW214916   3.165   3.159   6.195 -2.1918 -0.8539  0.9263
 1153SOL     OW14917   4.598   0.518  14.996  0.6175  0.2048 -0.3889
 1153SOL    HW114918   4.629   0.515  15.087  0.1602  0.2254 -0.2349
 1153SOL    HW214919   4.659   0.457  14.953  2.4614  1.7512  0.0129
 1154SOL     OW14920   1.578   1.996  12.104  0.3081 -0.0020 -0.0576
 1154SOL    HW114921   1.614   1.965  12.188  0.4355 -0.0700 -0.1364
 1154SOL    HW214922   1.643   2.058  12.072 -0.3825  2.1508  2.6964
 1155SOL     OW14923   2.848   1.663   2.150  0.4068 -0.2293 -0.1584
 1155SOL    HW114924   2.890   1.688   2.068 -1.1520  1.5829 -0.4261
 1155SOL    HW214925   2.790   1.737   2.168  1.8390  0.6519  0.8331
 1156SOL     OW14926   2.318   3.335  14.212 -1.1112  0.1358  0.0264
 1156SOL    HW114927   2.335   3.248  14.174 -1.7090 -0.8581  2.0524
 1156SOL    HW214928   2.403   3.371  14.235 -1.0300 -0.1360  0.1570
 1157SOL     OW14929   3.784   0.763   2.831  0.0585 -0.7581 -0.5004
 1157SOL    HW114930   3.812   0.854   2.824 -0.8818 -0.4115  0.1695
 1157SOL    HW214931   3.834   0.731   2.756 -0.0180  1.6350 -1.5735
 1158SOL     OW14932   1.475   1.478  17.608 -0.3079  0.0776  0.1936
 1158SOL    HW114933   1.464   1.413  17.538  0.8829 -0.1672  0.2196
 1158SOL    HW214934   1.409   1.543  17.587  1.1574  2.1191  1.9390
 1159SOL     OW14935   0.595   0.479   4.850  0.0418  0.2898 -0.5353
 1159SOL    HW114936   0.571   0.525   4.769 -0.6592  0.5081 -0.2043
 1159SOL    HW214937   0.514   0.485   4.900 -0.2888  1.4134 -1.1814
 1160SOL     OW14938   0.067   4.321   6.739 -0.5548  0.4522 -0.2441
 1160SOL    HW114939   0.141   4.380   6.731  0.7180 -0.6108  3.8647
 1160SOL    HW214940   0.092   4.271   6.817 -1.7730 -0.7978 -0.6375
 1161SOL     OW14941   3.880   2.675  15.643 -0.2163 -0.1201  0.0990
 1161SOL    HW114942   3.881   2.581  15.627 -1.6415 -0.4722  2.1471
 1161SOL    HW214943   3.825   2.689  15.720 -0.6526 -0.9976 -0.0588
 1162SOL     OW14944   2.950   3.716   5.397 -0.4571 -0.6263 -0.5577
 1162SOL    HW114945   3.004   3.728   5.475 -1.0662  1.0753 -0.3829
 1162SOL    HW214946   2.884   3.784   5.412 -0.9834 -1.2040 -0.2446
 1163SOL     OW14947   2.162   2.367   2.799 -0.4258 -0.3456  0.0966
 1163SOL    HW114948   2.252   2.399   2.809 -1.5845  2.6290  1.0355
 1163SOL    HW214949   2.117   2.385   2.882 -1.6354 -0.8589 -0.4485
 1164SOL     OW14950   4.719   2.499  15.165  0.5197 -0.3692 -0.1578
 1164SOL    HW114951   0.039   2.503  15.081  1.8055 -1.5794  0.5015
 1164SOL    HW214952   4.638   2.456  15.136  1.0904 -0.8695 -1.0044
 1165SOL     OW14953   3.203   0.518   9.102  0.4900 -0.2662  0.0887
 1165SOL    HW114954   3.141   0.454   9.137 -0.0537 -1.1458 -2.4352
 1165SOL    HW214955   3.292   0.482   9.106  0.5342 -0.0425  1.1217
 1166SOL     OW14956   0.522   2.514   9.908 -0.0525 -0.2084  0.3135
 1166SOL    HW114957   0.487   2.501   9.820  0.1849  0.1348  0.1677
 1166SOL    HW214958   0.559   2.600   9.886 -0.9562 -0.2728 -1.4393
 1167SOL     OW14959   4.610   4.322   9.581  0.1290  0.1396  0.1428
 1167SOL    HW114960   4.518   4.342   9.600  0.5733  3.0907 -0.8154
 1167SOL    HW214961   4.637   4.306   9.671 -0.3916 -1.8341 -0.0489
 1168SOL     OW14962   0.158   1.020  12.172  0.0061  0.4218  0.0953
 1168SOL    HW114963   0.169   0.948  12.109  0.9472 -1.4419  2.3701
 1168SOL    HW214964   0.063   1.021  12.186 -0.4074  0.5635 -2.7669
 1169SOL     OW14965   2.933   1.770   5.355 -0.1749  0.4456  0.0299
 1169SOL    HW114966   3.013   1.732   5.320 -0.4690 -0.3767  0.2501
 1169SOL    HW214967   2.873   1.728   5.294  0.9941 -3.2771  1.4425
 1170SOL     OW14968   0.949   1.570  12.101 -0.2330  0.1070  0.1659
 1170SOL    HW114969   0.871   1.516  12.109 -1.7806  2.1576 -1.1302
 1170SOL    HW214970   1.009   1.512  12.053  0.5361  0.3100  0.8946
 1171SOL     OW14971   1.004   4.623   1.376 -0.4921 -0.3433 -0.2328
 1171SOL    HW114972   1.006   4.635   1.470 -1.3002 -1.5469 -0.0649
 1171SOL    HW214973   0.974   4.711   1.353 -0.9560 -0.0930  1.3855
 1172SOL     OW14974   3.395   0.051   7.656  0.0530  0.3661 -0.2187
 1172SOL    HW114975   3.375   0.081   7.745 -0.9323 -2.6812  0.5656
 1172SOL    HW214976   3.367   4.686   7.662 -0.2239  0.3197 -2.3507
 1173SOL     OW14977   2.646   0.683   6.173 -0.6408 -0.2978  0.4449
 1173SOL    HW114978   2.603   0.697   6.258  1.1797  1.0760  1.1504
 1173SOL    HW214979   2.685   0.770   6.166  2.4923 -1.6734  0.9725
 1174SOL     OW14980   0.577   2.228   1.673 -0.2411  0.1864 -0.1837
 1174SOL    HW114981   0.607   2.249   1.584  1.7188  0.6246  0.5659
 1174SOL    HW214982   0.519   2.158   1.645 -1.0062  0.4428  0.7677
 1175SOL     OW14983   0.752   4.083   3.750  0.7875 -0.1410  0.0763
 1175SOL    HW114984   0.832   4.090   3.697  1.7636 -1.0035  1.4466
 1175SOL    HW214985   0.785   4.084   3.839 -0.1261 -2.5805  0.4609
 1176SOL     OW14986   4.374   1.566   2.980 -0.3279 -0.4321 -0.6513
 1176SOL    HW114987   4.308   1.500   2.961 -1.1674  0.5731 -1.2094
 1176SOL    HW214988   4.450   1.509   2.994  1.0111  1.4577 -0.2077
 1177SOL     OW14989   4.714   4.416   7.059 -0.4511 -0.5360  0.1743
 1177SOL    HW114990   0.054   4.473   7.097 -1.6390  0.9912 -0.0795
 1177SOL    HW214991   0.043   4.338   7.047  0.8562  0.4844 -0.3886
 1178SOL     OW14992   3.620   0.163   4.234 -0.2643 -0.2537  0.0050
 1178SOL    HW114993   3.567   0.154   4.154  1.3000  0.2295 -1.0955
 1178SOL    HW214994   3.558   0.104   4.277 -1.4803  2.4159  1.9292
 1179SOL     OW14995   0.015   0.642   1.623  0.0749 -0.1042  0.2823
 1179SOL    HW114996   4.721   0.609   1.535 -0.9312 -0.7572  0.7560
 1179SOL    HW214997   0.086   0.700   1.594  2.5807 -2.7447  1.1128
 1180SOL     OW14998   4.708   3.158   7.537 -0.0366 -0.3819 -0.4694
 1180SOL    HW114999   0.054   3.139   7.598 -0.4606 -1.7096 -0.3787
 1180SOL    HW215000   4.636   3.170   7.599  0.8645  1.3301  0.2637
 1181SOL     OW15001   2.347   4.049   6.585 -0.1275 -0.2954  0.3126
 1181SOL    HW115002   2.254   4.073   6.587 -0.6950 -2.3118 -1.7216
 1181SOL    HW215003   2.382   4.108   6.518  0.4646 -0.9886  0.0027
 1182SOL     OW15004   0.411   4.441   9.176  0.2017 -0.1388 -0.3906
 1182SOL    HW115005   0.382   4.366   9.227 -0.4488  1.3682  1.4560
 1182SOL    HW215006   0.324   4.482   9.172  0.1875 -0.1417 -0.0738
 1183SOL     OW15007   3.203   4.189  17.125  0.6739 -0.6123 -0.2566
 1183SOL    HW115008   3.128   4.215  17.179  0.3106  0.4684 -1.2860
 1183SOL    HW215009   3.286   4.210  17.169  1.1164 -3.2350  0.1567
 1184SOL     OW15010   0.645   4.586   5.616  0.3525 -0.3003  0.0058
 1184SOL    HW115011   0.735   4.584   5.649 -0.2054 -0.6909  1.4771
 1184SOL    HW215012   0.629   4.678   5.638  0.4917 -0.3552  0.3331
 1185SOL     OW15013   3.215   1.219   7.472 -0.1878 -0.1173 -0.1224
 1185SOL    HW115014   3.271   1.151   7.510  1.4042  2.3239  1.8340
 1185SOL    HW215015   3.279   1.277   7.432 -0.7576  1.1706  0.8633
 1186SOL     OW15016   3.254   2.460   8.109 -0.6425 -0.4869  0.2216
 1186SOL    HW115017   3.217   2.441   8.023 -1.7541  2.6670 -0.0213
 1186SOL    HW215018   3.285   2.372   8.128 -0.6938 -0.1247  1.9993
 1187SOL     OW15019   4.406   1.428  17.308  0.0199  0.3630 -0.2263
 1187SOL    HW115020   4.369   1.340  17.297 -0.2269  0.3644  0.6537
 1187SOL    HW215021   4.349   1.456  17.379  0.9792  0.1254  0.6380
 1188SOL     OW15022   1.884   3.301   2.183  0.3352 -0.0217 -0.2031
 1188SOL    HW115023   1.892   3.393   2.209 -1.6812  0.1178 -0.1376
 1188SOL    HW215024   1.792   3.290   2.205  0.2897 -0.0215 -0.4004
 1189SOL     OW15025   0.378   1.849   8.224 -0.1301  0.4202 -0.6590
 1189SOL    HW115026   0.464   1.818   8.252 -0.4582  1.3293  1.3997
 1189SOL    HW215027   0.393   1.940   8.200 -1.1184  1.0888  1.1974
 1190SOL     OW15028   4.506   1.634   2.553 -0.4421 -0.3619  0.0581
 1190SOL    HW115029   4.474   1.642   2.463 -0.9320  1.6297  0.4259
 1190SOL    HW215030   4.426   1.673   2.589  0.5994  1.5091  0.3253
 1191SOL     OW15031   1.845   2.837   2.874 -0.5986 -0.6268  0.3920
 1191SOL    HW115032   1.839   2.807   2.784  1.2564 -1.1342  0.4502
 1191SOL    HW215033   1.881   2.924   2.859  1.1116 -1.4444 -0.2584
 1192SOL     OW15034   1.045   3.892   3.929  0.0538 -0.8788  0.1006
 1192SOL    HW115035   1.028   3.802   3.955 -0.3609 -0.2155  2.0888
 1192SOL    HW215036   1.081   3.869   3.843 -1.3370 -0.5603 -0.5661
 1193SOL     OW15037   0.482   2.302   5.532 -0.3381 -0.3553  0.4193
 1193SOL    HW115038   0.405   2.263   5.492  0.0893 -0.0414 -0.7274
 1193SOL    HW215039   0.541   2.228   5.545 -0.8451 -0.7632  0.3805
 1194SOL     OW15040   4.595   0.414  17.170  0.1405 -0.5426  0.8879
 1194SOL    HW115041   4.606   0.320  17.180 -0.8186 -0.8891 -1.3279
 1194SOL    HW215042   4.499   0.417  17.175  0.0169 -1.1805 -1.1862
 1195SOL     OW15043   0.325   2.372   2.178  0.5768 -0.7471 -0.2555
 1195SOL    HW115044   0.287   2.362   2.090  0.0998 -2.4117  0.1453
 1195SOL    HW215045   0.388   2.439   2.150 -1.1334  1.0307  0.1814
 1196SOL     OW15046   1.762   2.058   9.992  0.1470  0.3293 -0.0203
 1196SOL    HW115047   1.682   2.011   9.970 -0.7195  1.6665  0.2734
 1196SOL    HW215048   1.773   2.110   9.912 -1.6003  1.1636  0.2821
 1197SOL     OW15049   2.758   1.789   7.794 -0.6884 -0.0457  0.6898
 1197SOL    HW115050   2.741   1.796   7.700 -0.7811 -2.4142  0.5360
 1197SOL    HW215051   2.695   1.721   7.816 -1.1327  0.2093  0.2345
 1198SOL     OW15052   0.310   4.274   9.562  0.2606 -0.1486  0.2445
 1198SOL    HW115053   0.269   4.320   9.635 -1.0989 -2.9875  1.2685
 1198SOL    HW215054   0.374   4.220   9.606  0.3286 -3.1738 -3.5598
 1199SOL     OW15055   0.412   4.059   7.538  0.3782  0.0890 -0.2792
 1199SOL    HW115056   0.417   4.037   7.445  0.8643  1.9436 -0.6976
 1199SOL    HW215057   0.352   4.133   7.539  1.0902  0.6907 -2.0577
 1200SOL     OW15058   2.235   1.251   2.619 -0.2523 -0.0359  0.0028
 1200SOL    HW115059   2.281   1.304   2.684  0.8746 -1.6047  0.4943
 1200SOL    HW215060   2.305   1.196   2.583  0.9545  1.8117 -0.4763
 1201SOL     OW15061   3.768   1.481   2.844  0.0440 -0.0703  0.4054
 1201SOL    HW115062   3.738   1.413   2.904 -0.2245 -0.5880 -0.3135
 1201SOL    HW215063   3.692   1.481   2.787  0.6086 -0.3746 -0.3423
 1202SOL     OW15064   1.209   3.804   1.965  0.2457 -0.2135  0.5533
 1202SOL    HW115065   1.295   3.762   1.962  0.3317  0.1282 -2.1681
 1202SOL    HW215066   1.161   3.755   1.897 -1.6290  2.4697 -0.0320
 1203SOL     OW15067   3.202   0.134   3.842 -0.2318 -0.1059  0.4735
 1203SOL    HW115068   3.117   0.152   3.801  0.7575  0.6935 -1.2121
 1203SOL    HW215069   3.241   0.064   3.790  1.6497  1.4462 -0.2370
 1204SOL     OW15070   0.471   3.402   2.538  0.3553  0.0984  0.0201
 1204SOL    HW115071   0.401   3.465   2.524  2.5031  2.6745  1.0349
 1204SOL    HW215072   0.532   3.432   2.470 -2.7682  0.0442 -2.8130
 1205SOL     OW15073   2.163   2.120   3.019 -0.1056  0.0587  0.5787
 1205SOL    HW115074   2.220   2.058   3.063 -0.4290 -0.4217  0.3163
 1205SOL    HW215075   2.147   2.201   3.068 -1.4450 -0.8054  1.5519
 1206SOL     OW15076   2.331   2.584   3.481  0.0505  0.2761 -0.4012
 1206SOL    HW115077   2.343   2.595   3.575 -5.1387  0.6535  0.2106
 1206SOL    HW215078   2.393   2.514   3.461 -0.0896  0.1738 -0.4816
 1207SOL     OW15079   3.484   4.360   8.165  0.3313  0.4528 -0.1958
 1207SOL    HW115080   3.398   4.384   8.129  1.7235  4.8904 -0.5285
 1207SOL    HW215081   3.519   4.306   8.094  1.2048  1.6807 -0.7064
 1208SOL     OW15082   4.634   2.213   6.808  0.5845  0.0656 -0.2965
 1208SOL    HW115083   4.630   2.298   6.851  1.2815  0.8410 -1.7695
 1208SOL    HW215084   4.644   2.234   6.715 -0.0489  0.1172 -0.3554
 1209SOL     OW15085   0.636   2.188   8.034 -0.4428 -0.3278  0.0066
 1209SOL    HW115086   0.590   2.143   7.963  1.5326  0.0934 -1.5368
 1209SOL    HW215087   0.671   2.112   8.080 -0.1862 -0.2921 -0.1270
 1210SOL     OW15088   0.207   2.883   7.330 -0.1320 -0.5774  0.3675
 1210SOL    HW115089   0.193   2.936   7.251 -1.0475 -0.3548  0.6758
 1210SOL    HW215090   0.265   2.820   7.287 -0.4948 -0.1729 -0.7213
 1211SOL     OW15091   0.225   0.442  17.150  0.7112 -0.7260  0.6680
 1211SOL    HW115092   0.172   0.492  17.212  0.1248 -0.7887  0.2252
 1211SOL    HW215093   0.294   0.398  17.199 -0.5286 -1.4687  1.7587
 1212SOL     OW15094   3.881   2.636   8.238 -0.1721 -0.6622 -0.1563
 1212SOL    HW115095   3.864   2.609   8.148  0.9865  1.6349 -1.0730
 1212SOL    HW215096   3.974   2.618   8.229 -0.2328 -0.0860 -1.9071
 1213SOL     OW15097   0.666   4.192  11.141 -0.2743  0.3985 -0.4122
 1213SOL    HW115098   0.747   4.243  11.136 -0.5399  0.9795  1.0669
 1213SOL    HW215099   0.698   4.115  11.187  0.4552 -1.0464 -3.3893
 1214SOL     OW15100   2.495   4.724  11.427  0.1493 -0.0368 -0.1082
 1214SOL    HW115101   2.538   4.645  11.460 -0.2429 -0.5077 -0.7449
 1214SOL    HW215102   2.529   4.715  11.338  0.2459 -2.3694  0.1568
 1215SOL     OW15103   0.106   4.415   9.427  0.1673  0.6318  0.1197
 1215SOL    HW115104   0.174   4.379   9.484  0.8388  0.6666 -0.6529
 1215SOL    HW215105   0.027   4.380   9.467 -1.1866  2.5335 -0.9287
 1216SOL     OW15106   2.186   4.388   6.075 -0.0372  0.1094 -0.4403
 1216SOL    HW115107   2.126   4.332   6.124 -1.8886  0.3054 -2.4950
 1216SOL    HW215108   2.247   4.318   6.051 -2.3531 -2.0864  0.0492
 1217SOL     OW15109   0.485   1.052   1.982  0.0869  0.7447 -0.4868
 1217SOL    HW115110   0.565   1.096   1.953 -0.3961  2.0146  0.0571
 1217SOL    HW215111   0.513   0.968   2.017 -2.6109  0.9399  2.1507
 1218SOL     OW15112   1.001   0.728   0.203 -0.3374  0.9307  0.5680
 1218SOL    HW115113   0.957   0.666   0.261  0.7348 -1.5075 -1.2039
 1218SOL    HW215114   0.950   0.805   0.228 -0.7099  0.7444  0.3810
 1219SOL     OW15115   4.049   2.774   2.681 -0.0092  0.2803 -0.6823
 1219SOL    HW115116   4.043   2.721   2.760 -3.8880  0.0832 -1.0929
 1219SOL    HW215117   4.120   2.732   2.632 -2.2299 -3.8804 -0.3006
 1220SOL     OW15118   2.148   4.489   8.622 -0.0565 -0.4906  0.3167
 1220SOL    HW115119   2.181   4.420   8.564 -1.8158 -0.1632 -1.0795
 1220SOL    HW215120   2.139   4.443   8.706  1.5308  0.5026  1.0343
 1221SOL     OW15121   2.100   0.883   7.070  0.7837 -0.2442  0.1333
 1221SOL    HW115122   2.149   0.965   7.080 -0.7247  0.7211 -0.3645
 1221SOL    HW215123   2.098   0.854   7.161  3.7874 -0.2859  0.1818
 1222SOL     OW15124   4.075   0.228   3.514  0.5854  0.0769 -0.0590
 1222SOL    HW115125   4.134   0.236   3.439 -0.5703  1.1446 -0.8478
 1222SOL    HW215126   3.987   0.232   3.477  0.9605 -0.5330 -1.0148
 1223SOL     OW15127   4.222   0.065   4.221 -0.1878  0.1897  0.1792
 1223SOL    HW115128   4.282   0.001   4.259 -2.6779 -2.4568 -0.3855
 1223SOL    HW215129   4.259   0.148   4.253 -0.0799  0.3818 -0.4317
 1224SOL     OW15130   1.506   4.033  12.154  0.1673  0.8191  0.2802
 1224SOL    HW115131   1.529   4.098  12.221  3.1273 -0.4347  0.4660
 1224SOL    HW215132   1.595   4.020  12.121  0.2142  0.1266  0.6894
 1225SOL     OW15133   0.777   3.691   7.013  0.2649 -0.6038  0.5057
 1225SOL    HW115134   0.751   3.764   7.069 -1.3178 -1.9486  1.5198
 1225SOL    HW215135   0.699   3.636   7.016  0.6345 -1.2281 -1.2116
 1226SOL     OW15136   1.429   2.275  15.755 -0.1310 -0.0205 -0.2390
 1226SOL    HW115137   1.515   2.238  15.776 -0.5254 -0.5536  0.4710
 1226SOL    HW215138   1.458   2.331  15.683  1.6470 -1.5560 -0.7063
 1227SOL     OW15139   4.642   4.558  11.765 -0.3149  0.1302 -0.2463
 1227SOL    HW115140   4.560   4.604  11.781 -0.2826  0.4091 -0.8688
 1227SOL    HW215141   4.636   4.477  11.815  0.3027  1.6067  2.1895
 1228SOL     OW15142   2.710   2.974   8.667 -0.3598  0.2140 -0.3754
 1228SOL    HW115143   2.757   3.041   8.715  1.0266 -1.4522  0.6094
 1228SOL    HW215144   2.781   2.937   8.614  0.5561  2.7270 -0.9047
 1229SOL     OW15145   0.598   2.344  15.693  0.0383 -0.3889  0.2603
 1229SOL    HW115146   0.601   2.396  15.612 -0.6790  0.7394  0.9627
 1229SOL    HW215147   0.519   2.386  15.727  1.6750  1.9625  1.1002
 1230SOL     OW15148   3.437   1.900  11.101  0.3507 -0.4145 -0.4157
 1230SOL    HW115149   3.517   1.928  11.058  0.0083  2.1413  0.6457
 1230SOL    HW215150   3.479   1.824  11.142 -1.3103  0.2775  2.5900
 1231SOL     OW15151   3.523   3.012   8.742 -0.0714 -0.2363  0.5797
 1231SOL    HW115152   3.601   2.979   8.787 -0.7246 -0.4892  1.5264
 1231SOL    HW215153   3.461   2.939   8.733 -0.0936 -0.4159  2.2580
 1232SOL     OW15154   2.778   2.619   3.317  0.2330 -0.5073 -0.3204
 1232SOL    HW115155   2.812   2.689   3.372 -0.5298 -0.6219  0.2986
 1232SOL    HW215156   2.857   2.566   3.305 -1.2207 -3.1470  1.7517
 1233SOL     OW15157   0.137   0.300   6.280 -0.2593  0.1385 -0.3713
 1233SOL    HW115158   0.226   0.316   6.313 -0.6233  0.5342  0.3925
 1233SOL    HW215159   0.100   0.234   6.338 -2.3032 -0.3977 -2.3021
 1234SOL     OW15160   2.875   1.542  13.118  0.3196  0.1231  0.1040
 1234SOL    HW115161   2.868   1.449  13.100  2.4972 -0.1413  0.5759
 1234SOL    HW215162   2.891   1.576  13.030  2.9647  0.1271  0.5775
 1235SOL     OW15163   2.426   0.743   1.777  0.2040 -0.1505  0.6248
 1235SOL    HW115164   2.451   0.695   1.698  1.7779  0.6402  0.6367
 1235SOL    HW215165   2.350   0.792   1.745  0.7016 -1.5079 -2.5793
 1236SOL     OW15166   2.743   4.003   5.754  0.0233  0.4419 -0.0138
 1236SOL    HW115167   2.759   4.048   5.671 -1.8884  0.0482 -0.6022
 1236SOL    HW215168   2.713   4.080   5.803  0.2271  0.0006  0.7995
 1237SOL     OW15169   3.363   2.465  12.827 -0.2955 -0.3640  0.7648
 1237SOL    HW115170   3.290   2.422  12.781  0.0022 -0.7396  0.6434
 1237SOL    HW215171   3.356   2.555  12.797 -1.8172 -0.7161  0.0539
 1238SOL     OW15172   0.341   1.756   8.724  0.3049  0.4559  0.3459
 1238SOL    HW115173   0.273   1.731   8.786  0.9612  2.2633  1.7766
 1238SOL    HW215174   0.402   1.805   8.778 -1.8425  1.6814  1.6860
 1239SOL     OW15175   1.363   3.587  14.694  0.0178  0.5504  0.1748
 1239SOL    HW115176   1.360   3.625  14.782  2.2564  0.1505  0.4222
 1239SOL    HW215177   1.306   3.641  14.640  0.5179  0.2532 -0.6541
 1240SOL     OW15178   1.591   3.892   6.816 -0.1773  0.5914 -0.6412
 1240SOL    HW115179   1.501   3.923   6.811 -0.0371  1.0503 -0.3421
 1240SOL    HW215180   1.618   3.903   6.724 -0.4547 -0.5348 -0.8523
 1241SOL     OW15181   1.907   0.256   8.946 -0.3699  0.0370  0.5420
 1241SOL    HW115182   1.832   0.290   8.994  0.5439  2.0271  0.5943
 1241SOL    HW215183   1.872   0.196   8.880  0.1812 -1.2953  1.4505
 1242SOL     OW15184   2.338   0.820  12.790 -0.0284 -0.0198  0.0769
 1242SOL    HW115185   2.308   0.909  12.772  3.1073  1.5616  2.7023
 1242SOL    HW215186   2.354   0.830  12.883 -2.2632 -1.5541  0.6236
 1243SOL     OW15187   2.001   3.748  14.820 -0.3072 -0.0631  0.3279
 1243SOL    HW115188   1.967   3.837  14.812  1.6391  0.7214  0.5604
 1243SOL    HW215189   1.937   3.685  14.786  0.9451  0.2809 -2.6814
 1244SOL     OW15190   2.645   2.818   5.224 -0.4012  0.3926  0.2814
 1244SOL    HW115191   2.720   2.877   5.222 -1.0840  1.1301 -2.4307
 1244SOL    HW215192   2.605   2.844   5.142  0.9609  0.4130 -0.3760
 1245SOL     OW15193   4.522   3.050   5.986  0.4614 -0.2002 -0.2709
 1245SOL    HW115194   4.609   3.065   6.024  0.3804 -1.0376  0.2426
 1245SOL    HW215195   4.462   3.090   6.049  1.2868  0.4075  0.1238
 1246SOL     OW15196   2.647   2.537  10.751 -0.0848  0.4494 -0.6661
 1246SOL    HW115197   2.620   2.499  10.667  0.0180  2.1862 -1.4822
 1246SOL    HW215198   2.725   2.494  10.786  0.5029  0.5223 -1.8872
 1247SOL     OW15199   2.159   4.316  10.471  0.1710 -0.1388  0.0567
 1247SOL    HW115200   2.126   4.334  10.559  0.5078  2.6464 -0.3860
 1247SOL    HW215201   2.173   4.222  10.468  0.3652 -0.2167  2.7826
 1248SOL     OW15202   1.161   0.480   6.475  0.4388  0.1987 -0.0734
 1248SOL    HW115203   1.151   0.422   6.550 -1.5177  0.4741 -0.0973
 1248SOL    HW215204   1.074   0.470   6.436 -0.3078 -0.2033  1.7080
 1249SOL     OW15205   3.652   2.062   3.921 -0.4656  0.1927  0.1084
 1249SOL    HW115206   3.723   2.041   3.981  0.2534 -0.4583 -0.9716
 1249SOL    HW215207   3.702   2.089   3.843  0.9501 -3.0196 -0.0705
 1250SOL     OW15208   0.185   2.178   6.538 -0.3398 -0.5709 -0.3455
 1250SOL    HW115209   0.130   2.241   6.585  0.2852 -0.2273 -0.0841
 1250SOL    HW215210   0.137   2.095   6.540 -0.5873 -0.4360 -0.5913
 1251SOL     OW15211   1.410   2.430  12.165 -0.7661  0.3235  0.1967
 1251SOL    HW115212   1.480   2.364  12.172 -1.0049  0.0636  0.1126
 1251SOL    HW215213   1.426   2.481  12.245  2.2202  0.0719 -0.2306
 1252SOL     OW15214   4.344   0.503   1.665  0.4225 -0.2862  0.0911
 1252SOL    HW115215   4.274   0.551   1.621  1.5116 -1.2893 -2.7224
 1252SOL    HW215216   4.403   0.480   1.592 -1.0259 -2.5692 -0.3531
 1253SOL     OW15217   2.683   3.865   3.263 -0.3184 -0.2131  0.3605
 1253SOL    HW115218   2.612   3.840   3.204 -0.2243 -0.6684  0.4398
 1253SOL    HW215219   2.685   3.786   3.317  2.1021 -1.1521 -1.0883
 1254SOL     OW15220   1.576   0.647   3.678  0.0229  0.1642  0.0599
 1254SOL    HW115221   1.609   0.707   3.612 -0.0431 -0.8888 -0.9409
 1254SOL    HW215222   1.532   0.709   3.736 -0.1659 -0.0863  0.1822
 1255SOL     OW15223   3.858   2.075   4.340  0.6979  0.2275 -0.2215
 1255SOL    HW115224   3.818   2.076   4.253  0.2947  0.0599 -0.0331
 1255SOL    HW215225   3.895   2.164   4.346 -0.1497  0.6543 -1.3034
 1256SOL     OW15226   1.522   0.247   6.015 -0.0393 -0.4839  0.4112
 1256SOL    HW115227   1.584   0.195   6.067  0.2632  0.2776  0.8063
 1256SOL    HW215228   1.445   0.250   6.071 -2.2895  1.7264 -2.8014
 1257SOL     OW15229   1.697   0.634  13.862  0.1970  0.3941 -0.4864
 1257SOL    HW115230   1.669   0.676  13.781 -0.9879  0.2418 -0.1568
 1257SOL    HW215231   1.764   0.693  13.897  0.8693 -1.3237  1.1126
 1258SOL     OW15232   4.340   4.525   8.493  0.2216 -0.6568 -0.3829
 1258SOL    HW115233   4.415   4.582   8.476  0.7207 -1.1787  0.0627
 1258SOL    HW215234   4.354   4.515   8.587 -2.7918 -3.3778 -0.2415
 1259SOL     OW15235   3.710   1.476   4.656  0.0796 -0.2960 -0.2635
 1259SOL    HW115236   3.744   1.503   4.571 -0.9269 -0.4569 -0.7150
 1259SOL    HW215237   3.639   1.417   4.632  0.3431 -0.5840 -0.3350
 1260SOL     OW15238   0.296   1.200   2.199 -0.5684 -0.1561 -0.6237
 1260SOL    HW115239   0.317   1.292   2.217 -2.8346  0.5394 -1.5333
 1260SOL    HW215240   0.381   1.161   2.176 -1.5639  0.5299 -5.5492
 1261SOL     OW15241   2.684   1.354  12.994  0.5402  0.0071 -0.4485
 1261SOL    HW115242   2.665   1.279  13.051 -1.7961  4.0262  4.0198
 1261SOL    HW215243   2.675   1.308  12.910 -0.1312 -1.5228  0.4640
 1262SOL     OW15244   2.274   0.197   2.305 -0.1903  0.3256 -0.3247
 1262SOL    HW115245   2.299   0.267   2.245  0.5384  0.2884 -0.0586
 1262SOL    HW215246   2.200   0.161   2.256  1.2253  1.3440 -3.1830
 1263SOL     OW15247   2.334   2.712   7.623  0.0680 -0.0036 -0.2048
 1263SOL    HW115248   2.335   2.647   7.551 -0.6146  0.4287 -0.6042
 1263SOL    HW215249   2.341   2.787   7.564  0.4766 -0.2640 -0.4986
 1264SOL     OW15250   1.057   2.534  14.285 -0.3721  0.2857  0.2221
 1264SOL    HW115251   1.083   2.465  14.224  1.2657  0.7771  0.3657
 1264SOL    HW215252   1.039   2.597  14.215 -0.8241 -0.2818 -0.1734
 1265SOL     OW15253   0.312   4.176  10.451  0.3952  0.1313  0.1349
 1265SOL    HW115254   0.396   4.147  10.487  0.1697 -0.6371  0.0487
 1265SOL    HW215255   0.259   4.096  10.444  1.8093 -0.8401  0.4988
 1266SOL     OW15256   2.437   2.576   5.516 -0.0900  0.4676  0.0155
 1266SOL    HW115257   2.478   2.659   5.489 -0.2297 -0.1577 -2.0727
 1266SOL    HW215258   2.509   2.536   5.564 -0.1665  1.8019  1.2627
 1267SOL     OW15259   4.675   0.669   3.813 -0.7961 -0.4760  0.5541
 1267SOL    HW115260   0.003   0.592   3.828  1.7060  0.7861 -1.9936
 1267SOL    HW215261   4.595   0.660   3.865 -0.4506 -2.1832  0.7694
 1268SOL     OW15262   0.173   0.834  10.012 -0.6771 -0.3227 -0.2890
 1268SOL    HW115263   0.250   0.885  10.038 -0.1815 -1.7764  1.1034
 1268SOL    HW215264   0.175   0.829   9.916  1.7909  3.8169 -0.4288
 1269SOL     OW15265   0.758   1.884   2.942  0.1028  0.2474  0.7380
 1269SOL    HW115266   0.818   1.878   2.868 -0.2164  1.4496  0.3810
 1269SOL    HW215267   0.701   1.956   2.914 -0.7033 -1.2390 -1.3540
 1270SOL     OW15268   4.703   0.529   8.333 -0.5414  0.5851 -0.3791
 1270SOL    HW115269   4.679   0.540   8.241 -2.9444 -1.7105 -0.0194
 1270SOL    HW215270   0.055   0.585   8.336  1.4389 -2.0804 -1.6289
 1271SOL     OW15271   1.706   3.420   7.451  0.3148  0.1663  0.6127
 1271SOL    HW115272   1.734   3.511   7.460  0.0228  0.4488 -1.3558
 1271SOL    HW215273   1.750   3.382   7.527  0.7363  1.4173  1.0068
 1272SOL     OW15274   1.837   3.573   6.330 -0.0602 -0.6710  0.0765
 1272SOL    HW115275   1.840   3.541   6.420 -1.3673  0.8005  0.6435
 1272SOL    HW215276   1.921   3.619   6.329 -1.7743  2.4267 -0.6254
 1273SOL     OW15277   1.640   3.360  12.094  0.0340  0.4081 -1.4845
 1273SOL    HW115278   1.590   3.424  12.144  0.8164  0.3502 -0.6314
 1273SOL    HW215279   1.702   3.331  12.161 -1.0811  1.1226 -0.1477
 1274SOL     OW15280   0.719   0.059   8.477 -1.3767  0.2293 -0.1594
 1274SOL    HW115281   0.720   4.690   8.482 -0.8681  0.2989  1.1489
 1274SOL    HW215282   0.665   0.083   8.552  0.6354  1.2806  0.9851
 1275SOL     OW15283   2.644   2.096   3.917 -0.1487  0.1045 -0.0263
 1275SOL    HW115284   2.729   2.133   3.890  0.6227 -1.6297  0.0419
 1275SOL    HW215285   2.678   2.036   3.983 -1.7993 -2.0788 -1.1587
 1276SOL     OW15286   1.671   3.512   9.050 -0.0232 -0.4185 -0.6794
 1276SOL    HW115287   1.658   3.556   8.966  1.0166  1.9121  0.3638
 1276SOL    HW215288   1.617   3.573   9.100  0.1359 -1.0457  0.2478
 1277SOL     OW15289   4.688   2.802  15.726  0.6098 -0.1015 -0.5205
 1277SOL    HW115290   4.684   2.898  15.723  2.7705 -0.0174 -0.4348
 1277SOL    HW215291   4.603   2.782  15.687  0.6650  0.2132 -0.8075
 1278SOL     OW15292   3.088   0.149  17.687 -0.1626  0.5143  0.1462
 1278SOL    HW115293   2.998   0.115  17.685  0.0612  0.1040 -2.2879
 1278SOL    HW215294   3.130   0.074  17.644  0.6351  1.8439 -1.3941
 1279SOL     OW15295   1.032   4.696   9.181  0.5100 -0.2972 -0.4245
 1279SOL    HW115296   0.987   0.045   9.144 -0.0994 -0.5169 -0.1386
 1279SOL    HW215297   1.120   4.708   9.147  0.8994  1.2682  1.1217
 1280SOL     OW15298   3.025   3.246   4.828  0.0456 -0.1782  0.9290
 1280SOL    HW115299   2.930   3.247   4.814  0.4746  0.7869 -1.8440
 1280SOL    HW215300   3.047   3.332   4.794 -2.6587  1.5637  3.5838
 1281SOL     OW15301   1.102   0.065   6.154 -0.1900  0.4213  1.1062
 1281SOL    HW115302   1.035   0.102   6.095  0.8654  1.3273  0.4656
 1281SOL    HW215303   1.185   0.066   6.106 -0.3702 -0.1791  0.7953
 1282SOL     OW15304   4.383   1.327   5.748 -0.0511  0.3140 -0.6241
 1282SOL    HW115305   4.372   1.330   5.653  0.4901  0.0535 -0.6977
 1282SOL    HW215306   4.347   1.410   5.780 -0.2948 -0.7237  1.7340
 1283SOL     OW15307   0.766   1.103   7.884  0.4307  0.3283 -0.1974
 1283SOL    HW115308   0.783   1.197   7.873  3.2544 -0.4220 -2.2839
 1283SOL    HW215309   0.790   1.088   7.975  2.0609  0.8606 -0.5283
 1284SOL     OW15310   1.644   1.722  13.753  0.2038 -0.3874 -0.3967
 1284SOL    HW115311   1.667   1.649  13.695  1.4574 -1.5994  1.6332
 1284SOL    HW215312   1.688   1.691  13.832 -0.1032  0.3825  0.0856
 1285SOL     OW15313   4.462   3.456   6.707  0.6563  0.0343 -0.6777
 1285SOL    HW115314   4.373   3.480   6.683  0.7638 -0.5563 -1.6536
 1285SOL    HW215315   4.458   3.440   6.802  1.3102  2.7975 -0.1780
 1286SOL     OW15316   1.245   0.152   4.397  0.1283  0.8002  0.3622
 1286SOL    HW115317   1.184   0.107   4.340  0.4417 -0.8625  1.3461
 1286SOL    HW215318   1.321   0.111   4.356  0.1860 -0.0182  1.2749
 1287SOL     OW15319   1.141   1.233   6.795 -0.2390 -0.2381 -0.3222
 1287SOL    HW115320   1.173   1.300   6.855 -0.5483 -0.9584  0.6498
 1287SOL    HW215321   1.207   1.164   6.787 -1.2662 -1.3651  0.7366
 1288SOL     OW15322   1.234   3.815   8.896 -0.4971 -0.1059 -0.0606
 1288SOL    HW115323   1.163   3.810   8.960 -0.7344  1.0644 -0.2213
 1288SOL    HW215324   1.185   3.798   8.815 -1.0250 -0.5433  0.3564
 1289SOL     OW15325   3.922   1.766   0.139 -0.2722 -0.4769  0.7075
 1289SOL    HW115326   3.836   1.804   0.123 -1.0911 -2.5888  0.0679
 1289SOL    HW215327   3.928   1.766   0.234 -1.7253 -0.3476  0.7933
 1290SOL     OW15328   2.789   1.177   5.327 -0.0285 -0.0643  0.1702
 1290SOL    HW115329   2.717   1.171   5.263  0.3711 -1.0036 -0.1917
 1290SOL    HW215330   2.860   1.129   5.283  1.3678  0.8193  1.4845
 1291SOL     OW15331   2.226   1.809  11.384  0.1566  0.0664  0.2148
 1291SOL    HW115332   2.289   1.737  11.379  3.4567  2.9167  0.6545
 1291SOL    HW215333   2.212   1.828  11.291  1.2742  0.2529  0.0768
 1292SOL     OW15334   0.258   0.949   1.182  0.3631 -0.4954 -0.8065
 1292SOL    HW115335   0.223   0.874   1.134  3.3082 -1.0025 -2.1520
 1292SOL    HW215336   0.171   0.982   1.207  0.8778  0.0217  0.3251
 1293SOL     OW15337   3.576   0.928  10.016 -0.1756 -0.0967  0.0085
 1293SOL    HW115338   3.544   0.854  10.066 -0.9185 -0.0985 -0.4789
 1293SOL    HW215339   3.659   0.890   9.986  1.1065  1.4749  1.5918
 1294SOL     OW15340   2.979   0.326   8.254  0.4314  0.1008  0.1455
 1294SOL    HW115341   2.967   0.232   8.263  2.3801  0.1741  3.5941
 1294SOL    HW215342   3.027   0.341   8.173  2.1611 -0.2533  1.0847
 1295SOL     OW15343   2.342   0.970   1.507  0.8298  0.0991 -0.3890
 1295SOL    HW115344   2.268   1.024   1.477  2.4297  2.6851  0.2781
 1295SOL    HW215345   2.308   0.905   1.567 -1.0735  0.7948 -0.6989
 1296SOL     OW15346   1.987   4.054   2.485 -0.2200 -0.5424 -0.2118
 1296SOL    HW115347   1.986   3.975   2.539  0.8164  0.6281  1.4880
 1296SOL    HW215348   1.966   4.020   2.398  1.1651 -0.1818 -0.7005
 1297SOL     OW15349   3.966   2.366   3.857  0.1853 -0.3166 -0.4383
 1297SOL    HW115350   4.053   2.401   3.840 -1.2018  2.9701 -0.6228
 1297SOL    HW215351   3.971   2.270   3.861 -0.7570 -0.3854 -1.0035
 1298SOL     OW15352   0.078   3.199   7.930  0.7084 -0.0968  0.1237
 1298SOL    HW115353   0.109   3.289   7.942  1.6588 -0.5695  1.1263
 1298SOL    HW215354   4.709   3.211   7.933  0.7484  0.3667 -0.3386
 1299SOL     OW15355   1.756   2.379   5.697  0.2334  0.0324 -0.4294
 1299SOL    HW115356   1.826   2.385   5.762  0.6008  0.0148 -0.8193
 1299SOL    HW215357   1.676   2.364   5.747 -0.1649  2.8445 -0.2559
 1300SOL     OW15358   0.329   1.862   4.694 -0.1327 -0.3824  0.1928
 1300SOL    HW115359   0.419   1.830   4.707  0.5144  0.7477 -1.5063
 1300SOL    HW215360   0.334   1.945   4.648  0.7371 -1.4473 -1.6431
 1301SOL     OW15361   3.587   2.481   7.201 -0.2071 -0.2163 -0.0369
 1301SOL    HW115362   3.545   2.429   7.132  0.3321 -1.3737  0.5038
 1301SOL    HW215363   3.679   2.470   7.175 -0.3740 -1.4342 -0.1047
 1302SOL     OW15364   1.943   0.509   8.614  0.1471 -0.0951  0.1040
 1302SOL    HW115365   1.955   0.527   8.707 -0.7214 -0.5457  0.3068
 1302SOL    HW215366   2.024   0.531   8.569 -0.7780  4.7840  0.7853
 1303SOL     OW15367   0.586   0.291   9.846 -0.0328 -0.3197  0.6362
 1303SOL    HW115368   0.553   0.371   9.886  2.2652  0.8871  0.0973
 1303SOL    HW215369   0.580   0.236   9.925  2.0411 -1.5880 -0.0967
 1304SOL     OW15370   0.401   4.359   7.837 -0.3550  0.3980 -0.3753
 1304SOL    HW115371   0.426   4.358   7.929  2.2448  2.2902 -1.0253
 1304SOL    HW215372   0.338   4.431   7.831  1.6653  2.2019 -0.1572
 1305SOL     OW15373   2.057   0.011   7.465 -0.6559 -0.4546  0.2636
 1305SOL    HW115374   2.101   4.720   7.381 -0.1779 -3.1967  1.0620
 1305SOL    HW215375   2.125   0.063   7.508  0.1616  1.3145 -3.1729
 1306SOL     OW15376   3.983   2.963   5.047 -0.1886  0.3256 -0.2047
 1306SOL    HW115377   4.024   3.042   5.012  2.4123 -1.0151 -0.2485
 1306SOL    HW215378   4.041   2.938   5.119 -0.1117 -1.0272 -0.7311
 1307SOL     OW15379   2.378   2.970   4.916  0.1619  0.3392  0.1088
 1307SOL    HW115380   2.462   2.928   4.899 -0.5278 -0.7681 -0.4977
 1307SOL    HW215381   2.405   3.020   4.994  1.3580 -0.6438  0.3266
 1308SOL     OW15382   2.451   3.811   4.565  0.7798  0.1739 -0.4379
 1308SOL    HW115383   2.501   3.866   4.505  0.6442  1.6768  0.7956
 1308SOL    HW215384   2.524   3.765   4.608 -0.1269 -0.4152  0.4703
 1309SOL     OW15385   2.220   2.266   6.691  0.2131 -0.4153 -0.6638
 1309SOL    HW115386   2.314   2.252   6.685  0.0477 -0.5401 -2.9990
 1309SOL    HW215387   2.228   2.345   6.744 -0.6433  0.4114 -1.7659
 1310SOL     OW15388   2.290   1.377  13.330 -0.3823  0.5277 -0.1620
 1310SOL    HW115389   2.323   1.393  13.418  0.1291 -1.4461  0.0196
 1310SOL    HW215390   2.344   1.433  13.276  0.6520  2.7266  3.1847
 1311SOL     OW15391   3.393   4.655   6.347  0.3816  0.2174  0.0747
 1311SOL    HW115392   3.456   4.712   6.303 -0.6357  2.4200  1.4255
 1311SOL    HW215393   3.310   4.691   6.316  0.4599 -0.1086 -0.5016
 1312SOL     OW15394   1.582   3.942  15.387  0.2824 -0.0871 -0.8712
 1312SOL    HW115395   1.645   3.971  15.321 -1.5820  1.9021 -1.7662
 1312SOL    HW215396   1.499   3.960  15.344 -0.2459 -0.0216  0.1664
 1313SOL     OW15397   0.613   4.065  12.599  0.4378  0.3224  0.2293
 1313SOL    HW115398   0.576   4.020  12.522 -1.3668  2.1229  0.0518
 1313SOL    HW215399   0.685   4.003  12.601  0.0744 -0.1777 -1.6811
 1314SOL     OW15400   2.378   0.555   9.210 -0.1256  0.9050  0.3623
 1314SOL    HW115401   2.329   0.492   9.157  0.1253  0.7392  0.3268
 1314SOL    HW215402   2.353   0.533   9.300  0.6805 -2.4003 -0.1982
 1315SOL     OW15403   0.378   2.542   2.492  0.1010  0.5129  0.8896
 1315SOL    HW115404   0.460   2.526   2.446 -0.9494  0.4693 -0.9606
 1315SOL    HW215405   0.329   2.465   2.463  0.6541 -0.5176  2.7046
 1316SOL     OW15406   1.992   1.697   9.168 -0.2427  0.4827  0.2141
 1316SOL    HW115407   1.966   1.745   9.247 -2.6342 -2.2298  1.0782
 1316SOL    HW215408   1.917   1.724   9.115  1.3397  0.1647 -2.1740
 1317SOL     OW15409   2.814   1.608   5.158 -0.1887  0.2768  0.0480
 1317SOL    HW115410   2.883   1.554   5.119 -0.4025 -0.7346  1.0797
 1317SOL    HW215411   2.775   1.642   5.078 -0.8917  1.0992  0.7398
 1318SOL     OW15412   2.242   0.637   2.396  0.7915  0.1462  0.3607
 1318SOL    HW115413   2.174   0.700   2.370 -2.7630 -3.6521  0.4467
 1318SOL    HW215414   2.254   0.589   2.315  0.4158 -0.9287  0.9401
 1319SOL     OW15415   0.064   1.897   4.621 -0.4617 -0.2002 -0.1872
 1319SOL    HW115416   0.077   1.975   4.676  0.0515 -0.3839 -0.0521
 1319SOL    HW215417   0.150   1.859   4.640 -0.0498  0.1290 -1.4062
 1320SOL     OW15418   1.773   3.820   2.318  0.5459  0.3967  0.1388
 1320SOL    HW115419   1.711   3.871   2.370  0.9822  1.0554  0.0207
 1320SOL    HW215420   1.709   3.801   2.249  0.6116  0.3818  0.0820
 1321SOL     OW15421   2.589   1.902   4.250  0.1425 -0.4400  0.2221
 1321SOL    HW115422   2.662   1.927   4.193  0.7086 -1.8054  0.3502
 1321SOL    HW215423   2.554   1.828   4.200  2.0180 -1.8521  1.0103
 1322SOL     OW15424   2.153   2.863   5.975  0.1382 -0.4557  0.1171
 1322SOL    HW115425   2.108   2.854   6.059 -1.1136 -1.2694 -0.6447
 1322SOL    HW215426   2.110   2.940   5.937  0.7310  0.9676  2.2579
 1323SOL     OW15427   1.299   1.992   5.787 -0.3710  0.3515 -0.1692
 1323SOL    HW115428   1.316   2.072   5.836  1.6392  0.0582 -0.4076
 1323SOL    HW215429   1.347   1.932   5.845  1.2318  1.4727 -0.3588
 1324SOL     OW15430   0.830   3.473   6.632  0.9115 -0.0915 -0.1301
 1324SOL    HW115431   0.787   3.455   6.549 -0.0700 -0.6829  0.4987
 1324SOL    HW215432   0.765   3.531   6.671  1.8047  1.2153 -0.6084
 1325SOL     OW15433   4.283   1.632   9.287 -0.2071 -0.1262 -0.0259
 1325SOL    HW115434   4.327   1.548   9.303 -2.0946 -0.9125  1.1214
 1325SOL    HW215435   4.195   1.602   9.264  0.3702 -2.2181  0.4175
 1326SOL     OW15436   0.976   4.667   7.676  0.0543  0.0595  0.1548
 1326SOL    HW115437   1.069   4.686   7.668  0.4157 -1.3757  0.9133
 1326SOL    HW215438   0.964   4.705   7.763  2.0103  0.2463  0.3324
 1327SOL     OW15439   2.211   0.122  17.231  0.5973 -0.0382 -0.3678
 1327SOL    HW115440   2.200   0.172  17.312  0.6243  0.8436 -0.9037
 1327SOL    HW215441   2.228   0.039  17.275 -2.2921 -0.0035  0.8341
 1328SOL     OW15442   0.549   1.216   5.371  0.1667 -0.6175  0.2270
 1328SOL    HW115443   0.622   1.171   5.414  0.6847 -1.1231 -1.1804
 1328SOL    HW215444   0.534   1.283   5.438  1.2149  1.5465 -1.7247
 1329SOL     OW15445   3.920   0.274  15.741 -0.3060  0.4342  0.0449
 1329SOL    HW115446   3.861   0.203  15.712  3.4572 -2.2653 -1.0729
 1329SOL    HW215447   3.911   0.331  15.665  0.0024  0.6813  0.1957
 1330SOL     OW15448   2.294   2.017   4.557  0.2433  0.3517 -0.2896
 1330SOL    HW115449   2.368   2.066   4.520 -1.0243  2.5593  0.0962
 1330SOL    HW215450   2.326   1.990   4.643  0.6024  0.9229 -0.2417
 1331SOL     OW15451   0.350   1.862   2.532 -0.2916  0.1909  0.0197
 1331SOL    HW115452   0.271   1.893   2.488  0.9417  1.6107 -1.1972
 1331SOL    HW215453   0.418   1.882   2.467  0.2564 -3.2576 -0.4677
 1332SOL     OW15454   2.146   0.493  16.489  0.4184 -0.0920  0.4331
 1332SOL    HW115455   2.239   0.474  16.498  0.6742 -0.2555 -2.3884
 1332SOL    HW215456   2.103   0.458  16.567  0.9243  1.2117  1.2986
 1333SOL     OW15457   0.530   0.511   9.279  0.2315 -0.7504 -0.1870
 1333SOL    HW115458   0.463   0.545   9.220 -1.1608 -0.0671  1.7717
 1333SOL    HW215459   0.480   0.451   9.334 -1.6320  2.0838  1.2335
 1334SOL     OW15460   1.608   0.287   2.457  0.2941  0.5918 -0.1635
 1334SOL    HW115461   1.622   0.362   2.399 -0.6240 -0.7434 -2.0999
 1334SOL    HW215462   1.574   0.220   2.398 -1.7372  1.6845 -0.2154
 1335SOL     OW15463   3.309   2.954   1.887  0.5923  0.6699  0.2090
 1335SOL    HW115464   3.228   3.005   1.878 -0.7855 -1.1095  2.6361
 1335SOL    HW215465   3.370   3.003   1.832  0.1685  0.2712 -0.6206
 1336SOL     OW15466   0.710   2.525   8.506  0.1092  0.3549 -0.1438
 1336SOL    HW115467   0.648   2.528   8.432  1.2465 -1.3139 -1.1566
 1336SOL    HW215468   0.655   2.468   8.559 -1.8702  1.4892 -0.9733
 1337SOL     OW15469   1.178   4.348  10.985 -0.3648 -0.2908 -0.1138
 1337SOL    HW115470   1.252   4.335  10.926  1.0001  0.0498  1.5342
 1337SOL    HW215471   1.215   4.403  11.054  0.2416  0.3563 -0.9721
 1338SOL     OW15472   0.293   3.709  12.704 -0.0286 -0.0546  0.5113
 1338SOL    HW115473   0.237   3.631  12.709  0.0774 -0.0245  2.1600
 1338SOL    HW215474   0.237   3.771  12.657  0.1261 -0.3377 -0.0529
 1339SOL     OW15475   2.491   1.113   6.939  0.4354 -0.3893  0.0669
 1339SOL    HW115476   2.542   1.113   7.020  2.4940  1.1151 -1.2193
 1339SOL    HW215477   2.411   1.153   6.972 -0.2931  0.6271 -2.9671
 1340SOL     OW15478   1.939   3.858   5.555  0.0756  0.2994 -0.6738
 1340SOL    HW115479   1.974   3.922   5.617  2.2824 -0.9783 -0.5858
 1340SOL    HW215480   1.953   3.773   5.597  1.4950 -0.0681 -1.9050
 1341SOL     OW15481   2.269   0.491  12.873 -0.4816  0.5085 -0.4192
 1341SOL    HW115482   2.301   0.454  12.790 -0.4256  1.8286 -1.0017
 1341SOL    HW215483   2.198   0.428  12.876 -2.3095  2.6678  1.2355
 1342SOL     OW15484   1.012   4.389   7.661  0.4191  0.4231  0.3331
 1342SOL    HW115485   0.946   4.370   7.728  2.7025 -3.6266  1.4277
 1342SOL    HW215486   0.995   4.478   7.631 -0.1486  0.9630  2.3153
 1343SOL     OW15487   0.393   4.355  10.968 -0.6239  0.5783  0.1289
 1343SOL    HW115488   0.319   4.404  10.934  1.6362  3.2416 -0.8990
 1343SOL    HW215489   0.365   4.271  10.932  0.4195  0.5604 -0.6336
 1344SOL     OW15490   0.665   1.853   3.533  0.2320 -0.1182 -0.2237
 1344SOL    HW115491   0.668   1.912   3.609  2.1936  1.1431 -1.2655
 1344SOL    HW215492   0.738   1.795   3.555 -0.1069  0.3140  2.0560
 1345SOL     OW15493   1.569   0.837   2.536  0.5045 -0.1757 -0.1224
 1345SOL    HW115494   1.645   0.849   2.593 -0.8958 -1.3159  1.9579
 1345SOL    HW215495   1.523   0.761   2.570  1.1684  0.1230  1.4381
 1346SOL     OW15496   3.114   2.652   8.265  0.0642  0.3187  0.2898
 1346SOL    HW115497   3.174   2.610   8.203 -1.0688 -0.8498  0.0033
 1346SOL    HW215498   3.049   2.704   8.218 -0.4541  0.6441  1.3579
 1347SOL     OW15499   4.426   1.320   5.448  0.4186  0.1990 -0.4055
 1347SOL    HW115500   4.460   1.402   5.411 -0.6392  1.4550  1.3656
 1347SOL    HW215501   4.342   1.324   5.402  0.6315  0.5036 -0.7703
 1348SOL     OW15502   2.740   0.239  14.861  0.3776  0.2402 -0.3145
 1348SOL    HW115503   2.765   0.284  14.942  1.5621 -1.0662  0.0610
 1348SOL    HW215504   2.783   0.294  14.796  0.6265  0.3350 -0.0715
 1349SOL     OW15505   3.025   3.938   7.919  0.1032 -0.0657 -0.0500
 1349SOL    HW115506   2.965   3.930   7.993 -0.0338 -0.1105 -0.1640
 1349SOL    HW215507   3.063   4.022   7.941  0.8821  0.1639 -2.2463
 1350SOL     OW15508   2.984   0.197   2.629 -0.4306  0.2494 -0.4811
 1350SOL    HW115509   3.050   0.214   2.562  0.0023 -1.3848 -0.4661
 1350SOL    HW215510   2.927   0.130   2.591 -0.6898 -0.3693  0.9740
 1351SOL     OW15511   2.727   2.030   9.473  0.0827  0.7049 -0.4235
 1351SOL    HW115512   2.816   2.037   9.439  0.2971  1.5405  0.2990
 1351SOL    HW215513   2.706   1.938   9.457 -0.3562  0.6028  0.7403
 1352SOL     OW15514   1.709   4.180   2.182  0.2601  0.1646 -0.0466
 1352SOL    HW115515   1.652   4.129   2.241 -1.4773  1.3715 -0.6962
 1352SOL    HW215516   1.647   4.217   2.119 -0.8245  1.0852  1.5616
 1353SOL     OW15517   4.667   3.394   3.045  0.1199 -0.1290 -0.1528
 1353SOL    HW115518   4.585   3.354   3.073  1.2552 -0.8995  2.0336
 1353SOL    HW215519   4.646   3.413   2.954 -1.0715 -1.4740 -0.1594
 1354SOL     OW15520   1.005   1.812  15.376  0.5421 -0.0941 -0.3360
 1354SOL    HW115521   1.045   1.892  15.342  0.8473 -0.4279 -0.7642
 1354SOL    HW215522   1.060   1.741  15.343  1.0828  0.3821 -0.4669
 1355SOL     OW15523   4.448   4.304   3.346 -0.4717 -0.3608 -0.4545
 1355SOL    HW115524   4.440   4.271   3.436 -1.8258 -1.5308 -1.0034
 1355SOL    HW215525   4.422   4.225   3.299  1.4129 -0.7298 -0.8688
 1356SOL     OW15526   4.217   0.189   2.185 -0.1460 -0.4534 -0.3535
 1356SOL    HW115527   4.224   0.285   2.185  2.2592 -0.6062  1.0431
 1356SOL    HW215528   4.148   0.180   2.120  0.8652  0.0302 -1.4772
 1357SOL     OW15529   3.447   1.776   0.724 -0.3282 -0.3418  0.0228
 1357SOL    HW115530   3.455   1.784   0.629 -1.7298 -0.6576 -0.1178
 1357SOL    HW215531   3.539   1.783   0.750 -0.0301 -1.2095 -0.7717
 1358SOL     OW15532   0.260   2.077   1.178 -0.3308 -0.0972  0.1996
 1358SOL    HW115533   0.304   2.158   1.152 -2.4371  0.9066 -0.2659
 1358SOL    HW215534   0.243   2.029   1.097  0.5921 -0.6847  0.3517
 1359SOL     OW15535   2.255   1.445   2.401 -0.2129  0.5120 -0.3167
 1359SOL    HW115536   2.209   1.406   2.475  1.8458 -1.1727  0.0825
 1359SOL    HW215537   2.306   1.508   2.452 -1.6629  0.8418  0.7046
 1360SOL     OW15538   4.643   4.112  11.592  0.1582 -0.2286  0.4703
 1360SOL    HW115539   4.721   4.149  11.551  0.5708 -1.1549  0.4091
 1360SOL    HW215540   4.643   4.022  11.560  0.6930  0.5110 -1.6603
 1361SOL     OW15541   2.945   0.782   7.099 -0.1543 -0.2949 -0.0599
 1361SOL    HW115542   3.033   0.819   7.099 -0.3101  0.0707  0.3299
 1361SOL    HW215543   2.889   0.840   7.151 -0.2341  0.9820 -1.6039
 1362SOL     OW15544   4.607   3.371   1.403 -0.0218 -0.0307 -0.3642
 1362SOL    HW115545   4.583   3.406   1.489  0.0612  0.8075 -0.6877
 1362SOL    HW215546   4.680   3.313   1.427 -0.3899  0.6611  2.3998
 1363SOL     OW15547   2.482   3.294   4.957 -0.2175  0.1404  0.1239
 1363SOL    HW115548   2.475   3.239   5.035 -2.7720 -0.8029 -0.7756
 1363SOL    HW215549   2.390   3.319   4.966  0.9831  3.6368  2.9323
 1364SOL     OW15550   4.538   3.185   7.750  0.3067 -0.2319  0.1341
 1364SOL    HW115551   4.544   3.130   7.827 -1.0689  0.0353  0.4228
 1364SOL    HW215552   4.468   3.247   7.771  0.9442  0.7975 -0.7859
 1365SOL     OW15553   4.637   2.767   2.523  0.3844  0.6973 -0.0365
 1365SOL    HW115554   4.556   2.796   2.483  0.6599 -1.2450 -2.0093
 1365SOL    HW215555   4.657   2.840   2.581 -0.3817  1.9985 -1.4204
 1366SOL     OW15556   3.469   0.890  14.846 -0.1785  0.1660 -0.3007
 1366SOL    HW115557   3.564   0.875  14.846 -0.4027 -1.1567  1.7595
 1366SOL    HW215558   3.465   0.954  14.775 -0.0057  2.5319  1.8499
 1367SOL     OW15559   1.373   2.562   7.684  0.2129  0.2489 -0.1531
 1367SOL    HW115560   1.280   2.569   7.660  0.3699  1.6475 -0.3913
 1367SOL    HW215561   1.363   2.573   7.779 -1.7365  1.2178 -0.4711
 1368SOL     OW15562   0.015   4.527   9.946 -0.0242 -0.0874 -0.1905
 1368SOL    HW115563   4.652   4.527   9.911  0.0048  1.8202 -0.2443
 1368SOL    HW215564   4.724   4.581  10.023  0.3940  2.6155 -1.9903
 1369SOL     OW15565   1.558   0.360   8.212 -0.4596  0.4273  0.1493
 1369SOL    HW115566   1.536   0.443   8.256 -0.9373  0.7211 -0.6486
 1369SOL    HW215567   1.532   0.287   8.268  3.2445 -1.5856 -0.8526
 1370SOL     OW15568   0.627   3.232   6.071 -0.1922  0.3924  0.2302
 1370SOL    HW115569   0.548   3.279   6.043  0.6378 -0.0723 -2.9020
 1370SOL    HW215570   0.687   3.305   6.089 -1.1467  1.1953  0.1981
 1371SOL     OW15571   1.509   0.870   5.520  0.5463  0.6990  0.1237
 1371SOL    HW115572   1.548   0.796   5.565  1.0172  1.4497  0.9611
 1371SOL    HW215573   1.534   0.856   5.429  0.6295 -0.2279  0.2944
 1372SOL     OW15574   4.450   2.619   8.436  0.4600  0.1152  0.5385
 1372SOL    HW115575   4.500   2.692   8.470  1.8718 -0.5848 -0.0395
 1372SOL    HW215576   4.491   2.600   8.352  1.2787  0.2543  0.9085
 1373SOL     OW15577   1.448   1.254   1.893  0.1611  0.2101 -0.3300
 1373SOL    HW115578   1.384   1.262   1.964 -0.4639  1.8742 -1.0877
 1373SOL    HW215579   1.514   1.191   1.921  0.4417  0.8349  0.4214
 1374SOL     OW15580   3.201   4.540   6.861 -0.4547  0.1933 -0.0179
 1374SOL    HW115581   3.191   4.577   6.773  1.1629 -0.9360 -0.6825
 1374SOL    HW215582   3.126   4.483   6.848  0.2078 -0.3905 -1.2546
 1375SOL     OW15583   4.033   1.545   9.217  0.3396  0.1064  0.4336
 1375SOL    HW115584   4.031   1.473   9.281 -1.9058  1.8343  2.3236
 1375SOL    HW215585   3.942   1.574   9.207 -0.7165 -1.7010  4.8452
 1376SOL     OW15586   3.175   2.307   9.819 -0.2021  0.0342 -0.1737
 1376SOL    HW115587   3.080   2.315   9.829 -0.3677 -1.0444 -0.9414
 1376SOL    HW215588   3.200   2.294   9.911  3.7493 -1.5227 -1.4639
 1377SOL     OW15589   4.283   0.225   3.350 -0.0312  0.2621  0.3552
 1377SOL    HW115590   4.307   0.257   3.263 -0.6361  1.4593  0.6246
 1377SOL    HW215591   4.223   0.160   3.312  0.6511 -0.4706  0.5415
 1378SOL     OW15592   0.295   1.423   2.607 -0.4858 -0.1277 -0.0757
 1378SOL    HW115593   0.363   1.430   2.673  1.7511  1.7674 -2.5770
 1378SOL    HW215594   0.257   1.508   2.629  2.7822  1.5200 -0.8984
 1379SOL     OW15595   0.168   2.172   1.599  0.0592 -0.2273  0.4982
 1379SOL    HW115596   0.261   2.152   1.587  0.1259  0.3699  0.0412
 1379SOL    HW215597   0.139   2.150   1.510 -0.9048  1.8530  0.3216
 1380SOL     OW15598   2.149   3.752  10.454 -0.7132 -0.2553 -0.2465
 1380SOL    HW115599   2.161   3.788  10.366 -0.1521  1.1086  0.3952
 1380SOL    HW215600   2.147   3.661  10.423 -1.4084 -0.9449  1.8641
 1381SOL     OW15601   4.604   3.179   1.934  0.2543 -0.3114  0.3241
 1381SOL    HW115602   4.535   3.241   1.910  1.8393  1.2302 -0.2495
 1381SOL    HW215603   4.585   3.167   2.027 -2.1575  0.3104 -0.0917
 1382SOL     OW15604   2.572   3.675   0.268 -0.2818 -0.6257  0.3936
 1382SOL    HW115605   2.653   3.655   0.220  0.6492  0.1468  1.6654
 1382SOL    HW215606   2.509   3.641   0.204 -0.0732  1.6241 -1.0389
 1383SOL     OW15607   3.474   4.377   1.972  0.6412  0.4796 -0.1427
 1383SOL    HW115608   3.509   4.400   1.886 -0.3831 -0.6989 -0.8886
 1383SOL    HW215609   3.555   4.372   2.022  0.9502  0.6200 -0.6270
 1384SOL     OW15610   0.909   4.228  10.971  0.0505  0.1196  0.4987
 1384SOL    HW115611   0.986   4.283  10.988  0.8008 -0.3315 -1.5191
 1384SOL    HW215612   0.952   4.151  10.932 -0.2899  0.5422 -0.6922
 1385SOL     OW15613   0.834   2.147   0.081  0.1162  0.4466  0.7907
 1385SOL    HW115614   0.880   2.085   0.025 -0.0270  2.3906 -1.4643
 1385SOL    HW215615   0.875   2.229   0.053  1.0316  0.2064  1.4169
 1386SOL     OW15616   1.394   1.991   7.096 -0.6314  0.8233 -0.3002
 1386SOL    HW115617   1.353   1.954   7.018 -2.0845 -0.5756  1.1369
 1386SOL    HW215618   1.355   1.946   7.170  1.8551  1.1705  1.2374
 1387SOL     OW15619   4.347   4.114  17.111  0.2196  0.0859 -0.3145
 1387SOL    HW115620   4.406   4.184  17.081 -0.0859  0.9787  1.1561
 1387SOL    HW215621   4.268   4.152  17.073  0.9907  0.7700 -1.2710
 1388SOL     OW15622   4.095   3.032   2.757 -0.1114 -0.0933  0.2289
 1388SOL    HW115623   4.083   2.939   2.738  0.7795  0.1190 -1.4091
 1388SOL    HW215624   4.018   3.069   2.715 -1.1994 -0.8098  1.6011
 1389SOL     OW15625   0.113   2.447   7.341  0.5940 -0.2205 -0.0643
 1389SOL    HW115626   0.025   2.477   7.316  1.1051 -0.1299 -1.7521
 1389SOL    HW215627   0.166   2.522   7.314 -0.1253  0.8401  1.4356
 1390SOL     OW15628   3.733   3.093   8.227  0.2143  0.6545  0.2609
 1390SOL    HW115629   3.805   3.104   8.165  0.3650  1.1651  0.5256
 1390SOL    HW215630   3.713   3.000   8.224  0.8865  0.4223  2.8667
 1391SOL     OW15631   3.227   0.858   8.521 -0.0274  0.0341 -0.4811
 1391SOL    HW115632   3.299   0.824   8.574 -0.1841  0.4513 -0.0040
 1391SOL    HW215633   3.152   0.821   8.567 -0.5815  0.3006 -1.1682
 1392SOL     OW15634   0.520   2.560   2.087  0.1254  0.5368  0.1200
 1392SOL    HW115635   0.600   2.523   2.050  0.0739  1.7530 -1.1900
 1392SOL    HW215636   0.497   2.608   2.008 -1.3429  1.0413  0.8565
 1393SOL     OW15637   4.304   2.073  11.569 -0.4825  0.1840  0.9248
 1393SOL    HW115638   4.282   1.986  11.601 -0.6639 -0.6401 -1.4547
 1393SOL    HW215639   4.216   2.109  11.558 -0.4774  0.2086  0.9671
 1394SOL     OW15640   3.149   1.962  15.662 -0.2641  0.3242 -0.1465
 1394SOL    HW115641   3.150   1.920  15.576  0.0527  1.5318 -0.7341
 1394SOL    HW215642   3.068   1.926  15.698  0.7757 -0.2948  1.5929
 1395SOL     OW15643   2.898   3.613   8.078 -0.1779  0.0440 -0.0066
 1395SOL    HW115644   2.970   3.588   8.136  0.0957 -0.7546 -0.6803
 1395SOL    HW215645   2.833   3.546   8.100  0.4141  0.0553  1.7908
 1396SOL     OW15646   1.967   3.864   9.990  0.7091  0.4589 -0.0005
 1396SOL    HW115647   1.878   3.882  10.020  1.3540  1.9375  1.0224
 1396SOL    HW215648   1.998   3.948   9.955  0.3748  0.1276 -1.1012
 1397SOL     OW15649   0.612   2.513   2.336  0.5398 -0.1273  0.7991
 1397SOL    HW115650   0.572   2.532   2.251 -0.3667 -0.6076  1.1127
 1397SOL    HW215651   0.664   2.434   2.321 -0.2012 -0.8331  1.9226
 1398SOL     OW15652   0.732   4.498   3.255 -0.2114 -0.5869 -0.4234
 1398SOL    HW115653   0.696   4.552   3.185 -1.4348 -3.1729 -1.7609
 1398SOL    HW215654   0.735   4.410   3.219  1.4300 -0.4220 -0.7058
 1399SOL     OW15655   2.004   1.159   2.769 -0.0822 -0.5703  1.0888
 1399SOL    HW115656   2.088   1.187   2.733  0.2525 -2.7706  0.1442
 1399SOL    HW215657   2.016   1.182   2.861 -0.3630 -0.5464  1.1214
 1400SOL     OW15658   4.252   2.895  11.023 -0.3638 -0.1373  0.4628
 1400SOL    HW115659   4.247   2.947  10.942 -1.0001 -1.5075 -0.3951
 1400SOL    HW215660   4.347   2.885  11.028 -0.1741  1.1791 -0.4639
 1401SOL     OW15661   0.731   1.557  14.438  0.4308 -0.2890  0.3113
 1401SOL    HW115662   0.679   1.538  14.361  0.5623 -1.9332  0.6289
 1401SOL    HW215663   0.691   1.637  14.472  1.0071 -0.0190  0.3674
 1402SOL     OW15664   4.662   2.412   8.150 -1.0698  0.2171 -0.1736
 1402SOL    HW115665   4.635   2.475   8.216 -3.1973 -2.9561  1.9990
 1402SOL    HW215666   4.607   2.450   8.082 -0.3657  1.0593 -0.2760
 1403SOL     OW15667   2.368   4.089   8.310  0.1568 -0.1499  0.6028
 1403SOL    HW115668   2.320   4.025   8.362 -1.1087  0.4531  0.1528
 1403SOL    HW215669   2.454   4.095   8.354  0.8265 -1.5609 -0.5218
 1404SOL     OW15670   1.761   1.785   8.741  0.5133 -0.3061 -0.0431
 1404SOL    HW115671   1.668   1.780   8.717  0.3447 -2.8813  1.0636
 1404SOL    HW215672   1.755   1.865   8.793 -2.6896 -0.3833 -0.2519
 1405SOL     OW15673   2.683   2.678   5.959 -0.2771  0.1328  0.2286
 1405SOL    HW115674   2.601   2.720   5.984 -0.6106 -0.4804  0.1835
 1405SOL    HW215675   2.707   2.638   6.042 -0.2526  0.5386  0.4164
 1406SOL     OW15676   3.368   0.712   4.398 -0.0786 -0.2635  0.8070
 1406SOL    HW115677   3.306   0.743   4.333  2.2769  0.9623 -0.8210
 1406SOL    HW215678   3.384   0.795   4.442  2.1739  0.0926 -0.7047
 1407SOL     OW15679   4.228   0.834   8.845  0.4231 -0.0873 -0.0925
 1407SOL    HW115680   4.271   0.831   8.931  0.0189 -1.1894  0.0677
 1407SOL    HW215681   4.246   0.749   8.807  0.2887 -0.7915  1.3975
 1408SOL     OW15682   2.197   0.372   8.259  0.2764 -0.2965 -0.5859
 1408SOL    HW115683   2.267   0.361   8.195  0.4343  1.6546 -0.7306
 1408SOL    HW215684   2.178   0.278   8.266 -0.3180 -0.2647 -1.7382
 1409SOL     OW15685   4.531   1.475   9.728  0.0330  0.4571 -0.4212
 1409SOL    HW115686   4.473   1.399   9.730 -0.2329  0.6797  0.2272
 1409SOL    HW215687   4.464   1.543   9.738 -0.7141 -0.8463  3.4575
 1410SOL     OW15688   3.257   4.562  12.732 -0.0143 -0.6337 -0.5975
 1410SOL    HW115689   3.336   4.523  12.767  2.2010  3.9013 -0.4804
 1410SOL    HW215690   3.287   4.653  12.742 -0.7151 -0.5086  0.4136
 1411SOL     OW15691   0.428   3.655  15.128  0.3804  0.4236 -0.3033
 1411SOL    HW115692   0.464   3.744  15.132  1.8984 -0.3642  3.1499
 1411SOL    HW215693   0.441   3.641  15.034 -0.9376  0.4156 -0.4872
 1412SOL     OW15694   0.014   2.082  15.020 -0.2413 -0.8785 -0.2189
 1412SOL    HW115695   0.045   2.051  14.935  2.0411  0.9748 -0.0526
 1412SOL    HW215696   0.090   2.070  15.077  0.4838  1.2770 -0.7508
 1413SOL     OW15697   2.970   3.077   3.594 -0.0887  0.4259 -0.9152
 1413SOL    HW115698   2.893   3.038   3.635 -1.3504  0.2501 -3.4679
 1413SOL    HW215699   2.966   3.164   3.635  0.2015 -0.3766  0.8053
 1414SOL     OW15700   3.856   2.519   2.153  0.0416  0.1764 -0.0202
 1414SOL    HW115701   3.824   2.572   2.080 -1.8366 -0.4587  0.3410
 1414SOL    HW215702   3.924   2.463   2.117 -0.7703 -0.7482 -0.1112
 1415SOL     OW15703   3.724   4.165   1.876 -0.3130  0.0330 -0.9418
 1415SOL    HW115704   3.724   4.229   1.805  0.1925 -0.0045 -0.9788
 1415SOL    HW215705   3.632   4.141   1.890 -0.2847  1.0644  0.9630
 1416SOL     OW15706   3.089   0.963   4.669 -0.1902 -0.2019  0.2458
 1416SOL    HW115707   3.009   0.991   4.712 -0.0221 -0.9867  1.0550
 1416SOL    HW215708   3.058   0.881   4.632  0.9678 -1.1732  1.4273
 1417SOL     OW15709   0.454   2.842   7.533 -0.0076  0.6278 -0.0334
 1417SOL    HW115710   0.465   2.817   7.625 -4.3039 -0.8563  0.0848
 1417SOL    HW215711   0.468   2.935   7.550  0.0809  0.6166 -0.0438
 1418SOL     OW15712   4.284   0.351   3.114 -1.0231  0.3948  0.0232
 1418SOL    HW115713   4.201   0.394   3.134 -1.4698 -0.0721 -0.8634
 1418SOL    HW215714   4.282   0.310   3.028 -2.6818 -1.6097  1.0367
 1419SOL     OW15715   3.657   2.766   2.574  0.1234  0.9198  0.5127
 1419SOL    HW115716   3.604   2.706   2.520  1.4606  0.5998 -0.4267
 1419SOL    HW215717   3.731   2.706   2.580  0.0781  0.9016  0.8761
 1420SOL     OW15718   1.732   3.870   4.550 -0.2714  0.0019  0.6556
 1420SOL    HW115719   1.793   3.939   4.575  2.1052 -1.5498 -0.9091
 1420SOL    HW215720   1.748   3.857   4.456 -0.2276  0.5286  0.5895
 1421SOL     OW15721   3.708   1.187   4.406  0.2897 -0.0423 -0.3514
 1421SOL    HW115722   3.766   1.115   4.431 -0.1050  0.1921  1.2459
 1421SOL    HW215723   3.730   1.209   4.316  2.0070  0.6484  0.2449
 1422SOL     OW15724   3.238   3.794  13.510  0.2957  0.3041  0.1200
 1422SOL    HW115725   3.266   3.762  13.424  1.0666 -0.8019  0.7845
 1422SOL    HW215726   3.239   3.889  13.495 -3.5481  0.1998 -0.6916
 1423SOL     OW15727   4.542   1.452  17.066  0.1334 -0.0558  0.0549
 1423SOL    HW115728   4.497   1.439  17.149 -0.3129  2.9561  0.2831
 1423SOL    HW215729   4.530   1.360  17.043  1.0388  0.4241 -2.4125
 1424SOL     OW15730   0.851   1.577   8.677 -0.4604 -0.0389  0.0999
 1424SOL    HW115731   0.758   1.577   8.700 -0.7829 -0.4102 -1.2291
 1424SOL    HW215732   0.885   1.516   8.742 -0.4234 -1.1871 -1.0184
 1425SOL     OW15733   0.847   0.156   3.259 -0.5994 -0.1818 -0.0567
 1425SOL    HW115734   0.845   0.085   3.323 -2.1241 -1.7342 -1.8272
 1425SOL    HW215735   0.850   0.111   3.175  1.3913 -1.9215  0.9441
 1426SOL     OW15736   4.182   2.113   8.855 -0.5150 -0.4463  0.1523
 1426SOL    HW115737   4.236   2.093   8.931  0.7283  0.3734 -0.5184
 1426SOL    HW215738   4.186   2.208   8.852  0.0641 -0.4516  1.0285
 1427SOL     OW15739   0.331   1.845   6.427  0.0587 -0.0546 -0.0541
 1427SOL    HW115740   0.264   1.856   6.495  0.9587  1.2790  0.6354
 1427SOL    HW215741   0.385   1.924   6.438 -0.6229  0.6526 -1.7517
 1428SOL     OW15742   4.361   3.355   1.895 -0.0808 -0.1106  0.0441
 1428SOL    HW115743   4.286   3.314   1.938  0.5045 -0.9019  0.2955
 1428SOL    HW215744   4.357   3.439   1.942 -0.8938  0.0640 -0.3383
 1429SOL     OW15745   0.982   0.735   6.852 -0.1865 -0.2628  0.0608
 1429SOL    HW115746   0.934   0.664   6.809  2.3225 -1.9837  0.0900
 1429SOL    HW215747   0.906   0.791   6.869 -0.1849  0.3420 -1.8725
 1430SOL     OW15748   2.455   4.511   1.724  0.5039 -0.1030 -0.1473
 1430SOL    HW115749   2.383   4.552   1.676 -0.0674  1.2815  1.8779
 1430SOL    HW215750   2.505   4.466   1.656  0.5227 -0.1323 -0.1141
 1431SOL     OW15751   3.453   3.426   9.839 -0.0499 -0.5891  0.3204
 1431SOL    HW115752   3.370   3.449   9.882  0.7194 -0.0171  1.4950
 1431SOL    HW215753   3.414   3.368   9.774  1.7304 -1.3392 -0.0450
 1432SOL     OW15754   3.085   3.414  15.611  0.6689  0.1713  0.1709
 1432SOL    HW115755   3.046   3.490  15.567 -1.0518 -1.5876 -1.3494
 1432SOL    HW215756   3.035   3.409  15.693  1.2906  2.5367  0.7014
 1433SOL     OW15757   4.505   4.647  13.737  0.3856  0.1220 -0.0252
 1433SOL    HW115758   4.469   4.711  13.798 -0.3889 -0.0069 -0.3600
 1433SOL    HW215759   4.519   4.702  13.659  0.2675 -0.6927 -0.6200
 1434SOL     OW15760   2.629   0.924   8.914 -0.9810 -0.5237  0.2541
 1434SOL    HW115761   2.600   1.007   8.954 -1.1986  0.1048 -1.2164
 1434SOL    HW215762   2.552   0.873   8.939 -1.8402  1.2426  1.2710
 1435SOL     OW15763   2.116   1.613  15.147 -0.1893 -0.6556  0.2651
 1435SOL    HW115764   2.194   1.667  15.163  1.0083 -2.2376 -0.1769
 1435SOL    HW215765   2.118   1.571  15.233 -0.6568 -2.3830 -0.5658
 1436SOL     OW15766   3.102   0.584  15.373  0.0106 -0.0047  0.6133
 1436SOL    HW115767   3.084   0.625  15.457  1.5743 -2.4947  2.1411
 1436SOL    HW215768   3.163   0.647  15.334  3.0680 -3.0208  0.5468
 1437SOL     OW15769   1.121   2.717   5.523  0.3456  0.1474  0.0013
 1437SOL    HW115770   1.091   2.702   5.612 -1.6401 -1.3500 -0.9317
 1437SOL    HW215771   1.114   2.632   5.480 -2.4152 -0.3400  1.4407
 1438SOL     OW15772   1.801   2.133   6.215  0.3810 -0.3955  0.0145
 1438SOL    HW115773   1.817   2.070   6.145  0.2636  0.7480 -1.0392
 1438SOL    HW215774   1.864   2.112   6.284  0.6573 -0.9492 -0.4130
 1439SOL     OW15775   1.957   4.679   3.810 -0.1161  0.0156 -0.1291
 1439SOL    HW115776   2.021   0.023   3.796  0.8594 -0.9411 -0.4840
 1439SOL    HW215777   1.977   4.645   3.897  0.9642  1.9593  0.4012
 1440SOL     OW15778   0.992   2.759  10.692  0.3662 -0.3482 -0.1344
 1440SOL    HW115779   0.922   2.737  10.754  0.3679 -0.4607 -0.1719
 1440SOL    HW215780   1.067   2.800  10.734 -0.6856  0.9688  0.4533
 1441SOL     OW15781   2.976   3.254   4.398 -0.1408  0.4906 -0.3536
 1441SOL    HW115782   2.975   3.266   4.303 -0.2867 -1.3064 -0.5656
 1441SOL    HW215783   3.068   3.257   4.423 -0.9995  0.6450  2.7820
 1442SOL     OW15784   4.496   1.889   5.282  0.2691 -0.0355 -0.0307
 1442SOL    HW115785   4.499   1.928   5.195  0.5902 -0.9424 -0.4284
 1442SOL    HW215786   4.457   1.804   5.266  1.0792 -0.2840 -0.7007
 1443SOL     OW15787   1.520   3.884  14.999 -0.2863 -0.1341  0.3520
 1443SOL    HW115788   1.446   3.941  15.023 -0.0158 -0.2511  1.4880
 1443SOL    HW215789   1.536   3.924  14.913 -2.1738 -0.3247 -0.0850
 1444SOL     OW15790   0.560   1.770   2.721 -0.5694 -0.7838  0.2705
 1444SOL    HW115791   0.480   1.754   2.671 -1.4372  1.5862  0.8969
 1444SOL    HW215792   0.517   1.768   2.807 -2.2586  1.5988 -0.5100
 1445SOL     OW15793   1.203   0.932   4.854  0.0287 -0.2080 -0.0332
 1445SOL    HW115794   1.207   0.861   4.790 -3.2294 -0.5334  0.1206
 1445SOL    HW215795   1.136   0.985   4.812 -1.1735 -0.7830  1.1585
 1446SOL     OW15796   0.408   3.282   2.778 -0.3288  0.2993  0.5468
 1446SOL    HW115797   0.428   3.328   2.696 -1.4046  1.0350  0.7010
 1446SOL    HW215798   0.314   3.301   2.777 -0.0626  1.6663  1.7294
 1447SOL     OW15799   4.189   1.469   2.271  0.2982 -0.7198  0.2944
 1447SOL    HW115800   4.180   1.537   2.204 -0.0968 -0.0242  1.0527
 1447SOL    HW215801   4.102   1.484   2.309  0.8017 -0.4531  1.3365
 1448SOL     OW15802   3.507   4.246   4.890  0.2475 -0.1561 -0.3138
 1448SOL    HW115803   3.514   4.153   4.870  0.8721 -0.0945 -0.4034
 1448SOL    HW215804   3.580   4.248   4.952 -2.0049  1.7372  2.2391
 1449SOL     OW15805   0.387   1.583   4.257 -0.4648 -0.2590  0.3108
 1449SOL    HW115806   0.428   1.500   4.281 -0.0894  0.1323  1.0329
 1449SOL    HW215807   0.329   1.549   4.189 -0.6039 -0.3219  0.4607
 1450SOL     OW15808   0.932   3.566  11.797  0.5405 -0.2400 -0.1167
 1450SOL    HW115809   0.857   3.564  11.857  1.2953 -0.4985  0.8106
 1450SOL    HW215810   0.983   3.637  11.834 -0.7887  0.4560  0.3984
 1451SOL     OW15811   2.051   4.588   3.450 -0.6446  0.2918  0.0671
 1451SOL    HW115812   2.112   4.624   3.385  1.0777 -0.1796  1.4300
 1451SOL    HW215813   1.983   4.651   3.427  1.2138  2.4712  0.5620
 1452SOL     OW15814   2.159   3.111   1.787 -0.3393  0.2700  0.4422
 1452SOL    HW115815   2.125   3.187   1.834  1.1523  0.7864  0.7048
 1452SOL    HW215816   2.242   3.150   1.758 -0.6977  0.5254 -0.2548
 1453SOL     OW15817   0.514   1.495   0.037  0.4598 -0.1334  0.4367
 1453SOL    HW115818   0.579   1.553   0.077 -0.4969  1.2643 -0.0224
 1453SOL    HW215819   0.563   1.414   0.048 -0.9431 -0.9232  0.9317
 1454SOL     OW15820   3.804   1.141   3.537  0.1466 -0.0959  0.2588
 1454SOL    HW115821   3.735   1.137   3.470  1.7460 -1.0315 -1.3259
 1454SOL    HW215822   3.828   1.050   3.552 -1.6768 -0.5938  0.1764
 1455SOL     OW15823   1.452   4.175   7.733  0.1073  0.3835 -0.4105
 1455SOL    HW115824   1.400   4.255   7.738  1.0173  0.8020  2.7576
 1455SOL    HW215825   1.531   4.221   7.762 -0.7857  1.0923  0.9126
 1456SOL     OW15826   3.634   3.271   4.475 -0.1851 -0.0347 -0.3669
 1456SOL    HW115827   3.622   3.319   4.393  1.6141  1.7724  0.4222
 1456SOL    HW215828   3.621   3.343   4.537 -1.9063 -1.3114  0.7482
 1457SOL     OW15829   0.670   0.292   4.306 -0.0238  0.0581  0.0877
 1457SOL    HW115830   0.712   0.213   4.272 -2.5799 -0.8572 -0.9373
 1457SOL    HW215831   0.658   0.339   4.224 -1.1590  0.8520  0.7099
 1458SOL     OW15832   4.252   2.750   4.293  0.1818  0.3715 -0.0617
 1458SOL    HW115833   4.185   2.777   4.230  0.1311 -0.5701 -0.4165
 1458SOL    HW215834   4.276   2.829   4.340 -0.0841 -0.0148  0.7207
 1459SOL     OW15835   4.563   3.497   3.410 -0.3594 -0.0524  0.3706
 1459SOL    HW115836   4.481   3.466   3.371  0.4560 -2.5626  0.6625
 1459SOL    HW215837   4.548   3.466   3.500 -0.2762 -3.2693 -0.7441
 1460SOL     OW15838   3.798   0.476   3.066  0.2205  0.5123  0.1366
 1460SOL    HW115839   3.717   0.505   3.108  0.7291  1.2094  0.6252
 1460SOL    HW215840   3.764   0.428   2.990  1.1041  0.6488 -0.3405
 1461SOL     OW15841   1.090   0.585   7.509  0.2961  0.5352  0.0249
 1461SOL    HW115842   1.096   0.555   7.600  2.8888  0.4272 -0.1804
 1461SOL    HW215843   1.002   0.622   7.515 -0.0677 -0.3372  0.0187
 1462SOL     OW15844   4.403   3.667   8.731 -0.4093  0.6884 -0.4625
 1462SOL    HW115845   4.332   3.732   8.732 -0.1047  0.9916  1.4376
 1462SOL    HW215846   4.470   3.704   8.789 -0.2331  0.9147 -0.8096
 1463SOL     OW15847   1.486   3.464   8.471 -0.2086  0.1272  0.0982
 1463SOL    HW115848   1.518   3.472   8.560 -2.5626 -1.8175  1.1117
 1463SOL    HW215849   1.542   3.524   8.420 -1.7556  1.1000 -0.4586
 1464SOL     OW15850   4.623   4.651   1.760  0.6187  0.1223 -0.1183
 1464SOL    HW115851   4.671   4.583   1.807  0.6730  1.5500  1.8378
 1464SOL    HW215852   4.677   4.647   1.681  1.2673 -1.4723  0.3971
 1465SOL     OW15853   1.056   3.584   2.071  0.3021 -0.3557 -0.2174
 1465SOL    HW115854   1.058   3.562   1.978  0.0180  0.0237 -0.3170
 1465SOL    HW215855   1.127   3.532   2.106  1.7633  0.3927 -2.0745
 1466SOL     OW15856   0.840   4.104   4.635 -0.4706 -0.0829 -0.0922
 1466SOL    HW115857   0.909   4.164   4.608 -0.5853 -0.4158 -1.1194
 1466SOL    HW215858   0.800   4.140   4.714  1.8236 -0.5557  1.3126
 1467SOL     OW15859   3.416   3.231  13.543 -0.1697 -0.2788 -0.2483
 1467SOL    HW115860   3.426   3.282  13.623  1.0337 -0.4665 -0.2862
 1467SOL    HW215861   3.506   3.241  13.513  0.3792 -1.5255  1.0037
 1468SOL     OW15862   2.909   3.403   7.146  0.1478 -0.0731 -0.0509
 1468SOL    HW115863   2.907   3.355   7.229 -1.2879  0.9338  0.4991
 1468SOL    HW215864   2.918   3.493   7.176 -1.7887 -0.3118  1.2607
 1469SOL     OW15865   0.554   4.509   4.821  0.3154  0.3346 -0.3228
 1469SOL    HW115866   0.610   4.494   4.745  1.3490 -1.1619  0.7251
 1469SOL    HW215867   0.512   4.593   4.802 -2.1698 -0.2701  2.5371
 1470SOL     OW15868   4.622   1.758   3.136 -0.0167 -0.5872 -0.3489
 1470SOL    HW115869   4.671   1.676   3.135 -3.0223 -2.4056  3.6486
 1470SOL    HW215870   4.663   1.810   3.205 -0.7719 -0.6756  0.1583
 1471SOL     OW15871   0.189   2.709   7.591 -0.2636 -0.1855  0.4205
 1471SOL    HW115872   0.125   2.745   7.530 -0.2602 -2.9224 -1.2176
 1471SOL    HW215873   0.263   2.748   7.546 -1.8027  2.0251 -0.1988
 1472SOL     OW15874   1.157   0.470   0.387 -0.0718  0.2297 -0.0129
 1472SOL    HW115875   1.066   0.472   0.357 -0.5869 -0.5736  1.4848
 1472SOL    HW215876   1.157   0.559   0.424 -1.5949 -1.5897  4.3320
 1473SOL     OW15877   2.711   0.079   2.821 -0.1449  0.2566  0.2234
 1473SOL    HW115878   2.761   0.007   2.781  0.5218  0.2395  1.0827
 1473SOL    HW215879   2.640   0.084   2.757  0.1798  0.1060 -0.1483
 1474SOL     OW15880   2.327   3.486   1.253 -0.1894 -0.6041 -0.3324
 1474SOL    HW115881   2.324   3.393   1.229  0.7394 -0.3068 -1.5662
 1474SOL    HW215882   2.363   3.521   1.172  2.5038  0.6214  1.3987
 1475SOL     OW15883   4.648   1.953   7.185  0.0866  0.1702  0.1726
 1475SOL    HW115884   4.696   2.031   7.214  1.1703 -0.5964  0.4270
 1475SOL    HW215885   4.713   1.884   7.195  0.5733  0.7754  1.1318
 1476SOL     OW15886   1.688   0.963   9.163 -0.4308 -0.2338  0.1716
 1476SOL    HW115887   1.700   1.041   9.217 -1.0500 -1.7057  2.4323
 1476SOL    HW215888   1.692   1.001   9.075  0.0253  1.1721  0.8078
 1477SOL     OW15889   3.674   3.642   4.035  0.3562  0.2897  0.1267
 1477SOL    HW115890   3.692   3.660   3.943  1.3940  0.5184  0.3761
 1477SOL    HW215891   3.653   3.726   4.076 -1.5165 -1.0441  1.8669
 1478SOL     OW15892   2.569   2.377   5.782 -0.2087 -0.0606  0.2861
 1478SOL    HW115893   2.614   2.459   5.761 -0.9964 -0.1108 -1.6281
 1478SOL    HW215894   2.629   2.330   5.840  0.3335 -0.4539 -0.5896
 1479SOL     OW15895   2.638   2.052   7.271 -0.3340 -0.1166 -0.3515
 1479SOL    HW115896   2.712   2.056   7.211 -1.0579  1.7643 -1.1226
 1479SOL    HW215897   2.680   2.028   7.353  1.0565 -1.6516 -1.4888
 1480SOL     OW15898   2.552   3.893   8.487 -0.2434  0.2687  0.1868
 1480SOL    HW115899   2.512   3.825   8.542  0.2278  0.2632  0.5210
 1480SOL    HW215900   2.632   3.846   8.464  0.2794  0.2723  1.9988
 1481SOL     OW15901   2.297   3.504   2.423 -0.5847  0.2490  0.4137
 1481SOL    HW115902   2.246   3.583   2.443 -0.8879 -0.2577  1.6143
 1481SOL    HW215903   2.234   3.458   2.368  0.5877 -0.8513 -0.0139
 1482SOL     OW15904   2.946   3.772   4.044 -0.0228  0.3078  0.7084
 1482SOL    HW115905   2.994   3.844   4.084  0.8761  0.9900 -1.6309
 1482SOL    HW215906   3.002   3.755   3.969  2.2935  1.8241  2.1029
 1483SOL     OW15907   2.298   3.231  11.277 -0.0545  0.1429 -0.8904
 1483SOL    HW115908   2.382   3.272  11.254 -0.0059  1.1509  1.1162
 1483SOL    HW215909   2.305   3.225  11.372  0.3975  1.8010 -0.8107
 1484SOL     OW15910   4.171   2.926  11.282 -0.1188  0.1357  0.3045
 1484SOL    HW115911   4.200   2.905  11.193 -1.6011  2.1437 -0.6651
 1484SOL    HW215912   4.249   2.903  11.332  0.6638  2.9951  0.3909
 1485SOL     OW15913   2.070   3.198  16.154 -0.2613 -0.0138  0.7208
 1485SOL    HW115914   2.022   3.208  16.072 -0.2223 -0.0643  0.6916
 1485SOL    HW215915   2.129   3.273  16.146 -1.1330  0.5813 -0.2156
 1486SOL     OW15916   0.693   4.685   9.504 -0.3825 -0.2461 -0.8101
 1486SOL    HW115917   0.754   4.641   9.446  0.0765  2.1541 -2.1296
 1486SOL    HW215918   0.732   0.043   9.525 -0.4915  0.0539 -1.8364
 1487SOL     OW15919   1.582   1.377   6.265  0.0270 -0.1386 -0.1754
 1487SOL    HW115920   1.662   1.421   6.292 -0.7765  1.8936 -1.1231
 1487SOL    HW215921   1.613   1.291   6.236 -1.0557 -0.7241  0.4159
 1488SOL     OW15922   4.218   1.016   9.585  0.4511 -0.6789  0.1429
 1488SOL    HW115923   4.141   0.968   9.554 -1.0789  1.7926  0.1094
 1488SOL    HW215924   4.284   0.947   9.584  0.0240 -1.1185  2.2600
 1489SOL     OW15925   0.783   2.614  13.274 -0.2414  0.7640 -0.1776
 1489SOL    HW115926   0.750   2.556  13.206 -0.5484 -1.4342  1.8332
 1489SOL    HW215927   0.858   2.659  13.236 -0.6966  1.1045 -0.6649
 1490SOL     OW15928   2.559   3.363  14.978 -0.0902  0.2931 -0.3622
 1490SOL    HW115929   2.529   3.280  15.015 -0.6419  0.5509 -0.2323
 1490SOL    HW215930   2.649   3.363  15.010 -0.5544 -0.1859  0.9383
 1491SOL     OW15931   2.508   2.885  15.336  0.0557  0.3650 -0.0310
 1491SOL    HW115932   2.485   2.928  15.253 -2.1715  1.4205  1.1288
 1491SOL    HW215933   2.588   2.840  15.311  1.1857  2.7163 -0.6284
 1492SOL     OW15934   4.396   1.248   3.583 -0.4926  0.0505  0.4112
 1492SOL    HW115935   4.401   1.326   3.638 -0.8450  0.5043 -0.1951
 1492SOL    HW215936   4.438   1.276   3.501  1.0511 -1.2345  0.7619
 1493SOL     OW15937   2.701   3.864   8.971 -0.2054  0.4422  0.1670
 1493SOL    HW115938   2.654   3.906   9.043 -1.9135 -2.4913  0.7795
 1493SOL    HW215939   2.773   3.925   8.958 -0.2742  0.7259  1.0723
 1494SOL     OW15940   4.352   0.333   6.835  0.1454 -0.1431 -0.1007
 1494SOL    HW115941   4.335   0.262   6.898  0.7734 -0.1487  0.0620
 1494SOL    HW215942   4.362   0.413   6.887  2.3954 -2.0443  2.3788
 1495SOL     OW15943   1.155   1.563   3.686 -0.2096 -0.1694  0.3692
 1495SOL    HW115944   1.092   1.582   3.756 -2.4081  1.1279 -1.9786
 1495SOL    HW215945   1.224   1.616   3.727 -2.2862  2.4493  0.4323
 1496SOL     OW15946   3.739   4.079  17.628 -0.3968  0.2917  0.0242
 1496SOL    HW115947   3.819   4.026  17.637 -1.1734 -0.9059 -0.1113
 1496SOL    HW215948   3.723   4.103   0.013 -0.4981  0.3420 -0.0070
 1497SOL     OW15949   4.589   1.554  17.457 -0.3981 -0.4218  0.5569
 1497SOL    HW115950   4.527   1.595  17.518 -0.8563 -1.2223  0.6239
 1497SOL    HW215951   4.531   1.506  17.397 -0.9224  0.4701  0.3440
 1498SOL     OW15952   4.670   1.283  17.357  0.4161  0.5875  0.6588
 1498SOL    HW115953   4.610   1.228  17.406 -2.6861  2.8465 -0.5660
 1498SOL    HW215954   4.691   1.354  17.418  1.6415  0.4007  0.4624
 1499SOL     OW15955   2.981   2.284   6.223  0.0061  0.3479 -0.0591
 1499SOL    HW115956   2.969   2.231   6.303  2.7640 -1.4570 -0.8342
 1499SOL    HW215957   2.900   2.336   6.222 -0.4256 -0.3068  0.3281
 1500SOL     OW15958   3.964   0.257   0.270 -0.2667 -0.0889  0.0000
 1500SOL    HW115959   4.043   0.310   0.259 -0.0207 -0.5624 -0.5327
 1500SOL    HW215960   3.897   0.307   0.224 -0.7609 -0.9068 -0.1793
 1501SOL     OW15961   2.304   3.912  12.738  0.1787 -0.2306 -0.0784
 1501SOL    HW115962   2.217   3.939  12.768  0.0781 -2.1284  1.3592
 1501SOL    HW215963   2.344   3.992  12.702  0.2330 -0.6244 -0.8852
 1502SOL     OW15964   1.145   4.344  12.119 -0.3778 -0.8228 -0.3396
 1502SOL    HW115965   1.151   4.433  12.154 -0.6535 -1.7663  2.0903
 1502SOL    HW215966   1.153   4.357  12.024  1.4294  0.6946  0.0288
 1503SOL     OW15967   4.657   3.424   2.417 -0.4337  0.1620 -1.0804
 1503SOL    HW115968   4.666   3.341   2.465  2.4461  1.9690  1.4817
 1503SOL    HW215969   4.569   3.411   2.381 -0.9642 -1.9242  0.9530
 1504SOL     OW15970   0.382   2.273  10.298 -0.7988 -0.0907 -0.4942
 1504SOL    HW115971   0.433   2.192  10.300  0.3009  0.5347 -2.8823
 1504SOL    HW215972   0.455   2.336  10.294 -0.5286 -0.3779 -0.0679
 1505SOL     OW15973   3.621   3.831  13.257 -0.0380  0.3715  0.2478
 1505SOL    HW115974   3.596   3.911  13.302 -2.5852 -0.4714  0.3139
 1505SOL    HW215975   3.710   3.860  13.235 -0.7167  1.9293 -0.3941
 1506SOL     OW15976   4.100   0.967   8.526 -0.2337 -0.1793 -0.5945
 1506SOL    HW115977   4.059   0.881   8.522  0.1354 -0.3881  0.0808
 1506SOL    HW215978   4.079   0.990   8.436  0.6817 -0.1676 -0.8057
 1507SOL     OW15979   4.479   4.218  13.261 -0.2675 -1.0781  0.1395
 1507SOL    HW115980   4.395   4.264  13.264  0.5767  0.4658  0.2755
 1507SOL    HW215981   4.530   4.276  13.204 -0.8401 -0.8449 -0.1413
 1508SOL     OW15982   4.407   3.911  11.733 -0.1942 -0.1119 -0.0553
 1508SOL    HW115983   4.362   3.849  11.676  2.5278 -0.0436 -2.2926
 1508SOL    HW215984   4.475   3.945  11.674 -0.9571  1.7602  0.1510
 1509SOL     OW15985   3.821   2.921   2.899 -0.3978  0.5756 -0.0715
 1509SOL    HW115986   3.876   2.844   2.908 -1.9613 -0.2714  1.9513
 1509SOL    HW215987   3.820   2.938   2.804  1.8641 -0.2842 -0.2557
 1510SOL     OW15988   2.248   1.889   4.120 -0.2861 -0.3280  0.1455
 1510SOL    HW115989   2.246   1.985   4.117 -1.5187 -0.3712 -0.5789
 1510SOL    HW215990   2.337   1.856   4.113  0.1537  0.8844  0.0122
 1511SOL     OW15991   0.384   4.589   5.447  0.0573 -0.0606 -0.8066
 1511SOL    HW115992   0.462   4.575   5.501 -0.7387  2.2429  0.9652
 1511SOL    HW215993   0.413   4.656   5.385 -0.7764  1.3226  0.2738
 1512SOL     OW15994   3.183   2.055  15.308 -0.1030 -0.3093 -0.0824
 1512SOL    HW115995   3.253   2.083  15.249 -1.6279 -1.4744 -2.4652
 1512SOL    HW215996   3.113   2.029  15.249  0.9055  2.5074 -2.5268
 1513SOL     OW15997   0.294   1.942  11.831  0.5184 -0.4275 -0.2053
 1513SOL    HW115998   0.243   1.874  11.876  0.8191 -0.6444 -0.1946
 1513SOL    HW215999   0.224   1.990  11.786 -0.9234 -1.7929  0.5760
 1514SOL     OW16000   2.563   3.641   3.756 -0.5329 -0.1069  0.0611
 1514SOL    HW116001   2.586   3.699   3.684  0.2645 -0.8984 -0.3217
 1514SOL    HW216002   2.606   3.679   3.832 -1.6717  2.1343 -0.4161
 1515SOL     OW16003   0.898   4.579   5.305 -0.2740 -0.2552 -0.8204
 1515SOL    HW116004   0.947   4.543   5.230  1.7692  0.0372  0.3683
 1515SOL    HW216005   0.809   4.555   5.278 -0.6088  1.6690 -1.3794
 1516SOL     OW16006   2.399   1.045   6.066 -0.7775 -0.6312 -0.0166
 1516SOL    HW116007   2.467   1.055   6.132 -1.2665 -0.9046  0.5284
 1516SOL    HW216008   2.450   1.009   5.994 -0.6744  0.3659 -0.4443
 1517SOL     OW16009   3.371   2.151   3.705  0.0887  0.2199  0.3178
 1517SOL    HW116010   3.436   2.219   3.720  0.9902 -0.2118 -1.5531
 1517SOL    HW216011   3.312   2.198   3.646 -0.0159  0.1842  0.3937
 1518SOL     OW16012   3.661   4.703   7.965 -0.3103  0.0746 -0.4272
 1518SOL    HW116013   3.749   4.671   7.984  0.0008  1.5644  0.6081
 1518SOL    HW216014   3.648   4.665   7.878  0.3276 -0.9995 -0.0616
 1519SOL     OW16015   4.591   3.622   7.613 -0.0907 -0.1566  0.0764
 1519SOL    HW116016   4.546   3.572   7.681  1.7831 -0.1216  1.3516
 1519SOL    HW216017   4.597   3.707   7.659  0.6061  0.2735 -0.8150
 1520SOL     OW16018   0.803   4.476   3.708  0.2575 -0.5477 -0.0486
 1520SOL    HW116019   0.876   4.439   3.757  1.2242 -0.6331 -1.5321
 1520SOL    HW216020   0.746   4.407   3.675 -0.8294  1.4536 -2.3974
 1521SOL     OW16021   2.982   0.252   0.713 -0.1691  0.4085 -0.1007
 1521SOL    HW116022   2.948   0.334   0.677 -0.3163  0.3641 -0.0614
 1521SOL    HW216023   2.915   0.241   0.780 -0.2776 -1.2715 -0.5075
 1522SOL     OW16024   2.377   4.288  15.768 -0.2354 -0.2648 -0.2126
 1522SOL    HW116025   2.386   4.194  15.782 -0.7386 -0.2352  0.2892
 1522SOL    HW216026   2.326   4.315  15.844  1.5374  0.2394  0.7931
 1523SOL     OW16027   0.393   2.720   8.411 -0.1824 -0.5151 -0.1303
 1523SOL    HW116028   0.462   2.769   8.456  0.3348 -1.5083  0.1436
 1523SOL    HW216029   0.436   2.635   8.401  1.3860  0.3867 -1.0202
 1524SOL     OW16030   4.639   3.441   7.147  0.0275 -0.0084  0.2804
 1524SOL    HW116031   4.702   3.512   7.163 -1.4905  1.4224 -0.0681
 1524SOL    HW216032   4.607   3.431   7.237 -1.2287  0.3983 -0.1302
 1525SOL     OW16033   0.570   0.785   0.880  0.0551 -0.4007 -0.5522
 1525SOL    HW116034   0.593   0.780   0.973  0.4915 -2.4759 -0.7745
 1525SOL    HW216035   0.625   0.858   0.854 -0.9537  1.5983  2.8142
 1526SOL     OW16036   4.159   3.533   6.766 -0.0918  0.4564 -0.3353
 1526SOL    HW116037   4.110   3.465   6.814 -0.2134 -0.4302 -1.7238
 1526SOL    HW216038   4.142   3.512   6.674 -0.1195  2.9122 -0.8736
 1527SOL     OW16039   0.408   1.971   1.902 -0.0723 -0.5681 -0.3998
 1527SOL    HW116040   0.326   2.017   1.888 -0.9453 -1.3830  2.0512
 1527SOL    HW216041   0.458   2.036   1.951  1.0374 -0.1032 -2.1367
 1528SOL     OW16042   1.564   1.436  16.292  0.4320 -0.3286  0.3014
 1528SOL    HW116043   1.481   1.475  16.266  0.0726  0.3731  2.4919
 1528SOL    HW216044   1.566   1.370  16.223 -0.1073  2.6843 -2.5884
 1529SOL     OW16045   2.491   2.995   0.138 -0.3468  0.0370  0.0780
 1529SOL    HW116046   2.487   3.063   0.205 -0.2237  0.0730  0.0497
 1529SOL    HW216047   2.426   3.032   0.080 -0.4252  1.7769  1.2919
 1530SOL     OW16048   3.531   2.200  13.892  0.9294 -0.0550  0.2776
 1530SOL    HW116049   3.478   2.125  13.864 -0.2290  0.2864  1.5744
 1530SOL    HW216050   3.491   2.221  13.977 -1.0529 -0.1907 -0.6257
 1531SOL     OW16051   1.283   4.378   6.343  0.0453  0.7075  0.1871
 1531SOL    HW116052   1.230   4.403   6.419  1.3810 -0.2220  1.4219
 1531SOL    HW216053   1.351   4.325   6.385 -0.8036  0.3136  1.0899
 1532SOL     OW16054   1.501   0.281  12.885 -0.3019 -0.2257  0.4086
 1532SOL    HW116055   1.469   0.357  12.836 -0.0703 -0.8889 -0.7610
 1532SOL    HW216056   1.503   0.312  12.976  0.2146  2.3776 -0.5026
 1533SOL     OW16057   0.628   1.865   6.081 -0.5082  0.0844  0.5065
 1533SOL    HW116058   0.717   1.860   6.046 -1.1430  0.1468 -1.1404
 1533SOL    HW216059   0.612   1.781   6.124  2.6617 -1.0067 -0.4561
 1534SOL     OW16060   1.199   3.586   3.530  0.1749  0.0328  0.5220
 1534SOL    HW116061   1.214   3.497   3.561 -1.2369  0.1137  1.4038
 1534SOL    HW216062   1.138   3.570   3.458 -0.6945  1.6192  0.9187
 1535SOL     OW16063   0.558   2.475   6.423 -0.1007 -0.1011  0.3753
 1535SOL    HW116064   0.594   2.564   6.415  1.4186 -0.6394  1.1580
 1535SOL    HW216065   0.465   2.487   6.442  0.4139 -0.2468  2.9245
 1536SOL     OW16066   3.267   2.669   5.818 -0.0152 -0.3052 -0.0811
 1536SOL    HW116067   3.342   2.702   5.768 -0.8590 -1.1071 -1.8958
 1536SOL    HW216068   3.204   2.654   5.747 -2.8442 -2.1348  2.8553
 1537SOL     OW16069   1.403   4.242   5.738 -0.7562 -0.4470 -0.7884
 1537SOL    HW116070   1.419   4.272   5.648 -0.7670  1.6101 -0.1040
 1537SOL    HW216071   1.329   4.298   5.763 -1.5798 -1.0303 -1.9289
 1538SOL     OW16072   2.644   1.679   1.564  0.1928  0.1681  0.2649
 1538SOL    HW116073   2.679   1.627   1.637  0.5719 -0.5633 -0.4396
 1538SOL    HW216074   2.723   1.732   1.553  0.4775  0.1726  2.1792
 1539SOL     OW16075   2.987   2.503   2.974 -0.2869  0.3480 -0.0180
 1539SOL    HW116076   3.065   2.527   2.925 -0.4933 -1.3188 -1.1762
 1539SOL    HW216077   2.922   2.559   2.932 -0.5605  1.5135  1.9711
 1540SOL     OW16078   3.025   4.451   0.625  0.1508 -0.2924  0.3911
 1540SOL    HW116079   2.967   4.388   0.667  0.5723 -1.5126 -0.8339
 1540SOL    HW216080   2.990   4.537   0.648 -0.6439 -1.1625  2.4226
 1541SOL     OW16081   2.572   3.502   4.327 -0.2236 -0.3993  0.6077
 1541SOL    HW116082   2.505   3.570   4.317 -0.3828 -0.9347 -1.8883
 1541SOL    HW216083   2.652   3.552   4.313 -1.4626  0.7396 -2.4546
 1542SOL     OW16084   3.774   3.387   6.334  0.2710  0.5188 -0.5928
 1542SOL    HW116085   3.797   3.464   6.283 -1.8737 -0.5979 -3.2193
 1542SOL    HW216086   3.861   3.374   6.371 -0.5001 -2.6734  0.0982
 1543SOL     OW16087   3.571   0.687   8.862 -0.4214 -0.5207  0.0610
 1543SOL    HW116088   3.583   0.700   8.956 -0.2679  0.4927 -0.1042
 1543SOL    HW216089   3.553   0.593   8.855 -1.0144 -0.2623 -1.9814
 1544SOL     OW16090   2.522   4.211   7.437 -0.3025 -0.5574 -0.0875
 1544SOL    HW116091   2.616   4.210   7.417 -0.1599 -0.7968  0.6169
 1544SOL    HW216092   2.482   4.173   7.359 -0.7930 -0.9151  0.3411
 1545SOL     OW16093   0.416   0.987   3.671 -0.4165  0.3331  0.6674
 1545SOL    HW116094   0.444   0.914   3.726  2.8538  1.6159  0.7160
 1545SOL    HW216095   0.358   0.945   3.607 -0.2564 -2.3756  2.3026
 1546SOL     OW16096   4.345   0.153   2.925  0.1978 -0.2597  0.1398
 1546SOL    HW116097   4.271   0.164   2.865  0.2234 -0.5082  0.0614
 1546SOL    HW216098   4.417   0.150   2.862 -0.9070 -1.6975 -1.0732
 1547SOL     OW16099   0.222   4.528   3.643  0.2912 -0.3273  0.1237
 1547SOL    HW116100   0.282   4.523   3.718 -2.0664  1.5940  2.1429
 1547SOL    HW216101   0.138   4.510   3.686  0.2972 -1.6309 -0.4372
 1548SOL     OW16102   0.414   2.235   2.644 -0.0472  0.3794 -0.1128
 1548SOL    HW116103   0.357   2.265   2.715 -1.4816 -0.3938 -0.9233
 1548SOL    HW216104   0.357   2.248   2.568  0.0644  3.5979  0.3634
 1549SOL     OW16105   3.701   4.616   4.384  0.3744 -0.4778  0.5910
 1549SOL    HW116106   3.715   4.687   4.447  1.9384 -0.5108  0.2883
 1549SOL    HW216107   3.769   4.644   4.323  1.7347 -2.0102  1.4031
 1550SOL     OW16108   3.434   2.292  16.109  0.0345 -0.1071  0.2182
 1550SOL    HW116109   3.418   2.385  16.092 -0.8057 -0.0992  1.0403
 1550SOL    HW216110   3.528   2.276  16.113  0.1661  0.3401 -1.1688
 1551SOL     OW16111   1.833   3.643   5.887 -0.4570  0.0372  0.2108
 1551SOL    HW116112   1.895   3.650   5.814 -0.6416  1.5356  0.2066
 1551SOL    HW216113   1.823   3.548   5.874  1.2316 -0.1064 -0.0445
 1552SOL     OW16114   0.375   2.538   3.332  0.9211 -0.0099  0.1589
 1552SOL    HW116115   0.420   2.587   3.401  1.7018 -1.0737  0.4101
 1552SOL    HW216116   0.311   2.489   3.383  2.4000 -1.0191  1.0598
 1553SOL     OW16117   1.942   4.697   8.700 -0.5032 -0.0954 -0.2060
 1553SOL    HW116118   1.885   0.043   8.678 -0.1478  0.3661  0.3923
 1553SOL    HW216119   1.890   4.645   8.761  1.3816 -1.3741  0.3290
 1554SOL     OW16120   1.808   0.040   7.318  0.1816  0.5632  0.0407
 1554SOL    HW116121   1.807   0.133   7.295  0.7228  1.0316  1.9544
 1554SOL    HW216122   1.894   0.034   7.359  0.9846 -0.9377 -1.8976
 1555SOL     OW16123   2.615   0.211   6.742  0.5731 -0.3848  0.0197
 1555SOL    HW116124   2.710   0.215   6.736  0.4798 -0.4658 -1.4243
 1555SOL    HW216125   2.591   0.139   6.685 -2.1111 -0.8442  1.6909
 1556SOL     OW16126   3.607   3.733   4.332  0.8044  0.0156  0.3290
 1556SOL    HW116127   3.666   3.796   4.374  0.8011  1.1240 -1.2955
 1556SOL    HW216128   3.571   3.796   4.269  0.1611 -1.0342 -0.3472
 1557SOL     OW16129   2.102   0.569   2.802 -0.2730 -0.3786  0.3973
 1557SOL    HW116130   2.112   0.610   2.888 -2.5638  0.1420  0.4012
 1557SOL    HW216131   2.104   0.477   2.830 -1.1365 -0.3809  0.4321
 1558SOL     OW16132   4.358   0.314   5.700 -0.8032  0.1508 -0.5368
 1558SOL    HW116133   4.325   0.289   5.786  1.5374  0.8418  0.5475
 1558SOL    HW216134   4.305   0.264   5.638 -3.0984  1.4604  0.3476
 1559SOL     OW16135   1.906   2.112   3.424  0.1993 -0.3216  0.2641
 1559SOL    HW116136   1.955   2.038   3.459  0.4635 -1.4966 -2.5864
 1559SOL    HW216137   1.848   2.142   3.494  0.7237  2.1928 -0.3847
 1560SOL     OW16138   3.223   0.845   7.676 -0.1279  0.1616 -0.3276
 1560SOL    HW116139   3.238   0.758   7.638 -0.1094 -0.8226  1.9107
 1560SOL    HW216140   3.168   0.833   7.753 -0.7102  0.9111 -0.6277
 1561SOL     OW16141   4.660   3.873   8.827 -0.7332  0.4504 -0.5617
 1561SOL    HW116142   4.644   3.959   8.788 -1.9818 -0.6988 -2.5553
 1561SOL    HW216143   4.702   3.897   8.909 -1.4977 -0.1490  0.0116
 1562SOL     OW16144   0.153   3.636  15.962 -0.1396  0.2528  0.2351
 1562SOL    HW116145   0.120   3.548  15.982 -0.9727  0.7915  1.1972
 1562SOL    HW216146   0.215   3.605  15.896 -0.1286  1.0363 -0.1178
 1563SOL     OW16147   4.477   0.741   6.721  0.6387 -0.0580 -0.7534
 1563SOL    HW116148   4.541   0.764   6.788  2.4030 -2.9466 -1.4358
 1563SOL    HW216149   4.413   0.802   6.757 -0.2143 -1.1347 -0.4704
 1564SOL     OW16150   3.344   3.586   6.924 -0.1070  0.6213 -0.0366
 1564SOL    HW116151   3.279   3.656   6.917 -0.0824  0.8600  2.1798
 1564SOL    HW216152   3.337   3.580   7.019 -1.8883 -0.6155 -0.2576
 1565SOL     OW16153   0.375   4.376   6.094 -0.1187 -0.4075  0.1955
 1565SOL    HW116154   0.382   4.429   6.172 -0.5070 -1.0236  0.6533
 1565SOL    HW216155   0.412   4.298   6.134 -0.5271 -0.1939  0.9837
 1566SOL     OW16156   0.281   2.785  15.399  0.4370  0.5105 -0.4717
 1566SOL    HW116157   0.202   2.732  15.391 -0.5632  1.8403  0.4487
 1566SOL    HW216158   0.291   2.803  15.306  1.1509  0.8457 -0.3268
 1567SOL     OW16159   2.374   4.241   6.379  0.3996  0.2792 -0.3193
 1567SOL    HW116160   2.416   4.327   6.375  0.3218  0.2789 -1.0033
 1567SOL    HW216161   2.432   4.197   6.317 -0.9941 -0.1149 -1.3603
 1568SOL     OW16162   3.473   3.194   6.014 -0.1146  0.2958  0.2824
 1568SOL    HW116163   3.422   3.265   6.055 -0.0482  0.5651 -0.1001
 1568SOL    HW216164   3.560   3.231   6.002 -0.1619  0.8590  1.6261
 1569SOL     OW16165   3.117   3.599   2.196  0.0983  0.5969 -0.2796
 1569SOL    HW116166   3.201   3.645   2.193  0.1915  0.7758  5.0272
 1569SOL    HW216167   3.056   3.663   2.234 -1.7632 -1.0679 -0.4554
 1570SOL     OW16168   3.815   4.104   0.184 -0.6321 -0.3853  0.4500
 1570SOL    HW116169   3.905   4.128   0.163 -1.2097  1.6696  0.2990
 1570SOL    HW216170   3.830   4.012   0.163  2.4454  0.5521 -1.4815
 1571SOL     OW16171   1.734   1.772   4.807 -0.4290  0.2143 -0.3777
 1571SOL    HW116172   1.752   1.827   4.730 -0.3907  0.4147 -0.2242
 1571SOL    HW216173   1.800   1.703   4.797  0.1554  0.3834  2.4924
 1572SOL     OW16174   2.053   1.802   8.397 -0.2599 -0.7448 -0.4098
 1572SOL    HW116175   1.962   1.775   8.409 -0.3188 -1.2643 -2.0061
 1572SOL    HW216176   2.081   1.732   8.339  0.8525 -0.9398  0.3524
 1573SOL     OW16177   3.275   1.395  10.875 -0.6579  0.0345  0.5805
 1573SOL    HW116178   3.226   1.467  10.914 -0.7376 -0.8015  2.0166
 1573SOL    HW216179   3.227   1.318  10.906 -1.0852  0.8434  1.9406
 1574SOL     OW16180   1.808   4.294  15.954 -0.1549 -0.1915 -0.0013
 1574SOL    HW116181   1.825   4.338  16.037 -1.0808  0.9515 -0.4200
 1574SOL    HW216182   1.771   4.364  15.901  0.4830  0.6368  0.6476
 1575SOL     OW16183   1.611   1.436  14.969  0.5835  0.4821  0.6467
 1575SOL    HW116184   1.689   1.382  14.961  1.2190  1.7587 -1.9167
 1575SOL    HW216185   1.618   1.484  15.051 -0.1580  0.0510  0.9668
 1576SOL     OW16186   3.222   2.833  13.076  0.5048 -0.6460  0.1527
 1576SOL    HW116187   3.308   2.794  13.095 -0.3562 -0.7812  3.8397
 1576SOL    HW216188   3.244   2.903  13.015  1.1383 -2.2071 -1.4329
 1577SOL     OW16189   3.342   4.424   0.241  0.0140  0.2297  0.0641
 1577SOL    HW116190   3.333   4.453   0.332 -0.4394  2.7519 -0.7916
 1577SOL    HW216191   3.420   4.369   0.246 -0.9367 -1.3021 -2.1368
 1578SOL     OW16192   1.785   1.535   8.386 -0.5256  0.4900  0.8029
 1578SOL    HW116193   1.844   1.462   8.371 -1.9711 -0.5855  0.4068
 1578SOL    HW216194   1.716   1.486   8.431 -0.1998 -0.2246  0.5134
 1579SOL     OW16195   3.926   1.236  14.380 -0.5599 -0.4736 -0.1005
 1579SOL    HW116196   3.872   1.226  14.459 -0.1796  0.0687  0.2337
 1579SOL    HW216197   3.855   1.262  14.321  0.6273 -1.9533 -2.1325
 1580SOL     OW16198   4.581   1.927   5.722  0.3974 -0.4549  0.1293
 1580SOL    HW116199   4.490   1.924   5.752 -0.1074 -1.6764 -1.5027
 1580SOL    HW216200   4.595   1.834   5.704 -0.5826 -0.2197 -1.8551
 1581SOL     OW16201   1.957   1.624   4.853 -0.4352  0.0185  0.3136
 1581SOL    HW116202   1.951   1.598   4.760  1.3232  0.3514  0.1109
 1581SOL    HW216203   2.028   1.565   4.879 -0.9823 -0.6322  0.3461
 1582SOL     OW16204   1.526   3.402  13.265 -0.1998  0.1136  0.1471
 1582SOL    HW116205   1.594   3.350  13.307 -1.0975 -1.6383 -0.5966
 1582SOL    HW216206   1.462   3.416  13.335  0.7421 -1.6728  1.3602
 1583SOL     OW16207   4.377   3.607   5.799  0.1870 -0.5711  0.1096
 1583SOL    HW116208   4.399   3.700   5.799  2.3004 -1.0404 -3.6103
 1583SOL    HW216209   4.339   3.591   5.885 -0.5857 -1.2935 -0.3668
 1584SOL     OW16210   4.712   4.382  17.352 -0.6121  0.1534  0.0700
 1584SOL    HW116211   0.041   4.342  17.285  0.8620 -0.4793  1.6865
 1584SOL    HW216212   4.726   4.472  17.323 -0.3664  0.1762  0.2560
 1585SOL     OW16213   1.833   1.172   3.108 -0.2304  0.6826  0.3675
 1585SOL    HW116214   1.866   1.243   3.053  1.8680  0.9136  1.9320
 1585SOL    HW216215   1.761   1.125   3.067 -0.2145  1.5868 -0.7088
 1586SOL     OW16216   0.849   0.575   3.899 -0.5199 -0.5968  0.0274
 1586SOL    HW116217   0.806   0.618   3.825 -1.6531 -0.5682  0.7000
 1586SOL    HW216218   0.918   0.640   3.909 -1.1960  0.2519 -0.8430
 1587SOL     OW16219   2.042   1.091  16.426  0.0392 -0.2705 -0.7122
 1587SOL    HW116220   2.118   1.038  16.403  1.1758  1.1861 -0.3164
 1587SOL    HW216221   2.060   1.116  16.517 -1.1655 -1.2250 -0.2182
 1588SOL     OW16222   4.009   2.557   4.066  0.2719 -0.1710  0.5434
 1588SOL    HW116223   3.928   2.587   4.108 -1.2835 -0.1673 -2.4101
 1588SOL    HW216224   3.975   2.485   4.012  0.3122 -0.0141  0.3081
 1589SOL     OW16225   0.118   0.717   5.783 -0.0283 -0.5907  0.5358
 1589SOL    HW116226   0.208   0.746   5.799 -0.2264  0.0627  0.4768
 1589SOL    HW216227   0.129   0.641   5.725 -2.4389 -0.6563  0.1872
 1590SOL     OW16228   3.580   3.079  14.944  0.1423 -0.4120 -0.0744
 1590SOL    HW116229   3.618   3.102  14.859  0.8683 -2.9684 -0.4341
 1590SOL    HW216230   3.512   3.145  14.955  0.2645 -0.3866  0.5037
 1591SOL     OW16231   0.892   2.565  17.295  0.0232 -0.2921  0.2279
 1591SOL    HW116232   0.856   2.591  17.380  0.2166 -0.6109  0.4092
 1591SOL    HW216233   0.977   2.608  17.293 -0.3891  0.5484  0.7926
 1592SOL     OW16234   1.242   2.306   2.151  0.3978  0.1335  0.3575
 1592SOL    HW116235   1.148   2.285   2.145  0.1140  2.0453 -1.7941
 1592SOL    HW216236   1.238   2.400   2.173 -1.1186  0.1564  0.0113
 1593SOL     OW16237   2.592   4.292  15.270 -0.6594  0.1317  0.4628
 1593SOL    HW116238   2.545   4.371  15.242 -1.8574 -0.7220  0.0788
 1593SOL    HW216239   2.526   4.255  15.329 -0.4093  1.9134  1.8694
 1594SOL     OW16240   3.847   2.184   2.321 -0.3556 -0.2633 -0.0330
 1594SOL    HW116241   3.910   2.132   2.371  0.6445 -1.8809 -3.0292
 1594SOL    HW216242   3.907   2.207   2.250 -0.1238 -1.4381 -0.2031
 1595SOL     OW16243   0.822   3.263   3.888 -0.0254  0.4380 -0.1411
 1595SOL    HW116244   0.784   3.184   3.850  0.9526 -1.1487  2.1656
 1595SOL    HW216245   0.864   3.231   3.968 -1.0715 -1.1993 -0.2516
 1596SOL     OW16246   0.120   3.555  16.376  0.4467  0.8062 -0.0301
 1596SOL    HW116247   0.151   3.616  16.309  1.1552  0.4854  0.0012
 1596SOL    HW216248   0.040   3.595  16.412 -0.4860 -0.0686 -1.1613
 1597SOL     OW16249   2.003   4.178  13.849  0.2764 -0.0601 -0.0105
 1597SOL    HW116250   1.928   4.145  13.799  0.5060 -0.9032  0.1965
 1597SOL    HW216251   2.079   4.134  13.812  0.5432  2.0041 -1.9365
 1598SOL     OW16252   1.355   0.295   5.774 -0.2449 -0.0690  0.2752
 1598SOL    HW116253   1.385   0.277   5.863  0.6454  0.5395  0.0970
 1598SOL    HW216254   1.433   0.330   5.733 -0.2993  1.6767  1.6589
 1599SOL     OW16255   1.251   0.006   7.609 -0.6878 -0.3032 -0.1061
 1599SOL    HW116256   1.319   0.048   7.556 -0.5683 -0.5740 -0.1667
 1599SOL    HW216257   1.191   4.726   7.536 -2.1503  2.3463  0.8738
 1600SOL     OW16258   1.657   0.013   4.041  0.1234  0.7080  0.6670
 1600SOL    HW116259   1.676   4.646   4.029  0.1526  1.2523 -3.4238
 1600SOL    HW216260   1.575   0.005   3.994  0.5007  1.8139 -0.1774
 1601SOL     OW16261   2.744   1.342  17.424 -0.2427 -0.0138 -0.2969
 1601SOL    HW116262   2.714   1.286  17.496 -2.6539  2.4380  0.6047
 1601SOL    HW216263   2.780   1.275  17.365 -1.4699  0.1326 -1.1912
 1602SOL     OW16264   2.086   3.481   8.095  0.5504  0.0878  0.4782
 1602SOL    HW116265   2.034   3.408   8.061  1.1570 -0.5490  0.9043
 1602SOL    HW216266   2.083   3.470   8.190  0.6639 -1.9974  0.2548
 1603SOL     OW16267   4.575   2.537   2.957 -0.0164  0.0722  0.3209
 1603SOL    HW116268   4.503   2.560   2.898  2.5650  1.6728 -2.1686
 1603SOL    HW216269   4.621   2.620   2.959 -1.1363  0.6717  0.9413
 1604SOL     OW16270   2.865   2.790   3.533 -0.7119 -0.2342  0.1017
 1604SOL    HW116271   2.823   2.844   3.599  1.0706  1.4063 -0.1161
 1604SOL    HW216272   2.942   2.765   3.583 -1.8847 -1.0809  1.4748
 1605SOL     OW16273   4.473   1.033  17.305  0.4029  0.0663 -0.5214
 1605SOL    HW116274   4.549   0.991  17.265 -0.2559 -0.8001 -0.8760
 1605SOL    HW216275   4.440   1.079  17.229 -1.0559 -3.1241 -1.8128
 1606SOL     OW16276   2.123   4.164  15.948 -0.2915 -0.3933  0.6394
 1606SOL    HW116277   2.084   4.193  15.866 -0.7454 -0.4474  0.8371
 1606SOL    HW216278   2.157   4.248  15.977 -0.2328 -0.8004  1.7567
 1607SOL     OW16279   3.458   2.565  14.523 -0.8967 -0.0858  0.2356
 1607SOL    HW116280   3.380   2.587  14.575 -0.7121 -0.0348  0.4905
 1607SOL    HW216281   3.437   2.624  14.450 -0.5368  2.7455  2.4120
 1608SOL     OW16282   1.962   4.190  15.732 -0.1757  0.3238 -0.2611
 1608SOL    HW116283   1.896   4.140  15.685 -0.2191  2.3075 -2.3297
 1608SOL    HW216284   1.919   4.213  15.814 -0.1994  0.0255 -0.1920
 1609SOL     OW16285   4.256   2.391  12.466  0.2917 -0.2002 -0.0138
 1609SOL    HW116286   4.324   2.349  12.518 -0.2625 -1.7895 -0.5576
 1609SOL    HW216287   4.314   2.460  12.432 -1.9046  0.8638 -1.5894
 1610SOL     OW16288   3.127   2.943   4.729 -0.4830  0.2296  0.4512
 1610SOL    HW116289   3.067   3.008   4.765 -0.0246  0.6451  0.4573
 1610SOL    HW216290   3.124   2.874   4.796  0.6242  1.6354  1.9367
 1611SOL     OW16291   2.280   3.243   9.446 -0.0789 -0.1480  0.5415
 1611SOL    HW116292   2.349   3.278   9.504  0.5492  1.3942 -1.1427
 1611SOL    HW216293   2.309   3.152   9.452 -1.1811 -0.5298  0.0861
 1612SOL     OW16294   1.650   2.904   3.313 -0.3068 -0.3752  0.5121
 1612SOL    HW116295   1.602   2.894   3.395 -0.0979 -1.1412  0.5467
 1612SOL    HW216296   1.743   2.906   3.336  0.0051  1.4218 -0.9173
 1613SOL     OW16297   0.836   3.110   6.498  1.2078 -0.0810  0.0805
 1613SOL    HW116298   0.749   3.095   6.460  0.8779 -0.7150  1.0624
 1613SOL    HW216299   0.881   3.134   6.418  0.6657 -1.6001 -0.6832
 1614SOL     OW16300   3.174   4.635  16.401 -0.0422  0.2332  0.2454
 1614SOL    HW116301   3.247   4.586  16.438  0.5068  1.9896  1.4558
 1614SOL    HW216302   3.114   4.560  16.397 -3.1843  2.8652 -2.5362
 1615SOL     OW16303   2.235   3.523   3.198  0.1918  0.0822 -0.2738
 1615SOL    HW116304   2.301   3.550   3.134  0.2434  0.5654 -0.0248
 1615SOL    HW216305   2.194   3.452   3.149 -1.8833  2.1395 -1.5322
 1616SOL     OW16306   4.454   2.596   6.812  0.4645 -0.5974 -0.4131
 1616SOL    HW116307   4.398   2.518   6.816  0.2576 -0.6188 -3.5091
 1616SOL    HW216308   4.405   2.662   6.861 -0.1577 -1.6776  0.4202
 1617SOL     OW16309   4.654   3.006   0.746  0.1340 -0.2968  0.1323
 1617SOL    HW116310   4.684   2.920   0.777 -0.6570 -0.5607  0.1756
 1617SOL    HW216311   4.598   3.029   0.820 -0.6178  1.8526 -1.0917
 1618SOL     OW16312   2.524   2.506  16.059 -0.6410  0.2858  0.4002
 1618SOL    HW116313   2.586   2.446  16.101 -0.3561  0.5038  0.2934
 1618SOL    HW216314   2.568   2.589  16.040 -3.6100  1.2265 -2.2965
 1619SOL     OW16315   4.706   0.944   9.607  0.3957  0.7281 -0.4259
 1619SOL    HW116316   0.051   1.004   9.627 -0.3506  1.0569  1.2666
 1619SOL    HW216317   0.013   0.866   9.652  1.1119  1.3144  0.0446
 1620SOL     OW16318   0.339   0.126  16.307 -0.3414 -0.7480  0.3393
 1620SOL    HW116319   0.332   0.161  16.396 -3.6770 -0.9284  0.1404
 1620SOL    HW216320   0.325   0.033  16.324  0.9419 -0.6040  2.2322
 1621SOL     OW16321   2.781   2.160   8.221 -0.1515  0.9592 -0.6843
 1621SOL    HW116322   2.729   2.168   8.141 -0.2422 -0.6710 -0.7881
 1621SOL    HW216323   2.867   2.154   8.179 -0.3694  0.4658 -1.0627
 1622SOL     OW16324   2.122   0.327  16.722 -0.0764 -0.0049  0.0432
 1622SOL    HW116325   2.090   0.390  16.787 -0.7209  1.7470 -1.9797
 1622SOL    HW216326   2.203   0.293  16.761  0.5513 -0.3972 -1.6036
 1623SOL     OW16327   1.204   3.384  14.468 -0.0190  0.1201 -0.4985
 1623SOL    HW116328   1.225   3.475  14.445  1.1697  0.4875  1.9385
 1623SOL    HW216329   1.282   3.343  14.431  1.7590  0.9100  2.2938
 1624SOL     OW16330   3.798   2.921   4.646  0.2358  0.5057  0.2632
 1624SOL    HW116331   3.712   2.884   4.626 -0.0257 -0.3452  2.9355
 1624SOL    HW216332   3.856   2.851   4.618 -0.7376 -0.2071  0.0521
 1625SOL     OW16333   2.837   4.661   2.596  0.2332 -0.0552 -0.1691
 1625SOL    HW116334   2.843   4.568   2.617  0.5552  0.0131  0.0323
 1625SOL    HW216335   2.830   4.665   2.501 -2.1077  1.3955  0.0542
 1626SOL     OW16336   0.769   0.740   7.322 -0.3384  0.4698 -0.6330
 1626SOL    HW116337   0.857   0.747   7.287 -0.3818  0.1590 -0.8035
 1626SOL    HW216338   0.720   0.717   7.243  0.5268 -0.9631 -0.7425
 1627SOL     OW16339   0.992   1.782   5.439  0.5404 -0.4423 -0.5052
 1627SOL    HW116340   0.898   1.802   5.441  0.6837  0.2051 -0.5151
 1627SOL    HW216341   1.023   1.840   5.370 -0.2853  0.3854 -0.1800
 1628SOL     OW16342   0.176   1.606  11.914  0.7435 -0.0973  0.1958
 1628SOL    HW116343   0.195   1.574  12.002  0.3670 -0.3252  0.1967
 1628SOL    HW216344   0.117   1.681  11.926 -3.3474 -3.0285 -1.6591
 1629SOL     OW16345   1.303   0.598   4.260  0.6131  0.1251  0.2732
 1629SOL    HW116346   1.216   0.638   4.250  0.1679 -0.9310 -0.0891
 1629SOL    HW216347   1.287   0.567   4.350  0.9481 -1.3303 -0.1593
 1630SOL     OW16348   1.844   0.340   3.633  0.5518  0.8752 -0.5108
 1630SOL    HW116349   1.911   0.276   3.657 -1.9932 -1.4772  0.3248
 1630SOL    HW216350   1.811   0.302   3.552 -1.0361 -0.0149  0.5556
 1631SOL     OW16351   4.717   3.126  13.719 -0.1019  0.0050  0.4614
 1631SOL    HW116352   0.002   3.113  13.625 -5.1291 -0.7132 -0.0148
 1631SOL    HW216353   4.639   3.076  13.744  1.1266 -1.9945  0.3292
 1632SOL     OW16354   2.370   0.793   3.411  0.3911  0.7473 -0.1302
 1632SOL    HW116355   2.333   0.709   3.438 -0.6197  1.8494  1.8775
 1632SOL    HW216356   2.393   0.781   3.319 -0.0007 -1.1956  0.0119
 1633SOL     OW16357   3.215   0.033  14.192 -0.7525 -0.1877  0.3819
 1633SOL    HW116358   3.245   0.103  14.134 -2.4660 -0.9619 -1.4100
 1633SOL    HW216359   3.151   0.091  14.235 -0.6044  0.6944 -0.5804
 1634SOL     OW16360   0.395   1.526  11.703  0.9031 -0.4909  0.1451
 1634SOL    HW116361   0.441   1.560  11.780  0.5945 -0.1129  0.1637
 1634SOL    HW216362   0.450   1.452  11.679  0.7645 -1.0605  1.6155
 1635SOL     OW16363   1.568   2.218  17.046  0.0528  0.5278  0.2315
 1635SOL    HW116364   1.634   2.237  17.112 -2.2915  2.9373  1.8937
 1635SOL    HW216365   1.614   2.261  16.975  0.6055 -0.5557 -0.0714
 1636SOL     OW16366   4.190   0.450   5.372 -0.0889  0.5439  0.2006
 1636SOL    HW116367   4.171   0.474   5.463  0.1449 -1.0046  0.6627
 1636SOL    HW216368   4.285   0.462   5.367 -0.4460  2.6882 -1.7067
 1637SOL     OW16369   4.700   1.208   5.122 -0.8872  0.3105 -0.2095
 1637SOL    HW116370   4.673   1.296   5.148 -1.4300  0.3394 -0.8853
 1637SOL    HW216371   4.654   1.155   5.187 -0.3531 -0.8447 -0.7704
 1638SOL     OW16372   2.252   2.056   2.258 -0.0751 -0.5193 -0.1267
 1638SOL    HW116373   2.192   1.988   2.288 -1.8279  1.5432  1.0430
 1638SOL    HW216374   2.279   2.104   2.336  0.6945 -0.7905 -0.2254
 1639SOL     OW16375   1.955   1.371   7.558  0.0310  0.9875 -0.0784
 1639SOL    HW116376   1.878   1.383   7.502  1.5991  0.9631 -2.2517
 1639SOL    HW216377   1.972   1.465   7.552 -1.4747  1.2992  0.6021
 1640SOL     OW16378   4.439   1.218   2.749 -1.2092 -0.2170  0.2171
 1640SOL    HW116379   4.351   1.255   2.744 -1.7302 -1.4516  0.3073
 1640SOL    HW216380   4.472   1.258   2.669  2.3480  0.3756  1.9746
 1641SOL     OW16381   1.305   4.419  15.083 -0.3743  0.1958 -0.0826
 1641SOL    HW116382   1.347   4.333  15.077 -0.4955  0.2128 -1.2637
 1641SOL    HW216383   1.345   4.469  15.011 -1.5836  0.6329 -0.4515
 1642SOL     OW16384   3.870   3.401   8.146  0.1780  0.3121 -0.2405
 1642SOL    HW116385   3.905   3.396   8.235 -2.0632  0.3569  0.6305
 1642SOL    HW216386   3.785   3.362   8.165 -0.4190  1.0914 -1.2815
 1643SOL     OW16387   4.164   4.238   9.004 -0.1903 -0.3485  0.0876
 1643SOL    HW116388   4.111   4.227   9.082  1.1774 -2.2771  0.7617
 1643SOL    HW216389   4.147   4.332   9.002 -0.0911 -0.3796 -2.5957
 1644SOL     OW16390   0.243   0.789   2.351  0.0572 -0.2944  0.4415
 1644SOL    HW116391   0.267   0.711   2.302  1.9668  0.5483 -0.0078
 1644SOL    HW216392   0.191   0.838   2.287  1.3534  0.8380  0.2440
 1645SOL     OW16393   0.867   0.544   6.716 -0.1260  0.1910  0.1251
 1645SOL    HW116394   0.893   0.548   6.624  2.5135 -0.6213  0.8310
 1645SOL    HW216395   0.828   0.457   6.721  1.4486 -0.3981  2.2136
 1646SOL     OW16396   3.639   1.585   7.686 -0.1252  0.6111  0.1981
 1646SOL    HW116397   3.673   1.536   7.761  1.4162  0.4578 -0.6005
 1646SOL    HW216398   3.550   1.603   7.715 -0.9976 -0.2370 -1.9582
 1647SOL     OW16399   3.823   3.197  15.110 -0.4241 -0.2976  0.1101
 1647SOL    HW116400   3.879   3.273  15.127  0.5648 -0.8790 -0.5427
 1647SOL    HW216401   3.743   3.243  15.083  1.4993  1.3288 -2.8638
 1648SOL     OW16402   0.799   3.135   4.346  0.0308 -0.5622 -0.3379
 1648SOL    HW116403   0.793   3.043   4.371  1.2034 -0.1070  1.6180
 1648SOL    HW216404   0.760   3.119   4.260  0.3493 -1.6781 -0.2748
 1649SOL     OW16405   2.628   0.096   4.354 -0.3176 -0.3840 -0.0192
 1649SOL    HW116406   2.646   0.151   4.278 -1.9211  0.4641  0.2115
 1649SOL    HW216407   2.570   0.035   4.308  5.0452 -2.6696 -3.6407
 1650SOL     OW16408   3.816   4.507  12.719  0.1845  0.0832  0.2686
 1650SOL    HW116409   3.846   4.596  12.738 -0.5852  0.4942 -0.4103
 1650SOL    HW216410   3.827   4.505  12.624 -0.8243  2.7263  0.0915
 1651SOL     OW16411   1.870   2.443   4.633  0.1813  0.5313  0.3433
 1651SOL    HW116412   1.952   2.452   4.682  0.5957  0.5175 -0.3528
 1651SOL    HW216413   1.847   2.536   4.633 -0.5543  0.3598 -2.8081
 1652SOL     OW16414   4.256   0.038   2.406  0.0945 -0.1814 -0.2389
 1652SOL    HW116415   4.336   0.005   2.366 -0.4460 -0.5120 -1.0379
 1652SOL    HW216416   4.231   0.099   2.336 -2.3449 -0.3269  0.5241
 1653SOL     OW16417   1.562   3.351   5.949 -0.2202 -0.0088 -0.1632
 1653SOL    HW116418   1.595   3.285   5.888  0.8881  0.7258 -0.3551
 1653SOL    HW216419   1.613   3.332   6.028  1.1206 -1.8487 -1.4735
 1654SOL     OW16420   0.893   1.879   7.000 -0.7157  0.3509 -0.0632
 1654SOL    HW116421   0.803   1.853   6.982  0.2101 -3.4110  0.6235
 1654SOL    HW216422   0.924   1.832   7.078 -0.0383  0.1726 -0.4367
 1655SOL     OW16423   2.111   0.818  16.948 -0.3844 -0.1707 -0.2070
 1655SOL    HW116424   2.104   0.913  16.958 -1.1758 -0.2311 -0.2024
 1655SOL    HW216425   2.073   0.814  16.860  1.1240 -1.4070 -0.7986
 1656SOL     OW16426   0.804   1.413   3.850 -0.3328 -0.0761 -0.0196
 1656SOL    HW116427   0.813   1.327   3.891 -0.8605  0.1946  0.6718
 1656SOL    HW216428   0.803   1.392   3.757  0.2452  0.9905 -0.2677
 1657SOL     OW16429   0.772   2.186   8.667  0.2753 -0.8500  0.6258
 1657SOL    HW116430   0.848   2.242   8.673 -1.5825  1.4944  2.2842
 1657SOL    HW216431   0.807   2.103   8.634  0.1727 -0.2069 -1.1151
 1658SOL     OW16432   1.879   2.692   3.083 -0.1732  0.2498  0.4478
 1658SOL    HW116433   1.873   2.727   2.994  1.2102 -1.2110 -0.2243
 1658SOL    HW216434   1.973   2.693   3.099 -0.4586  0.4386  2.1073
 1659SOL     OW16435   3.459   4.047   6.333  0.0079  0.1877  0.0265
 1659SOL    HW116436   3.526   4.106   6.298 -2.3622  2.5804 -0.5185
 1659SOL    HW216437   3.449   4.075   6.424  1.2894 -2.0636  0.8723
 1660SOL     OW16438   0.189   2.049   9.197 -0.0301 -0.1848 -0.5071
 1660SOL    HW116439   0.210   2.111   9.127 -1.4772  1.4209  0.4707
 1660SOL    HW216440   0.226   1.965   9.170  1.2930  0.2857 -0.1670
 1661SOL     OW16441   1.071   3.919   4.225 -0.2726  0.5828 -0.2536
 1661SOL    HW116442   1.111   3.915   4.138  0.8178 -1.6288  0.3544
 1661SOL    HW216443   1.145   3.939   4.282 -0.6849  2.1942 -0.2788
 1662SOL     OW16444   4.392   4.108   8.668  0.1498 -0.5062 -0.6830
 1662SOL    HW116445   4.387   4.081   8.760 -1.4823  1.9962 -0.0183
 1662SOL    HW216446   4.485   4.096   8.651  0.7003  0.5670  1.6363
 1663SOL     OW16447   4.529   1.163  17.037 -0.1346 -0.1883  0.1050
 1663SOL    HW116448   4.547   1.118  16.955  4.0591 -0.2479  1.0208
 1663SOL    HW216449   4.437   1.185  17.025  0.3886 -0.2647 -3.9397
 1664SOL     OW16450   3.547   3.567   8.067 -0.8149  0.2326 -0.1970
 1664SOL    HW116451   3.631   3.612   8.063  0.3158 -1.9015 -0.5365
 1664SOL    HW216452   3.543   3.535   7.977  0.0893 -0.1599 -0.0996
 1665SOL     OW16453   1.551   1.169   5.532  0.2634  0.0668 -0.1000
 1665SOL    HW116454   1.557   1.077   5.506  1.8370 -0.1455  1.0190
 1665SOL    HW216455   1.554   1.158   5.627  0.3836  2.8133  0.2349
 1666SOL     OW16456   2.147   2.309   9.306 -0.2934  0.3874  0.0316
 1666SOL    HW116457   2.203   2.330   9.231 -0.4167 -0.6955 -0.3649
 1666SOL    HW216458   2.078   2.375   9.295 -1.3686 -0.7348 -0.0150
 1667SOL     OW16459   2.991   3.082   8.627  0.3043 -0.0496  0.1606
 1667SOL    HW116460   2.964   3.106   8.716 -2.6548 -0.9094 -0.4942
 1667SOL    HW216461   2.983   3.170   8.591 -0.4882 -0.2840 -0.2372
 1668SOL     OW16462   2.816   3.876   6.718  0.1239 -0.4515  0.5889
 1668SOL    HW116463   2.855   3.807   6.663 -0.2841 -0.9056  0.8719
 1668SOL    HW216464   2.721   3.877   6.706  0.2012 -0.1462 -0.0011
 1669SOL     OW16465   3.610   3.005   3.759 -0.1098 -0.5228  0.0708
 1669SOL    HW116466   3.668   3.080   3.773 -1.5844  0.6371 -0.0799
 1669SOL    HW216467   3.526   3.049   3.773  0.2823  0.4065 -0.4703
 1670SOL     OW16468   0.581   2.876   9.015  0.3981 -0.1666  0.3706
 1670SOL    HW116469   0.540   2.794   8.988 -0.0690  0.2788 -0.2723
 1670SOL    HW216470   0.532   2.913   9.089 -1.1464 -1.2419 -0.1100
 1671SOL     OW16471   4.718   3.756  12.746  0.3950  0.5850  0.0868
 1671SOL    HW116472   0.015   3.812  12.820  0.4006 -1.0167  1.2935
 1671SOL    HW216473   0.036   3.808  12.679  1.8064 -1.3814 -0.5092
 1672SOL     OW16474   3.240   3.890  15.843 -0.2143  0.3244  0.2608
 1672SOL    HW116475   3.312   3.843  15.887 -1.1268 -0.5235  0.8334
 1672SOL    HW216476   3.280   3.925  15.763 -1.3080  1.3910  0.1844
 1673SOL     OW16477   3.809   4.439   2.019 -0.1599 -0.2725  0.4483
 1673SOL    HW116478   3.889   4.435   1.967  0.6342 -0.4140  1.6805
 1673SOL    HW216479   3.779   4.349   2.007 -2.7343  0.3465  2.4314
 1674SOL     OW16480   3.812   4.507   3.196 -0.3757 -0.3121  0.1693
 1674SOL    HW116481   3.794   4.548   3.280 -0.6097 -2.1563  1.0037
 1674SOL    HW216482   3.726   4.478   3.167 -0.2297 -1.8626  1.2818
 1675SOL     OW16483   2.744   1.092   8.687 -0.2689 -0.0205 -0.6062
 1675SOL    HW116484   2.839   1.096   8.703 -0.5169  3.2885 -0.0677
 1675SOL    HW216485   2.727   1.022   8.751 -0.5988 -1.2884 -2.0819
 1676SOL     OW16486   1.891   4.534  11.873 -0.3028  0.0930  0.4534
 1676SOL    HW116487   1.844   4.482  11.808  1.3684 -0.2770 -0.4560
 1676SOL    HW216488   1.983   4.534  11.846 -0.6851 -2.9041 -0.7793
 1677SOL     OW16489   2.223   2.348   5.342 -0.1029  0.4845  0.0825
 1677SOL    HW116490   2.174   2.403   5.403  1.5133  1.2148  0.7138
 1677SOL    HW216491   2.169   2.348   5.263  0.3997  2.1995 -0.2414
 1678SOL     OW16492   1.930   4.121   9.361  0.3145  0.2926  0.0325
 1678SOL    HW116493   1.840   4.125   9.392 -0.4422 -1.0481 -1.9709
 1678SOL    HW216494   1.940   4.026   9.370 -3.9966 -0.3436 -1.6763
 1679SOL     OW16495   1.821   4.204   5.416 -0.3262 -0.3491 -0.2870
 1679SOL    HW116496   1.792   4.292   5.392 -1.4904 -0.8142 -0.5715
 1679SOL    HW216497   1.810   4.208   5.511  2.1512  0.5952 -0.0491
 1680SOL     OW16498   1.119   3.630   4.537 -0.4387 -0.5182 -0.8286
 1680SOL    HW116499   1.075   3.713   4.549  0.5831 -0.4879  2.5339
 1680SOL    HW216500   1.205   3.650   4.573 -1.4549  0.3174  1.0999
 1681SOL     OW16501   1.520   0.050   4.323  0.4089  0.1266 -0.1590
 1681SOL    HW116502   1.581   0.030   4.251 -0.3907 -0.4977 -0.6594
 1681SOL    HW216503   1.501   0.140   4.298  0.9171  1.0584  2.8169
 1682SOL     OW16504   1.037   2.927  14.847  0.0683 -0.5038 -0.0672
 1682SOL    HW116505   1.088   2.850  14.821  0.6876  0.5386 -1.9175
 1682SOL    HW216506   1.032   2.976  14.765  1.7929  0.2068  0.2530
 1683SOL     OW16507   4.162   0.227   6.382 -0.3640  0.3592 -0.2936
 1683SOL    HW116508   4.192   0.147   6.338 -1.3551 -1.0935  1.6767
 1683SOL    HW216509   4.198   0.224   6.470  0.3761  0.6103 -0.5863
 1684SOL     OW16510   2.765   0.340   4.808 -0.6937 -0.2345 -0.1486
 1684SOL    HW116511   2.693   0.312   4.752 -0.6619 -0.7601  0.0810
 1684SOL    HW216512   2.798   0.251   4.812 -0.8528 -0.2605  0.7619
 1685SOL     OW16513   0.350   3.014  10.572 -0.3615  0.6225  0.0700
 1685SOL    HW116514   0.308   2.963  10.504 -1.2711 -0.3597  1.3717
 1685SOL    HW216515   0.422   2.956  10.598  0.9949  0.6698 -3.7001
 1686SOL     OW16516   3.183   2.406   0.809 -0.1345 -1.1049  0.5421
 1686SOL    HW116517   3.198   2.496   0.839 -1.0261 -0.6221 -0.4231
 1686SOL    HW216518   3.221   2.401   0.721 -1.2170 -1.6519  0.0930
 1687SOL     OW16519   0.881   2.192   6.299  0.2302 -0.2066  0.6411
 1687SOL    HW116520   0.880   2.185   6.395 -2.3127 -1.2440  0.5605
 1687SOL    HW216521   0.794   2.225   6.277 -0.5093 -3.8343 -1.8987
 1688SOL     OW16522   2.523   3.317   0.227  0.4812  0.6834  0.2877
 1688SOL    HW116523   2.486   3.277   0.148  1.3071  0.8622 -0.2018
 1688SOL    HW216524   2.449   3.327   0.286 -1.4270  0.4978 -2.0856
 1689SOL     OW16525   1.173   1.493  13.504  0.2519  0.8010 -0.1427
 1689SOL    HW116526   1.263   1.525  13.510  0.4432  0.5905 -1.6765
 1689SOL    HW216527   1.131   1.574  13.475  0.3108 -0.1206 -2.8245
 1690SOL     OW16528   2.845   0.023   9.072 -0.4786 -0.2485  0.2772
 1690SOL    HW116529   2.891   4.670   9.097 -1.2553 -0.6298  0.4869
 1690SOL    HW216530   2.783   4.712   9.010 -0.7536 -0.3987  0.6501
 1691SOL     OW16531   4.649   0.866   4.202  0.4503 -0.3983  0.1028
 1691SOL    HW116532   0.003   0.915   4.187  0.8632 -1.1487 -0.1553
 1691SOL    HW216533   4.624   0.899   4.288 -0.9283  0.9046 -0.7943
 1692SOL     OW16534   1.447   2.371   5.246 -0.5813  0.3967 -0.5799
 1692SOL    HW116535   1.458   2.288   5.200  1.6408  0.2756  0.1892
 1692SOL    HW216536   1.524   2.377   5.302  0.8518 -1.6647 -2.3625
 1693SOL     OW16537   2.211   2.511   8.836  0.2702 -0.0876 -0.2162
 1693SOL    HW116538   2.198   2.510   8.741  3.0098  0.2057 -0.5840
 1693SOL    HW216539   2.167   2.594   8.853 -0.7149 -0.9966  1.6659
 1694SOL     OW16540   3.486   2.382   9.142 -0.1468 -0.0475  0.1976
 1694SOL    HW116541   3.525   2.329   9.211 -0.3334  1.4017  1.4256
 1694SOL    HW216542   3.392   2.368   9.159 -0.1722  1.1767  1.0555
 1695SOL     OW16543   0.150   2.460  10.561  0.4565  0.2943  0.0638
 1695SOL    HW116544   0.065   2.495  10.533  0.4160 -0.3170 -0.5755
 1695SOL    HW216545   0.171   2.502  10.645  2.9833 -2.1286  0.6261
 1696SOL     OW16546   2.383   4.263  15.437 -0.6672 -0.0499  0.3582
 1696SOL    HW116547   2.411   4.342  15.484 -2.4200  1.6753 -1.4958
 1696SOL    HW216548   2.294   4.264  15.472 -1.2782  0.4969 -1.2341
 1697SOL     OW16549   2.145   2.031   9.374 -0.2894 -0.5347 -0.0190
 1697SOL    HW116550   2.162   2.125   9.369  2.1701 -0.9866 -0.0688
 1697SOL    HW216551   2.214   1.992   9.427  1.0033  0.9154 -0.6381
 1698SOL     OW16552   2.998   4.515   5.348  0.0807  0.4140  0.4546
 1698SOL    HW116553   3.023   4.568   5.272 -2.0446 -0.1867 -0.6632
 1698SOL    HW216554   2.935   4.453   5.311 -0.0085 -0.4274  1.9934
 1699SOL     OW16555   4.600   3.926  16.234 -0.3697 -0.4785 -0.3559
 1699SOL    HW116556   4.597   3.890  16.145 -0.0830 -1.1267 -0.1013
 1699SOL    HW216557   4.511   3.958  16.249 -1.5728 -2.2344 -3.7098
 1700SOL     OW16558   1.828   2.945  10.346  0.1323  0.2223  0.3576
 1700SOL    HW116559   1.856   2.854  10.338 -1.6166 -0.3172  0.4187
 1700SOL    HW216560   1.874   3.003  10.285 -3.6585  0.4818 -2.2530
 1701SOL     OW16561   0.279   3.906   2.922 -0.2514  0.1329  0.1944
 1701SOL    HW116562   0.220   3.887   2.994 -0.0773  1.4425  0.6687
 1701SOL    HW216563   0.214   3.913   2.852  0.9640  1.1499 -0.8496
 1702SOL     OW16564   4.148   3.162   6.264  0.3768  0.2562 -0.0258
 1702SOL    HW116565   4.076   3.120   6.311 -1.8505  1.5557 -2.2609
 1702SOL    HW216566   4.205   3.086   6.272 -0.5183 -0.5143 -0.9655
 1703SOL     OW16567   4.318   3.917  16.298 -0.2521  0.6694 -0.4774
 1703SOL    HW116568   4.357   3.913  16.385 -1.6049  0.0176  0.1042
 1703SOL    HW216569   4.227   3.921  16.328  0.2985 -0.8454  1.3988
 1704SOL     OW16570   0.166   0.630   5.315 -0.8102 -0.4737 -0.4231
 1704SOL    HW116571   0.260   0.626   5.334 -1.3076 -0.2760  2.0047
 1704SOL    HW216572   0.139   0.719   5.335  0.4466 -0.8905  3.1127
 1705SOL     OW16573   0.103   3.759   7.906 -0.2760  0.1104 -0.3929
 1705SOL    HW116574   0.085   3.774   7.814 -1.2230  1.6739  0.0496
 1705SOL    HW216575   0.128   3.846   7.937 -0.7815 -0.2113  0.9206
 1706SOL     OW16576   1.034   1.638  10.636  0.9107  0.5948 -0.2660
 1706SOL    HW116577   1.027   1.554  10.592  2.9351  0.2880  0.0099
 1706SOL    HW216578   1.112   1.632  10.691 -0.3702  2.1684  1.7024
 1707SOL     OW16579   3.210   1.088   0.701 -0.1392  0.3041  0.3996
 1707SOL    HW116580   3.283   1.118   0.646  1.2954 -0.1166  2.0526
 1707SOL    HW216581   3.262   1.052   0.773 -2.2824 -3.0428  0.2497
 1708SOL     OW16582   0.802   0.077   4.224  0.0661  0.0571 -0.6914
 1708SOL    HW116583   0.762   0.016   4.285 -0.0584 -0.0903 -0.9215
 1708SOL    HW216584   0.818   0.025   4.144  1.3669 -1.3266  0.4566
 1709SOL     OW16585   4.005   2.671   9.779  0.1633 -0.1626  0.0376
 1709SOL    HW116586   3.948   2.595   9.781  0.8107 -0.6693 -0.6665
 1709SOL    HW216587   3.966   2.720   9.851 -0.4952 -1.7146  0.7310
 1710SOL     OW16588   2.932   4.240   3.987  0.7702 -0.2401  0.3142
 1710SOL    HW116589   3.018   4.222   3.949 -0.1201  1.1851 -2.4001
 1710SOL    HW216590   2.877   4.175   3.943  1.2443  0.3249 -1.1172
 1711SOL     OW16591   4.631   3.843  11.528 -0.0101  0.2218 -0.5469
 1711SOL    HW116592   4.601   3.759  11.563 -0.6284 -0.5171 -2.8763
 1711SOL    HW216593   4.707   3.806  11.484  0.0001 -0.0097 -0.3377
 1712SOL     OW16594   3.452   2.367   5.136  0.3461  0.6558 -0.7469
 1712SOL    HW116595   3.520   2.399   5.195 -2.9405  0.0450  3.3153
 1712SOL    HW216596   3.477   2.405   5.052 -1.3818  1.4717 -0.9004
 1713SOL     OW16597   4.559   4.398   8.174 -0.3731  0.3796  0.9404
 1713SOL    HW116598   4.555   4.492   8.190  1.5715  0.4718  0.9015
 1713SOL    HW216599   4.597   4.379   8.260 -1.7128  0.2595  1.5048
 1714SOL     OW16600   2.426   3.264   5.843  0.4920  0.0520  0.3024
 1714SOL    HW116601   2.511   3.306   5.855  0.9390 -1.4555  2.3626
 1714SOL    HW216602   2.450   3.180   5.882 -0.1088 -1.2627 -2.1178
 1715SOL     OW16603   4.122   2.549   8.177  0.0973 -0.0659  0.5955
 1715SOL    HW116604   4.116   2.493   8.254 -0.5007  1.0306  1.3516
 1715SOL    HW216605   4.143   2.485   8.109  0.0205  1.3449 -0.7587
 1716SOL     OW16606   4.456   3.359   6.958  0.9362 -0.5298 -0.6092
 1716SOL    HW116607   4.390   3.358   7.028  1.3416 -0.0587 -0.2251
 1716SOL    HW216608   4.525   3.400   7.010 -0.6669 -0.0720  1.1517
 1717SOL     OW16609   1.649   4.630   3.097  0.3197 -0.8295  0.0682
 1717SOL    HW116610   1.563   4.595   3.119  0.4142 -1.6010 -0.7833
 1717SOL    HW216611   1.689   4.555   3.053 -0.8093 -0.3485 -1.7961
 1718SOL     OW16612   1.937   4.310  17.265  0.3071  0.2510 -0.5570
 1718SOL    HW116613   1.933   4.361  17.346  0.1469 -0.6619  0.0085
 1718SOL    HW216614   1.959   4.378  17.201 -2.1231  2.0832  0.5814
 1719SOL     OW16615   3.434   3.958   7.834 -0.1212 -0.7072 -0.1669
 1719SOL    HW116616   3.401   3.937   7.922 -1.9871  1.3994 -0.3741
 1719SOL    HW216617   3.492   3.883   7.821 -1.4046 -1.5253 -1.1483
 1720SOL     OW16618   0.978   2.308   6.089 -0.5293  0.7526  0.0582
 1720SOL    HW116619   0.971   2.262   6.173  0.8043 -0.1437 -0.3367
 1720SOL    HW216620   0.893   2.277   6.057 -0.0426  0.1378 -0.6280
 1721SOL     OW16621   0.662   2.854   2.905 -0.3747 -0.1760 -0.1653
 1721SOL    HW116622   0.576   2.812   2.898 -0.3769 -0.3977  1.1967
 1721SOL    HW216623   0.634   2.941   2.878 -0.6312 -0.0880  0.3867
 1722SOL     OW16624   3.641   1.824   4.966  0.0149  0.1342 -0.2790
 1722SOL    HW116625   3.578   1.886   4.928 -0.9758 -1.0782 -0.6164
 1722SOL    HW216626   3.622   1.818   5.059 -1.8618 -0.1458 -0.6795
 1723SOL     OW16627   1.775   2.914  10.012  0.3545  0.0156  0.1529
 1723SOL    HW116628   1.723   2.988  10.046 -0.5344 -0.0796 -0.9796
 1723SOL    HW216629   1.736   2.842  10.060  0.2187  0.4052  0.6284
 1724SOL     OW16630   2.038   2.662   3.888  0.4283 -0.4921  0.7644
 1724SOL    HW116631   2.061   2.682   3.797 -0.0103 -0.1968  0.7221
 1724SOL    HW216632   2.072   2.573   3.882 -0.8943 -0.9238 -0.1544
 1725SOL     OW16633   1.625   0.276   9.040 -0.5949 -0.6041 -0.1353
 1725SOL    HW116634   1.562   0.349   9.047 -0.2627 -0.2664 -0.6047
 1725SOL    HW216635   1.631   0.253   9.132 -2.0458  1.3844  0.4682
 1726SOL     OW16636   0.104   1.072   5.821 -0.1130  0.5520 -0.5612
 1726SOL    HW116637   0.138   1.147   5.869  0.5113  1.0408 -1.7757
 1726SOL    HW216638   0.039   1.033   5.880  1.3329  0.9488  1.2638
 1727SOL     OW16639   3.127   1.614  10.985  0.3692  0.3529 -0.6846
 1727SOL    HW116640   3.091   1.703  10.983  0.9540  0.6442  1.4543
 1727SOL    HW216641   3.072   1.567  11.048 -1.0852  4.1882  0.9050
 1728SOL     OW16642   2.125   3.090   7.070  0.5374 -0.5135 -0.4856
 1728SOL    HW116643   2.102   3.075   7.162  0.8858 -0.3224 -0.3697
 1728SOL    HW216644   2.217   3.108   7.087  0.5547 -0.9853 -0.0597
 1729SOL     OW16645   4.647   1.536   8.728 -0.2073  0.3975 -0.2589
 1729SOL    HW116646   4.694   1.619   8.737  1.3258 -0.4781 -0.1619
 1729SOL    HW216647   4.562   1.554   8.768 -0.5933 -0.5345 -0.6717
 1730SOL     OW16648   1.509   2.918   8.584 -0.5498 -0.6578 -0.4062
 1730SOL    HW116649   1.489   3.007   8.553  1.6914 -0.5865 -1.6613
 1730SOL    HW216650   1.440   2.921   8.650 -1.9885  1.2368 -1.9866
 1731SOL     OW16651   4.671   4.080   8.606 -0.1244 -0.1230 -0.1276
 1731SOL    HW116652   4.689   4.118   8.520 -2.1310  2.0812  0.4012
 1731SOL    HW216653   0.007   4.126   8.664 -0.8284 -0.7227  1.1005
 1732SOL     OW16654   3.074   3.804   8.354 -0.3016 -0.1101 -0.4210
 1732SOL    HW116655   3.096   3.715   8.381 -0.0866 -0.0092 -0.2552
 1732SOL    HW216656   3.154   3.854   8.371  0.4301 -1.2437 -0.4834
 1733SOL     OW16657   0.517   4.460  10.013 -0.1216 -0.1274  0.3036
 1733SOL    HW116658   0.422   4.464  10.024 -0.3650  1.1145 -2.2670
 1733SOL    HW216659   0.536   4.398  10.084  0.8874 -0.2879 -0.1037
 1734SOL     OW16660   3.195   2.063   2.566 -0.3809  0.0676  0.5980
 1734SOL    HW116661   3.205   2.088   2.474 -1.5290  0.0584  0.4671
 1734SOL    HW216662   3.279   2.091   2.603  0.0277 -0.7774  0.3138
 1735SOL     OW16663   0.560   3.415   5.773  0.3115 -0.1555 -0.1175
 1735SOL    HW116664   0.562   3.397   5.679 -2.1898 -0.8191 -0.0372
 1735SOL    HW216665   0.634   3.364   5.805 -1.3817  0.0823  4.1140
 1736SOL     OW16666   2.398   1.846   4.779  0.2397 -0.2602  0.1192
 1736SOL    HW116667   2.448   1.902   4.838  0.4716 -1.0153  0.6392
 1736SOL    HW216668   2.471   1.806   4.731  0.5923 -1.5307  1.7473
 1737SOL     OW16669   0.203   2.492   4.547 -0.4015 -0.1078 -0.1861
 1737SOL    HW116670   0.251   2.572   4.527 -0.9171  0.2937  0.1670
 1737SOL    HW216671   0.196   2.454   4.460 -0.6548 -1.3218  0.3557
 1738SOL     OW16672   0.018   2.427  17.042  0.3707 -0.4933 -0.3304
 1738SOL    HW116673   0.045   2.469  17.124  0.1095  0.0483 -0.5236
 1738SOL    HW216674   4.724   2.342  17.080  0.6487 -0.5320 -0.2641
 1739SOL     OW16675   0.881   3.551  14.813  0.0931  0.1270 -0.1346
 1739SOL    HW116676   0.951   3.519  14.870  1.0180  1.4111 -0.5639
 1739SOL    HW216677   0.881   3.482  14.747 -0.2501  1.9197 -1.9940
 1740SOL     OW16678   1.970   2.333   8.910 -0.6858 -0.1967  0.1263
 1740SOL    HW116679   1.991   2.257   8.856  1.5492  0.9569 -0.6114
 1740SOL    HW216680   2.046   2.387   8.891  0.4798 -2.2000 -0.9223
 1741SOL     OW16681   3.475   4.359  16.508 -0.3572 -0.5897 -0.3155
 1741SOL    HW116682   3.485   4.266  16.528 -1.4024 -0.6689 -0.1366
 1741SOL    HW216683   3.435   4.389  16.590  3.0916 -1.0853  1.5439
 1742SOL     OW16684   0.767   1.597   6.628 -0.2915  0.1719 -0.5343
 1742SOL    HW116685   0.814   1.674   6.659 -1.2866  0.4397  0.2977
 1742SOL    HW216686   0.680   1.632   6.613 -0.2785  0.2810 -0.3535
 1743SOL     OW16687   0.934   1.332  13.477  0.2210  0.1077  0.0631
 1743SOL    HW116688   1.018   1.369  13.507  1.0552 -1.8853  0.1822
 1743SOL    HW216689   0.901   1.404  13.423  0.0039  0.3756  0.5544
 1744SOL     OW16690   0.171   3.650   2.708  0.4059 -0.5893 -0.7103
 1744SOL    HW116691   0.256   3.657   2.751  0.2443 -0.8970 -0.3391
 1744SOL    HW216692   0.125   3.725   2.745  0.5369 -1.4158  1.1595
 1745SOL     OW16693   0.028   4.068   5.895  0.4377 -0.0789  0.0974
 1745SOL    HW116694   0.027   4.097   5.987 -1.6799  2.2216 -0.6611
 1745SOL    HW216695   0.068   4.142   5.849  2.6049 -0.8267  0.7294
 1746SOL     OW16696   2.345   3.528  15.480  0.2067 -0.3791  0.5315
 1746SOL    HW116697   2.348   3.558  15.389  3.0744  0.4610  0.8948
 1746SOL    HW216698   2.424   3.475  15.485 -0.0810 -1.0117 -1.7992
 1747SOL     OW16699   3.926   0.559   7.761 -0.3683  0.9270 -0.1230
 1747SOL    HW116700   3.878   0.477   7.779  1.5484 -0.6414 -2.1703
 1747SOL    HW216701   3.940   0.584   7.852  1.2457 -0.3314 -0.0290
 1748SOL     OW16702   2.143   1.484   9.084 -0.4144  0.2472  0.0796
 1748SOL    HW116703   2.099   1.552   9.135 -0.0877  0.3145  0.2681
 1748SOL    HW216704   2.223   1.473   9.134  1.1140  2.2146 -1.9399
 1749SOL     OW16705   3.051   3.942   4.433 -0.1926 -0.2284 -0.0555
 1749SOL    HW116706   2.958   3.960   4.423 -0.5292 -2.5997 -1.1813
 1749SOL    HW216707   3.069   4.012   4.496  0.6612 -0.9656  0.5261
 1750SOL     OW16708   2.277   1.068   9.667 -0.3131  0.1786  0.2954
 1750SOL    HW116709   2.256   1.077   9.574 -0.3539  0.1693  0.3035
 1750SOL    HW216710   2.216   1.131   9.705 -1.5003 -0.2327 -0.8992
 1751SOL     OW16711   2.975   2.621   4.459  0.0407  0.1627  0.3746
 1751SOL    HW116712   3.067   2.595   4.452  0.1256  1.0730 -2.2207
 1751SOL    HW216713   2.981   2.716   4.454  1.5394 -0.0013 -0.9081
 1752SOL     OW16714   1.987   0.583  14.622  0.2261  0.0035 -1.2522
 1752SOL    HW116715   2.076   0.576  14.654  0.5131 -2.4916 -2.5141
 1752SOL    HW216716   2.002   0.603  14.530  0.3467  0.3417 -1.1560
 1753SOL     OW16717   0.488   3.477   7.325 -0.6031  0.6277  0.3842
 1753SOL    HW116718   0.415   3.484   7.263 -0.2075 -0.3504 -0.1876
 1753SOL    HW216719   0.552   3.455   7.258  0.2992  1.5456  0.9436
 1754SOL     OW16720   3.364   1.301   2.362 -0.3019  0.2005 -0.2766
 1754SOL    HW116721   3.453   1.282   2.331 -0.8289 -0.9557 -1.0674
 1754SOL    HW216722   3.346   1.222   2.412  1.7066  0.9276  1.6159
 1755SOL     OW16723   1.847   4.184   8.781 -0.4660  0.4540  0.1658
 1755SOL    HW116724   1.878   4.150   8.865  4.0838 -0.3664 -1.8785
 1755SOL    HW216725   1.782   4.116   8.763  0.0279 -0.4459  1.7297
 1756SOL     OW16726   3.446   3.328  14.892 -0.3841  0.0103  0.0365
 1756SOL    HW116727   3.361   3.364  14.917 -1.1973 -1.6171 -0.3543
 1756SOL    HW216728   3.462   3.355  14.802  2.8634 -1.0110  0.3354
 1757SOL     OW16729   3.742   1.785   1.717  0.0017 -0.7964  0.1048
 1757SOL    HW116730   3.813   1.833   1.759  2.1393 -2.3488 -1.6965
 1757SOL    HW216731   3.675   1.831   1.767  3.2236  1.1750  2.6036
 1758SOL     OW16732   4.632   1.433   5.988  0.8334  0.3826 -0.4805
 1758SOL    HW116733   4.556   1.382   6.014  1.3413  0.0480  0.3501
 1758SOL    HW216734   4.639   1.491   6.064 -1.9301 -1.4384  1.1578
 1759SOL     OW16735   1.846   0.884   2.665  0.1215  0.1945  0.5376
 1759SOL    HW116736   1.929   0.926   2.644 -0.5756  1.3549  0.0472
 1759SOL    HW216737   1.860   0.795   2.634 -0.3198 -0.0208  0.9536
 1760SOL     OW16738   2.920   0.764   3.423 -0.2967 -0.5251  0.2135
 1760SOL    HW116739   2.924   0.829   3.352 -0.9438 -1.8040 -1.0001
 1760SOL    HW216740   2.998   0.712   3.404  0.2243 -0.0661  1.0967
 1761SOL     OW16741   3.511   1.248   4.574  0.2356 -0.0295  0.6969
 1761SOL    HW116742   3.570   1.241   4.499 -1.1723 -3.7272 -0.0365
 1761SOL    HW216743   3.439   1.293   4.531 -1.1244 -2.8717  0.0241
 1762SOL     OW16744   0.947   1.745   3.360 -0.2852 -0.3446 -0.1522
 1762SOL    HW116745   0.873   1.779   3.309 -0.3400 -0.3923 -0.1051
 1762SOL    HW216746   0.903   1.670   3.401  3.6856 -0.7798  3.2615
 1763SOL     OW16747   1.709   3.577   4.960 -0.6121 -0.1698 -0.1152
 1763SOL    HW116748   1.743   3.646   5.017 -2.1621  0.1402  0.4376
 1763SOL    HW216749   1.747   3.596   4.875 -0.6507 -0.5622 -0.2192
 1764SOL     OW16750   3.570   0.079   5.540  0.3018  0.1775  0.4348
 1764SOL    HW116751   3.514   0.030   5.480  0.9827  0.2991 -0.2955
 1764SOL    HW216752   3.592   0.006   5.598 -0.8918 -0.5392 -0.0126
 1765SOL     OW16753   1.491   2.564   4.711 -0.0332 -0.0131 -0.6742
 1765SOL    HW116754   1.406   2.570   4.754  0.2758 -2.5153  0.2845
 1765SOL    HW216755   1.506   2.654   4.681 -0.6087  0.1468 -0.4891
 1766SOL     OW16756   3.472   1.938   4.766 -0.1519 -0.0634  0.9048
 1766SOL    HW116757   3.382   1.957   4.793 -0.3399 -0.4838  0.5779
 1766SOL    HW216758   3.470   1.962   4.673  2.3795 -1.2765  0.5291
 1767SOL     OW16759   2.182   1.197  16.165  0.1748 -0.0392 -0.1814
 1767SOL    HW116760   2.201   1.113  16.207  1.3021  0.6204  0.6149
 1767SOL    HW216761   2.144   1.249  16.236  2.5035 -0.1582  1.1403
 1768SOL     OW16762   2.319   1.125   3.404  0.3416 -0.1202 -0.1983
 1768SOL    HW116763   2.366   1.088   3.329  0.9028  1.1507 -0.4801
 1768SOL    HW216764   2.342   1.069   3.478  3.0979  1.3947  0.0899
 1769SOL     OW16765   2.619   2.428   2.018 -0.0286  0.3223 -0.0131
 1769SOL    HW116766   2.604   2.458   2.108 -0.5069  0.8738 -0.2773
 1769SOL    HW216767   2.635   2.512   1.975 -1.5715  0.2582 -0.6993
 1770SOL     OW16768   0.150   0.858   7.098 -0.5176 -0.4493 -0.6313
 1770SOL    HW116769   0.185   0.924   7.037  1.0712  0.9708  1.7840
 1770SOL    HW216770   0.166   0.897   7.184 -1.4753  0.3401 -0.8104
 1771SOL     OW16771   2.856   0.623  15.223  0.6837  0.5278 -0.0218
 1771SOL    HW116772   2.920   0.610  15.293  2.5932  1.2361 -1.6500
 1771SOL    HW216773   2.798   0.686  15.265  0.1042 -0.1305  0.1680
 1772SOL     OW16774   0.618   3.327   7.930  0.4233 -0.2620 -0.2502
 1772SOL    HW116775   0.707   3.353   7.952  0.3002  0.6083 -0.7843
 1772SOL    HW216776   0.622   3.231   7.934 -0.9373 -0.2139  2.2476
 1773SOL     OW16777   3.601   0.167   3.565 -0.5069 -0.2780  0.3884
 1773SOL    HW116778   3.558   0.246   3.596  2.3631  2.4335 -2.5535
 1773SOL    HW216779   3.611   0.127   3.651  1.6805  0.1957  0.3524
 1774SOL     OW16780   0.561   0.132   3.347  0.0554 -0.3713  0.0197
 1774SOL    HW116781   0.587   0.196   3.414 -0.1280  0.6431 -0.8654
 1774SOL    HW216782   0.594   0.159   3.262  0.6940 -0.7145  0.1644
 1775SOL     OW16783   4.033   2.188   9.953 -0.1122 -0.1865 -0.3850
 1775SOL    HW116784   4.114   2.226   9.985 -0.3690  0.3944 -0.4364
 1775SOL    HW216785   4.049   2.210   9.861 -1.8653  0.6758 -0.4876
 1776SOL     OW16786   1.125   3.421   2.529  0.0249  0.4658 -0.1148
 1776SOL    HW116787   1.092   3.509   2.516  2.1114  1.1591 -0.7988
 1776SOL    HW216788   1.084   3.366   2.463 -0.4292  1.6647 -0.8257
 1777SOL     OW16789   1.836   2.873  16.094 -0.1665  0.5439  0.0326
 1777SOL    HW116790   1.883   2.928  16.031  0.6682  0.6870  0.7828
 1777SOL    HW216791   1.903   2.806  16.103 -0.6264  0.2106  0.9938
 1778SOL     OW16792   4.309   1.497   6.357  0.2631 -0.2105 -0.5114
 1778SOL    HW116793   4.265   1.497   6.442  1.9656 -1.3557  0.3500
 1778SOL    HW216794   4.265   1.426   6.311 -0.2099  0.0335 -0.4426
 1779SOL     OW16795   0.565   2.586   9.251 -0.0727 -0.3653 -0.0735
 1779SOL    HW116796   0.655   2.595   9.281  0.3231 -4.0114 -0.1316
 1779SOL    HW216797   0.530   2.519   9.309 -0.6838 -1.8840 -2.1959
 1780SOL     OW16798   2.506   3.763  12.866 -0.1234  0.6420 -0.7195
 1780SOL    HW116799   2.536   3.683  12.823 -0.2246  1.0604 -1.5854
 1780SOL    HW216800   2.425   3.785  12.821 -1.0764  0.5905  0.9938
 1781SOL     OW16801   4.369   0.662   8.554 -0.3960  0.1396 -0.0512
 1781SOL    HW116802   4.331   0.613   8.627 -0.3401  1.0127  0.5613
 1781SOL    HW216803   4.284   0.682   8.513 -0.3530  0.3270 -0.0467
 1782SOL     OW16804   0.786   1.132   3.939 -0.2450  0.3427  0.5703
 1782SOL    HW116805   0.726   1.160   4.009 -4.3293  0.6971 -3.0614
 1782SOL    HW216806   0.751   1.043   3.933 -0.7306  0.6131 -0.5808
 1783SOL     OW16807   4.382   0.189  13.153 -0.0824 -0.0780 -0.3730
 1783SOL    HW116808   4.469   0.227  13.140 -1.3238  2.2117 -2.1289
 1783SOL    HW216809   4.335   0.272  13.144  0.9415  0.4108 -1.3013
 1784SOL     OW16810   2.862   0.547   3.069  0.2099 -0.0186 -0.0886
 1784SOL    HW116811   2.836   0.531   2.978 -1.6686 -1.4866  0.7071
 1784SOL    HW216812   2.793   0.498   3.114 -1.8258  0.6741 -2.4465
 1785SOL     OW16813   0.390   1.751   2.921 -0.3624 -0.1858 -0.6513
 1785SOL    HW116814   0.394   1.741   3.016  2.1682  0.2627 -0.6941
 1785SOL    HW216815   0.364   1.843   2.922 -2.0649 -0.6741  0.6633
 1786SOL     OW16816   0.837   3.214  17.116 -1.1041  0.5807 -1.0552
 1786SOL    HW116817   0.883   3.153  17.058 -0.1036  1.5327 -1.2656
 1786SOL    HW216818   0.821   3.158  17.192 -1.7245  0.2129 -1.4548
 1787SOL     OW16819   3.528   1.219  17.388  0.3954  0.3512  0.1322
 1787SOL    HW116820   3.579   1.185  17.461  1.3721 -0.4146 -0.9009
 1787SOL    HW216821   3.506   1.307  17.419  4.2556  0.7344  1.7246
 1788SOL     OW16822   1.233   3.445  14.103 -0.2987 -0.3201 -0.0995
 1788SOL    HW116823   1.309   3.467  14.050  0.6474  0.6164  1.6305
 1788SOL    HW216824   1.231   3.525  14.156 -1.6135 -0.0942 -0.4844
 1789SOL     OW16825   2.040   3.629   5.674 -0.0630  0.3628 -0.0318
 1789SOL    HW116826   2.121   3.598   5.714 -1.4536 -1.2674  1.5162
 1789SOL    HW216827   1.979   3.555   5.676  2.0312 -1.3029  2.3346
 1790SOL     OW16828   3.410   2.629   8.921  0.0954  0.4452  0.7521
 1790SOL    HW116829   3.416   2.537   8.894  1.6423  0.2470  1.7734
 1790SOL    HW216830   3.500   2.660   8.930 -0.2588  2.0532 -1.1452
 1791SOL     OW16831   1.018   1.549  14.400  0.1100  0.0029 -0.4287
 1791SOL    HW116832   1.067   1.604  14.340 -0.3795  1.0857  0.1585
 1791SOL    HW216833   0.950   1.504  14.350 -0.7969  0.6807  0.1847
 1792SOL     OW16834   2.374   1.332   1.338  0.5225 -0.2084  0.3502
 1792SOL    HW116835   2.296   1.301   1.293  0.4871 -1.9026  1.6044
 1792SOL    HW216836   2.355   1.426   1.330  0.7757 -0.2694 -0.9412
 1793SOL     OW16837   2.444   1.764   7.426  0.1609  0.0029  0.2918
 1793SOL    HW116838   2.448   1.753   7.331  1.4278  1.3021  0.2001
 1793SOL    HW216839   2.432   1.672   7.451  0.0284  0.1525  0.7977
 1794SOL     OW16840   4.126   4.606   4.561 -0.1586 -0.1024 -0.1430
 1794SOL    HW116841   4.173   4.525   4.542  2.7744  0.7874  3.3047
 1794SOL    HW216842   4.116   4.602   4.656  3.3686 -3.6208  0.0611
 1795SOL     OW16843   3.208   2.762   7.269  0.3309 -0.1391  0.6321
 1795SOL    HW116844   3.240   2.829   7.208  1.0540 -1.4637 -0.4456
 1795SOL    HW216845   3.115   2.781   7.268  0.3495 -0.0504  0.0454
 1796SOL     OW16846   1.462   4.451   6.620 -0.1867 -0.6220  0.4525
 1796SOL    HW116847   1.511   4.488   6.547 -0.5327  0.7803  0.9139
 1796SOL    HW216848   1.535   4.423   6.674  0.0420 -0.8641  0.0171
 1797SOL     OW16849   2.405   0.234   8.081 -0.3388  0.5108  0.4811
 1797SOL    HW116850   2.497   0.250   8.060 -0.0293  0.8905  2.0837
 1797SOL    HW216851   2.414   0.140   8.099 -0.2967 -0.0747 -2.5208
 1798SOL     OW16852   3.518   4.338   3.885 -0.0958 -0.4618 -0.2299
 1798SOL    HW116853   3.426   4.351   3.860 -0.3825  1.4462  1.7993
 1798SOL    HW216854   3.541   4.261   3.833  2.7126 -0.5401  1.1903
 1799SOL     OW16855   1.633   3.272   9.168  0.3990 -0.1081 -0.1861
 1799SOL    HW116856   1.657   3.362   9.146 -0.9732  0.7567  1.8655
 1799SOL    HW216857   1.582   3.257   9.088 -2.1916 -1.1723  1.6301
 1800SOL     OW16858   1.442   4.009   3.534  0.2202  0.1055 -0.5457
 1800SOL    HW116859   1.363   3.966   3.502  1.0459 -1.2168 -0.8005
 1800SOL    HW216860   1.480   4.030   3.449  0.6766  0.0360 -0.3589
 1801SOL     OW16861   1.839   4.724   5.402  0.6146  0.3885  0.3555
 1801SOL    HW116862   1.807   0.067   5.460 -1.1162 -0.2327  0.1434
 1801SOL    HW216863   1.898   4.675   5.460  0.6821  0.6963  0.5453
 1802SOL     OW16864   2.082   4.605  13.174  0.4150 -0.6646 -0.1824
 1802SOL    HW116865   2.117   4.538  13.233  1.4788 -1.0514 -1.2478
 1802SOL    HW216866   2.162   4.649  13.144 -1.0321  1.7634 -0.4228
 1803SOL     OW16867   2.833   4.204   1.039 -0.7711 -0.1231  0.7621
 1803SOL    HW116868   2.738   4.210   1.045 -0.7949 -0.9930  1.1817
 1803SOL    HW216869   2.870   4.276   1.092 -0.1235  0.3279 -0.3027
 1804SOL     OW16870   3.074   1.669   6.779  0.7659  0.1324 -0.0917
 1804SOL    HW116871   3.111   1.757   6.783  1.2319 -0.0271 -1.0577
 1804SOL    HW216872   2.988   1.689   6.817  0.4405  0.5270 -1.0415
 1805SOL     OW16873   2.035   3.023  10.168 -0.1748 -0.2649  0.2899
 1805SOL    HW116874   2.066   2.933  10.157  0.3692  0.0054 -0.4275
 1805SOL    HW216875   2.026   3.054  10.078  4.2652  0.5990  0.1218
 1806SOL     OW16876   3.007   0.491   3.680 -0.1598 -0.2354  0.3829
 1806SOL    HW116877   3.084   0.513   3.628 -3.0206  0.7962 -3.3910
 1806SOL    HW216878   3.029   0.546   3.756 -0.7053 -0.2204  0.5329
 1807SOL     OW16879   0.857   2.593   6.188 -0.7254 -0.1138  0.6720
 1807SOL    HW116880   0.796   2.593   6.262 -0.6188 -0.8670  0.7655
 1807SOL    HW216881   0.912   2.517   6.209 -0.1679 -0.2124 -1.1964
 1808SOL     OW16882   3.774   1.275  14.175 -0.2105  0.0583 -0.0151
 1808SOL    HW116883   3.692   1.229  14.158  0.7224 -0.9358 -1.9087
 1808SOL    HW216884   3.796   1.304  14.087 -0.3075  1.3914  0.4104
 1809SOL     OW16885   3.355   2.376  15.300 -0.1362  0.3828  0.1903
 1809SOL    HW116886   3.394   2.336  15.222  0.8250  3.1154 -0.7177
 1809SOL    HW216887   3.398   2.460  15.286 -0.3506  0.4486 -0.0655
 1810SOL     OW16888   1.614   2.640  13.428  0.3973 -0.2720 -1.0855
 1810SOL    HW116889   1.572   2.555  13.442 -0.3799  0.3073  0.1095
 1810SOL    HW216890   1.534   2.692  13.419  1.9683  2.5383  1.1164
 1811SOL     OW16891   3.550   2.581  14.784  0.1722 -0.3537  0.2687
 1811SOL    HW116892   3.644   2.568  14.795  0.1478 -1.4553 -0.7428
 1811SOL    HW216893   3.526   2.543  14.699  0.9022  0.1503 -0.1683
 1812SOL     OW16894   4.159   2.490   6.275 -0.2787 -0.0408 -0.2951
 1812SOL    HW116895   4.239   2.481   6.222 -1.0181  0.2630 -1.4637
 1812SOL    HW216896   4.101   2.546   6.224 -0.6150 -0.4731 -0.3875
 1813SOL     OW16897   2.303   3.917   7.464 -0.3925 -0.1549 -0.0415
 1813SOL    HW116898   2.243   3.990   7.449  2.0649  1.6558 -0.9809
 1813SOL    HW216899   2.327   3.897   7.374 -1.4426  0.8632 -0.5413
 1814SOL     OW16900   3.252   3.971   3.690 -0.2340  0.4014 -0.0604
 1814SOL    HW116901   3.342   3.954   3.663 -0.4677  1.7309 -1.6640
 1814SOL    HW216902   3.206   3.934   3.614 -2.4136  2.0552  0.4448
 1815SOL     OW16903   4.567   1.025   5.355  0.0327 -0.1959  0.0202
 1815SOL    HW116904   4.473   1.006   5.355  0.4385 -2.2420  1.1507
 1815SOL    HW216905   4.577   1.075   5.436 -0.1270 -4.1767  2.5056
 1816SOL     OW16906   1.944   0.433   7.858  0.3667  0.0286 -0.4841
 1816SOL    HW116907   1.904   0.361   7.908  2.0071 -0.1310  0.5958
 1816SOL    HW216908   1.969   0.495   7.927 -1.7292 -1.5091  1.6548
 1817SOL     OW16909   4.548   0.478   5.612  0.1353 -0.4023 -0.2222
 1817SOL    HW116910   4.617   0.416   5.588  1.4363  1.3283 -0.9834
 1817SOL    HW216911   4.486   0.427   5.664  0.1697 -0.6761 -0.4563
 1818SOL     OW16912   3.149   1.180   6.155  0.7401 -0.0803  0.1589
 1818SOL    HW116913   3.129   1.211   6.066 -1.7881  0.0257  0.7618
 1818SOL    HW216914   3.234   1.140   6.136 -0.1768 -1.5065 -0.9266
 1819SOL     OW16915   4.101   3.178  10.892 -0.1189 -0.1801 -0.1602
 1819SOL    HW116916   4.093   3.273  10.894  0.2150 -0.1641  0.5662
 1819SOL    HW216917   4.081   3.171  10.985 -0.9156 -1.6757 -0.4367
 1820SOL     OW16918   0.675   4.445   6.527 -0.0481 -0.2694 -0.1587
 1820SOL    HW116919   0.667   4.403   6.612  1.6701 -1.5782 -0.6439
 1820SOL    HW216920   0.765   4.430   6.500 -0.8399 -4.9182 -0.1895
 1821SOL     OW16921   4.109   1.662   8.377 -0.4936 -0.0023 -0.4674
 1821SOL    HW116922   4.155   1.744   8.359 -2.8444  2.2431  3.5436
 1821SOL    HW216923   4.045   1.676   8.307 -0.9083  0.0910 -0.0658
 1822SOL     OW16924   2.933   0.598  16.689 -0.3355 -0.2975  0.1635
 1822SOL    HW116925   2.900   0.508  16.691  0.7461 -0.6708  1.5543
 1822SOL    HW216926   2.968   0.608  16.778 -2.3904 -2.0832  1.2013
 1823SOL     OW16927   0.419   3.822   3.834  0.3167  0.3818 -0.6060
 1823SOL    HW116928   0.515   3.826   3.827  0.5555 -2.8442  1.1313
 1823SOL    HW216929   0.393   3.842   3.744  1.0257 -0.2450 -0.9522
 1824SOL     OW16930   4.512   1.743   7.032  0.2351  0.4146 -0.4851
 1824SOL    HW116931   4.569   1.814   7.060  1.3353 -1.6175  2.4547
 1824SOL    HW216932   4.546   1.661   7.069 -0.0852  1.3548  1.8242
 1825SOL     OW16933   4.258   4.437   4.790 -0.6183 -0.3046  0.4931
 1825SOL    HW116934   4.327   4.378   4.820  0.0106  2.1453  3.7883
 1825SOL    HW216935   4.192   4.373   4.763  0.1620  0.0356 -2.1894
 1826SOL     OW16936   3.681   2.475  11.528 -0.2710 -0.0925  0.0401
 1826SOL    HW116937   3.683   2.555  11.476  0.9085 -1.8300 -2.5732
 1826SOL    HW216938   3.618   2.427  11.474 -0.2342 -0.7926  0.6140
 1827SOL     OW16939   4.509   3.356   9.332 -0.2569  0.4937 -0.3398
 1827SOL    HW116940   4.575   3.287   9.322 -1.4611 -0.5062 -1.2826
 1827SOL    HW216941   4.429   3.327   9.288 -1.0696 -0.5276  1.8052
 1828SOL     OW16942   4.413   0.052   3.553 -0.2541  0.2689  0.0850
 1828SOL    HW116943   4.323   0.042   3.521 -0.9202  1.6962  1.5406
 1828SOL    HW216944   4.436   0.113   3.483 -1.6162 -0.5336 -1.0595
 1829SOL     OW16945   0.608   4.651   3.739  0.0339 -0.2445 -0.0350
 1829SOL    HW116946   0.677   4.587   3.723 -0.0033 -0.0939 -0.8350
 1829SOL    HW216947   0.564   4.648   3.654 -1.0816 -2.2723  0.6159
 1830SOL     OW16948   2.630   3.866   3.620 -0.5862  0.1412  0.3621
 1830SOL    HW116949   2.724   3.860   3.638 -0.1554 -0.2223 -1.9508
 1830SOL    HW216950   2.649   3.951   3.579 -0.5876  0.1367  0.3522
 1831SOL     OW16951   0.205   2.027   6.121 -0.9125 -0.5666 -0.2952
 1831SOL    HW116952   0.161   2.047   6.038 -1.3159 -0.7739 -0.1329
 1831SOL    HW216953   0.294   2.020   6.085 -0.5966  0.3368  0.3390
 1832SOL     OW16954   4.119   1.282  14.041  0.6476 -0.1396 -0.3025
 1832SOL    HW116955   4.148   1.191  14.028  0.6508 -0.1161 -0.4578
 1832SOL    HW216956   4.196   1.332  14.067  0.2740  1.3649 -2.1663
 1833SOL     OW16957   3.449   2.246   3.051 -0.0690 -0.0161 -0.1225
 1833SOL    HW116958   3.402   2.241   2.968 -0.1128 -1.4550 -0.0067
 1833SOL    HW216959   3.415   2.172   3.102 -0.9925  0.6977  0.3155
 1834SOL     OW16960   3.335   0.502   2.367  0.4133  0.4154 -0.1848
 1834SOL    HW116961   3.413   0.550   2.340  1.9419 -1.2079  1.3609
 1834SOL    HW216962   3.303   0.471   2.282  0.0638  1.4453 -0.4271
 1835SOL     OW16963   0.876   2.980   5.778  0.3844  0.7708 -0.1211
 1835SOL    HW116964   0.851   2.995   5.869  1.5880  1.2167  0.1319
 1835SOL    HW216965   0.852   3.065   5.741 -1.5124  0.2383 -0.1277
 1836SOL     OW16966   4.177   2.617   9.477 -0.0847 -0.4220 -0.0512
 1836SOL    HW116967   4.102   2.585   9.528  0.0550  1.3810  1.2696
 1836SOL    HW216968   4.149   2.591   9.389  0.8166 -1.3119 -0.0790
 1837SOL     OW16969   0.684   0.530   1.421  0.0937 -1.4069 -0.2538
 1837SOL    HW116970   0.615   0.486   1.373 -1.0655  1.3674 -1.1553
 1837SOL    HW216971   0.749   0.555   1.356  1.1113 -0.8328  0.9820
 1838SOL     OW16972   4.040   2.964   7.261  0.0131  0.0456 -0.0905
 1838SOL    HW116973   3.970   2.967   7.196 -0.2629 -1.0483  0.1670
 1838SOL    HW216974   4.005   3.023   7.327 -1.7998 -0.0813 -0.9302
 1839SOL     OW16975   1.143   1.722   4.674  0.8422  0.4555 -0.4437
 1839SOL    HW116976   1.073   1.703   4.612 -1.5649  0.9781  2.1097
 1839SOL    HW216977   1.175   1.632   4.678 -0.0549  0.1062 -1.1727
 1840SOL     OW16978   1.554   0.464   6.310  0.0901 -0.1312  0.1526
 1840SOL    HW116979   1.619   0.414   6.359  2.3056  1.8376 -0.7656
 1840SOL    HW216980   1.505   0.505   6.382  0.1447 -1.8780  1.1846
 1841SOL     OW16981   2.987   2.216  11.561  0.0253  0.1293 -0.0147
 1841SOL    HW116982   3.031   2.197  11.644 -0.9014  2.3956  1.0139
 1841SOL    HW216983   2.940   2.294  11.590  0.9028 -0.0129  1.8075
 1842SOL     OW16984   1.646   1.100   2.070 -0.0211  0.9937  0.1533
 1842SOL    HW116985   1.602   1.042   2.132  0.1624  1.1139  0.3951
 1842SOL    HW216986   1.639   1.183   2.118  0.4899  0.0122  1.9243
 1843SOL     OW16987   0.135   3.219   6.901  0.2488  0.5518  0.1517
 1843SOL    HW116988   0.197   3.287   6.929  0.5675  0.2719  0.1198
 1843SOL    HW216989   0.173   3.213   6.813 -2.2901  0.7902 -0.9365
 1844SOL     OW16990   0.281   4.550   4.381  0.2912 -0.3643  0.0972
 1844SOL    HW116991   0.251   4.557   4.472 -3.4458 -1.7112 -1.0331
 1844SOL    HW216992   0.367   4.507   4.384 -0.4428 -1.8123  0.3841
 1845SOL     OW16993   4.360   1.486   8.429 -0.1877 -0.3499 -0.3352
 1845SOL    HW116994   4.282   1.492   8.373  1.0381  1.2220 -1.8777
 1845SOL    HW216995   4.378   1.577   8.455  0.3831 -0.4319 -0.4532
 1846SOL     OW16996   0.341   2.423   6.096  0.0076 -0.0729  0.3918
 1846SOL    HW116997   0.335   2.350   6.158  1.5649 -0.6344 -0.1295
 1846SOL    HW216998   0.433   2.446   6.102  0.1715 -0.1028 -1.7919
 1847SOL     OW16999   3.057   3.955  11.527 -0.3041  0.5389  0.2925
 1847SOL    HW117000   3.064   4.048  11.507  1.2789  0.5817  1.0519
 1847SOL    HW217001   3.092   3.920  11.445 -0.8661  1.6672 -0.4439
 1848SOL     OW17002   3.516   2.178  11.881  0.3290 -0.8937 -0.4644
 1848SOL    HW117003   3.512   2.131  11.797 -3.8031 -0.6723 -0.4320
 1848SOL    HW217004   3.455   2.250  11.861  0.6218 -1.3044 -2.9042
 1849SOL     OW17005   3.878   3.403   3.391  0.9993  0.0437 -0.1732
 1849SOL    HW117006   3.914   3.441   3.311  0.5242  1.6285  0.3529
 1849SOL    HW217007   3.857   3.315   3.360 -2.1687  1.0199 -0.8229
 1850SOL     OW17008   3.900   2.218   8.015  0.5028 -0.4139 -0.2364
 1850SOL    HW117009   3.891   2.148   8.079 -0.0306 -0.5571 -0.4710
 1850SOL    HW217010   3.806   2.239   8.020  0.2929 -1.1009 -1.2943
 1851SOL     OW17011   1.760   4.078   4.007  0.1087 -0.0089 -0.0787
 1851SOL    HW117012   1.714   4.071   3.924 -0.5593 -1.0025  0.3705
 1851SOL    HW217013   1.800   3.991   4.012  1.9929  0.8951  0.7307
 1852SOL     OW17014   0.692   2.258   1.431  0.0572  0.8625  0.0206
 1852SOL    HW117015   0.660   2.229   1.346 -0.5814  0.2390  0.4668
 1852SOL    HW217016   0.787   2.257   1.422 -0.0772  0.5706 -1.2828
 1853SOL     OW17017   4.636   2.599   7.196  0.1589  0.1779 -0.2150
 1853SOL    HW117018   4.552   2.553   7.201  0.7713 -0.5571  3.2250
 1853SOL    HW217019   4.600   2.682   7.164 -1.5031 -0.9090 -1.1522
 1854SOL     OW17020   3.632   1.262   3.003 -0.6058 -0.1827 -0.0881
 1854SOL    HW117021   3.580   1.185   3.024  0.3345 -0.9751 -0.6784
 1854SOL    HW217022   3.690   1.226   2.936  1.4865 -0.5672  1.9294
 1855SOL     OW17023   1.428   0.604   3.984  0.0728 -0.4299  0.5518
 1855SOL    HW117024   1.394   0.609   4.074  2.2752 -2.1345  1.4816
 1855SOL    HW217025   1.358   0.556   3.941  0.8242 -1.7434  0.7976
 1856SOL     OW17026   4.188   0.735   1.784  0.1580 -0.5378  0.2050
 1856SOL    HW117027   4.240   0.761   1.860  0.0326  1.9957 -0.5862
 1856SOL    HW217028   4.102   0.715   1.821  0.4040 -1.7892  0.1068
 1857SOL     OW17029   0.575   0.072   5.350  0.1022 -0.7063 -0.0796
 1857SOL    HW117030   0.550   0.121   5.273  1.7640  1.2638  0.6303
 1857SOL    HW217031   0.637   0.135   5.387 -0.9472 -0.0250  0.4971
 1858SOL     OW17032   0.368   2.073   2.921 -0.3769  0.2037  0.0432
 1858SOL    HW117033   0.458   2.100   2.905 -0.8108  1.6768  0.0830
 1858SOL    HW217034   0.316   2.101   2.845 -0.9844  0.1362  0.4309
 1859SOL     OW17035   0.060   3.891   2.775 -0.3116 -0.4013  0.2930
 1859SOL    HW117036   4.699   3.852   2.768  0.7452 -2.4643 -1.4709
 1859SOL    HW217037   0.027   3.980   2.765 -0.0244 -0.7489 -3.8519
 1860SOL     OW17038   0.140   3.085   5.345  0.2050  0.6408  0.5992
 1860SOL    HW117039   0.215   3.132   5.380 -2.0125  3.2053  1.8557
 1860SOL    HW217040   0.085   3.144   5.397 -0.8121 -0.5870  0.9256
 1861SOL     OW17041   0.652   4.118  12.069 -0.3965 -0.1449  1.0021
 1861SOL    HW117042   0.679   4.115  12.161 -0.8085 -0.6583  1.1095
 1861SOL    HW217043   0.621   4.029  12.051  0.0162 -0.0745 -0.0552
 1862SOL     OW17044   0.868   4.077   6.430 -0.6450  0.4828  0.9164
 1862SOL    HW117045   0.917   4.076   6.348  1.1328 -0.3002  1.9899
 1862SOL    HW217046   0.907   4.142   6.488 -0.1769  0.2612  0.8513
 1863SOL     OW17047   0.579   3.069  17.373 -0.1426  0.1203 -0.5317
 1863SOL    HW117048   0.495   3.054  17.329 -0.8322  0.2449  0.7542
 1863SOL    HW217049   0.588   2.990  17.426 -2.2452 -0.1246 -0.5450
 1864SOL     OW17050   4.017   2.928  15.171 -0.2567 -0.0794  0.0980
 1864SOL    HW117051   4.077   2.958  15.238  1.0633 -0.7281 -0.7903
 1864SOL    HW217052   4.082   2.883  15.118 -0.0583  3.2882 -2.5693
 1865SOL     OW17053   4.679   2.043   8.687  0.9633 -0.3289  0.0282
 1865SOL    HW117054   4.693   1.964   8.739  0.3399 -0.9264 -0.7093
 1865SOL    HW217055   4.642   2.003   8.608  0.9820 -0.4057  0.0584
 1866SOL     OW17056   2.205   3.810   6.532 -0.5802 -0.2510 -0.7227
 1866SOL    HW117057   2.244   3.880   6.584  0.2133 -1.3742  0.1917
 1866SOL    HW217058   2.265   3.736   6.544  0.5812  0.6613 -1.0168
 1867SOL     OW17059   2.401   0.823   7.449 -0.4462 -0.3564 -0.1107
 1867SOL    HW117060   2.421   0.845   7.540 -3.1376 -0.3059  0.4643
 1867SOL    HW217061   2.484   0.787   7.417  0.2546  1.1337  0.0556
 1868SOL     OW17062   2.913   4.143   6.707  0.3473  0.4480  0.0893
 1868SOL    HW117063   2.865   4.159   6.626 -0.4080  2.7701  1.0026
 1868SOL    HW217064   2.886   4.052   6.718  0.8173  0.1819 -0.9695
 1869SOL     OW17065   1.729   1.214   7.030 -0.3334 -0.6586 -0.3304
 1869SOL    HW117066   1.792   1.178   6.968  2.4888  0.0125  2.1637
 1869SOL    HW217067   1.772   1.204   7.115  0.1686  1.0784 -0.3939
 1870SOL     OW17068   2.330   1.118   7.990  0.4614 -0.2179 -0.4612
 1870SOL    HW117069   2.269   1.059   8.035 -0.6072  1.5150  0.3589
 1870SOL    HW217070   2.406   1.110   8.047 -2.0619  0.0030  2.9539
 1871SOL     OW17071   0.502   3.571   1.692  0.1929  0.6422 -0.1470
 1871SOL    HW117072   0.414   3.575   1.730 -0.4699 -1.4415 -1.4683
 1871SOL    HW217073   0.547   3.525   1.763 -1.0734 -1.2118 -0.5331
 1872SOL     OW17074   2.870   1.393  11.982  0.3405  0.0206 -0.2677
 1872SOL    HW117075   2.935   1.435  12.038  0.9789 -0.1902 -0.8426
 1872SOL    HW217076   2.882   1.436  11.897  0.5203 -1.1422 -0.8280
 1873SOL     OW17077   0.400   0.364   6.257  0.3683  0.1446 -0.4939
 1873SOL    HW117078   0.480   0.328   6.220  0.2789 -0.2238 -0.3295
 1873SOL    HW217079   0.442   0.419   6.323 -1.7839  3.5883 -1.9815
 1874SOL     OW17080   1.384   1.512   1.286  0.2917  0.4854 -0.1682
 1874SOL    HW117081   1.460   1.555   1.246  0.3251 -0.2220 -0.8852
 1874SOL    HW217082   1.406   1.424   1.255 -0.4397 -0.6750  2.6151
 1875SOL     OW17083   3.096   2.404   5.872  0.1883 -0.1379 -0.0290
 1875SOL    HW117084   3.024   2.395   5.810 -0.4429  1.4087  0.4842
 1875SOL    HW217085   3.166   2.369   5.818  0.7393  0.3795  0.3480
 1876SOL     OW17086   4.123   0.535   5.632  0.5087 -0.6315  0.7449
 1876SOL    HW117087   4.151   0.452   5.670  1.1827 -0.5210  0.4842
 1876SOL    HW217088   4.047   0.561   5.685  0.0101  1.9247 -1.2078
 1877SOL     OW17089   4.297   3.338  12.795 -0.8205 -0.0423  0.7106
 1877SOL    HW117090   4.367   3.347  12.859 -0.4294 -0.9345  0.4189
 1877SOL    HW217091   4.253   3.266  12.841 -2.1109 -0.3544 -1.0235
 1878SOL     OW17092   4.700   0.369  17.605 -0.2423  0.0415  0.3557
 1878SOL    HW117093   0.017   0.285  17.591 -0.5951  0.1815 -1.6791
 1878SOL    HW217094   0.046   0.429  17.625  0.6790 -1.7927  2.4735
 1879SOL     OW17095   4.394   3.050   8.723 -0.6089  0.2979 -0.1968
 1879SOL    HW117096   4.320   2.991   8.739 -1.8736  2.1345  0.7915
 1879SOL    HW217097   4.385   3.105   8.801 -0.6371  1.5410 -1.0856
 1880SOL     OW17098   3.115   1.506  10.310  0.0843 -0.4374  0.2858
 1880SOL    HW117099   3.101   1.418  10.346 -0.5766  0.0759  1.2756
 1880SOL    HW217100   3.118   1.561  10.389  0.0643 -0.3766  0.2440
 1881SOL     OW17101   1.546   3.530  15.180 -0.2046  0.0586 -0.4450
 1881SOL    HW117102   1.607   3.604  15.175  0.1036 -0.1880 -0.3555
 1881SOL    HW217103   1.513   3.546  15.268 -1.9233  0.1165 -1.1009
 1882SOL     OW17104   0.596   3.593   7.751  0.4157  0.4662  0.2261
 1882SOL    HW117105   0.547   3.597   7.833 -0.6575  2.4010 -0.5182
 1882SOL    HW217106   0.679   3.628   7.784 -0.3918  2.6785 -0.0871
 1883SOL     OW17107   2.673   4.602   4.498 -0.3108  0.2785 -0.6145
 1883SOL    HW117108   2.639   4.681   4.456 -1.1748  0.0805 -0.2874
 1883SOL    HW217109   2.724   4.572   4.423  2.5583  1.2743  0.9127
 1884SOL     OW17110   0.224   4.065   3.796  0.1550  0.2394  0.5443
 1884SOL    HW117111   0.249   4.030   3.711 -1.8724 -1.0869  0.4828
 1884SOL    HW217112   0.183   4.144   3.761  1.2532  1.3256  1.7180
 1885SOL     OW17113   3.989   3.643   3.968 -0.2426 -0.2841 -0.3488
 1885SOL    HW117114   3.932   3.694   4.026 -0.1862  0.4740 -0.9549
 1885SOL    HW217115   4.006   3.704   3.896  1.7068 -0.5057 -0.0659
 1886SOL     OW17116   0.636   4.038  12.901 -0.5390 -0.0177  0.6485
 1886SOL    HW117117   0.666   4.081  12.981  0.1326  0.7045  0.0068
 1886SOL    HW217118   0.702   3.968  12.899 -0.0203  0.4582  1.0900
 1887SOL     OW17119   1.606   3.517  10.464 -0.1207  0.0685 -0.4197
 1887SOL    HW117120   1.522   3.554  10.437 -1.6814 -1.2908  2.5693
 1887SOL    HW217121   1.595   3.528  10.558 -2.4012 -1.5712 -0.4974
 1888SOL     OW17122   3.914   3.553   6.572  0.2661  0.0555  0.8525
 1888SOL    HW117123   3.943   3.640   6.600 -0.5598 -0.1871  2.4253
 1888SOL    HW217124   3.909   3.575   6.479 -0.5878  2.0528  1.3747
 1889SOL     OW17125   4.626   2.532   3.870  0.6470  0.0504 -0.0640
 1889SOL    HW117126   4.625   2.500   3.780 -0.2020  1.3789 -0.5226
 1889SOL    HW217127   4.545   2.487   3.895  0.7744  0.2328  0.6595
 1890SOL     OW17128   4.563   2.470  14.606  0.1688 -0.0129 -0.0346
 1890SOL    HW117129   4.468   2.469  14.590 -0.0918 -0.9574  1.4831
 1890SOL    HW217130   4.584   2.376  14.598 -1.0740 -0.1980 -1.1367
 1891SOL     OW17131   1.817   1.277  14.250  0.0649  0.1063  0.2725
 1891SOL    HW117132   1.877   1.248  14.319 -0.8794 -0.5719  0.8084
 1891SOL    HW217133   1.767   1.346  14.293  1.5113  2.8346 -2.4324
 1892SOL     OW17134   3.519   1.924  10.782 -0.2823 -0.4363  0.3194
 1892SOL    HW117135   3.574   1.927  10.860  0.3291 -1.1204 -0.0833
 1892SOL    HW217136   3.483   1.836  10.796  0.6219 -0.4275  2.6411
 1893SOL     OW17137   4.588   2.022   2.156  0.4810  0.2379 -0.4011
 1893SOL    HW117138   4.514   1.965   2.177  0.8853  0.4612  1.5761
 1893SOL    HW217139   4.629   2.027   2.242  0.1808 -2.4793 -0.0804
 1894SOL     OW17140   1.337   0.065   6.512 -0.7262  0.4576 -0.1784
 1894SOL    HW117141   1.378   0.081   6.427  0.2421 -1.1612  0.0057
 1894SOL    HW217142   1.351   4.697   6.520 -0.0186  0.5594 -0.2174
 1895SOL     OW17143   2.562   1.325   2.557 -0.4208 -0.0692  0.7150
 1895SOL    HW117144   2.508   1.246   2.556 -1.2072  0.4522  1.4770
 1895SOL    HW217145   2.600   1.321   2.645  0.1670 -0.5874  0.4387
 1896SOL     OW17146   1.809   3.301   7.654  0.6486 -0.0901  0.4046
 1896SOL    HW117147   1.798   3.342   7.740 -1.8041  1.7886 -0.8208
 1896SOL    HW217148   1.816   3.213   7.692 -1.8726  0.4847  2.1911
 1897SOL     OW17149   0.559   1.318  15.352 -0.1285  0.3642 -0.1388
 1897SOL    HW117150   0.649   1.304  15.383 -0.2159  0.5038  0.1688
 1897SOL    HW217151   0.576   1.404  15.313  1.3580  0.0435 -0.2261
 1898SOL     OW17152   0.712   2.034  17.353  0.7061 -0.1524  0.0739
 1898SOL    HW117153   0.764   2.106  17.318 -0.1696 -0.8425 -2.6687
 1898SOL    HW217154   0.665   2.011  17.273  0.6621 -0.1669  0.1037
 1899SOL     OW17155   3.454   1.690   9.264 -0.3359 -0.1809  0.1124
 1899SOL    HW117156   3.396   1.614   9.260 -2.0435  1.1447 -0.5046
 1899SOL    HW217157   3.430   1.725   9.178  0.1990  1.1940  0.5198
 1900SOL     OW17158   3.045   1.261  14.269 -0.1042  0.7759 -0.0452
 1900SOL    HW117159   3.130   1.229  14.300 -1.2529 -0.3693  1.9143
 1900SOL    HW217160   3.015   1.314  14.343 -3.6977 -1.1094 -0.1359
 1901SOL     OW17161   2.230   4.005   9.171 -0.2420 -0.0230  0.2014
 1901SOL    HW117162   2.244   4.017   9.265 -1.4777 -2.4531  0.7020
 1901SOL    HW217163   2.169   3.932   9.183  0.3075 -0.8229 -1.7890
 1902SOL     OW17164   0.597   1.911  17.112 -0.3540  0.1423 -0.1242
 1902SOL    HW117165   0.619   1.930  17.021 -0.0304 -0.9451 -0.2723
 1902SOL    HW217166   0.553   1.826  17.105 -2.0126  1.0500 -0.6823
 1903SOL     OW17167   1.664   0.433   3.819 -0.1616 -0.2684 -0.0330
 1903SOL    HW117168   1.728   0.399   3.756 -1.6768  0.4427 -1.9669
 1903SOL    HW217169   1.644   0.519   3.782 -1.8603  0.2229  2.0895
 1904SOL     OW17170   4.394   2.797  15.640 -1.0612 -0.3161 -0.0098
 1904SOL    HW117171   4.406   2.711  15.601  0.5093  1.6703 -3.9867
 1904SOL    HW217172   4.301   2.789  15.661 -1.4054 -3.6549 -2.9061
 1905SOL     OW17173   2.501   1.298   5.612 -0.6217  0.3233  0.0598
 1905SOL    HW117174   2.594   1.311   5.626 -0.3859  1.5021 -2.7114
 1905SOL    HW217175   2.477   1.390   5.598  0.0075  0.7165  1.5951
 1906SOL     OW17176   0.989   2.352  12.258  0.2178 -0.3884 -0.2561
 1906SOL    HW117177   0.951   2.339  12.171 -0.4047  1.4689 -0.2708
 1906SOL    HW217178   0.942   2.306  12.327 -2.7760  2.9011 -0.1240
 1907SOL     OW17179   4.308   0.655  10.386  0.0713  0.1062 -0.1738
 1907SOL    HW117180   4.402   0.667  10.384  0.0597 -0.0255 -1.9840
 1907SOL    HW217181   4.296   0.578  10.330  2.4120 -1.1913  1.1041
 1908SOL     OW17182   0.236   2.176  16.941 -0.1415  0.0825  0.2284
 1908SOL    HW117183   0.291   2.252  16.958 -0.3503  0.0467  1.0794
 1908SOL    HW217184   0.221   2.141  17.029  0.5108 -3.6919 -1.1271
 1909SOL     OW17185   4.536   2.552  15.957 -0.3374  0.0310  0.5510
 1909SOL    HW117186   4.632   2.553  15.957 -0.3823  2.8369  1.3301
 1909SOL    HW217187   4.511   2.529  16.046 -0.2059  1.2035  0.8943
 1910SOL     OW17188   4.512   2.876   1.669  0.3781 -0.9018 -0.1169
 1910SOL    HW117189   4.542   2.876   1.760 -0.1349  1.1726  0.0550
 1910SOL    HW217190   4.595   2.852   1.627  0.1825  0.1357 -1.1046
 1911SOL     OW17191   0.346   2.761   9.183  0.0054  0.0777 -0.3759
 1911SOL    HW117192   0.296   2.805   9.252  1.9175 -1.2348  1.8214
 1911SOL    HW217193   0.425   2.730   9.228  0.0907  0.1300 -0.4897
 1912SOL     OW17194   2.309   1.052   2.238  0.3817  0.1539  0.0601
 1912SOL    HW117195   2.233   1.045   2.180 -1.1824 -0.1874  2.1481
 1912SOL    HW217196   2.348   1.123   2.186  2.0297 -1.8795 -1.5078
 1913SOL     OW17197   3.009   2.180  10.229  0.3392  0.2289 -0.1641
 1913SOL    HW117198   3.025   2.132  10.310 -3.0358 -0.9908 -0.2139
 1913SOL    HW217199   2.923   2.222  10.239  0.2216  0.3247 -1.5601
 1914SOL     OW17200   2.290   3.604   7.932  0.4015  0.8474 -0.2325
 1914SOL    HW117201   2.238   3.550   7.991  0.0772 -0.4317 -1.7251
 1914SOL    HW217202   2.286   3.684   7.985  0.1322  0.4808  0.3034
 1915SOL     OW17203   0.990   2.562  12.783  0.4894  0.1920 -0.1941
 1915SOL    HW117204   0.929   2.613  12.835  1.1636  0.0423  0.7445
 1915SOL    HW217205   0.956   2.574  12.694 -1.2173  1.0626  0.5800
 1916SOL     OW17206   3.642   2.269   9.744 -0.4568  0.1233 -0.1678
 1916SOL    HW117207   3.653   2.214   9.666  0.5096  1.8497 -1.2328
 1916SOL    HW217208   3.547   2.282   9.746 -0.7780 -1.8969 -1.2126
 1917SOL     OW17209   1.435   3.486  12.234 -0.3710 -0.1242 -0.0631
 1917SOL    HW117210   1.366   3.432  12.273 -1.5234  1.5233  0.1676
 1917SOL    HW217211   1.380   3.544  12.181  0.3167 -0.3191 -1.0012
 1918SOL     OW17212   4.420   1.283   0.124 -0.2214  1.0400 -0.7044
 1918SOL    HW117213   4.497   1.333   0.150 -0.2161  1.0264 -0.6937
 1918SOL    HW217214   4.401   1.231   0.203 -0.2491 -1.3142 -2.2760
 1919SOL     OW17215   0.561   1.860   8.568 -0.0092  0.1273  0.1139
 1919SOL    HW117216   0.602   1.854   8.482  1.6587  0.2322  0.9005
 1919SOL    HW217217   0.627   1.885   8.633 -0.4567 -0.2601  0.7184
 1920SOL     OW17218   4.343   4.651  13.166 -0.4475  0.1778 -0.2358
 1920SOL    HW117219   4.325   0.019  13.163  1.7365  0.5588 -1.0303
 1920SOL    HW217220   4.412   4.646  13.100  0.0032 -0.6580  0.3032
 1921SOL     OW17221   1.131   4.300  10.368 -0.6979 -0.2116  0.0308
 1921SOL    HW117222   1.056   4.255  10.330 -0.5593 -0.5514  0.1542
 1921SOL    HW217223   1.145   4.259  10.454  0.0686  2.8479  1.3714
 1922SOL     OW17224   4.317   2.451   5.433 -0.3735  0.7363  0.0402
 1922SOL    HW117225   4.294   2.527   5.379  0.8381  0.5334 -0.7617
 1922SOL    HW217226   4.337   2.500   5.512 -2.0781  1.0955  0.2497
 1923SOL     OW17227   3.135   0.342   7.529  0.0940 -0.3970  0.1808
 1923SOL    HW117228   3.047   0.318   7.502  0.2193  0.5487 -1.0666
 1923SOL    HW217229   3.183   0.299   7.458  0.7979  0.6787  0.0054
 1924SOL     OW17230   1.131   2.210   7.713  0.7067  0.3954  0.1638
 1924SOL    HW117231   1.039   2.232   7.699  1.5694  2.5588 -2.1329
 1924SOL    HW217232   1.135   2.220   7.809 -1.6353  2.8069  0.0120
 1925SOL     OW17233   1.436   3.080   8.161  0.4969  0.4815  0.7671
 1925SOL    HW117234   1.352   3.110   8.126  2.0103  0.8975 -2.4535
 1925SOL    HW217235   1.451   3.130   8.241  2.6577 -1.1694  1.3904
 1926SOL     OW17236   3.293   3.373   5.543 -0.3523  0.0889  0.0784
 1926SOL    HW117237   3.307   3.448   5.485 -1.9574  1.1626  1.0638
 1926SOL    HW217238   3.386   3.367   5.569 -0.5108  1.8025  1.0805
 1927SOL     OW17239   4.700   2.476   3.441 -0.6887  0.1271  0.4585
 1927SOL    HW117240   4.710   2.398   3.388 -0.9870  1.4126 -1.4946
 1927SOL    HW217241   0.063   2.483   3.475 -0.1888 -1.2020 -0.6193
 1928SOL     OW17242   4.375   1.403   1.182 -0.0748 -0.1626 -0.1109
 1928SOL    HW117243   4.394   1.495   1.165 -1.4405  0.2607  0.6921
 1928SOL    HW217244   4.424   1.403   1.264 -0.8372  0.8370  0.3393
 1929SOL     OW17245   3.554   0.625   7.752  0.1273 -0.4285 -0.0582
 1929SOL    HW117246   3.623   0.598   7.813  1.0180 -3.0705 -2.2499
 1929SOL    HW217247   3.493   0.641   7.824  0.0028 -0.0508 -0.2491
 1930SOL     OW17248   1.456   1.222   2.376 -0.3131  0.2437  0.8388
 1930SOL    HW117249   1.512   1.256   2.307 -1.2168 -1.4934 -0.7503
 1930SOL    HW217250   1.412   1.150   2.331  0.3807  1.2239 -1.3915
 1931SOL     OW17251   1.060   3.915   5.212 -0.5466  0.2048 -0.2223
 1931SOL    HW117252   0.970   3.897   5.184 -0.3480 -0.0014 -0.7209
 1931SOL    HW217253   1.056   3.996   5.264  0.5564 -0.9791  1.7024
 1932SOL     OW17254   2.231   2.295  10.224  0.1959 -0.8374 -0.2390
 1932SOL    HW117255   2.301   2.357  10.202 -1.7518  0.9758 -1.2600
 1932SOL    HW217256   2.275   2.216  10.255  3.6602  0.2097 -2.3810
 1933SOL     OW17257   3.392   3.368  17.471 -0.0926 -0.0057  0.7757
 1933SOL    HW117258   3.308   3.411  17.459  0.3319  0.5825 -0.1487
 1933SOL    HW217259   3.439   3.441  17.510 -1.0638  0.8004  0.4337
 1934SOL     OW17260   4.611   1.215   7.788 -0.2808 -0.6733  0.3674
 1934SOL    HW117261   4.695   1.223   7.834 -0.2460 -1.0981  0.3866
 1934SOL    HW217262   4.590   1.127   7.821 -1.8922 -0.4136  0.0008
 1935SOL     OW17263   2.246   4.507   2.641  0.1959  0.4170 -0.4918
 1935SOL    HW117264   2.295   4.426   2.632 -0.3116  0.0691 -0.1262
 1935SOL    HW217265   2.318   4.566   2.617  1.1308 -0.4688  0.1706
 1936SOL     OW17266   0.862   3.830  10.556  0.2592  0.3665 -0.3569
 1936SOL    HW117267   0.780   3.858  10.596 -0.1670  0.9767 -1.6237
 1936SOL    HW217268   0.905   3.912  10.531  0.5620 -0.1537 -1.5266
 1937SOL     OW17269   0.352   1.499   8.017 -0.4575  0.2356  0.2745
 1937SOL    HW117270   0.280   1.543   8.063  0.2239 -0.7535  2.2362
 1937SOL    HW217271   0.339   1.410   8.049  1.6185 -0.1554 -0.0121
 1938SOL     OW17272   3.291   4.186   1.708 -0.3763  0.5947 -0.9503
 1938SOL    HW117273   3.366   4.144   1.751 -0.4897 -1.0326 -2.3208
 1938SOL    HW217274   3.345   4.259   1.677 -1.7812  1.9378 -0.2128
 1939SOL     OW17275   0.731   3.610  17.155  0.1996  0.0503 -0.3383
 1939SOL    HW117276   0.795   3.680  17.169  2.4731 -2.1499  0.2107
 1939SOL    HW217277   0.717   3.618  17.061  0.2207 -1.3311 -0.4597
 1940SOL     OW17278   1.842   3.106  11.022 -0.5928 -0.0774 -0.0450
 1940SOL    HW117279   1.847   3.078  10.931 -0.1343  0.8220 -0.2952
 1940SOL    HW217280   1.750   3.091  11.042 -0.4261 -0.0258  0.7881
 1941SOL     OW17281   4.390   1.909   2.325 -0.0195 -0.1979  0.5734
 1941SOL    HW117282   4.350   1.855   2.392 -0.5250  1.1826  1.3739
 1941SOL    HW217283   4.318   1.894   2.264  0.8193 -1.1056 -0.2212
 1942SOL     OW17284   2.693   4.131   3.564 -0.2579 -0.4427  0.6307
 1942SOL    HW117285   2.774   4.153   3.608 -0.5374 -0.2478  1.0511
 1942SOL    HW217286   2.633   4.202   3.586  0.1833 -0.1750  0.9488
 1943SOL     OW17287   0.096   2.687  12.366  0.2150 -0.1683  0.6812
 1943SOL    HW117288   0.090   2.634  12.287 -0.7335 -1.0456  1.3270
 1943SOL    HW217289   0.190   2.702  12.364 -0.1799  2.0914 -0.5895
 1944SOL     OW17290   1.252   0.396   7.269  0.0635 -0.0582 -0.2569
 1944SOL    HW117291   1.344   0.382   7.247  0.8180  0.1447  2.7958
 1944SOL    HW217292   1.258   0.476   7.322 -1.3035 -0.4006  0.3926
 1945SOL     OW17293   1.836   1.896  10.488 -0.2355  0.1616 -0.1968
 1945SOL    HW117294   1.750   1.936  10.477  0.0468  0.8633  0.1576
 1945SOL    HW217295   1.898   1.964  10.514 -2.2923  2.0695 -0.3995
 1946SOL     OW17296   4.174   3.377  10.447  0.1383 -0.7839  0.1790
 1946SOL    HW117297   4.203   3.366  10.537  1.0139 -3.0519 -0.3859
 1946SOL    HW217298   4.131   3.462  10.456  1.7729 -0.0035  0.6987
 1947SOL     OW17299   2.284   3.584   5.812  0.1618  0.3886  0.6024
 1947SOL    HW117300   2.358   3.564   5.870  1.8238  0.2646 -1.5717
 1947SOL    HW217301   2.335   3.614   5.737  0.5846 -1.8404  0.0029
 1948SOL     OW17302   1.256   4.568   1.574  0.3182  0.0072 -0.3933
 1948SOL    HW117303   1.170   4.608   1.586  0.0819 -1.2943  2.2843
 1948SOL    HW217304   1.304   4.604   1.648  1.7986 -1.0278 -0.8512
 1949SOL     OW17305   2.630   1.906   1.192 -0.1540  0.1275 -0.3475
 1949SOL    HW117306   2.705   1.957   1.224  1.5170 -2.5237 -0.0376
 1949SOL    HW217307   2.687   1.867   1.126  0.9604  0.3475  0.4786
 1950SOL     OW17308   2.821   3.538   0.731 -0.0677 -0.5730 -0.8917
 1950SOL    HW117309   2.898   3.547   0.675 -1.1694  3.3256 -1.7898
 1950SOL    HW217310   2.835   3.606   0.796 -3.3239 -0.5430 -0.2168
 1951SOL     OW17311   0.012   2.693   2.269  0.2435  0.0842  0.2180
 1951SOL    HW117312   0.003   2.716   2.361  1.8778  0.3931  0.3004
 1951SOL    HW217313   0.014   2.598   2.267 -0.3462  0.0679  0.5502
 1952SOL     OW17314   3.190   4.076   6.698  0.1854  0.1882  0.0257
 1952SOL    HW117315   3.215   4.069   6.790 -0.1391 -0.4579  0.0615
 1952SOL    HW217316   3.104   4.115   6.712  0.4793 -0.1060  2.6762
 1953SOL     OW17317   2.903   1.037   2.556  0.3705 -0.5292 -0.1413
 1953SOL    HW117318   2.872   1.109   2.501 -0.3539  0.1790  1.1864
 1953SOL    HW217319   2.996   1.043   2.536  0.5236 -0.8286  0.4525
 1954SOL     OW17320   4.478   1.191   8.327  0.1931 -1.0529  0.2100
 1954SOL    HW117321   4.444   1.210   8.414  1.4676  2.5184 -0.0821
 1954SOL    HW217322   4.398   1.180   8.276  0.9189 -0.0739 -1.1405
 1955SOL     OW17323   2.503   4.037   3.807 -0.4351  0.2301  0.1050
 1955SOL    HW117324   2.420   4.062   3.847 -0.0832 -0.0332  1.0189
 1955SOL    HW217325   2.503   3.947   3.774 -0.7804  0.2004  0.1893
 1956SOL     OW17326   3.603   0.109   5.939  0.2779 -0.1316 -0.7059
 1956SOL    HW117327   3.528   0.135   5.992 -0.3482 -0.7872 -1.2679
 1956SOL    HW217328   3.560   0.042   5.886 -0.9079  1.5555 -1.8915
 1957SOL     OW17329   3.623   4.072  15.634  0.3386  0.4531  0.2282
 1957SOL    HW117330   3.595   4.046  15.721 -2.8113 -1.5902 -1.4018
 1957SOL    HW217331   3.706   4.109  15.663  0.9975  0.0668 -1.1379
 1958SOL     OW17332   2.576   3.987  12.987 -0.1926 -0.5874  0.4326
 1958SOL    HW117333   2.600   3.934  13.063  3.2575  0.3006 -0.0423
 1958SOL    HW217334   2.557   3.907  12.938 -0.6982 -1.3655  1.9039
 1959SOL     OW17335   0.553   1.029   5.075  0.2248 -0.0488 -0.4260
 1959SOL    HW117336   0.547   1.039   4.980 -2.4479  0.8929 -0.1678
 1959SOL    HW217337   0.644   1.053   5.090  0.1666 -0.9220  1.4050
 1960SOL     OW17338   3.170   2.981  10.548  0.1074  0.2308  0.1975
 1960SOL    HW117339   3.077   2.996  10.563 -0.0637 -0.9225  0.2908
 1960SOL    HW217340   3.212   3.044  10.607  1.0631 -1.5230  1.3757
 1961SOL     OW17341   1.354   1.119   3.299 -0.0352 -0.2388 -0.2095
 1961SOL    HW117342   1.337   1.086   3.211  1.1199  0.7249 -0.7928
 1961SOL    HW217343   1.446   1.096   3.313 -0.0815  0.2346  0.8592
 1962SOL     OW17344   1.576   2.677   2.972 -0.4235  0.3523 -0.2632
 1962SOL    HW117345   1.570   2.582   2.962  2.5891 -0.0706  1.8275
 1962SOL    HW217346   1.671   2.691   2.966 -0.1645 -1.3305 -0.1551
 1963SOL     OW17347   2.535   0.724   5.914 -0.1711 -0.3415 -0.5275
 1963SOL    HW117348   2.590   0.664   5.864  0.0455  0.6045 -1.4240
 1963SOL    HW217349   2.577   0.707   5.998 -1.2249  1.3376  0.3306
 1964SOL     OW17350   1.658   3.184   3.177  0.2018 -0.4206  0.1075
 1964SOL    HW117351   1.609   3.101   3.176 -1.6601  0.6817 -0.0387
 1964SOL    HW217352   1.748   3.153   3.175  0.3638  0.0200  0.5045
 1965SOL     OW17353   0.731   1.931   1.386  0.5216  0.0055 -0.2323
 1965SOL    HW117354   0.747   2.000   1.321 -0.3074  0.8152  0.4243
 1965SOL    HW217355   0.652   1.894   1.346  0.3024  0.7122 -0.4468
 1966SOL     OW17356   0.391   2.869   5.108 -0.6876  0.1173 -0.0195
 1966SOL    HW117357   0.368   2.911   5.025  2.1120  0.1916 -0.7738
 1966SOL    HW217358   0.444   2.935   5.152  0.9729 -0.7424 -0.7160
 1967SOL     OW17359   3.141   0.359   8.032  0.6964  0.4535  0.0855
 1967SOL    HW117360   3.121   0.293   7.966 -2.2156  1.8546 -0.4362
 1967SOL    HW217361   3.199   0.313   8.092 -2.7099 -1.7283  1.6821
 1968SOL     OW17362   1.536   4.544  11.170 -0.1763  0.5214 -0.1102
 1968SOL    HW117363   1.554   4.495  11.250  2.2408  1.5189 -0.0343
 1968SOL    HW217364   1.533   4.634  11.202  1.0233  1.0596 -1.5366
 1969SOL     OW17365   0.806   1.254   8.803 -0.0997 -0.0029  0.1315
 1969SOL    HW117366   0.838   1.288   8.719  2.7641  2.2835  2.1797
 1969SOL    HW217367   0.712   1.272   8.797 -0.7922 -3.1158  1.4284
 1970SOL     OW17368   1.750   1.079  16.353 -0.0489 -0.3475 -0.1129
 1970SOL    HW117369   1.716   1.101  16.439  3.0575 -0.6178  1.2040
 1970SOL    HW217370   1.842   1.103  16.362 -1.1920  3.2277  1.6887
 1971SOL     OW17371   1.460   3.080   6.910  0.2052  0.1389  0.0403
 1971SOL    HW117372   1.481   3.174   6.907 -0.9522  0.4261  0.8603
 1971SOL    HW217373   1.393   3.079   6.978 -0.2043  1.1337 -0.3431
 1972SOL     OW17374   2.566   2.301  17.675 -0.9495 -0.3503 -0.4618
 1972SOL    HW117375   2.577   2.392  17.703  1.5201 -0.9609  0.6566
 1972SOL    HW217376   2.656   2.287  17.644 -0.7552  0.4583 -0.2848
 1973SOL     OW17377   1.414   0.987   2.765 -0.4492 -0.1498  0.0504
 1973SOL    HW117378   1.432   1.076   2.735 -0.1490  0.2865  1.5159
 1973SOL    HW217379   1.493   0.947   2.727 -0.6275 -1.3463  0.9320
 1974SOL     OW17380   2.318   1.222   5.785  0.5920  0.0219  0.2989
 1974SOL    HW117381   2.324   1.127   5.775 -0.7214  0.0481 -0.9098
 1974SOL    HW217382   2.391   1.243   5.727  0.1495 -0.5311 -0.4668
 1975SOL     OW17383   0.505   0.596   4.556 -0.0467  0.0581  0.1893
 1975SOL    HW117384   0.517   0.656   4.482  1.0865  0.9030  1.0437
 1975SOL    HW217385   0.432   0.647   4.590  0.9454  1.9718 -0.4963
 1976SOL     OW17386   0.629   0.574  12.939  0.1505  0.5741 -0.0990
 1976SOL    HW117387   0.672   0.632  12.877  1.8039 -0.9676 -0.3988
 1976SOL    HW217388   0.552   0.625  12.966 -1.6481 -1.4086 -1.5342
 1977SOL     OW17389   0.983   2.354   7.250  0.1700  0.7545  0.5852
 1977SOL    HW117390   0.952   2.280   7.303 -1.7046  0.9403 -0.2361
 1977SOL    HW217391   0.949   2.423   7.307 -1.9869 -0.3752  0.6585
 1978SOL     OW17392   3.963   4.628   3.010 -0.0907 -0.3213  0.4908
 1978SOL    HW117393   3.895   4.690   2.983  0.1885 -0.0297  0.4481
 1978SOL    HW217394   3.915   4.566   3.065 -0.3302 -0.1828  0.4399
 1979SOL     OW17395   1.320   3.596   9.060  0.2124 -0.0405 -0.2025
 1979SOL    HW117396   1.225   3.603   9.052  0.5173  4.2111 -0.1599
 1979SOL    HW217397   1.349   3.674   9.014  0.4181 -0.2120 -0.3646
 1980SOL     OW17398   4.314   4.497   5.143 -0.3086 -0.5053  0.3446
 1980SOL    HW117399   4.225   4.514   5.112  0.3443 -0.0144 -1.2986
 1980SOL    HW217400   4.376   4.528   5.076 -0.0069  1.5913  1.6020
 1981SOL     OW17401   3.710   2.356  16.361  0.0784 -0.2298 -0.6009
 1981SOL    HW117402   3.702   2.285  16.297 -1.5315 -1.6595  1.1896
 1981SOL    HW217403   3.751   2.426  16.311  2.3563  1.2790  3.4212
 1982SOL     OW17404   1.370   4.041  15.253 -0.1787 -0.1540 -0.3086
 1982SOL    HW117405   1.289   3.989  15.261 -0.3595  0.1033 -0.4821
 1982SOL    HW217406   1.364   4.087  15.170  1.2824  2.0959  0.8328
 1983SOL     OW17407   0.917   0.597   6.426  0.8421  0.4529 -0.3531
 1983SOL    HW117408   0.931   0.692   6.421  2.8174  0.0716 -1.7674
 1983SOL    HW217409   0.850   0.589   6.358  1.3596  0.4200 -0.8553
 1984SOL     OW17410   3.273   0.294  17.493 -0.3068 -0.0463 -0.2128
 1984SOL    HW117411   3.192   0.264  17.534  1.4982 -1.9109  2.0206
 1984SOL    HW217412   3.337   0.262  17.556 -1.3586 -1.9586 -0.1228
 1985SOL     OW17413   0.661   2.232   4.697 -0.1128  0.4216 -0.0042
 1985SOL    HW117414   0.648   2.305   4.758 -1.6879 -0.1448  0.3187
 1985SOL    HW217415   0.754   2.215   4.712  0.0377 -0.4076 -1.8760
 1986SOL     OW17416   4.574   0.826   4.471 -0.1806 -0.0762  0.0273
 1986SOL    HW117417   4.587   0.865   4.557  0.7008 -0.7057  0.1816
 1986SOL    HW217418   4.637   0.755   4.486 -1.0959 -0.3784  2.4509
 1987SOL     OW17419   2.312   1.742   6.487  0.4495  0.2060 -0.3058
 1987SOL    HW117420   2.269   1.770   6.406 -0.1834  0.1666  0.0193
 1987SOL    HW217421   2.261   1.789   6.552 -0.2677  0.2481 -0.9046
 1988SOL     OW17422   3.945   1.347  16.197  0.1644  0.1606  0.4245
 1988SOL    HW117423   3.882   1.286  16.160  1.9909 -0.7602 -1.1818
 1988SOL    HW217424   3.921   1.419  16.139 -0.3788 -1.5245 -1.4354
 1989SOL     OW17425   0.583   3.879  15.005  0.4046  0.3313  0.3746
 1989SOL    HW117426   0.617   3.960  15.043  0.0245  0.6796 -0.0289
 1989SOL    HW217427   0.651   3.846  14.946  0.4747 -0.5602  0.9480
 1990SOL     OW17428   1.724   1.372  15.622  0.0792 -0.0561 -0.4757
 1990SOL    HW117429   1.632   1.372  15.594  0.4996  0.5896 -1.8516
 1990SOL    HW217430   1.715   1.367  15.717 -0.6182  0.6033 -0.5063
 1991SOL     OW17431   0.213   2.921   2.492  0.0112 -0.7817 -0.2150
 1991SOL    HW117432   0.274   2.888   2.426 -0.4097  0.7058 -1.3280
 1991SOL    HW217433   0.236   2.860   2.563  2.6893  0.6514  0.1507
 1992SOL     OW17434   2.617   0.247   5.914  0.2598 -0.4344  0.2406
 1992SOL    HW117435   2.565   0.167   5.918  0.2308 -0.4150  0.2549
 1992SOL    HW217436   2.600   0.293   5.832 -0.5976 -3.3089 -1.1855
 1993SOL     OW17437   3.713   1.592   0.995 -0.7072 -0.3413 -0.0678
 1993SOL    HW117438   3.764   1.545   0.930 -0.5273 -0.0367 -0.1441
 1993SOL    HW217439   3.700   1.665   0.935 -1.6783 -1.4106 -1.1776
 1994SOL     OW17440   1.986   2.109   0.807 -0.5819  0.1349 -0.1653
 1994SOL    HW117441   1.979   2.174   0.876 -0.6887  0.4892 -0.5102
 1994SOL    HW217442   2.060   2.143   0.756 -0.4119  0.0315  0.0087
 1995SOL     OW17443   0.648   1.556   9.145 -0.2311  0.2033  0.0822
 1995SOL    HW117444   0.576   1.499   9.117  0.5741 -0.3479 -0.8812
 1995SOL    HW217445   0.612   1.574   9.232  2.1146  0.1944  1.0351
 1996SOL     OW17446   1.803   2.528   8.283  0.3133 -0.0154 -0.1087
 1996SOL    HW117447   1.747   2.602   8.308 -1.2572 -0.1068 -3.3895
 1996SOL    HW217448   1.846   2.557   8.203 -0.6516  2.4243  0.2556
 1997SOL     OW17449   2.008   3.712   7.982  0.2079  0.3873  0.5153
 1997SOL    HW117450   2.031   3.633   8.031  0.3503  0.6340  0.8423
 1997SOL    HW217451   1.954   3.756   8.047  0.3742 -1.4084  1.8563
 1998SOL     OW17452   1.537   0.337   5.196 -0.3347 -0.0900 -0.0437
 1998SOL    HW117453   1.446   0.364   5.202 -0.5938 -0.5701 -1.7754
 1998SOL    HW217454   1.551   0.336   5.101 -2.7977 -2.0466 -0.3691
 1999SOL     OW17455   2.452   0.141  13.306  0.2870  0.4251 -0.0102
 1999SOL    HW117456   2.449   0.211  13.241 -1.2430 -0.1002 -0.4989
 1999SOL    HW217457   2.479   0.178  13.390  3.3143 -0.8211 -0.4244
 2000SOL     OW17458   0.416   2.062   7.890  0.1772 -0.3379 -0.1333
 2000SOL    HW117459   0.327   2.069   7.856 -0.0483  0.7990  0.6765
 2000SOL    HW217460   0.398   2.049   7.983 -1.0402 -1.2927 -0.4998
 2001SOL     OW17461   2.842   4.283   9.503  0.3562  0.0123  0.3091
 2001SOL    HW117462   2.800   4.305   9.586  0.8132 -3.8362  1.5989
 2001SOL    HW217463   2.863   4.376   9.498  0.0829  0.0969  0.7313
 2002SOL     OW17464   0.377   1.538   6.377 -0.2285 -0.2243 -0.2869
 2002SOL    HW117465   0.305   1.560   6.435 -0.4162  0.7467 -0.9085
 2002SOL    HW217466   0.433   1.615   6.387  0.8151 -1.2233  1.5859
 2003SOL     OW17467   1.061   1.792   4.302  0.2462  0.1872  0.3923
 2003SOL    HW117468   1.056   1.875   4.348  2.3276  0.6288 -0.1926
 2003SOL    HW217469   1.034   1.815   4.213  1.2636  3.3411  0.9091
 2004SOL     OW17470   1.987   4.256   4.832  0.1918 -0.5962  0.2228
 2004SOL    HW117471   1.896   4.282   4.816 -0.1395 -0.2786  2.6018
 2004SOL    HW217472   1.987   4.269   4.927 -2.9886 -0.3476  0.1876
 2005SOL     OW17473   1.107   0.160   4.915 -0.0077 -0.3543  0.2706
 2005SOL    HW117474   1.039   0.138   4.979  0.6940 -1.4489  0.6549
 2005SOL    HW217475   1.066   0.237   4.876 -0.1249 -0.1335  0.8263
 2006SOL     OW17476   2.191   3.291   4.163  0.1704 -0.0162 -0.4287
 2006SOL    HW117477   2.265   3.237   4.190  1.0247  1.5265  0.2860
 2006SOL    HW217478   2.145   3.245   4.092 -1.0280 -0.8733  0.9215
 2007SOL     OW17479   3.351   4.266   5.979 -0.0415  0.0627  0.0609
 2007SOL    HW117480   3.371   4.317   6.057  0.6569  1.8145 -1.2779
 2007SOL    HW217481   3.306   4.188   6.013  1.5076 -0.0626  1.8172
 2008SOL     OW17482   3.623   0.270   2.543  0.0892  0.3054 -0.0203
 2008SOL    HW117483   3.612   0.190   2.596  2.0854  1.2112  1.7418
 2008SOL    HW217484   3.594   0.244   2.456 -0.8294 -0.1172  0.4016
 2009SOL     OW17485   3.062   4.320   3.269  0.7701 -0.3738 -0.0493
 2009SOL    HW117486   3.003   4.273   3.210  0.3818 -0.2614  0.2509
 2009SOL    HW217487   3.050   4.407   3.231 -1.7343 -0.4205  0.6286
 2010SOL     OW17488   1.441   3.156   9.354 -0.4640  0.0176 -0.1105
 2010SOL    HW117489   1.408   3.083   9.302  0.6203 -1.7214  1.6619
 2010SOL    HW217490   1.509   3.188   9.294  0.0672  0.1224  0.5445
 2011SOL     OW17491   4.540   0.116  15.993  0.3367  0.8630  0.4410
 2011SOL    HW117492   4.585   0.099  16.075 -0.1343  0.9893  0.7228
 2011SOL    HW217493   4.452   0.130  16.027  0.6600  0.1980  1.5276
 2012SOL     OW17494   4.511   4.592   1.230 -0.8458 -0.3463 -0.4700
 2012SOL    HW117495   4.483   4.526   1.294  0.6055 -1.0000 -0.5279
 2012SOL    HW217496   4.431   4.600   1.178 -1.9518  0.7877  1.3686
 2013SOL     OW17497   3.900   3.493   5.733 -0.6060  0.4543 -0.0071
 2013SOL    HW117498   3.962   3.522   5.801 -1.0515  0.9327  0.1951
 2013SOL    HW217499   3.820   3.534   5.764  0.0328  1.2096  0.6615
 2014SOL     OW17500   1.839   0.484  10.482 -0.1435  0.4711  0.6132
 2014SOL    HW117501   1.790   0.502  10.562 -2.6016  0.9365 -1.0038
 2014SOL    HW217502   1.897   0.559  10.494 -0.8415  1.2972 -1.1049
 2015SOL     OW17503   0.315   1.580   6.000 -0.5413 -0.2624 -0.2325
 2015SOL    HW117504   0.298   1.516   6.069 -1.9536 -0.9863 -1.2619
 2015SOL    HW217505   0.254   1.651   6.020  0.1668 -0.2776  2.0568
 2016SOL     OW17506   3.838   2.167  14.001 -0.3443  0.6531 -0.7508
 2016SOL    HW117507   3.744   2.156  13.983 -0.5283 -0.1713  0.7503
 2016SOL    HW217508   3.858   2.087  14.049  1.5573  1.0181 -0.9340
 2017SOL     OW17509   2.624   1.198   3.308 -0.4896  0.2922  0.4155
 2017SOL    HW117510   2.630   1.115   3.261  0.2401  0.2398  0.5957
 2017SOL    HW217511   2.699   1.181   3.365  1.4962  1.1420 -1.9537
 2018SOL     OW17512   2.324   1.467   4.089 -0.1445 -0.0362  0.0251
 2018SOL    HW117513   2.235   1.470   4.125 -0.8927  0.1116 -1.8358
 2018SOL    HW217514   2.307   1.441   3.998  2.5116  0.0652 -0.4810
 2019SOL     OW17515   1.728   3.931   8.363 -0.2825  0.2129  0.1765
 2019SOL    HW117516   1.682   4.014   8.378  0.0990  0.7442 -1.5842
 2019SOL    HW217517   1.736   3.895   8.451 -0.9116 -2.2036 -0.7456
 2020SOL     OW17518   2.425   4.671   2.467 -0.0775 -0.8280 -0.1441
 2020SOL    HW117519   2.454   0.019   2.414 -0.7692 -2.1167 -2.3365
 2020SOL    HW217520   2.504   4.618   2.455  1.5911  1.4150  0.8236
 2021SOL     OW17521   0.329   0.835   3.112  0.2080  0.2366  0.3370
 2021SOL    HW117522   0.250   0.876   3.076  0.3389 -0.2704 -0.5117
 2021SOL    HW217523   0.344   0.769   3.045  1.9695  1.5449 -0.5637
 2022SOL     OW17524   0.811   3.625   5.928 -0.2129  0.8239 -0.4552
 2022SOL    HW117525   0.746   3.693   5.912 -0.9204  0.3062  0.1954
 2022SOL    HW217526   0.816   3.569   5.850  0.4003 -1.9559  1.5459
 2023SOL     OW17527   0.302   2.197  11.070 -0.5100 -0.0843  0.2203
 2023SOL    HW117528   0.358   2.125  11.098  1.1077  1.1179  0.0919
 2023SOL    HW217529   0.343   2.277  11.103  0.3097 -1.0942  1.6352
 2024SOL     OW17530   2.059   1.115   2.089  0.2146 -0.8489 -0.5024
 2024SOL    HW117531   1.982   1.073   2.052  0.0322  0.6332 -1.7650
 2024SOL    HW217532   2.110   1.148   2.015 -3.5574  2.6020 -1.5241
 2025SOL     OW17533   2.753   2.044   5.737 -0.1645  0.2205 -0.3153
 2025SOL    HW117534   2.827   2.008   5.687 -0.1438  1.2425 -1.0194
 2025SOL    HW217535   2.685   1.981   5.714  0.0860 -0.4222  0.6971
 2026SOL     OW17536   0.845   0.662  16.507  0.2568  0.8509  0.1684
 2026SOL    HW117537   0.810   0.675  16.596  0.1698 -0.3363  0.3033
 2026SOL    HW217538   0.777   0.602  16.476  0.7545 -0.2137  1.1417
 2027SOL     OW17539   1.708   4.503   2.723  0.2447 -0.5405  0.4134
 2027SOL    HW117540   1.712   4.480   2.816  3.3844  0.3250  0.5170
 2027SOL    HW217541   1.792   4.474   2.687 -0.1712 -0.2408 -0.7767
 2028SOL     OW17542   3.094   2.681   3.703 -0.3951 -0.7624 -0.3225
 2028SOL    HW117543   3.127   2.594   3.679 -0.9489 -0.3916 -2.4122
 2028SOL    HW217544   3.144   2.697   3.783  0.0694  1.2015 -1.0156
 2029SOL     OW17545   2.845   1.651  12.782 -0.0108 -0.0109 -0.1672
 2029SOL    HW117546   2.939   1.631  12.779 -0.3054 -1.6088  1.4181
 2029SOL    HW217547   2.835   1.732  12.732  0.9008  0.4725  0.4251
 2030SOL     OW17548   3.548   0.134  16.573  0.0999 -0.2791  0.4641
 2030SOL    HW117549   3.506   0.220  16.570  2.7390  0.9500 -1.5568
 2030SOL    HW217550   3.631   0.153  16.617 -0.0407  0.8479  0.2231
 2031SOL     OW17551   1.980   1.154   8.172  0.1955  0.0340 -0.0911
 2031SOL    HW117552   2.044   1.093   8.208  0.9091  0.0809 -1.2945
 2031SOL    HW217553   1.940   1.190   8.252  0.0132  1.4914 -0.8262
 2032SOL     OW17554   3.604   2.199  13.504 -0.3059 -0.1622  0.7896
 2032SOL    HW117555   3.573   2.265  13.442  1.3170  0.5823  0.7782
 2032SOL    HW217556   3.600   2.121  13.448  0.9950  0.0748  0.3624
 2033SOL     OW17557   3.013   4.128   7.446  0.2923 -0.2594 -0.2014
 2033SOL    HW117558   3.066   4.198   7.484  0.2418 -0.4050  0.1320
 2033SOL    HW217559   2.993   4.072   7.521  0.4982  0.5832  0.4798
 2034SOL     OW17560   0.654   0.842  11.272 -0.3343  0.1450  0.4858
 2034SOL    HW117561   0.561   0.836  11.250 -0.4254  0.0113  0.9028
 2034SOL    HW217562   0.648   0.817  11.364 -1.2147  3.4203  1.3257
 2035SOL     OW17563   0.064   2.173   1.353  0.2161  0.1290 -0.5447
 2035SOL    HW117564   0.067   2.257   1.308 -0.9083  2.5497  3.8739
 2035SOL    HW217565   4.701   2.149   1.327  0.6294 -0.1046 -1.7253
 2036SOL     OW17566   2.969   2.351  10.878 -0.8027  0.0465 -0.2270
 2036SOL    HW117567   2.990   2.426  10.822  0.8209 -1.1682 -1.2439
 2036SOL    HW217568   3.035   2.285  10.859 -0.8498  0.2031 -0.9280
 2037SOL     OW17569   0.197   3.064   8.444 -0.4940 -0.7506  0.1314
 2037SOL    HW117570   0.258   3.069   8.370 -0.9891  0.5650 -0.1884
 2037SOL    HW217571   0.255   3.064   8.520 -2.2563  1.1021  1.4757
 2038SOL     OW17572   2.046   2.441   7.514 -0.2789  0.6787  0.1160
 2038SOL    HW117573   2.001   2.430   7.431  0.7523 -0.0499 -0.3517
 2038SOL    HW217574   2.064   2.349   7.535 -3.3844 -0.2123 -1.0736
 2039SOL     OW17575   4.094   0.468  10.231  0.0963 -0.2518  0.4588
 2039SOL    HW117576   4.078   0.554  10.192  0.6955 -0.0931  0.5616
 2039SOL    HW217577   4.150   0.432  10.162 -1.8266  0.4685 -1.4674
 2040SOL     OW17578   3.129   0.820   0.979  0.4002 -0.2093 -0.3879
 2040SOL    HW117579   3.136   0.848   1.071  0.9739 -0.0605 -0.4772
 2040SOL    HW217580   3.203   0.873   0.949 -1.4134  1.1427 -2.4685
 2041SOL     OW17581   3.579   1.070   9.796 -0.1265  0.4192  0.0799
 2041SOL    HW117582   3.490   1.067   9.762 -0.3663 -0.7559  0.8275
 2041SOL    HW217583   3.572   1.017   9.875 -2.1007 -1.7484 -1.5549
 2042SOL     OW17584   2.139   2.821   2.807 -0.0298 -0.3010  0.3081
 2042SOL    HW117585   2.116   2.913   2.813  1.4507  0.0404  0.6394
 2042SOL    HW217586   2.192   2.818   2.728 -1.1368 -2.7106 -0.3492
 2043SOL     OW17587   2.778   2.835   3.052  0.1021  0.1582 -0.1070
 2043SOL    HW117588   2.865   2.874   3.051  0.6321 -0.9773  1.2040
 2043SOL    HW217589   2.801   2.769   2.986  0.3898  1.4341 -1.2931
 2044SOL     OW17590   3.833   1.688   5.803  0.5935  0.3270  0.3952
 2044SOL    HW117591   3.781   1.750   5.752  0.0163  0.6118  1.3135
 2044SOL    HW217592   3.907   1.742   5.832  0.5105  0.0869  1.0515
 2045SOL     OW17593   2.309   2.180  10.632  0.0755  0.0851  0.1211
 2045SOL    HW117594   2.297   2.212  10.721 -1.2567  0.5988 -0.2460
 2045SOL    HW217595   2.391   2.133  10.645  1.2778  1.9918 -0.6822
 2046SOL     OW17596   0.841   2.162   0.345 -0.3490  0.5375  0.1189
 2046SOL    HW117597   0.772   2.224   0.323  0.2470  1.2291  0.1915
 2046SOL    HW217598   0.871   2.139   0.256  1.8298  2.3705  0.3828
 2047SOL     OW17599   3.802   3.404   9.268  0.1023 -0.7296  0.1332
 2047SOL    HW117600   3.857   3.418   9.346 -0.2890 -2.1025  0.6631
 2047SOL    HW217601   3.843   3.456   9.198 -1.6677  1.1967  0.5391
 2048SOL     OW17602   4.248   2.828   6.018  0.0939  0.1102 -0.4998
 2048SOL    HW117603   4.263   2.896   5.952 -0.0643 -1.3115 -2.0302
 2048SOL    HW217604   4.288   2.874   6.091  0.6280 -0.5727 -0.3585
 2049SOL     OW17605   0.607   3.849   6.282 -0.3259  0.3699  0.2732
 2049SOL    HW117606   0.606   3.754   6.275 -1.1620  0.4398 -0.5301
 2049SOL    HW217607   0.700   3.868   6.268 -0.8624  1.3912 -1.9470
 2050SOL     OW17608   0.613   3.124   5.251 -0.6512  0.0663 -0.0259
 2050SOL    HW117609   0.695   3.171   5.267 -0.7544  0.7037 -1.3832
 2050SOL    HW217610   0.630   3.073   5.172 -0.8528  2.2020 -1.4336
 2051SOL     OW17611   1.912   3.567   2.299  0.6256 -0.2934 -0.1934
 2051SOL    HW117612   2.002   3.594   2.319  0.0477  1.0646  0.6273
 2051SOL    HW217613   1.872   3.652   2.278  0.4351 -0.5663 -0.9273
 2052SOL     OW17614   0.574   2.353   8.694  0.4060 -0.8412  0.3620
 2052SOL    HW117615   0.616   2.399   8.767 -0.3369  0.1501  0.1768
 2052SOL    HW217616   0.631   2.277   8.681  0.9702 -0.3602  0.0407
 2053SOL     OW17617   1.784   3.868   9.646 -0.9691 -0.1084 -0.3570
 2053SOL    HW117618   1.831   3.800   9.695 -0.8611 -1.3070 -2.1123
 2053SOL    HW217619   1.712   3.817   9.610 -1.8100  0.9242 -0.1197
 2054SOL     OW17620   0.236   1.308  10.646  0.5437  0.0545 -0.1154
 2054SOL    HW117621   0.271   1.250  10.579  0.4207 -1.6510  1.2854
 2054SOL    HW217622   0.275   1.393  10.626 -1.0046  0.6819 -0.5343
 2055SOL     OW17623   3.782   0.277   6.227 -0.0365 -0.4540  0.6170
 2055SOL    HW117624   3.855   0.326   6.187 -1.4610 -0.4726 -1.9790
 2055SOL    HW217625   3.707   0.336   6.231  0.5377  0.4504 -1.5724
 2056SOL     OW17626   3.178   2.931  12.375  0.3253 -0.2570  0.3319
 2056SOL    HW117627   3.148   3.007  12.324  0.3874 -0.7095 -0.3896
 2056SOL    HW217628   3.193   2.976  12.458 -3.1147  1.9738 -0.2412
 2057SOL     OW17629   0.677   3.373  14.144  0.2812 -0.4620 -0.2121
 2057SOL    HW117630   0.748   3.409  14.197  0.9950 -2.8937  0.4892
 2057SOL    HW217631   0.728   3.310  14.092  1.5402  0.4501 -0.0978
 2058SOL     OW17632   3.069   2.186   4.074 -0.3881  0.0315 -0.1291
 2058SOL    HW117633   3.029   2.108   4.113  3.5037 -1.8347  0.1041
 2058SOL    HW217634   3.133   2.149   4.013 -0.3882  1.1204 -0.7875
 2059SOL     OW17635   2.095   0.145   5.611  0.7853 -0.1021 -0.3955
 2059SOL    HW117636   2.182   0.178   5.634  1.3081 -1.7973  0.0564
 2059SOL    HW217637   2.110   0.120   5.520  0.5465  0.3287 -0.5520
 2060SOL     OW17638   3.088   0.330   5.761  0.5964  0.4946 -0.7103
 2060SOL    HW117639   3.164   0.294   5.716  0.1345  0.0971 -1.1657
 2060SOL    HW217640   3.032   0.354   5.686 -0.2818 -0.7820 -0.4638
 2061SOL     OW17641   0.173   2.336  16.344 -0.2977  0.2907 -0.2443
 2061SOL    HW117642   0.149   2.315  16.253 -0.2247  1.2419 -0.4900
 2061SOL    HW217643   0.250   2.392  16.335  0.3646 -0.5130  0.4684
 2062SOL     OW17644   0.535   2.437   7.277  0.0545 -0.0517 -0.0180
 2062SOL    HW117645   0.485   2.369   7.233  0.7170  0.9550 -2.3291
 2062SOL    HW217646   0.570   2.397   7.356 -0.5401 -1.2095 -0.3464
 2063SOL     OW17647   1.064   3.321  14.707 -0.2224 -0.5118  0.0825
 2063SOL    HW117648   1.127   3.278  14.765 -1.2105 -1.3365  0.5421
 2063SOL    HW217649   1.120   3.345  14.634  1.6082 -0.7135  1.4337
 2064SOL     OW17650   0.649   1.761   6.900 -0.4881 -0.4174  0.4176
 2064SOL    HW117651   0.571   1.757   6.955 -0.1979  0.6734  0.8978
 2064SOL    HW217652   0.624   1.751   6.808  2.4262 -1.9982 -0.1932
 2065SOL     OW17653   0.276   4.594  17.554 -0.2713 -0.0570 -0.1174
 2065SOL    HW117654   0.224   4.625  17.480  2.0087 -0.0536 -1.7224
 2065SOL    HW217655   0.329   4.671  17.573 -0.4086 -0.1060  0.4733
 2066SOL     OW17656   0.771   2.304   2.257 -0.5915  0.0612  0.3024
 2066SOL    HW117657   0.825   2.372   2.217 -1.4597  1.1384  0.9547
 2066SOL    HW217658   0.842   2.241   2.265 -1.7311 -1.4216 -1.3352
 2067SOL     OW17659   3.952   3.032   8.442  0.0348  0.1493 -0.4013
 2067SOL    HW117660   4.026   3.066   8.392  0.1869 -1.0613 -0.9976
 2067SOL    HW217661   3.893   3.023   8.368  0.4983  0.7585 -0.8469
 2068SOL     OW17662   3.410   3.126   4.474 -0.1417  0.1258 -0.0756
 2068SOL    HW117663   3.345   3.197   4.478  0.4730  0.7747 -1.6135
 2068SOL    HW217664   3.493   3.166   4.450 -0.6887  0.5384 -1.2749
 2069SOL     OW17665   3.964   4.627   2.191 -0.2168 -0.1511  0.1590
 2069SOL    HW117666   3.898   4.565   2.161 -0.4571  0.1360  0.0978
 2069SOL    HW217667   4.041   4.570   2.199 -0.9913 -0.9756  1.7657
 2070SOL     OW17668   3.824   2.449   9.792  0.1781  0.7304 -0.1300
 2070SOL    HW117669   3.777   2.366   9.799  0.8889  0.3496  0.1533
 2070SOL    HW217670   3.805   2.484   9.879  1.1517  0.6502  0.1169
 2071SOL     OW17671   1.722   3.558  11.887  0.0552  0.3007  0.2929
 2071SOL    HW117672   1.758   3.615  11.955  0.1845  0.3445  0.1874
 2071SOL    HW217673   1.681   3.492  11.942 -2.4056  0.3028 -1.5307
 2072SOL     OW17674   2.513   0.979   9.790 -0.0332  0.1793  0.6910
 2072SOL    HW117675   2.423   1.008   9.778  0.0785  0.5273  0.7061
 2072SOL    HW217676   2.512   0.900   9.736 -3.9172  0.5013  0.2828
 2073SOL     OW17677   1.045   0.092   6.905 -0.2113 -0.2074  0.1200
 2073SOL    HW117678   1.136   0.101   6.932  0.0211 -2.2138 -0.0115
 2073SOL    HW217679   1.012   0.179   6.928 -1.0396 -0.2919 -0.7353
 2074SOL     OW17680   2.864   2.546  17.544 -0.2853 -0.3350  0.1775
 2074SOL    HW117681   2.783   2.597  17.534 -0.1481  0.0843  1.1120
 2074SOL    HW217682   2.900   2.593  17.620 -0.9361  1.5488 -0.6858
 2075SOL     OW17683   1.033   0.210   2.296 -0.0543 -0.0818  0.0519
 2075SOL    HW117684   1.115   0.242   2.260 -0.7842  0.2302 -1.3355
 2075SOL    HW217685   1.043   0.227   2.389  0.1930 -0.7080  0.1420
 2076SOL     OW17686   2.280   1.493   8.839 -0.4921  0.1516  0.1769
 2076SOL    HW117687   2.208   1.462   8.894 -0.2190  1.6740  1.3642
 2076SOL    HW217688   2.248   1.526   8.755  1.4124  0.0098 -0.6010
 2077SOL     OW17689   3.661   1.073   3.315  0.1193 -0.1838  0.2936
 2077SOL    HW117690   3.745   1.106   3.285  0.0123  1.2917  1.5756
 2077SOL    HW217691   3.605   1.073   3.238 -0.0923 -1.6583  0.4446
 2078SOL     OW17692   0.123   2.632   6.109  0.1985 -0.3720 -0.2780
 2078SOL    HW117693   0.136   2.682   6.028 -0.8315  1.2767  0.5999
 2078SOL    HW217694   0.194   2.567   6.106 -0.8687 -1.6236  1.7654
 2079SOL     OW17695   1.175   3.310  13.090 -0.1771 -0.0832 -0.1640
 2079SOL    HW117696   1.217   3.278  13.010 -1.3946  0.8234 -1.1728
 2079SOL    HW217697   1.180   3.405  13.081  0.8097 -0.2074 -0.8895
 2080SOL     OW17698   2.627   3.824   0.612 -0.3360  0.1285  0.1128
 2080SOL    HW117699   2.628   3.838   0.707 -0.0453  0.6705  0.0286
 2080SOL    HW217700   2.718   3.837   0.587  0.3825 -0.9311  2.1711
 2081SOL     OW17701   4.539   4.270   1.895  0.0268  0.7835 -0.0100
 2081SOL    HW117702   4.624   4.313   1.884 -0.4054  1.2027 -1.7533
 2081SOL    HW217703   4.487   4.349   1.904 -0.1927  0.7673 -1.2007
 2082SOL     OW17704   2.190   4.624  15.741 -0.1444 -0.1602  0.4728
 2082SOL    HW117705   2.109   4.626  15.690 -0.3444  0.9454  0.8464
 2082SOL    HW217706   2.171   4.588  15.828 -3.1744 -1.0286 -0.5468
 2083SOL     OW17707   0.206   3.864  15.685  0.6302  0.1060  0.0110
 2083SOL    HW117708   0.144   3.794  15.705 -0.5968  1.0632 -0.4597
 2083SOL    HW217709   0.202   3.923  15.760 -0.8593 -1.0471  0.8371
 2084SOL     OW17710   4.620   1.824   9.672 -0.4726 -0.5574  0.1064
 2084SOL    HW117711   4.627   1.755   9.605 -0.5236 -2.9572  2.5688
 2084SOL    HW217712   4.683   1.793   9.737 -0.7266  0.7685  0.9816
 2085SOL     OW17713   0.709   3.409   6.389  0.1073 -0.0341  0.1410
 2085SOL    HW117714   0.678   3.488   6.345  2.9162  0.5738 -0.7415
 2085SOL    HW217715   0.762   3.377   6.316  2.0281 -0.4961  1.7442
 2086SOL     OW17716   2.777   3.323  13.986  0.0700  0.5013 -0.1122
 2086SOL    HW117717   2.740   3.257  14.045 -0.3791 -0.4632 -1.4973
 2086SOL    HW217718   2.861   3.349  14.025  0.4085 -1.6927  0.6137
 2087SOL     OW17719   0.318   0.014  10.823 -0.6485  0.6048 -0.8872
 2087SOL    HW117720   0.399   4.698  10.796 -0.2673 -0.2820  1.6513
 2087SOL    HW217721   0.313   4.722  10.917  0.7700  1.3203 -0.6855
 2088SOL     OW17722   3.015   1.844   2.765  0.0258 -0.0548  0.6531
 2088SOL    HW117723   3.005   1.826   2.672 -0.3351 -0.1132  0.7048
 2088SOL    HW217724   2.929   1.881   2.782 -0.1124 -0.5801  1.0935
 2089SOL     OW17725   2.987   0.991  15.289  0.0339  0.4383  0.7213
 2089SOL    HW117726   3.081   1.012  15.289  0.1033  0.1225  0.0139
 2089SOL    HW217727   2.988   0.906  15.246 -0.2408  0.0148  1.5559
 2090SOL     OW17728   1.072   3.734   2.789  0.3061 -0.4432  0.1926
 2090SOL    HW117729   0.986   3.755   2.752  1.1374  0.1094 -1.4399
 2090SOL    HW217730   1.125   3.733   2.709 -1.5199  0.5540 -1.0355
 2091SOL     OW17731   4.357   0.115  11.274  0.0052 -1.2477 -0.1834
 2091SOL    HW117732   4.354   0.142  11.182 -1.2677 -0.7090  0.0121
 2091SOL    HW217733   4.404   0.032  11.270 -0.4013 -1.5420  1.3265
 2092SOL     OW17734   3.671   1.425   3.294  0.0428 -0.4486  0.0068
 2092SOL    HW117735   3.613   1.456   3.224  0.9833  2.2536  0.4223
 2092SOL    HW217736   3.740   1.491   3.292  2.2367 -2.6849  2.9339
 2093SOL     OW17737   0.954   0.678   8.868  0.5040 -0.8220 -0.4655
 2093SOL    HW117738   0.872   0.685   8.916  0.7019 -1.5042 -0.0212
 2093SOL    HW217739   0.923   0.683   8.777 -1.6678  0.6691  0.3649
 2094SOL     OW17740   2.362   3.199   0.009  0.3849 -0.2022 -0.4440
 2094SOL    HW117741   2.304   3.152  17.654  0.8443 -0.5170 -0.6307
 2094SOL    HW217742   2.362   3.286  17.675  0.8292  1.2671  2.7268
 2095SOL     OW17743   3.702   2.829   8.228  0.1599  0.0937  0.3343
 2095SOL    HW117744   3.760   2.760   8.258 -0.4300 -0.2335  0.7289
 2095SOL    HW217745   3.626   2.776   8.204  0.5598 -1.0598  1.6582
 2096SOL     OW17746   3.705   2.971   5.530 -0.4785 -0.3208  0.3124
 2096SOL    HW117747   3.748   3.050   5.563 -3.9751  1.8124 -0.2384
 2096SOL    HW217748   3.785   2.919   5.537 -0.1074  0.1114 -0.7037
 2097SOL     OW17749   0.330   2.279  13.763 -0.0178  0.2169 -0.0046
 2097SOL    HW117750   0.283   2.220  13.704 -2.2993  0.0468  1.9964
 2097SOL    HW217751   0.289   2.252  13.845 -0.8904 -1.2673 -0.9388
 2098SOL     OW17752   2.046   3.334   2.935 -0.1119 -0.3317 -0.7388
 2098SOL    HW117753   1.962   3.290   2.948 -0.1225 -0.5692 -1.5828
 2098SOL    HW217754   2.033   3.368   2.846  2.2097 -0.4844 -1.1586
 2099SOL     OW17755   1.446   1.605   7.173 -0.0899 -0.6708 -0.2260
 2099SOL    HW117756   1.526   1.594   7.224 -0.5677  1.2998  0.9694
 2099SOL    HW217757   1.485   1.583   7.089  1.5162  2.1621 -0.2146
 2100SOL     OW17758   0.886   1.250   8.521 -0.4355 -0.1228 -0.0575
 2100SOL    HW117759   0.857   1.270   8.432 -0.1515 -0.5431 -0.2439
 2100SOL    HW217760   0.871   1.156   8.532 -0.1002  0.0771  2.1096
 2101SOL     OW17761   0.941   1.148  14.382  0.6148 -0.1235 -0.4049
 2101SOL    HW117762   0.986   1.063  14.386  1.4498  0.2844 -1.0630
 2101SOL    HW217763   0.956   1.160  14.288  1.1038 -0.0434 -0.3188
 2102SOL     OW17764   1.140   3.118  16.507 -0.4821  0.0280  0.7138
 2102SOL    HW117765   1.130   3.209  16.534 -1.9910 -0.0485  0.4532
 2102SOL    HW217766   1.087   3.072  16.573 -0.0456 -1.3524  0.1129
 2103SOL     OW17767   1.219   1.722   7.041  0.2241  0.1788  0.6294
 2103SOL    HW117768   1.278   1.698   7.112 -0.8491  2.0091  2.1380
 2103SOL    HW217769   1.166   1.644   7.022 -1.5694  1.1929  1.4743
 2104SOL     OW17770   0.822   3.388   7.337 -0.0807  0.2975 -0.3728
 2104SOL    HW117771   0.767   3.314   7.311 -0.1428  0.1092  0.2872
 2104SOL    HW217772   0.859   3.410   7.251  1.1605 -0.3275  0.0067
 2105SOL     OW17773   2.504   4.442   1.440  0.2855 -0.1629 -0.6025
 2105SOL    HW117774   2.465   4.529   1.431  0.8569  0.0517 -0.9590
 2105SOL    HW217775   2.597   4.446   1.421 -0.2450  3.0973 -2.6276
 2106SOL     OW17776   3.892   2.810   5.886  0.2411 -0.4558 -0.3536
 2106SOL    HW117777   3.826   2.762   5.836  0.4897 -1.0432 -0.1226
 2106SOL    HW217778   3.916   2.884   5.831  1.4360 -0.5726  0.0158
 2107SOL     OW17779   0.822   3.280  15.533 -0.6876 -0.1671  0.0748
 2107SOL    HW117780   0.801   3.189  15.552  1.1640 -0.8124 -1.0072
 2107SOL    HW217781   0.823   3.300  15.440  2.0274 -0.0254  0.1492
 2108SOL     OW17782   2.063   3.924   6.991 -0.1411  0.2994  0.5906
 2108SOL    HW117783   2.054   3.852   7.054 -0.7500  0.6756  0.9286
 2108SOL    HW217784   2.010   3.898   6.915 -1.1327 -2.9403  2.3725
 2109SOL     OW17785   0.542   1.347   4.322  0.3409 -0.8137 -0.2076
 2109SOL    HW117786   0.627   1.304   4.318  0.9986  0.4183  0.4609
 2109SOL    HW217787   0.497   1.268   4.351 -0.9621  0.5731  1.5485
 2110SOL     OW17788   1.949   4.061   0.430  0.0848 -0.2623  0.3101
 2110SOL    HW117789   1.993   4.008   0.496  0.0531 -1.4476 -0.6265
 2110SOL    HW217790   1.995   4.144   0.443 -1.6370  1.0632 -1.9882
 2111SOL     OW17791   2.537   0.802   7.694  0.0111 -0.7764  0.0094
 2111SOL    HW117792   2.587   0.807   7.776  2.0519  1.9505 -1.3998
 2111SOL    HW217793   2.594   0.749   7.639 -1.4026  1.2589 -3.4056
 2112SOL     OW17794   3.023   4.423   1.797 -0.0301 -0.0489  0.0850
 2112SOL    HW117795   3.073   4.504   1.787  1.5534 -0.8964  1.0181
 2112SOL    HW217796   2.942   4.460   1.830  1.8002  2.7928  1.3760
 2113SOL     OW17797   3.695   2.233   4.687 -0.0193 -0.5336 -0.3782
 2113SOL    HW117798   3.679   2.328   4.688 -0.4369 -0.6062 -0.2977
 2113SOL    HW217799   3.697   2.219   4.782 -3.9131 -1.2602 -0.4056
 2114SOL     OW17800   2.119   4.115  14.676 -0.5187 -0.8142 -0.7873
 2114SOL    HW117801   2.163   4.067  14.606  0.0972  0.3000 -1.1645
 2114SOL    HW217802   2.036   4.068  14.688 -0.6749 -0.2662  0.3442
 2115SOL     OW17803   0.582   2.950   8.418  0.1355 -0.0404  0.5699
 2115SOL    HW117804   0.656   2.917   8.469  0.6907  3.2235  1.8231
 2115SOL    HW217805   0.538   3.011   8.477 -1.2715  1.0516 -1.6270
 2116SOL     OW17806   3.842   3.974   7.974  0.3696  0.1643 -0.0907
 2116SOL    HW117807   3.935   3.963   7.990  0.4974  1.8516  0.3575
 2116SOL    HW217808   3.806   3.891   8.006 -0.5857  0.0901 -1.3317
 2117SOL     OW17809   2.031   3.709   3.278 -0.4851 -0.3624  0.3283
 2117SOL    HW117810   2.127   3.701   3.278 -0.6715 -2.6204  0.0003
 2117SOL    HW217811   2.010   3.648   3.208  0.5004  1.3531 -1.4500
 2118SOL     OW17812   4.201   3.830   7.679  0.1922 -0.2556  0.1396
 2118SOL    HW117813   4.225   3.780   7.601  0.1278 -0.2944  0.1446
 2118SOL    HW217814   4.133   3.884   7.639 -1.3433 -2.2022  0.0972
 2119SOL     OW17815   0.821   1.262   4.268  0.2361  0.0661  0.3600
 2119SOL    HW117816   0.899   1.267   4.324 -0.4351  0.6885  1.2346
 2119SOL    HW217817   0.816   1.167   4.264 -1.9552  0.0400  3.8162
 2120SOL     OW17818   2.888   0.081  14.088 -0.2162  0.4501 -0.0615
 2120SOL    HW117819   2.965   0.117  14.042 -0.2978  0.0910 -0.4812
 2120SOL    HW217820   2.867   0.159  14.139 -0.0899  1.1581 -1.0844
 2121SOL     OW17821   0.213   2.684   7.890  0.1501 -0.4964 -0.3180
 2121SOL    HW117822   0.203   2.773   7.925 -0.1110  0.4263 -2.7651
 2121SOL    HW217823   0.215   2.697   7.796 -1.8841  1.4677 -0.0905
 2122SOL     OW17824   3.017   0.170  16.031 -0.1423 -0.8717  0.2630
 2122SOL    HW117825   3.083   0.156  16.098  3.3015 -0.6260 -3.0455
 2122SOL    HW217826   3.051   0.105  15.968 -0.9494 -0.3816 -0.6827
 2123SOL     OW17827   4.480   0.545   9.791  0.0028  0.0393 -0.1532
 2123SOL    HW117828   4.423   0.542   9.868  0.6242  2.4418  0.3915
 2123SOL    HW217829   4.559   0.501   9.823 -1.3580 -1.7359  0.8104
 2124SOL     OW17830   1.323   2.252  13.732  0.1532 -0.0427 -0.3397
 2124SOL    HW117831   1.342   2.222  13.644  3.2340 -0.8775  0.6157
 2124SOL    HW217832   1.331   2.347  13.724 -1.7234  0.0186 -1.3865
 2125SOL     OW17833   2.463   0.538  13.591 -0.0060 -0.0689 -0.0705
 2125SOL    HW117834   2.391   0.578  13.640  0.1167 -1.1098  0.9618
 2125SOL    HW217835   2.464   0.604  13.522  3.1611  0.0530  0.0846
 2126SOL     OW17836   2.574   3.603  14.876 -0.5658  0.1080 -0.3612
 2126SOL    HW117837   2.552   3.510  14.888 -0.1942  0.0891  0.2058
 2126SOL    HW217838   2.579   3.626  14.969  1.5430 -1.0236 -0.1875
 2127SOL     OW17839   4.271   1.615   7.087  0.0950  0.1741 -0.1970
 2127SOL    HW117840   4.298   1.552   7.153  0.9011 -0.6906 -1.3402
 2127SOL    HW217841   4.331   1.689   7.098 -1.9618  1.6357  1.2225
 2128SOL     OW17842   4.519   2.422  12.258  0.3176  0.3523 -0.0104
 2128SOL    HW117843   4.598   2.403  12.307 -1.0331 -1.3614  1.4890
 2128SOL    HW217844   4.490   2.495  12.312  2.0698  1.2999 -0.3713
 2129SOL     OW17845   2.128   2.778   6.651  0.4233 -0.2799  0.2087
 2129SOL    HW117846   2.150   2.820   6.568 -0.2002  1.4586  0.9287
 2129SOL    HW217847   2.153   2.848   6.711 -0.2392  0.8286 -0.8348
 2130SOL     OW17848   2.899   1.489   8.753  0.2008  0.5358  0.4865
 2130SOL    HW117849   2.929   1.577   8.777  2.9700 -0.5885  1.1325
 2130SOL    HW217850   2.966   1.431   8.789  0.6132  0.1522 -0.9238
 2131SOL     OW17851   2.894   4.664  11.128 -0.1249  0.6194  0.1444
 2131SOL    HW117852   2.886   0.030  11.154  0.6074  0.1310  2.1110
 2131SOL    HW217853   2.851   4.664  11.042  1.0078 -0.0807 -0.4188
 2132SOL     OW17854   3.318   0.807  10.510 -0.0918  0.0726  0.2590
 2132SOL    HW117855   3.293   0.828  10.420 -0.6371 -2.3980 -0.1437
 2132SOL    HW217856   3.387   0.743  10.494 -0.2205 -0.3086  1.2851
 2133SOL     OW17857   0.482   3.921  12.409  0.2037  0.4720  0.4277
 2133SOL    HW117858   0.503   3.837  12.450  2.0031  1.8042  2.2147
 2133SOL    HW217859   0.409   3.959  12.458  0.0903  0.3313  0.3674
 2134SOL     OW17860   2.014   0.121   4.401 -0.3117  0.1336 -0.3617
 2134SOL    HW117861   1.964   0.203   4.402 -0.3227  0.1579 -2.2439
 2134SOL    HW217862   1.997   0.096   4.491  1.1556 -2.4222 -0.7902
 2135SOL     OW17863   3.809   2.899   7.044  0.2645 -0.0330 -0.0106
 2135SOL    HW117864   3.785   2.854   7.125  0.7945 -0.5642 -0.1509
 2135SOL    HW217865   3.785   2.833   6.978  1.2550  0.4900 -0.9024
 2136SOL     OW17866   3.575   3.445  12.273  0.3803  0.6234 -0.7094
 2136SOL    HW117867   3.528   3.396  12.206  1.4267  0.9652 -1.7039
 2136SOL    HW217868   3.571   3.532  12.234  0.8059  0.0129 -2.1029
 2137SOL     OW17869   1.694   0.531   5.431  0.0390  0.2447 -0.6963
 2137SOL    HW117870   1.663   0.598   5.371 -0.4726  1.6422  1.1410
 2137SOL    HW217871   1.789   0.546   5.433 -0.1499  1.2544  1.0252
 2138SOL     OW17872   1.595   2.386  11.838  0.4570 -0.3242  0.0108
 2138SOL    HW117873   1.626   2.331  11.909 -1.8042  0.5799  1.7145
 2138SOL    HW217874   1.672   2.398  11.783  0.7119 -2.5264 -0.1242
 2139SOL     OW17875   2.838   3.153   8.845 -0.4375 -0.2816  0.3019
 2139SOL    HW117876   2.890   3.165   8.925 -0.0844 -1.0443  0.1835
 2139SOL    HW217877   2.761   3.206   8.868 -0.9805 -1.0032  0.1502
 2140SOL     OW17878   1.185   0.321   4.136 -0.3850 -0.0866 -0.2070
 2140SOL    HW117879   1.182   0.243   4.079  1.3081 -0.5052  0.2532
 2140SOL    HW217880   1.141   0.381   4.076  2.2873 -0.3182 -2.4480
 2141SOL     OW17881   2.234   4.578   9.473 -0.4311  0.5071  0.1292
 2141SOL    HW117882   2.317   4.535   9.492 -0.3221  1.5249  1.8885
 2141SOL    HW217883   2.187   4.502   9.439 -1.1396  0.7594  0.5605
 2142SOL     OW17884   4.014   3.899   2.138  0.9367  0.3299 -0.4660
 2142SOL    HW117885   4.066   3.947   2.073  2.2945 -1.1542 -0.4735
 2142SOL    HW217886   3.932   3.949   2.135  0.9055  0.3091  0.0780
 2143SOL     OW17887   3.541   0.188   8.442 -0.1651 -0.2128 -0.0830
 2143SOL    HW117888   3.539   0.178   8.537 -1.8612  0.2495 -0.0795
 2143SOL    HW217889   3.539   0.095   8.416 -1.4214  0.3677 -2.0933
 2144SOL     OW17890   2.068   3.554   0.262  0.4102  0.0915  0.3100
 2144SOL    HW117891   1.975   3.548   0.282  0.3354 -0.0809 -0.0832
 2144SOL    HW217892   2.076   3.470   0.217  0.6883  0.8050 -0.9797
 2145SOL     OW17893   3.828   1.940   4.100 -0.1885  0.3037  0.1430
 2145SOL    HW117894   3.789   1.866   4.147 -1.4902  2.1438  1.9877
 2145SOL    HW217895   3.875   1.889   4.035  0.1180  0.3455  0.3322
 2146SOL     OW17896   2.620   4.436   7.633 -0.5200  0.0353  0.0364
 2146SOL    HW117897   2.582   4.356   7.669 -0.8066  0.5749  0.9240
 2146SOL    HW217898   2.565   4.506   7.669 -2.2302 -0.9547 -0.6070
 2147SOL     OW17899   1.086   2.932   4.469 -0.1429  0.0276 -0.1310
 2147SOL    HW117900   1.134   2.956   4.548  0.5141  0.0244 -0.5268
 2147SOL    HW217901   1.150   2.971   4.409 -0.2766  1.8299  0.8860
 2148SOL     OW17902   4.468   0.600   3.978  0.1754  0.1677  0.4727
 2148SOL    HW117903   4.463   0.536   3.907 -0.0651  0.8387 -0.1166
 2148SOL    HW217904   4.376   0.621   3.994 -0.2378 -0.9918 -0.3373
 2149SOL     OW17905   0.720   3.070   7.988  0.5260 -0.4456 -0.3339
 2149SOL    HW117906   0.774   3.026   7.923  1.3906  1.4281 -0.8719
 2149SOL    HW217907   0.671   2.992   8.015  1.8089 -1.7644 -1.8162
 2150SOL     OW17908   1.930   4.210   7.154  0.2031  0.2690  0.6832
 2150SOL    HW117909   1.854   4.263   7.128  0.7307  1.5094  1.7277
 2150SOL    HW217910   1.926   4.151   7.078 -1.4145  0.3880  0.6759
 2151SOL     OW17911   1.099   1.973   2.664  0.3350 -0.0361 -0.2739
 2151SOL    HW117912   1.041   1.903   2.634 -0.7040 -0.3214  2.4196
 2151SOL    HW217913   1.132   1.956   2.752 -2.0310  0.6731  0.7425
 2152SOL     OW17914   0.451   3.482   5.488 -0.1680 -0.4978  0.2008
 2152SOL    HW117915   0.404   3.474   5.405  2.0710  0.1911 -1.1168
 2152SOL    HW217916   0.537   3.516   5.463  0.0571 -1.1045  0.1621
 2153SOL     OW17917   1.651   4.124   5.003 -0.2577  0.2899  0.1839
 2153SOL    HW117918   1.615   4.036   5.010 -0.2648  0.4258  2.0653
 2153SOL    HW217919   1.628   4.154   5.091  0.0074  0.7318  0.1025
 2154SOL     OW17920   2.114   4.108   4.150 -0.4735 -0.4044 -0.4055
 2154SOL    HW117921   2.133   4.102   4.056  1.2289 -2.1641  0.0484
 2154SOL    HW217922   2.197   4.078   4.189 -0.5744 -0.3885 -0.1779
 2155SOL     OW17923   3.865   2.638   3.216 -0.3833  0.5646 -0.0948
 2155SOL    HW117924   3.897   2.555   3.182  1.7242  1.6642 -0.7919
 2155SOL    HW217925   3.842   2.673   3.130  0.3286 -2.5161 -1.5428
 2156SOL     OW17926   4.142   1.377   0.591  0.3913 -0.1424  0.2593
 2156SOL    HW117927   4.089   1.314   0.640 -0.3489  0.2369 -0.0653
 2156SOL    HW217928   4.096   1.456   0.619  1.2166  0.1816  0.6994
 2157SOL     OW17929   4.409   3.299   2.317 -0.0074  0.1033  0.3283
 2157SOL    HW117930   4.427   3.354   2.241 -0.1657  2.7955  2.2530
 2157SOL    HW217931   4.328   3.252   2.296 -0.1414 -0.2836  1.6816
 2158SOL     OW17932   1.962   0.898   3.405 -0.4709 -0.0470  0.6404
 2158SOL    HW117933   1.959   0.992   3.421  1.5088 -0.0055  0.8017
 2158SOL    HW217934   2.057   0.884   3.413 -0.3135 -0.4206 -1.8499
 2159SOL     OW17935   2.186   1.509  17.132  0.4290 -0.4313  0.5286
 2159SOL    HW117936   2.124   1.509  17.059  2.5336  0.4651 -1.2395
 2159SOL    HW217937   2.256   1.567  17.102 -0.7499  1.6377  1.8440
 2160SOL     OW17938   4.658   4.344   7.918 -0.2338 -0.0460 -0.7680
 2160SOL    HW117939   4.633   4.368   8.007  0.9926  0.7379 -0.6383
 2160SOL    HW217940   4.579   4.298   7.890  0.1752 -0.0562 -1.8951
 2161SOL     OW17941   1.217   4.319   6.856 -0.5249 -0.3812  0.4381
 2161SOL    HW117942   1.294   4.317   6.913  0.6339  2.3468 -1.0774
 2161SOL    HW217943   1.151   4.271   6.907  0.9470 -0.7066  2.0512
 2162SOL     OW17944   4.129   4.002   6.200  0.2776 -0.1785  0.3735
 2162SOL    HW117945   4.070   3.927   6.190  1.1402 -0.8048 -0.0398
 2162SOL    HW217946   4.217   3.966   6.201  1.1022  1.7887 -1.1937
 2163SOL     OW17947   3.362   2.347   1.031 -0.6288  0.0722  0.2439
 2163SOL    HW117948   3.455   2.329   1.018 -0.3253  0.2627  2.1689
 2163SOL    HW217949   3.339   2.373   0.942 -3.0600 -3.6469 -0.1881
 2164SOL     OW17950   3.237   1.180   8.025 -0.2282  0.1717 -0.0589
 2164SOL    HW117951   3.154   1.138   8.050  0.2070  0.1807  1.3918
 2164SOL    HW217952   3.217   1.261   8.072 -0.5655 -0.0264  0.1375
 2165SOL     OW17953   3.698   3.488   2.379 -0.5516  0.2767 -0.3257
 2165SOL    HW117954   3.619   3.476   2.326 -0.5818 -0.1721 -0.1766
 2165SOL    HW217955   3.735   3.559   2.327 -2.5774 -0.7805 -3.2224
 2166SOL     OW17956   2.434   3.622   9.893  0.4992 -0.1517  0.2767
 2166SOL    HW117957   2.475   3.633   9.979  0.1985 -1.9439  0.6467
 2166SOL    HW217958   2.414   3.528   9.892  1.7625 -0.3802 -2.6256
 2167SOL     OW17959   0.213   0.944  13.313  0.1042  0.4155 -0.7865
 2167SOL    HW117960   0.131   0.956  13.361 -0.7876 -1.8502 -1.6991
 2167SOL    HW217961   0.271   0.907  13.380  1.6593  2.1767 -1.1734
 2168SOL     OW17962   2.372   0.254  15.953  0.0033  0.6633 -0.1370
 2168SOL    HW117963   2.339   0.215  15.873  1.2844 -0.9538  0.1304
 2168SOL    HW217964   2.440   0.313  15.918 -0.3152 -0.3311 -2.4130
 2169SOL     OW17965   2.573   3.543   0.612  0.1186 -0.3402 -0.1283
 2169SOL    HW117966   2.546   3.454   0.635  1.5001 -1.4345 -2.8031
 2169SOL    HW217967   2.653   3.552   0.663 -0.7605 -1.0777  1.3923
 2170SOL     OW17968   4.024   3.400   8.388  0.2598  0.3078  0.0977
 2170SOL    HW117969   4.097   3.340   8.400  0.2341 -0.2429 -2.4419
 2170SOL    HW217970   3.988   3.401   8.477  2.1038  1.8753  0.8158
 2171SOL     OW17971   3.885   1.747  14.813 -0.1803 -0.1095 -0.0644
 2171SOL    HW117972   3.805   1.800  14.819 -0.8641 -0.9799 -1.5195
 2171SOL    HW217973   3.901   1.757  14.719 -0.1245  1.6178  0.1235
 2172SOL     OW17974   2.872   4.420   7.702  0.1183 -0.2110  0.0125
 2172SOL    HW117975   2.864   4.340   7.755  0.4158  0.3054  0.8239
 2172SOL    HW217976   2.780   4.440   7.683  0.9562  1.7274 -1.9888
 2173SOL     OW17977   2.262   0.409  11.030 -0.4715 -0.2460 -0.1364
 2173SOL    HW117978   2.204   0.435  10.958  2.4776  0.8789 -2.1138
 2173SOL    HW217979   2.307   0.489  11.057 -2.4932  1.3085 -1.4182
 2174SOL     OW17980   2.754   4.624   1.919 -0.4000 -0.1200 -0.3694
 2174SOL    HW117981   2.670   4.595   1.953 -0.3246 -1.2541 -1.1354
 2174SOL    HW217982   2.758   4.705   1.971 -0.9901 -1.1728  1.2959
 2175SOL     OW17983   4.130   2.380   5.859 -0.0438 -0.3169  0.6455
 2175SOL    HW117984   4.194   2.450   5.850 -0.2555 -0.1928  0.1045
 2175SOL    HW217985   4.049   2.428   5.878  0.5935  0.9761  0.0687
 2176SOL     OW17986   1.726   3.947  11.610 -0.7048  0.0645 -0.5671
 2176SOL    HW117987   1.753   4.020  11.665  3.0364 -0.8628 -1.1976
 2176SOL    HW217988   1.804   3.892  11.599 -1.2934 -0.4896 -1.9206
 2177SOL     OW17989   3.735   2.184   6.429 -0.3823 -1.0778  0.9860
 2177SOL    HW117990   3.811   2.239   6.411 -1.6673  0.5192  0.4361
 2177SOL    HW217991   3.669   2.250   6.449 -0.1901 -0.2483 -1.1265
 2178SOL     OW17992   3.841   3.849   0.109 -0.0081  0.2092 -0.3329
 2178SOL    HW117993   3.904   3.784   0.078  1.9389  1.5696  0.8069
 2178SOL    HW217994   3.760   3.798   0.097  0.3718 -0.4777  0.0386
 2179SOL     OW17995   2.152   1.192   1.222 -0.1695  0.2476 -0.3652
 2179SOL    HW117996   2.068   1.216   1.182 -0.9159 -0.9367  0.4931
 2179SOL    HW217997   2.122   1.157   1.306 -0.8791  1.0011 -0.3062
 2180SOL     OW17998   3.674   0.697   1.890 -0.4559 -0.0800  0.2189
 2180SOL    HW117999   3.640   0.729   1.806  0.1162  0.0837  0.0503
 2180SOL    HW218000   3.602   0.639   1.916 -0.6947  0.1150 -0.0030
 2181SOL     OW18001   2.031   1.760   3.271  0.7555  0.1580 -0.2875
 2181SOL    HW118002   2.072   1.783   3.354  0.1417  2.5262 -0.6484
 2181SOL    HW218003   2.112   1.748   3.222  1.0909  0.5972  0.1630
 2182SOL     OW18004   0.187   1.711   0.789  0.2493 -0.2922  0.4940
 2182SOL    HW118005   0.101   1.692   0.752  0.7173  0.3056 -0.8969
 2182SOL    HW218006   0.243   1.635   0.770  2.2302  0.3863  3.4843
 2183SOL     OW18007   2.748   1.473  11.316 -0.2912 -0.1055 -0.3981
 2183SOL    HW118008   2.711   1.490  11.403 -1.3274 -2.2981 -0.4183
 2183SOL    HW218009   2.758   1.379  11.329 -0.2243  0.0489  0.7045
 2184SOL     OW18010   4.705   3.001   5.563  0.3583 -0.2771  0.3670
 2184SOL    HW118011   4.624   3.050   5.550 -0.0305 -1.3126 -1.0875
 2184SOL    HW218012   4.686   2.981   5.654 -2.3506 -4.1702 -1.0582
 2185SOL     OW18013   4.051   0.560  14.389  0.2420  0.2236 -0.1448
 2185SOL    HW118014   4.078   0.527  14.475 -0.4860  0.4457  0.1706
 2185SOL    HW218015   3.986   0.630  14.403 -0.2148 -0.1965 -0.1527
 2186SOL     OW18016   3.941   0.949   9.797  0.4428 -0.2828  0.2047
 2186SOL    HW118017   3.873   0.882   9.810  0.4324 -0.8136 -2.6762
 2186SOL    HW218018   4.000   0.925   9.726 -0.1857 -0.1665 -0.3508
 2187SOL     OW18019   4.544   1.194  14.321 -0.0940 -0.2113  0.0962
 2187SOL    HW118020   4.489   1.208  14.398  0.1630 -0.8987  0.4060
 2187SOL    HW218021   4.479   1.156  14.261  0.5392  0.4530 -1.0004
 2188SOL     OW18022   4.202   2.983   9.872  0.2854 -0.5190 -0.2980
 2188SOL    HW118023   4.243   2.897   9.869  1.9645  0.2626  0.3691
 2188SOL    HW218024   4.110   2.959   9.863  0.2852  0.1185 -1.9863
 2189SOL     OW18025   3.311   2.722   4.133 -0.5414  0.0515 -0.4504
 2189SOL    HW118026   3.395   2.765   4.118  0.6473 -1.5497  1.6884
 2189SOL    HW218027   3.314   2.651   4.069  1.8859 -0.6961  0.5027
 2190SOL     OW18028   1.648   0.812   8.239  0.4378 -0.1149 -0.7995
 2190SOL    HW118029   1.713   0.795   8.308  0.0896  0.9212 -0.2054
 2190SOL    HW218030   1.664   0.743   8.176  2.5888  0.7860 -1.2651
 2191SOL     OW18031   1.217   1.638   8.106 -0.4185 -0.0340  0.8828
 2191SOL    HW118032   1.250   1.586   8.033 -1.9812  2.0997 -1.3385
 2191SOL    HW218033   1.276   1.615   8.178 -0.6301 -0.7303  0.8287
 2192SOL     OW18034   1.654   2.304   8.086 -0.6250 -0.5573  0.2099
 2192SOL    HW118035   1.718   2.309   8.014  0.2185  3.0351  1.2257
 2192SOL    HW218036   1.693   2.344   8.164  0.6111 -0.2434 -0.5542
 2193SOL     OW18037   4.057   0.201  14.276 -0.7007 -0.1627  0.6589
 2193SOL    HW118038   4.128   0.154  14.321 -0.5340 -1.0499 -0.5490
 2193SOL    HW218039   4.102   0.233  14.198 -0.3410 -1.0113  0.5138
 2194SOL     OW18040   0.002   1.052   1.234  0.5088 -0.3404  0.3454
 2194SOL    HW118041   4.711   1.006   1.152 -1.1874 -1.5890  1.4101
 2194SOL    HW218042   4.678   0.995   1.292 -1.4371  1.5292  0.4799
 2195SOL     OW18043   0.270   1.002  15.478 -0.3966 -0.9872 -0.3492
 2195SOL    HW118044   0.324   1.028  15.404 -1.8363 -2.7151 -2.0121
 2195SOL    HW218045   0.318   1.024  15.558 -0.2661 -2.2252 -0.0847
 2196SOL     OW18046   2.000   2.894   4.919  0.1149 -0.2239 -0.3218
 2196SOL    HW118047   2.075   2.835   4.908 -1.8378 -1.9663 -4.3483
 2196SOL    HW218048   1.928   2.831   4.919  0.8073 -1.0255  0.1667
 2197SOL     OW18049   0.610   4.046   7.715  0.3646 -0.3308 -0.3755
 2197SOL    HW118050   0.532   4.046   7.659 -0.0226  3.4199  0.1940
 2197SOL    HW218051   0.564   4.043   7.799 -0.0238  1.1815 -0.5335
 2198SOL     OW18052   4.026   0.638  10.561 -0.0221 -0.3182  0.4785
 2198SOL    HW118053   4.085   0.676  10.496  1.5662  0.7054  2.5148
 2198SOL    HW218054   3.955   0.703  10.553 -0.1565 -0.5200  0.0671
 2199SOL     OW18055   2.183   1.923  10.227 -0.1136  0.3732 -0.7430
 2199SOL    HW118056   2.225   1.978  10.293  0.5991 -0.4245 -0.5391
 2199SOL    HW218057   2.116   1.985  10.198 -0.8484 -0.3103 -0.5138
 2200SOL     OW18058   2.664   0.813  17.648 -0.4273  0.4372 -0.2162
 2200SOL    HW118059   2.684   0.850  17.562  1.1986  0.9615  0.3794
 2200SOL    HW218060   2.571   0.824  17.669 -0.2632  0.8597  0.2997
 2201SOL     OW18061   2.291   1.029   9.384 -0.3332 -0.5088 -0.0300
 2201SOL    HW118062   2.240   1.105   9.358 -0.6625 -1.1137 -1.1345
 2201SOL    HW218063   2.367   1.043   9.327 -0.1164  0.8740  0.6180
 2202SOL     OW18064   1.958   0.114   5.849  0.2901 -0.4547 -0.1102
 2202SOL    HW118065   1.923   0.027   5.833  0.5678 -0.5516 -0.1877
 2202SOL    HW218066   2.015   0.126   5.774 -1.8688 -1.2400 -1.8591
 2203SOL     OW18067   1.646   0.675   5.722 -0.0123 -0.6511  0.2946
 2203SOL    HW118068   1.736   0.670   5.690  0.1523 -1.3618  0.8856
 2203SOL    HW218069   1.654   0.738   5.793  2.5500  0.8966 -1.3684
 2204SOL     OW18070   4.678   3.076   8.695  0.2791  0.0587  0.2844
 2204SOL    HW118071   4.704   3.053   8.785  2.0693 -1.6709 -0.6809
 2204SOL    HW218072   4.584   3.089   8.707  0.4913  1.1412  0.7456
 2205SOL     OW18073   1.845   2.984  10.780 -0.2182 -0.0937  0.0806
 2205SOL    HW118074   1.801   2.992  10.695  1.4785  0.6782 -0.7413
 2205SOL    HW218075   1.908   2.919  10.748  1.1672  1.4767 -0.3351
 2206SOL     OW18076   3.830   4.406   6.624  0.2575  0.0421  0.0949
 2206SOL    HW118077   3.872   4.488   6.597  0.3370 -0.6386 -1.8233
 2206SOL    HW218078   3.902   4.344   6.610 -0.9801 -1.4423  0.3959
 2207SOL     OW18079   2.092   1.758  10.533  0.1298 -0.1030 -0.1222
 2207SOL    HW118080   2.051   1.831  10.487 -0.0831 -1.4000 -2.0129
 2207SOL    HW218081   2.082   1.689  10.467  0.1928  0.2305 -0.4801
 2208SOL     OW18082   3.404   1.681  10.790  0.3431 -0.8825 -0.3574
 2208SOL    HW118083   3.331   1.643  10.840 -0.4967  1.6308  0.2877
 2208SOL    HW218084   3.396   1.630  10.709 -0.0750 -1.6156  0.1369
 2209SOL     OW18085   1.776   2.877  15.411  0.6149 -0.3255  0.0131
 2209SOL    HW118086   1.852   2.855  15.358  0.9629 -1.4048  0.9417
 2209SOL    HW218087   1.811   2.933  15.481  3.1928 -0.5187 -1.1256
 2210SOL     OW18088   2.293   0.488   9.730 -0.2097  0.1599 -0.6342
 2210SOL    HW118089   2.206   0.517   9.705  0.5711  1.6757 -1.5868
 2210SOL    HW218090   2.267   0.417   9.789 -0.5130 -0.6354 -1.7209
 2211SOL     OW18091   1.525   0.390  15.333  0.3108 -0.2256 -0.6048
 2211SOL    HW118092   1.591   0.370  15.267 -0.9383  0.5847 -2.1010
 2211SOL    HW218093   1.454   0.335  15.299 -0.7845  0.1647  1.0732
 2212SOL     OW18094   4.060   1.948  14.177 -0.3928 -0.8567  0.0779
 2212SOL    HW118095   4.109   1.876  14.215 -1.4830 -1.9122 -0.5358
 2212SOL    HW218096   4.135   2.007  14.182 -1.7133  0.6810  1.8217
 2213SOL     OW18097   2.427   2.552   4.240  0.4584 -0.0158  0.0173
 2213SOL    HW118098   2.351   2.533   4.295  0.3991 -0.0982 -0.0934
 2213SOL    HW218099   2.469   2.610   4.303 -0.1015  1.4128 -0.9218
 2214SOL     OW18100   0.507   4.018   8.004 -0.3631 -0.1494  0.1218
 2214SOL    HW118101   0.488   4.074   8.079  1.2405 -0.1929  0.5571
 2214SOL    HW218102   0.575   3.967   8.047 -0.0075  2.2924  2.4667
 2215SOL     OW18103   4.663   0.899   6.918 -0.0866 -0.5020 -0.1225
 2215SOL    HW118104   0.028   0.892   6.890 -0.2326  0.4845 -0.8418
 2215SOL    HW218105   4.660   0.862   7.006  0.9768  0.3566  0.2756
 2216SOL     OW18106   1.896   0.973   4.023 -0.6132  0.0662 -0.4740
 2216SOL    HW118107   1.957   1.041   4.051  1.1691 -1.8567  0.3818
 2216SOL    HW218108   1.935   0.893   4.060  0.1377 -0.2617 -1.9972
 2217SOL     OW18109   3.170   1.876   5.118 -0.1815  0.0346  0.0387
 2217SOL    HW118110   3.204   1.942   5.178 -1.5231 -0.0195  0.8639
 2217SOL    HW218111   3.216   1.800   5.154  2.6887  1.3939 -0.8064
 2218SOL     OW18112   2.333   2.268   6.294 -0.2141  0.1624  0.4200
 2218SOL    HW118113   2.406   2.314   6.252 -0.4162  1.3179  1.3377
 2218SOL    HW218114   2.294   2.344   6.336 -0.7306 -0.0362  0.2987
 2219SOL     OW18115   1.724   3.094   4.113  0.5464 -0.3186  0.1119
 2219SOL    HW118116   1.670   3.162   4.152  1.8874 -0.1620  1.6845
 2219SOL    HW218117   1.747   3.146   4.036 -0.2875 -0.2443 -0.0829
 2220SOL     OW18118   3.674   0.141  14.437  0.3342 -1.2425  0.4266
 2220SOL    HW118119   3.702   0.101  14.355  2.8507  0.2509  0.5752
 2220SOL    HW218120   3.713   0.228  14.434 -1.3764 -0.4683  0.3081
 2221SOL     OW18121   2.323   2.107   7.239  0.1461  0.0980  0.4373
 2221SOL    HW118122   2.283   2.193   7.250 -0.2926 -0.2295  1.5282
 2221SOL    HW218123   2.416   2.130   7.236  0.4958 -1.0373  2.0487
 2222SOL     OW18124   3.590   3.516  10.118  0.4349 -0.4420 -0.0201
 2222SOL    HW118125   3.617   3.476  10.035 -0.4454  0.3820 -0.7138
 2222SOL    HW218126   3.642   3.596  10.105 -1.9114  1.0310 -0.2290
 2223SOL     OW18127   0.262   1.691  13.843  0.2155  0.5219 -0.1022
 2223SOL    HW118128   0.296   1.768  13.797  0.1121  2.0473  2.3691
 2223SOL    HW218129   0.297   1.625  13.783 -3.2506 -1.1553 -0.2803
 2224SOL     OW18130   1.265   1.944   4.459  0.6031  0.6018 -0.2022
 2224SOL    HW118131   1.176   1.978   4.471  0.2775 -0.8162  1.4129
 2224SOL    HW218132   1.286   1.993   4.380 -0.2803  0.5884 -0.4458
 2225SOL     OW18133   1.347   0.004   6.048  0.3221  0.0155 -0.2798
 2225SOL    HW118134   1.378   0.033   5.962  1.3595  1.4847  0.5890
 2225SOL    HW218135   1.354   4.635   6.049  1.3719  0.0894 -0.5946
 2226SOL     OW18136   3.431   0.355  11.427 -0.2282 -0.5376  0.4115
 2226SOL    HW118137   3.396   0.441  11.400  0.8953 -0.9222 -2.3135
 2226SOL    HW218138   3.510   0.376  11.477  0.9139  0.3772 -1.7627
 2227SOL     OW18139   4.141   1.597   6.795 -0.2195  0.4130 -0.6525
 2227SOL    HW118140   4.151   1.687   6.766 -1.0010  0.7735  0.2234
 2227SOL    HW218141   4.099   1.618   6.878  0.6992 -0.6364  0.0794
 2228SOL     OW18142   4.666   1.624   4.535 -0.3824 -0.2346  0.2221
 2228SOL    HW118143   0.034   1.622   4.551 -0.5027  0.5131  1.0343
 2228SOL    HW218144   4.665   1.686   4.463 -0.1993 -0.4898  0.0009
 2229SOL     OW18145   0.568   1.216   1.573 -0.2936 -0.0850  0.9687
 2229SOL    HW118146   0.654   1.214   1.613 -0.0880 -0.8187  0.5026
 2229SOL    HW218147   0.529   1.140   1.615  2.5886 -0.9163  2.1084
 2230SOL     OW18148   1.610   4.680  12.208  0.3713  0.0036 -0.3496
 2230SOL    HW118149   1.665   4.641  12.276  0.2888  1.3508  0.5110
 2230SOL    HW218150   1.524   4.640  12.214  0.2932  0.1987 -0.1320
 2231SOL     OW18151   3.183   3.018   2.279 -0.9332  0.0265 -0.3262
 2231SOL    HW118152   3.128   3.026   2.357  1.8662 -1.7151  1.8310
 2231SOL    HW218153   3.144   3.079   2.216  0.2975 -1.0738 -2.1276
 2232SOL     OW18154   1.568   4.211   3.109 -0.0772  0.2104 -0.1243
 2232SOL    HW118155   1.495   4.242   3.163 -0.6746 -1.7146  0.1472
 2232SOL    HW218156   1.583   4.132   3.160 -0.7413  0.6112  0.6977
 2233SOL     OW18157   4.212   2.315   1.616  0.5856  0.0844 -0.3359
 2233SOL    HW118158   4.306   2.330   1.601  0.6845  1.3387  1.6099
 2233SOL    HW218159   4.213   2.290   1.708 -0.1595 -1.6465 -0.7905
 2234SOL     OW18160   2.117   4.224  13.091  0.0216 -0.3327 -0.5944
 2234SOL    HW118161   2.189   4.160  13.085  0.0457 -0.3716  0.0715
 2234SOL    HW218162   2.138   4.295  13.030  1.3685 -0.4652 -0.2846
 2235SOL     OW18163   2.002   3.065   9.105 -0.2512  0.0593 -0.6727
 2235SOL    HW118164   2.013   3.030   9.193  0.9335 -0.6307 -1.0934
 2235SOL    HW218165   1.932   3.128   9.124  0.8190  0.5657  1.5736
 2236SOL     OW18166   3.505   1.507   8.999  0.1371  0.0451  0.4727
 2236SOL    HW118167   3.415   1.482   8.976 -0.2407  3.2218 -1.4089
 2236SOL    HW218168   3.549   1.430   8.963  1.7111  0.1503  2.1909
 2237SOL     OW18169   1.541   0.800   6.375 -0.9339  0.0141 -0.5694
 2237SOL    HW118170   1.487   0.846   6.310  0.8999  0.5426 -1.7153
 2237SOL    HW218171   1.577   0.727   6.325  0.2504  0.3698 -0.2339
 2238SOL     OW18172   3.343   0.832   0.588 -0.1022 -0.3799 -0.3748
 2238SOL    HW118173   3.257   0.872   0.574  1.5325  2.1598 -3.3340
 2238SOL    HW218174   3.328   0.742   0.562 -0.4581 -0.4131 -0.0558
 2239SOL     OW18175   0.528   1.389   2.737 -0.1251 -0.0312 -0.7869
 2239SOL    HW118176   0.581   1.324   2.691  0.8584  0.3108 -0.1163
 2239SOL    HW218177   0.595   1.449   2.768 -0.8266  0.4435 -0.1799
 2240SOL     OW18178   3.255   0.365  16.004  0.4349 -0.3044  0.0668
 2240SOL    HW118179   3.303   0.301  15.952  2.0930 -0.5501  1.8836
 2240SOL    HW218180   3.195   0.307  16.052 -1.7137  1.9668  0.1189
 2241SOL     OW18181   1.566   0.302   7.474  0.4788 -0.3253 -0.1419
 2241SOL    HW118182   1.488   0.260   7.511  1.6504 -0.1365  2.5389
 2241SOL    HW218183   1.639   0.261   7.520  1.4955  1.4952 -0.1070
 2242SOL     OW18184   3.906   4.530   5.296  0.1964 -0.8891  0.0544
 2242SOL    HW118185   3.942   4.504   5.212  1.5744 -0.9083  0.6526
 2242SOL    HW218186   3.942   4.617   5.314  0.3750 -1.2684  1.5437
 2243SOL     OW18187   2.213   0.835   8.944  0.0370 -0.2917 -0.2337
 2243SOL    HW118188   2.265   0.766   8.986 -0.3789 -1.1300 -1.0973
 2243SOL    HW218189   2.267   0.855   8.867 -0.0335  4.1067  0.8659
 2244SOL     OW18190   1.708   2.045  14.575 -0.3829  0.3003  0.4782
 2244SOL    HW118191   1.753   2.075  14.496 -1.9056  0.5499 -0.2888
 2244SOL    HW218192   1.733   1.954  14.587  0.6819  0.3957 -1.0013
 2245SOL     OW18193   2.019   1.611   6.424  0.2952 -0.0534  0.2394
 2245SOL    HW118194   2.096   1.574   6.466 -0.6534  0.8523  2.7755
 2245SOL    HW218195   2.037   1.702   6.448 -0.4358 -0.0759  0.8623
 2246SOL     OW18196   1.230   3.349  12.327  0.3946  0.6374  0.3032
 2246SOL    HW118197   1.177   3.377  12.401 -0.9694  0.4437 -0.5985
 2246SOL    HW218198   1.215   3.255  12.325  0.3306  0.6758 -1.2312
 2247SOL     OW18199   1.145   1.102   7.598  0.0013  0.5168 -0.8763
 2247SOL    HW118200   1.165   1.072   7.687  0.4726  0.9840 -0.8260
 2247SOL    HW218201   1.231   1.124   7.561  0.3847  0.7744  0.1602
 2248SOL     OW18202   2.047   2.140   4.538 -0.4656  0.6612 -0.2079
 2248SOL    HW118203   2.090   2.221   4.566 -0.2277  0.5800 -0.3391
 2248SOL    HW218204   2.121   2.079   4.532 -0.4775  0.8585 -2.3804
 2249SOL     OW18205   0.533   4.304   2.407 -0.5919  0.4706 -0.4401
 2249SOL    HW118206   0.566   4.253   2.333  0.1724 -0.2634  0.3976
 2249SOL    HW218207   0.611   4.300   2.463  1.3306  0.4098 -3.0975
 2250SOL     OW18208   2.533   0.003  11.165  0.5098 -0.1230  0.1003
 2250SOL    HW118209   2.617   0.048  11.178  1.3489 -1.2877 -1.2490
 2250SOL    HW218210   2.547   4.713  11.072 -0.0359  1.4897 -0.2635
 2251SOL     OW18211   3.204   4.352   3.490 -0.3835  0.3716 -0.1486
 2251SOL    HW118212   3.155   4.329   3.411  1.8333  0.0993 -1.4523
 2251SOL    HW218213   3.197   4.447   3.487  1.4313  0.6060  3.7493
 2252SOL     OW18214   2.274   3.608   9.590 -0.1103 -0.2094  0.1998
 2252SOL    HW118215   2.188   3.645   9.572  0.8514  1.2986 -1.3525
 2252SOL    HW218216   2.307   3.604   9.500 -2.5658  0.0433 -0.7266
 2253SOL     OW18217   2.716   4.350   1.729  0.6898 -0.4617  0.0948
 2253SOL    HW118218   2.685   4.340   1.819  2.8837 -3.5404  0.5111
 2253SOL    HW218219   2.729   4.256   1.713  0.1943 -0.5785  0.3896
 2254SOL     OW18220   2.553   2.943  15.603 -0.2992 -0.0597  0.0445
 2254SOL    HW118221   2.478   2.887  15.622  2.3059 -2.6737  2.4645
 2254SOL    HW218222   2.552   2.934  15.508  0.7934 -1.7060  0.1842
 2255SOL     OW18223   1.415   0.436   1.946 -0.0833  0.0083  0.5034
 2255SOL    HW118224   1.484   0.370   1.941  0.3417  0.4724  0.3729
 2255SOL    HW218225   1.373   0.415   1.863  0.6212 -1.5114  0.5264
 2256SOL     OW18226   2.438   2.249   9.665  0.1516 -0.0285  0.7712
 2256SOL    HW118227   2.456   2.336   9.702  0.2715  0.4369 -0.4014
 2256SOL    HW218228   2.508   2.251   9.600 -0.3952 -1.5302  0.1424
 2257SOL     OW18229   0.278   1.269   6.645 -0.3427  0.2449 -0.1687
 2257SOL    HW118230   0.334   1.251   6.569 -0.3220  0.3439 -0.1762
 2257SOL    HW218231   0.310   1.203   6.706  0.1691  3.2814  2.8266
 2258SOL     OW18232   0.110   2.191   5.669  0.1569 -0.4812  0.5433
 2258SOL    HW118233   0.122   2.265   5.728  0.6203 -0.9120  0.9929
 2258SOL    HW218234   0.179   2.207   5.603 -1.5424 -0.5540 -1.2592
 2259SOL     OW18235   3.932   0.900   3.116 -0.1022 -0.5281  0.4617
 2259SOL    HW118236   3.970   0.875   3.200  1.5707  0.4649  0.0087
 2259SOL    HW218237   3.899   0.988   3.135 -0.7311 -1.1267  2.0902
 2260SOL     OW18238   3.493   1.988   5.439 -0.3334 -0.2111 -0.2499
 2260SOL    HW118239   3.433   1.914   5.437  0.8558 -1.1960  0.6731
 2260SOL    HW218240   3.539   1.975   5.356  1.4839 -2.6653  1.1570
 2261SOL     OW18241   1.071   3.977   6.938 -0.3104  0.2937  0.1130
 2261SOL    HW118242   1.059   4.043   7.006  1.2821 -1.6226  2.2610
 2261SOL    HW218243   1.162   3.991   6.914  0.4198  1.5708  3.5894
 2262SOL     OW18244   2.289   3.298   0.346 -0.0861  0.2670  0.2660
 2262SOL    HW118245   2.269   3.252   0.427  0.5321 -2.2233 -1.0194
 2262SOL    HW218246   2.207   3.283   0.299  0.1857 -1.4107  0.3510
 2263SOL     OW18247   0.023   2.898  13.904 -0.4962  0.6286  0.3184
 2263SOL    HW118248   0.010   2.805  13.886 -1.0275  0.5413  1.1651
 2263SOL    HW218249   0.037   2.943  13.821  2.1607  1.0840  1.0085
 2264SOL     OW18250   3.755   2.897   6.742  0.3190  0.2322  0.0203
 2264SOL    HW118251   3.839   2.852   6.740  1.5789  2.5194  1.4290
 2264SOL    HW218252   3.752   2.957   6.667 -1.9074  1.0930  0.7883
 2265SOL     OW18253   3.116   4.478   4.897 -0.1148  0.2047  0.1184
 2265SOL    HW118254   3.021   4.487   4.900 -0.1292 -0.1362  0.6076
 2265SOL    HW218255   3.135   4.527   4.977 -1.9987 -0.4781  0.9942
 2266SOL     OW18256   4.166   0.300   3.945 -0.1136  0.1178 -0.2163
 2266SOL    HW118257   4.073   0.323   3.942 -0.2268 -0.5232 -1.8906
 2266SOL    HW218258   4.189   0.390   3.968  1.5893 -0.3617 -0.0104
 2267SOL     OW18259   4.568   1.982   1.520  0.7043 -0.2152  0.6089
 2267SOL    HW118260   4.552   1.950   1.609  2.0831 -0.6256  0.7125
 2267SOL    HW218261   4.639   1.923   1.495 -0.2776 -1.2919  0.3552
 2268SOL     OW18262   2.093   1.358   7.239  0.5068  0.1847  0.0207
 2268SOL    HW118263   2.077   1.450   7.221  0.2789  0.4686  1.6264
 2268SOL    HW218264   2.172   1.344   7.187 -0.5411  0.7039 -1.7005
 2269SOL     OW18265   1.034   3.318   8.508  0.7435  0.1830  0.0514
 2269SOL    HW118266   0.970   3.249   8.491  3.0035 -1.7919 -0.4359
 2269SOL    HW218267   1.021   3.376   8.433  0.9424  1.4331  0.9885
 2270SOL     OW18268   2.669   3.364   5.935  0.5793  0.2271  0.1688
 2270SOL    HW118269   2.749   3.409   5.906  2.0543 -1.6739  1.2700
 2270SOL    HW218270   2.709   3.287   5.976 -0.2298  0.4828  1.4278
 2271SOL     OW18271   1.524   1.571   8.173 -0.0893  0.3924  0.0463
 2271SOL    HW118272   1.475   1.523   8.240 -2.0985  0.9071 -1.0731
 2271SOL    HW218273   1.542   1.652   8.220  0.2508 -0.9328  2.2081
 2272SOL     OW18274   0.203   1.184   8.584 -0.1537 -0.5524 -0.3374
 2272SOL    HW118275   0.122   1.149   8.545  0.7889  0.9773 -3.6582
 2272SOL    HW218276   0.247   1.198   8.500 -0.7076  3.3044  0.0210
 2273SOL     OW18277   0.692   2.883   4.394  0.4114  0.0655  0.0199
 2273SOL    HW118278   0.619   2.910   4.338  0.0423  0.7836  0.8585
 2273SOL    HW218279   0.651   2.810   4.442  0.6458 -0.9670 -1.3539
 2274SOL     OW18280   3.112   0.022   1.474  0.0821 -0.1831 -0.0065
 2274SOL    HW118281   3.065   0.015   1.557 -1.8043 -0.5326 -1.1211
 2274SOL    HW218282   3.105   4.663   1.433  1.4323  0.1507 -0.9439
 2275SOL     OW18283   4.124   3.745  14.011  0.2575  0.5884 -0.3367
 2275SOL    HW118284   4.206   3.737  13.962  3.1348 -1.5812  4.8654
 2275SOL    HW218285   4.060   3.727  13.942  0.0044  0.4722 -0.0685
 2276SOL     OW18286   3.286   2.313  12.261 -0.2464  0.6391  0.8821
 2276SOL    HW118287   3.322   2.375  12.325 -0.4168 -0.3603  1.9428
 2276SOL    HW218288   3.260   2.251  12.329 -1.9449 -0.7566 -1.0350
 2277SOL     OW18289   0.898   0.988  15.282  0.2527  0.3000  0.5217
 2277SOL    HW118290   0.874   0.981  15.374 -0.1450 -1.7986  0.2593
 2277SOL    HW218291   0.987   1.022  15.291  0.4731  0.3295 -1.6418
 2278SOL     OW18292   2.081   0.772  14.894  0.7549  0.5821 -0.5955
 2278SOL    HW118293   2.151   0.815  14.845 -0.5072 -0.9494 -3.6810
 2278SOL    HW218294   2.069   0.682  14.865 -0.9613  0.9863 -1.1509
 2279SOL     OW18295   4.160   3.422   2.941  0.2138  0.0189  0.5883
 2279SOL    HW118296   4.178   3.330   2.961  0.1943 -0.6199 -2.3066
 2279SOL    HW218297   4.250   3.451   2.928 -0.7465  1.9225 -1.9836
 2280SOL     OW18298   1.057   3.693   2.481  0.2800  0.2713 -0.5865
 2280SOL    HW118299   0.962   3.695   2.487  0.3582  1.2714  0.4410
 2280SOL    HW218300   1.076   3.760   2.415 -0.4234 -1.1126 -2.2067
 2281SOL     OW18301   3.934   3.001   8.714 -0.5248  0.0198 -0.3879
 2281SOL    HW118302   3.992   3.076   8.714 -0.6913  0.1493 -0.6906
 2281SOL    HW218303   3.936   2.999   8.618  1.7583  0.4232 -0.3389
 2282SOL     OW18304   1.485   0.545   2.588 -0.1502 -0.0836 -0.2281
 2282SOL    HW118305   1.528   0.464   2.559 -0.2449  0.6427 -2.3772
 2282SOL    HW218306   1.402   0.514   2.624  0.7182  0.9025  2.6057
 2283SOL     OW18307   1.737   4.106   6.929 -0.2417  0.0318  0.4587
 2283SOL    HW118308   1.724   4.056   7.010 -1.6889  3.9728  2.6335
 2283SOL    HW218309   1.718   4.040   6.862  1.0882  0.5565 -0.4236
 2284SOL     OW18310   0.361   0.183   4.020 -0.0014  0.1393  0.5552
 2284SOL    HW118311   0.315   0.155   4.099 -0.1647  0.0105  0.4155
 2284SOL    HW218312   0.322   0.269   4.007 -0.5159  0.1402  2.1149
 2285SOL     OW18313   1.865   4.415   2.029 -0.2860  0.7849 -0.0525
 2285SOL    HW118314   1.907   4.374   2.105 -3.2615  1.6315  2.0492
 2285SOL    HW218315   1.802   4.347   2.004 -0.4066  1.8406 -2.5448
 2286SOL     OW18316   2.069   3.082   2.806  0.1270  0.0770  0.0393
 2286SOL    HW118317   2.037   3.110   2.720 -1.1676 -1.4896  0.0231
 2286SOL    HW218318   2.123   3.159   2.824 -0.6561  0.4688  0.7384
 2287SOL     OW18319   0.066   0.757   8.853 -0.0584 -0.3060 -0.2556
 2287SOL    HW118320   0.113   0.702   8.916 -0.8635 -1.0131 -0.2722
 2287SOL    HW218321   0.075   0.845   8.890 -2.2155  0.2379 -1.0236
 2288SOL     OW18322   1.529   0.048   2.340 -0.4691 -0.2051 -0.1338
 2288SOL    HW118323   1.494   0.020   2.255  0.0870 -3.0059  0.5716
 2288SOL    HW218324   1.555   4.691   2.381 -1.0433 -1.1339 -1.6445
 2289SOL     OW18325   2.793   0.867  11.619 -0.0485 -0.0603  0.7607
 2289SOL    HW118326   2.776   0.815  11.697 -0.2887 -0.1154  0.6716
 2289SOL    HW218327   2.822   0.947  11.663  0.2604 -0.9132  2.1021
 2290SOL     OW18328   4.330   2.075   0.862 -0.7138 -0.0901  0.8577
 2290SOL    HW118329   4.329   2.157   0.813 -2.4052 -1.0291 -0.6903
 2290SOL    HW218330   4.419   2.040   0.854  0.6962  3.2693  1.9780
 2291SOL     OW18331   3.126   0.924   6.482  0.0047 -0.4079 -0.5780
 2291SOL    HW118332   3.168   1.008   6.499 -1.0498 -0.4064  2.0214
 2291SOL    HW218333   3.051   0.937   6.424 -0.5374 -1.0556 -0.0218
 2292SOL     OW18334   4.138   0.038   9.623  0.3283  0.4522 -0.3848
 2292SOL    HW118335   4.175   4.699   9.564 -0.1111  0.0448 -0.2148
 2292SOL    HW218336   4.043   0.032   9.615  0.2739  0.3294  0.3489
 2293SOL     OW18337   0.329   4.710  11.089  0.7637 -0.2588 -0.1839
 2293SOL    HW118338   0.411   0.033  11.079 -0.2916  1.4923 -0.0409
 2293SOL    HW218339   0.342   4.699  11.183  1.8406  1.2645 -0.1493
 2294SOL     OW18340   3.985   1.513   6.193 -0.2294 -0.7427 -0.0366
 2294SOL    HW118341   3.999   1.432   6.242 -1.3197 -0.6501  0.4208
 2294SOL    HW218342   4.054   1.502   6.127  1.0495  2.8755  0.7047
 2295SOL     OW18343   4.054   4.291  14.709 -0.2081 -0.1411 -0.2567
 2295SOL    HW118344   4.134   4.341  14.694  0.3088 -0.3426  1.7694
 2295SOL    HW218345   4.093   4.227  14.769 -0.4895 -1.6938 -1.7375
 2296SOL     OW18346   1.035   0.252   8.353 -0.5405  0.3341 -0.2614
 2296SOL    HW118347   1.049   0.345   8.332  1.3328  0.4915  1.6657
 2296SOL    HW218348   1.097   0.244   8.426 -1.6483 -0.7354  0.5555
 2297SOL     OW18349   0.637   3.042   9.289  0.2950  0.2916 -0.4085
 2297SOL    HW118350   0.696   3.048   9.363 -2.4504 -0.3438  1.8233
 2297SOL    HW218351   0.688   2.987   9.230  0.3269 -1.4484  1.2386
 2298SOL     OW18352   4.165   2.315   3.224 -1.0001  0.1989 -0.2278
 2298SOL    HW118353   4.183   2.222   3.236 -0.2682  0.0608 -2.4449
 2298SOL    HW218354   4.248   2.355   3.199 -1.0994 -0.2977 -1.3245
 2299SOL     OW18355   3.778   3.340   9.003 -0.3573 -0.1829 -0.5975
 2299SOL    HW118356   3.803   3.291   9.081  0.0472  0.6646 -0.1978
 2299SOL    HW218357   3.708   3.284   8.970 -1.6059  0.0336  1.6674
 2300SOL     OW18358   0.359   1.127  15.251 -0.7968 -0.0184  0.1441
 2300SOL    HW118359   0.430   1.178  15.289 -1.6768  2.9345 -2.1218
 2300SOL    HW218360   0.405   1.089  15.176 -2.1826 -0.4028 -0.5127
 2301SOL     OW18361   2.798   3.259   0.719  0.3208 -0.4288 -0.0251
 2301SOL    HW118362   2.779   3.351   0.738 -0.3601 -0.6242  0.2313
 2301SOL    HW218363   2.840   3.237   0.802 -1.6885  0.6046  1.2450
 2302SOL     OW18364   3.062   1.045   7.057 -0.2066  0.0350  0.4365
 2302SOL    HW118365   3.122   0.982   7.096 -2.0278 -1.5327  0.7242
 2302SOL    HW218366   3.104   1.068   6.975 -1.2335 -0.3391 -0.2024
 2303SOL     OW18367   4.263   3.119  16.916 -0.0046  0.6302  0.1097
 2303SOL    HW118368   4.170   3.124  16.893  0.1397  0.3137 -0.5572
 2303SOL    HW218369   4.267   3.181  16.988 -1.8130  0.5937  0.2347
 2304SOL     OW18370   3.408   2.017   2.303 -0.9445  0.4679 -0.6630
 2304SOL    HW118371   3.460   2.053   2.231 -2.2606  0.8665 -1.3968
 2304SOL    HW218372   3.387   1.932   2.265  1.0608 -1.2837  2.1212
 2305SOL     OW18373   1.025   2.910  15.526  0.0911  0.1890  0.2794
 2305SOL    HW118374   1.014   2.942  15.616 -0.7949 -2.4575  1.1045
 2305SOL    HW218375   1.053   2.990  15.481 -1.3874  0.4918 -0.1004
 2306SOL     OW18376   1.482   2.330   1.586 -0.5489  0.6897  0.6690
 2306SOL    HW118377   1.555   2.292   1.536 -0.1322  0.6243  1.3369
 2306SOL    HW218378   1.523   2.325   1.672  0.2219  3.1761  0.4467
 2307SOL     OW18379   0.719   3.893  16.936 -0.6099  0.0184 -0.1853
 2307SOL    HW118380   0.701   3.803  16.908 -0.7454  0.3170 -1.0496
 2307SOL    HW218381   0.811   3.904  16.911 -0.4597 -1.8559 -0.5049
 2308SOL     OW18382   2.118   3.988  12.092 -0.3818 -0.1710 -0.0453
 2308SOL    HW118383   2.069   3.983  12.174  2.1861  0.6568  1.5390
 2308SOL    HW218384   2.109   3.898  12.060  0.1652 -0.4963  0.6935
 2309SOL     OW18385   1.763   3.912   8.643 -0.1677 -0.3377 -0.1540
 2309SOL    HW118386   1.672   3.882   8.655 -0.0394 -1.3603 -1.7864
 2309SOL    HW218387   1.810   3.857   8.705 -2.1266  2.6113  3.9703
 2310SOL     OW18388   0.967   1.929   8.302 -0.1800  0.2461 -0.1490
 2310SOL    HW118389   0.935   1.842   8.326  0.1395  0.1152 -0.2047
 2310SOL    HW218390   0.957   1.974   8.386 -1.3367 -1.8817  0.8613
 2311SOL     OW18391   1.514   0.382   7.209  0.5435  0.5259 -0.2976
 2311SOL    HW118392   1.598   0.357   7.171 -0.2821 -1.1870 -1.0363
 2311SOL    HW218393   1.528   0.359   7.301  2.2588 -0.7490 -0.8833
 2312SOL     OW18394   3.527   4.403   3.097  0.4399 -0.3753 -0.1972
 2312SOL    HW118395   3.433   4.386   3.107  0.8410 -2.5331 -0.0117
 2312SOL    HW218396   3.549   4.311   3.112 -0.3693 -0.7314 -1.1827
 2313SOL     OW18397   0.404   1.520  13.660  0.1139 -0.0408  0.4379
 2313SOL    HW118398   0.464   1.589  13.631 -0.7723 -0.5828 -2.6596
 2313SOL    HW218399   0.362   1.487  13.581 -1.5402  0.0119  1.2884
 2314SOL     OW18400   0.072   2.142  17.352  0.0381 -0.2902 -0.0021
 2314SOL    HW118401   0.054   2.169  17.262  2.3564  1.3436  0.0077
 2314SOL    HW218402   0.014   2.197  17.405  1.5047  0.7593  0.5218
 2315SOL     OW18403   4.392   1.428   9.427 -0.4100  0.3175  0.1720
 2315SOL    HW118404   4.451   1.498   9.455  0.3193 -0.7901  1.3681
 2315SOL    HW218405   4.359   1.401   9.513  0.6237 -0.6044  0.2721
 2316SOL     OW18406   3.451   2.895   3.230  0.0809 -0.0033  0.1439
 2316SOL    HW118407   3.540   2.927   3.227  0.0103  0.1322 -0.6710
 2316SOL    HW218408   3.407   2.972   3.193  1.3905  0.8569  0.3878
 2317SOL     OW18409   1.982   0.382   0.226  0.1750  0.1685  0.6172
 2317SOL    HW118410   1.976   0.401   0.133  1.0021  1.1258  0.7643
 2317SOL    HW218411   2.050   0.437   0.265  0.6299 -0.5787  0.8791
 2318SOL     OW18412   3.520   0.487   8.182 -0.2646 -0.0451 -0.3488
 2318SOL    HW118413   3.536   0.396   8.159 -0.1260  0.0450 -0.6022
 2318SOL    HW218414   3.568   0.491   8.265 -2.9621 -1.8458  1.2636
 2319SOL     OW18415   1.714   3.877  11.931 -0.6047 -0.2875  0.3560
 2319SOL    HW118416   1.794   3.892  11.980  0.0668  0.1091 -0.8563
 2319SOL    HW218417   1.690   3.963  11.896  0.8985  0.5098  1.3085
 2320SOL     OW18418   0.137   0.315   3.082  0.3032  0.2970  0.0470
 2320SOL    HW118419   0.122   0.318   3.176  1.7505 -2.0208  0.3597
 2320SOL    HW218420   0.045   0.296   3.067  0.1561  0.3794  0.8821
 2321SOL     OW18421   3.897   2.060  12.174  0.5015  0.4998 -0.3799
 2321SOL    HW118422   3.962   2.064  12.103  1.4909 -0.0419  0.5065
 2321SOL    HW218423   3.960   2.063  12.245  1.8521 -1.3218 -1.4970
 2322SOL     OW18424   0.886   3.644  17.563  0.6151 -0.0769 -0.0648
 2322SOL    HW118425   0.944   3.570  17.549  0.3244 -0.7863  2.5191
 2322SOL    HW218426   0.835   3.662  17.484  2.2525 -3.8938 -1.9581
 2323SOL     OW18427   4.147   0.405   4.987  0.4782  0.2667 -0.5548
 2323SOL    HW118428   4.106   0.479   5.032 -2.6015 -0.6792 -1.8405
 2323SOL    HW218429   4.241   0.420   4.976  0.3410  1.0174 -0.6908
 2324SOL     OW18430   2.591   3.890  10.183 -0.1801 -0.3494  0.4601
 2324SOL    HW118431   2.557   3.801  10.178 -0.3934 -0.3090  1.1440
 2324SOL    HW218432   2.679   3.875  10.217 -0.2893  0.9744  1.3615
 2325SOL     OW18433   1.236   4.232   4.955  0.3035 -0.5195  0.7910
 2325SOL    HW118434   1.185   4.178   4.895 -1.9463  0.8092  1.5072
 2325SOL    HW218435   1.253   4.164   5.020 -1.2217 -1.1252  0.5697
 2326SOL     OW18436   3.118   2.976   0.775  0.1704 -0.7845  0.0916
 2326SOL    HW118437   3.155   2.989   0.688 -1.6663  0.8658 -0.4305
 2326SOL    HW218438   3.192   2.992   0.835  0.0467  1.3133 -0.3318
 2327SOL     OW18439   2.792   0.115   5.334  0.0706 -0.6371  0.3969
 2327SOL    HW118440   2.710   0.144   5.375  0.7691  0.7322  0.8151
 2327SOL    HW218441   2.812   0.187   5.273 -0.6604  0.5600  1.5765
 2328SOL     OW18442   0.655   4.289   5.247 -0.0481 -0.8910 -0.0872
 2328SOL    HW118443   0.626   4.376   5.218 -0.5196 -0.8653  0.4676
 2328SOL    HW218444   0.662   4.302   5.341 -1.9216  1.2367 -0.2474
 2329SOL     OW18445   3.111   4.592   2.293 -0.5440 -0.6534  0.2633
 2329SOL    HW118446   3.147   4.650   2.359  2.0710 -0.1568 -1.5625
 2329SOL    HW218447   3.184   4.574   2.233 -2.2605 -0.0730 -1.9932
 2330SOL     OW18448   3.347   4.097   2.253 -0.3415  0.3172  0.0916
 2330SOL    HW118449   3.281   4.030   2.241  0.2822 -0.3396  0.3059
 2330SOL    HW218450   3.288   4.171   2.236  0.3113  0.7967 -0.1088
 2331SOL     OW18451   3.028   1.929   4.149  0.3698  0.1518  0.0309
 2331SOL    HW118452   3.106   1.916   4.202  0.0748 -2.9644 -0.3059
 2331SOL    HW218453   3.046   1.895   4.061  0.5786 -0.7869  0.4465
 2332SOL     OW18454   1.583   2.893  10.864 -0.1133 -0.4040 -0.1451
 2332SOL    HW118455   1.577   2.823  10.800 -0.8121  0.0539 -0.5739
 2332SOL    HW218456   1.661   2.945  10.843  0.5008 -0.9097  0.8732
 2333SOL     OW18457   1.939   4.505   6.929 -0.5584 -0.2823  0.0712
 2333SOL    HW118458   1.903   4.593   6.918 -1.9155 -0.9227 -0.5860
 2333SOL    HW218459   1.881   4.464   6.993 -0.5244 -0.1993  0.1563
 2334SOL     OW18460   4.471   1.921   3.366  0.0077 -0.2726  0.7825
 2334SOL    HW118461   4.521   1.885   3.440  0.9299  0.9285  0.7351
 2334SOL    HW218462   4.532   1.984   3.328  1.2263 -1.1231  1.3197
 2335SOL     OW18463   0.566   1.051   7.713  0.3065 -0.5783  0.8239
 2335SOL    HW118464   0.637   1.080   7.771  1.6547 -3.1026  0.4210
 2335SOL    HW218465   0.529   0.978   7.762 -0.3236  0.4251  1.8341
 2336SOL     OW18466   3.929   3.472   9.558  0.0873  0.1091 -0.4060
 2336SOL    HW118467   3.921   3.386   9.601  0.4724  1.1150  1.6623
 2336SOL    HW218468   3.842   3.510   9.569  0.8402  1.0338  2.3705
 2337SOL     OW18469   3.974   2.991   1.503 -0.2249  0.2133  0.3428
 2337SOL    HW118470   3.884   2.958   1.513  0.7411 -2.1415  1.2891
 2337SOL    HW218471   3.989   2.966   1.412 -1.0495 -0.3542  0.3614
 2338SOL     OW18472   1.392   2.628   9.317  0.4061 -0.1922 -0.1093
 2338SOL    HW118473   1.410   2.618   9.411 -1.2503 -0.1034  0.2343
 2338SOL    HW218474   1.473   2.659   9.279  0.6812  2.8600  2.9152
 2339SOL     OW18475   0.462   4.406   2.127  0.2027  0.4385  0.0821
 2339SOL    HW118476   0.470   4.421   2.222 -0.8942 -0.8131  0.3836
 2339SOL    HW218477   0.421   4.319   2.126  0.5566  0.2782 -0.3475
 2340SOL     OW18478   3.987   0.425   4.427  0.7576  0.3178  0.0067
 2340SOL    HW118479   4.073   0.391   4.403  0.0864 -0.5978 -1.0585
 2340SOL    HW218480   3.937   0.381   4.359  3.5632 -0.4740 -1.5468
 2341SOL     OW18481   1.748   0.154   7.872 -0.1329 -0.6764 -0.5017
 2341SOL    HW118482   1.785   0.174   7.959 -0.4418 -0.4536 -0.4182
 2341SOL    HW218483   1.709   0.069   7.889 -0.5261 -0.6806 -1.4647
 2342SOL     OW18484   3.292   0.273   2.759 -0.0022 -0.6576 -0.2462
 2342SOL    HW118485   3.226   0.246   2.695  0.6309  0.1545 -1.2385
 2342SOL    HW218486   3.315   0.183   2.782  3.5007  0.3343  0.0080
 2343SOL     OW18487   3.449   4.382   1.656 -0.0289 -0.5165 -0.3689
 2343SOL    HW118488   3.431   4.418   1.569  0.0091  0.1736 -0.0886
 2343SOL    HW218489   3.543   4.400   1.662 -0.2096 -0.3452  2.0382
 2344SOL     OW18490   3.336   1.696   2.803  0.4007 -0.4407  0.2976
 2344SOL    HW118491   3.257   1.652   2.771  0.2094  0.0396  0.1212
 2344SOL    HW218492   3.312   1.787   2.817  0.8046 -0.6938  2.6771
 2345SOL     OW18493   0.557   0.720   6.507  0.4182  0.2032 -0.3242
 2345SOL    HW118494   0.586   0.812   6.511  2.1048 -0.2248 -2.8955
 2345SOL    HW218495   0.578   0.687   6.594  1.3743 -0.1881 -0.6967
 2346SOL     OW18496   1.340   3.161   6.056  0.1252  0.7424 -0.2843
 2346SOL    HW118497   1.390   3.124   6.128  0.3844  2.0328  0.2054
 2346SOL    HW218498   1.306   3.085   6.009 -0.0725  0.0784  0.9408
 2347SOL     OW18499   0.880   0.167   2.631 -0.0820  0.1182  0.2198
 2347SOL    HW118500   0.810   0.148   2.694 -0.9382  1.6960 -0.2630
 2347SOL    HW218501   0.902   0.257   2.654  0.1448 -0.1245  0.9456
 2348SOL     OW18502   0.184   2.938   3.639 -0.0419 -0.5426  0.5650
 2348SOL    HW118503   0.174   3.031   3.617  0.9914 -0.4157  0.6031
 2348SOL    HW218504   0.111   2.904   3.588 -1.9546  1.8771  1.7186
 2349SOL     OW18505   0.176   4.173   8.754  0.4046  0.2603  0.1955
 2349SOL    HW118506   0.206   4.098   8.805  2.2850  0.1473 -1.0519
 2349SOL    HW218507   0.253   4.228   8.765 -1.3954  2.3261  2.3791
 2350SOL     OW18508   2.915   0.897   5.840 -0.7978 -0.0467 -0.6979
 2350SOL    HW118509   2.956   0.864   5.760 -0.7750  1.1787 -1.1988
 2350SOL    HW218510   2.865   0.819   5.863  0.0382 -0.4290 -0.1619
 2351SOL     OW18511   3.879   2.433   6.922 -0.4860 -0.6894 -0.0957
 2351SOL    HW118512   3.821   2.438   6.847 -0.1357 -2.2965 -0.4662
 2351SOL    HW218513   3.962   2.465   6.887 -1.1276 -0.4071 -1.3416
 2352SOL     OW18514   2.375   3.666   9.297 -0.2036  0.2840  0.2756
 2352SOL    HW118515   2.442   3.729   9.324  0.2143 -0.3103  0.6260
 2352SOL    HW218516   2.420   3.609   9.235  1.3556  3.0118 -1.0889
 2353SOL     OW18517   0.265   3.449   7.192 -0.3300  0.3095  0.0118
 2353SOL    HW118518   0.307   3.408   7.117 -0.4656  0.8352 -0.3477
 2353SOL    HW218519   0.213   3.516   7.147 -0.2372  0.3404 -0.0482
 2354SOL     OW18520   2.845   1.170   3.436 -0.8264 -0.2454  0.4520
 2354SOL    HW118521   2.890   1.191   3.518 -1.3201 -0.1728  0.7038
 2354SOL    HW218522   2.889   1.096   3.394  1.1652  0.2270  1.7252
 2355SOL     OW18523   4.598   1.734  10.856 -0.1256 -0.0091 -0.2129
 2355SOL    HW118524   4.605   1.796  10.929 -0.9944  2.4766 -2.2185
 2355SOL    HW218525   4.643   1.771  10.780 -0.8510 -1.4357 -1.3150
 2356SOL     OW18526   3.909   3.566  10.068  0.4050 -0.2806 -0.1529
 2356SOL    HW118527   3.888   3.475  10.090 -0.8942  0.0214 -0.1256
 2356SOL    HW218528   3.842   3.593  10.005  1.9220  0.8447 -1.2887
 2357SOL     OW18529   3.526   1.447   2.732  0.3130  0.1505  0.1327
 2357SOL    HW118530   3.451   1.388   2.731 -1.2445  2.1357  0.3879
 2357SOL    HW218531   3.484   1.527   2.763  0.6593  0.9907 -1.5850
 2358SOL     OW18532   3.315   0.425  14.377  0.6321  0.1226  0.1469
 2358SOL    HW118533   3.326   0.394  14.467 -1.4008 -0.4846  0.2002
 2358SOL    HW218534   3.384   0.375  14.334  0.0409 -1.2272  0.7633
 2359SOL     OW18535   0.245   1.759   2.251  0.4953 -0.2349 -0.1761
 2359SOL    HW118536   0.329   1.799   2.274  1.3716 -3.3978  2.1459
 2359SOL    HW218537   0.259   1.744   2.158 -0.7715 -2.2519 -0.0397
 2360SOL     OW18538   4.719   2.599   5.338  0.5891  0.2985 -0.3200
 2360SOL    HW118539   0.044   2.674   5.368 -1.0151 -0.0252  3.2583
 2360SOL    HW218540   4.720   2.628   5.247  0.4899  0.7437 -0.1811
 2361SOL     OW18541   4.719   1.864   4.339 -0.1572 -0.0892 -0.4127
 2361SOL    HW118542   0.018   1.884   4.429  0.6938  0.9090 -0.8756
 2361SOL    HW218543   4.673   1.945   4.315 -0.0037  0.0048 -0.3900
 2362SOL     OW18544   3.894   3.868  13.194 -0.3977  0.1189  0.0044
 2362SOL    HW118545   3.955   3.942  13.194 -1.1698  0.7463  1.3180
 2362SOL    HW218546   3.879   3.868  13.099 -0.4663 -0.5602  0.0163
 2363SOL     OW18547   3.116   3.238  11.933  0.0365  0.6388  0.3617
 2363SOL    HW118548   3.175   3.311  11.917  0.4860  0.7256  2.4028
 2363SOL    HW218549   3.131   3.176  11.861  3.2966  1.0878  0.6734
 2364SOL     OW18550   2.606   3.554   5.112 -0.5020 -0.8210  0.4974
 2364SOL    HW118551   2.515   3.532   5.089 -0.3905 -2.2125  1.3847
 2364SOL    HW218552   2.618   3.616   5.040 -0.9615 -0.8717  0.3778
 2365SOL     OW18553   1.703   4.620   2.154  0.3228  0.0899  0.1099
 2365SOL    HW118554   1.768   4.690   2.167  0.8476 -0.1643 -1.2355
 2365SOL    HW218555   1.749   4.550   2.108  2.9300  0.9895  1.3378
 2366SOL     OW18556   1.481   0.182   8.831 -0.5689 -0.6517 -0.0855
 2366SOL    HW118557   1.403   0.205   8.880 -0.1148  0.4620  0.1040
 2366SOL    HW218558   1.551   0.208   8.892 -1.3283  3.5275 -1.0377
 2367SOL     OW18559   3.972   1.262   0.089 -0.0134 -0.3447  0.1050
 2367SOL    HW118560   4.017   1.268   0.173 -0.0377 -1.2573  0.1819
 2367SOL    HW218561   4.045   1.218   0.045  0.4613  0.7751 -0.2501
 2368SOL     OW18562   1.620   3.741   5.280  0.2386  0.4153 -0.3277
 2368SOL    HW118563   1.713   3.734   5.259  0.2476  1.0301 -0.5009
 2368SOL    HW218564   1.618   3.788   5.363 -0.6039  1.7325 -1.0920
 2369SOL     OW18565   2.739   2.899   6.802 -0.1075  0.1625  0.0640
 2369SOL    HW118566   2.655   2.864   6.832 -1.3822  3.3649  0.2192
 2369SOL    HW218567   2.720   2.984   6.761 -0.8916 -0.3561 -0.6305
 2370SOL     OW18568   3.403   1.923   3.904  0.0885  0.2100  0.6569
 2370SOL    HW118569   3.421   1.847   3.848 -0.0463  1.8519 -1.5810
 2370SOL    HW218570   3.485   1.972   3.898 -0.9272  1.7319 -0.4479
 2371SOL     OW18571   4.526   2.724   3.591  0.3027 -0.5892  0.0468
 2371SOL    HW118572   4.583   2.751   3.519 -0.4700 -0.3936 -0.4918
 2371SOL    HW218573   4.583   2.762   3.658  0.0620 -1.8513  0.9612
 2372SOL     OW18574   1.935   1.047   3.706  0.4882  0.5866  0.1235
 2372SOL    HW118575   1.997   1.038   3.778 -0.5083  1.3981  1.0898
 2372SOL    HW218576   1.876   0.974   3.726  2.2814 -0.7676  0.5218
 2373SOL     OW18577   2.917   1.263   2.355 -0.4327 -0.0590  0.1491
 2373SOL    HW118578   2.948   1.354   2.365  0.0482 -0.1962 -0.0921
 2373SOL    HW218579   2.857   1.259   2.281 -0.0001  0.7814 -0.2525
 2374SOL     OW18580   4.428   4.445   2.343  0.0756 -0.2784 -0.5593
 2374SOL    HW118581   4.474   4.465   2.262  2.0329 -1.2612  0.3000
 2374SOL    HW218582   4.506   4.410   2.386  0.9856  0.7072 -1.4143
 2375SOL     OW18583   2.119   4.317   6.352  0.3589  0.7264 -0.1488
 2375SOL    HW118584   2.209   4.284   6.361 -0.2945  0.1831  4.5051
 2375SOL    HW218585   2.093   4.284   6.438  2.6205 -4.6079 -1.5072
 2376SOL     OW18586   2.755   3.193   2.700 -0.2323 -0.2394 -0.4375
 2376SOL    HW118587   2.798   3.135   2.763  0.8449  2.6909  1.5724
 2376SOL    HW218588   2.718   3.265   2.752  2.7319  1.3919 -0.5639
 2377SOL     OW18589   3.450   2.176  17.050  0.4837  0.4593  0.1389
 2377SOL    HW118590   3.531   2.136  17.018 -0.6697 -0.1837 -2.0247
 2377SOL    HW218591   3.450   2.240  16.978 -1.0525  0.0928 -0.1776
 2378SOL     OW18592   4.097   2.911   7.716  0.0974 -0.6654  0.3893
 2378SOL    HW118593   4.031   2.844   7.698  2.0556 -2.8612  1.4106
 2378SOL    HW218594   4.109   2.909   7.811  3.8693 -0.9420 -0.0565
 2379SOL     OW18595   1.484   4.157  16.926  0.2164 -0.4108 -0.2326
 2379SOL    HW118596   1.517   4.158  16.836 -1.4777  0.3355 -0.8320
 2379SOL    HW218597   1.417   4.090  16.912  0.2261 -0.4186 -0.2414
 2380SOL     OW18598   1.662   0.109   9.877 -0.1704  0.5708  0.4698
 2380SOL    HW118599   1.728   0.041   9.861 -0.8773  0.2704 -1.1215
 2380SOL    HW218600   1.600   0.102   9.805  1.4411 -0.9843 -0.7647
 2381SOL     OW18601   1.735   4.442   5.340 -0.1496  0.5688  0.1812
 2381SOL    HW118602   1.756   4.531   5.369 -1.2093  0.4330  1.3593
 2381SOL    HW218603   1.668   4.458   5.273 -0.4864 -0.7112  0.2022
 2382SOL     OW18604   3.975   3.600   1.451  0.1038  0.0099 -0.3278
 2382SOL    HW118605   3.974   3.629   1.359 -1.4658 -1.3141 -0.7227
 2382SOL    HW218606   4.015   3.681   1.484  0.4164 -0.6434  0.8749
 2383SOL     OW18607   2.812   0.488   2.555  0.2689  0.0056  0.2256
 2383SOL    HW118608   2.740   0.544   2.525  0.0700 -1.4800 -2.0414
 2383SOL    HW218609   2.766   0.410   2.586  1.3280 -0.1671  1.3651
 2384SOL     OW18610   0.629   2.036   4.490  0.2861  0.3790  0.0028
 2384SOL    HW118611   0.647   1.942   4.491  1.8857  0.6821 -1.2882
 2384SOL    HW218612   0.698   2.069   4.548  1.1473  0.8204 -1.2861
 2385SOL     OW18613   3.595   3.299   9.445  0.5939 -0.2391 -0.0028
 2385SOL    HW118614   3.562   3.370   9.389  1.1257 -0.2063 -0.2800
 2385SOL    HW218615   3.681   3.290   9.403  0.8552  1.3878  0.1959
 2386SOL     OW18616   1.423   3.041  12.968  0.0101 -0.6543  0.6163
 2386SOL    HW118617   1.395   3.123  12.927  1.0975 -0.0921  0.9990
 2386SOL    HW218618   1.412   2.986  12.891  1.8354  0.7381 -0.6298
 2387SOL     OW18619   4.413   2.402   3.152 -0.5471  0.3083  0.0031
 2387SOL    HW118620   4.448   2.480   3.108 -1.7179  0.5547 -0.4958
 2387SOL    HW218621   4.495   2.353   3.157 -1.1036 -1.0271 -4.2966
 2388SOL     OW18622   2.604   1.768   2.603 -0.6255 -0.0958 -0.3171
 2388SOL    HW118623   2.600   1.862   2.624 -2.3512 -0.0245 -1.0208
 2388SOL    HW218624   2.638   1.769   2.513  0.2108  1.3435  0.0084
 2389SOL     OW18625   2.758   2.512   6.211  0.1182 -0.0717 -0.3246
 2389SOL    HW118626   2.834   2.564   6.237 -0.5519  2.4933 -3.4203
 2389SOL    HW218627   2.688   2.550   6.265  1.3619  1.7419  0.0171
 2390SOL     OW18628   1.005   2.367   1.721  0.3317 -0.1526 -0.1960
 2390SOL    HW118629   1.018   2.274   1.743  1.2667  0.3271  1.3244
 2390SOL    HW218630   1.095   2.398   1.720  0.5240 -0.7025 -0.0986
 2391SOL     OW18631   1.834   1.996   6.739 -0.1118 -0.6444  0.0505
 2391SOL    HW118632   1.859   1.951   6.658  0.1377  0.2428 -0.3674
 2391SOL    HW218633   1.738   1.998   6.727 -0.4659 -0.8558  3.0617
 2392SOL     OW18634   1.102   3.522  14.951 -0.5049  0.0044  0.0648
 2392SOL    HW118635   1.147   3.438  14.947  0.2251  0.5490 -2.8148
 2392SOL    HW218636   1.175   3.583  14.950  0.0949 -0.6050  4.5152
 2393SOL     OW18637   2.007   4.619   8.380  0.1972 -0.1590 -0.1655
 2393SOL    HW118638   1.928   4.587   8.336  0.9763 -2.2552 -0.0265
 2393SOL    HW218639   2.029   4.537   8.425 -0.5184  0.0533  0.5860
 2394SOL     OW18640   4.276   4.192   6.746 -0.0034 -0.1931 -0.8043
 2394SOL    HW118641   4.327   4.243   6.809 -1.3731  0.0927  0.0574
 2394SOL    HW218642   4.246   4.124   6.807 -0.9054  0.2552 -0.7581
 2395SOL     OW18643   1.925   2.008   5.228 -0.2479  0.8460  0.2656
 2395SOL    HW118644   1.893   1.995   5.139  1.8121 -1.1909 -0.1788
 2395SOL    HW218645   2.015   1.976   5.216 -2.0326 -5.1319  3.0460
 2396SOL     OW18646   4.121   2.640  16.713 -0.1831  0.3164 -0.1964
 2396SOL    HW118647   4.103   2.672  16.625 -1.7199  0.7588  0.2891
 2396SOL    HW218648   4.100   2.717  16.766  4.0081  0.3187  1.5175
 2397SOL     OW18649   1.489   2.603   9.565 -0.0425  0.2747  0.4168
 2397SOL    HW118650   1.560   2.657   9.530  0.2675 -0.9900 -0.8696
 2397SOL    HW218651   1.541   2.527   9.588 -0.1320 -0.3662 -1.4969
 2398SOL     OW18652   3.091   0.600   1.249  0.3704 -0.1492 -0.0218
 2398SOL    HW118653   3.012   0.546   1.245 -0.0749  0.4701  0.3841
 2398SOL    HW218654   3.049   0.686   1.248  0.3558 -0.2136 -4.6907
 2399SOL     OW18655   1.877   3.565  10.507  0.4351  0.0081  0.3486
 2399SOL    HW118656   1.890   3.479  10.547  0.3882  0.0919  0.5434
 2399SOL    HW218657   1.785   3.562  10.480  0.4103  0.7603  0.3496
 2400SOL     OW18658   1.077   3.402   6.207 -0.2594  0.4075 -0.0345
 2400SOL    HW118659   1.159   3.420   6.162 -0.5125  1.2452 -0.1520
 2400SOL    HW218660   1.089   3.442   6.293  0.7069  0.4375 -0.1848
 2401SOL     OW18661   0.276   1.926   0.898  0.2969  0.1196 -0.4752
 2401SOL    HW118662   0.335   1.865   0.943  1.5792  1.0321 -0.9264
 2401SOL    HW218663   0.238   1.855   0.846 -1.2685  0.7901 -0.2703
 2402SOL     OW18664   3.621   4.591   5.719 -0.7516 -0.2120 -0.3193
 2402SOL    HW118665   3.566   4.600   5.797 -0.6673  1.6105 -0.4859
 2402SOL    HW218666   3.636   4.498   5.699  0.0736  0.2175 -1.6672
 2403SOL     OW18667   0.965   4.626  11.933  0.4216 -0.2108 -0.6972
 2403SOL    HW118668   1.041   4.623  11.874 -0.2287  2.0964 -1.6522
 2403SOL    HW218669   1.010   4.599  12.013  0.5397 -0.7247 -0.9350
 2404SOL     OW18670   4.322   1.690   5.171 -0.2514 -0.7258  0.5224
 2404SOL    HW118671   4.343   1.725   5.084  0.7725  0.8064  1.4035
 2404SOL    HW218672   4.255   1.751   5.201 -0.2277 -1.1195  1.3614
 2405SOL     OW18673   3.176   0.327   0.540  0.0488  0.0301 -0.2917
 2405SOL    HW118674   3.175   0.276   0.460  1.1451  0.5767 -0.6570
 2405SOL    HW218675   3.108   0.281   0.590 -0.2260  0.0544 -0.6425
 2406SOL     OW18676   3.670   0.958   5.471  0.6661 -0.2660 -0.2115
 2406SOL    HW118677   3.691   0.868   5.493  0.5762  0.1495  1.5905
 2406SOL    HW218678   3.666   0.956   5.375 -0.3310  0.3975 -0.1877
 2407SOL     OW18679   4.158   1.810   4.912  0.3835  0.7372 -0.6410
 2407SOL    HW118680   4.155   1.846   4.823 -2.2600 -0.6875 -1.1430
 2407SOL    HW218681   4.161   1.716   4.893  2.5771  0.4766  1.1004
 2408SOL     OW18682   0.495   3.647  12.513  0.1509  0.0909 -0.4077
 2408SOL    HW118683   0.413   3.675  12.554  1.1279  0.3220  1.4067
 2408SOL    HW218684   0.559   3.635  12.583  2.1712  0.5464 -2.1859
 2409SOL     OW18685   2.118   0.963   8.296 -0.4163 -0.0499 -0.3734
 2409SOL    HW118686   2.200   1.007   8.319  0.4390 -2.0292  0.3482
 2409SOL    HW218687   2.091   0.908   8.369  1.5064  1.6355  1.5908
 2410SOL     OW18688   1.854   3.875   3.434  0.3474  0.2655  0.3380
 2410SOL    HW118689   1.822   3.945   3.377 -1.2685  0.6103  1.6748
 2410SOL    HW218690   1.915   3.831   3.374  0.5663 -1.4595  1.8086
 2411SOL     OW18691   0.697   3.847   3.289  0.1822 -0.5039  0.7471
 2411SOL    HW118692   0.689   3.889   3.375  0.6790  3.2915 -1.0928
 2411SOL    HW218693   0.738   3.768   3.324  1.8622 -0.0995 -0.3217
 2412SOL     OW18694   1.534   3.208   8.891  0.8371 -0.1311  0.2281
 2412SOL    HW118695   1.478   3.136   8.862 -0.1237  1.1702 -1.1300
 2412SOL    HW218696   1.487   3.283   8.855  3.2148  0.7803 -0.9469
 2413SOL     OW18697   1.958   3.073   0.565  0.9255 -0.1022  0.2689
 2413SOL    HW118698   2.029   3.022   0.604 -0.6642 -1.2728  1.6044
 2413SOL    HW218699   1.967   3.155   0.614  0.1132  0.0805  0.1081
 2414SOL     OW18700   3.036   1.404  11.163 -0.2326  0.1196  0.0203
 2414SOL    HW118701   2.956   1.375  11.206 -0.5242 -1.8527 -1.8839
 2414SOL    HW218702   3.036   1.350  11.085 -0.1663  1.3287 -0.8265
 2415SOL     OW18703   2.427   0.899  16.980  0.6144 -0.0518 -0.2194
 2415SOL    HW118704   2.381   0.874  16.900 -0.7854  0.8075  0.3279
 2415SOL    HW218705   2.353   0.912  17.038  0.6082  0.9979 -0.4662
 2416SOL     OW18706   0.488   4.253  17.165  0.0146 -0.3335  0.0518
 2416SOL    HW118707   0.512   4.331  17.215 -0.1125 -1.0615  1.2610
 2416SOL    HW218708   0.418   4.292  17.113  2.5539 -1.4028 -4.1635
 2417SOL     OW18709   0.685   4.088  15.137 -1.1399 -0.0118  0.0548
 2417SOL    HW118710   0.658   4.173  15.102  0.1835  0.6654  0.6967
 2417SOL    HW218711   0.644   4.089  15.224 -0.3214  0.1042  0.4358
 2418SOL     OW18712   1.908   3.348  16.344 -0.2351  0.4449  0.2966
 2418SOL    HW118713   1.875   3.408  16.277  0.1515 -0.6628 -0.8936
 2418SOL    HW218714   1.959   3.281  16.299 -1.2602  0.0204 -0.2262
 2419SOL     OW18715   4.401   3.573   4.576 -0.1746 -0.6990  0.1227
 2419SOL    HW118716   4.417   3.479   4.567 -1.3526 -0.7399 -1.4507
 2419SOL    HW218717   4.351   3.596   4.498 -2.2991 -0.7641  1.4635
 2420SOL     OW18718   2.546   0.177   4.984 -0.0454  0.1433 -0.4875
 2420SOL    HW118719   2.541   0.272   4.997  1.5062  0.6044 -3.0486
 2420SOL    HW218720   2.474   0.168   4.921 -1.3068  3.3054  0.5182
 2421SOL     OW18721   2.199   0.335   7.277  0.3612 -0.1846 -0.2400
 2421SOL    HW118722   2.152   0.376   7.350  0.0509  1.9214 -1.6164
 2421SOL    HW218723   2.231   0.254   7.318  1.4999  0.3869  0.0002
 2422SOL     OW18724   3.955   1.617   6.514 -0.1030 -0.0888 -0.8240
 2422SOL    HW118725   4.016   1.552   6.550 -3.4136 -1.6728  1.9266
 2422SOL    HW218726   3.928   1.659   6.596 -0.7660 -3.8493  0.8817
 2423SOL     OW18727   4.250   1.631   3.985 -0.1348 -0.2208  0.1853
 2423SOL    HW118728   4.249   1.674   4.071  0.3767  1.6571 -0.7653
 2423SOL    HW218729   4.221   1.540   4.000  0.7854 -0.4491  0.5869
 2424SOL     OW18730   0.464   3.386  16.191 -0.0717 -0.3829  0.0847
 2424SOL    HW118731   0.400   3.330  16.146  0.4186 -0.1480 -0.8840
 2424SOL    HW218732   0.444   3.354  16.279 -2.3489  1.0372  0.0909
 2425SOL     OW18733   1.772   4.385  10.770  0.5512 -0.2092  0.1438
 2425SOL    HW118734   1.722   4.372  10.851 -1.0795  1.5202 -0.5694
 2425SOL    HW218735   1.714   4.433  10.710 -0.3611 -1.9504 -0.3507
 2426SOL     OW18736   4.191   4.422   2.218 -0.3307  0.3323 -0.0475
 2426SOL    HW118737   4.206   4.369   2.140 -0.9002  0.6034 -0.3422
 2426SOL    HW218738   4.279   4.454   2.240 -0.8915  1.1364  1.0039
 2427SOL     OW18739   3.923   3.935   4.921  0.0710 -0.4374  0.4632
 2427SOL    HW118740   3.938   4.004   4.986  2.6392 -0.3356 -0.2245
 2427SOL    HW218741   3.983   3.867   4.951  3.0796  1.1583 -1.7680
 2428SOL     OW18742   4.689   1.309   3.910 -0.3777  0.0065 -0.2398
 2428SOL    HW118743   4.684   1.273   3.821 -2.4012  2.2353 -1.0371
 2428SOL    HW218744   4.661   1.398   3.891 -0.7484 -0.1761 -0.5541
 2429SOL     OW18745   3.259   3.744   0.673 -0.0782 -0.5111  0.6099
 2429SOL    HW118746   3.354   3.737   0.683 -0.1185 -0.3616  1.1067
 2429SOL    HW218747   3.251   3.709   0.584 -0.0555  1.7921 -0.2898
 2430SOL     OW18748   4.514   2.249   7.885  0.3779  0.4463  0.4616
 2430SOL    HW118749   4.583   2.315   7.881 -0.3259  1.1019 -0.5375
 2430SOL    HW218750   4.476   2.248   7.797  0.6158  1.0530  0.3540
 2431SOL     OW18751   4.668   2.725  12.735 -0.2210  0.1943  0.3267
 2431SOL    HW118752   4.614   2.646  12.730 -0.4459  0.2685  1.5174
 2431SOL    HW218753   4.648   2.742  12.827 -2.0216  0.5012 -0.1245
 2432SOL     OW18754   4.421   4.516   7.459 -0.4316  0.4829 -0.2882
 2432SOL    HW118755   4.375   4.435   7.481 -0.9498  1.0528  0.7008
 2432SOL    HW218756   4.496   4.480   7.410  0.6532 -0.9523  2.3989
 2433SOL     OW18757   0.618   4.317  12.506 -0.5252  0.0149  0.8850
 2433SOL    HW118758   0.617   4.225  12.529 -2.8491  0.0176  0.7684
 2433SOL    HW218759   0.537   4.332  12.458  1.0318 -2.3603 -2.5109
 2434SOL     OW18760   2.874   3.406   4.596 -0.2694  0.2148 -0.3373
 2434SOL    HW118761   2.830   3.342   4.652  2.5535  1.6166  3.4788
 2434SOL    HW218762   2.895   3.358   4.516 -0.7086  1.5437 -1.2399
 2435SOL     OW18763   1.833   1.171  12.234  0.1329 -0.2015 -0.5587
 2435SOL    HW118764   1.803   1.107  12.170 -1.2952  0.4461 -0.5249
 2435SOL    HW218765   1.759   1.231  12.240  0.3388 -0.0794  0.6840
 2436SOL     OW18766   1.000   3.690   9.382  0.3134  0.4516 -0.1067
 2436SOL    HW118767   0.976   3.649   9.465 -1.2383 -1.0356 -1.2966
 2436SOL    HW218768   0.927   3.752   9.373 -0.2508 -0.4174 -1.5343
 2437SOL     OW18769   1.241   3.293  14.974 -0.3126 -0.8034 -0.0025
 2437SOL    HW118770   1.245   3.204  15.009  2.0645 -0.6983 -0.0354
 2437SOL    HW218771   1.333   3.318  14.982 -0.2807 -0.7768 -0.4987
 2438SOL     OW18772   2.095   4.295  15.487 -0.1147  0.0960  0.3422
 2438SOL    HW118773   2.048   4.233  15.542 -0.5915  1.2102  1.1930
 2438SOL    HW218774   2.016   4.339  15.456  0.2997  0.6019  0.0112
 2439SOL     OW18775   4.350   0.320   6.055 -0.5366 -0.6726  0.2895
 2439SOL    HW118776   4.265   0.362   6.050 -0.1449  0.5227  3.4130
 2439SOL    HW218777   4.359   0.321   6.151 -0.7735 -0.8164  0.3141
 2440SOL     OW18778   0.159   2.254  10.170  0.0647 -0.0612 -0.6442
 2440SOL    HW118779   0.243   2.282  10.206 -0.4540 -2.3625  2.3500
 2440SOL    HW218780   0.177   2.164  10.145  0.3949 -0.8936  2.5423
 2441SOL     OW18781   4.416   2.720   9.446 -0.4199  0.8000  0.0697
 2441SOL    HW118782   4.329   2.693   9.477 -0.4811 -1.0166 -1.6817
 2441SOL    HW218783   4.450   2.631   9.440  0.2250  0.8262  2.9964
 2442SOL     OW18784   4.423   1.712   7.790  0.3016  0.5821  0.7532
 2442SOL    HW118785   4.404   1.758   7.709  0.8372 -1.5899 -0.6031
 2442SOL    HW218786   4.461   1.634   7.750  2.8198  0.7035  2.8999
 2443SOL     OW18787   3.156   4.201  11.669  0.0986 -0.1882  0.5820
 2443SOL    HW118788   3.114   4.203  11.583  0.4557  2.5593  0.4928
 2443SOL    HW218789   3.196   4.287  11.661 -0.0377 -0.2446 -0.6670
 2444SOL     OW18790   3.953   0.807  14.666 -0.4960 -0.1711  0.4875
 2444SOL    HW118791   4.046   0.804  14.688 -0.2777  1.1577 -0.2772
 2444SOL    HW218792   3.961   0.846  14.579  1.3839  2.7825  1.9843
 2445SOL     OW18793   3.675   2.636   6.253  0.1800 -0.0888 -0.2875
 2445SOL    HW118794   3.706   2.723   6.276  1.4661 -0.9168  1.1174
 2445SOL    HW218795   3.597   2.653   6.200 -0.3676 -0.8032  0.2851
 2446SOL     OW18796   0.596   0.324  12.435  0.4226 -0.8983  0.2530
 2446SOL    HW118797   0.513   0.320  12.389 -0.3016  2.3773  1.3170
 2446SOL    HW218798   0.648   0.253  12.395  1.5505  0.3346 -0.4628
 2447SOL     OW18799   1.945   4.011  15.398  0.4762 -0.2207  0.1745
 2447SOL    HW118800   1.893   4.024  15.477  0.6139  0.2109  0.1926
 2447SOL    HW218801   1.986   3.926  15.417 -1.1252 -1.0362  0.0323
 2448SOL     OW18802   0.116   1.318   8.807 -0.7231  0.3440  0.2570
 2448SOL    HW118803   0.033   1.361   8.788 -0.0451  0.2539 -3.0106
 2448SOL    HW218804   0.133   1.286   8.718  0.1315  1.8753 -0.1357
 2449SOL     OW18805   0.326   2.330  17.182 -0.0148  0.4571 -0.0823
 2449SOL    HW118806   0.319   2.395  17.251  2.6390 -0.9361  1.5039
 2449SOL    HW218807   0.420   2.314  17.184  0.0621  0.3615 -4.0615
 2450SOL     OW18808   3.914   0.662   4.570 -0.2672 -0.8706 -0.3265
 2450SOL    HW118809   3.984   0.684   4.630 -0.5904  1.1915 -0.6738
 2450SOL    HW218810   3.950   0.580   4.536  3.2164  0.1813  0.8678
 2451SOL     OW18811   2.860   1.302  14.635 -0.5294  0.5111 -0.1812
 2451SOL    HW118812   2.764   1.307  14.639 -0.6687 -0.3076 -2.4202
 2451SOL    HW218813   2.875   1.366  14.566  0.6733  2.2243  1.6791
 2452SOL     OW18814   0.246   2.526   5.444  0.3354  0.1762 -0.0996
 2452SOL    HW118815   0.164   2.546   5.398  0.0279 -0.9094 -0.0409
 2452SOL    HW218816   0.297   2.606   5.432 -0.4586  1.1108  2.9383
 2453SOL     OW18817   0.096   0.137  13.520 -0.2005  0.2794  0.1392
 2453SOL    HW118818   0.020   0.164  13.571 -0.1679  1.1326 -0.2623
 2453SOL    HW218819   0.172   0.177  13.563  0.0363  0.5740 -0.5621
 2454SOL     OW18820   1.047   1.364  16.121  0.0061  0.0162 -0.5177
 2454SOL    HW118821   1.009   1.436  16.173 -1.0028 -1.1357  0.3389
 2454SOL    HW218822   1.068   1.423  16.048  2.5461 -0.5076 -0.1848
 2455SOL     OW18823   1.919   0.820   9.241  0.2043  0.7311 -0.7084
 2455SOL    HW118824   1.847   0.883   9.244  1.0286  1.5537  1.5823
 2455SOL    HW218825   1.989   0.885   9.234  0.5077  0.3368 -1.3483
 2456SOL     OW18826   4.134   1.420   1.336 -0.1834 -0.3136 -0.3059
 2456SOL    HW118827   4.208   1.427   1.275  2.0638 -3.5503  2.0299
 2456SOL    HW218828   4.064   1.403   1.273 -0.9530  0.6307  0.3028
 2457SOL     OW18829   2.828   3.495  10.278 -0.7016 -0.3267  0.4614
 2457SOL    HW118830   2.747   3.533  10.312  0.0832  0.5262  1.3585
 2457SOL    HW218831   2.856   3.434  10.345 -0.3327 -0.9204 -0.2407
 2458SOL     OW18832   1.944   1.445  12.309  0.2360  0.2914  0.0499
 2458SOL    HW118833   2.008   1.412  12.246 -0.1897  0.1471 -0.3139
 2458SOL    HW218834   1.947   1.381  12.380  0.6010  0.9930  0.6637
 2459SOL     OW18835   1.476   1.802   5.441 -0.1027  0.0741 -0.5776
 2459SOL    HW118836   1.389   1.782   5.476  1.1334  0.2975  2.6154
 2459SOL    HW218837   1.528   1.737   5.489  0.2889  1.3879  0.7872
 2460SOL     OW18838   0.168   0.008   2.979 -0.1617  0.1285 -0.2052
 2460SOL    HW118839   0.212   0.008   3.064  0.0858  0.4932 -0.3314
 2460SOL    HW218840   0.146   0.099   2.956  2.0120  1.0451  1.3902
 2461SOL     OW18841   3.465   2.036   8.742 -0.0818  0.4083  0.5034
 2461SOL    HW118842   3.403   2.100   8.709  1.0691 -0.3936 -3.3179
 2461SOL    HW218843   3.401   1.965   8.748 -2.0448  2.0781 -0.6113
 2462SOL     OW18844   2.313   4.035   2.892  0.2713 -0.2386  0.0358
 2462SOL    HW118845   2.219   4.033   2.910  0.2199  1.8429  0.0504
 2462SOL    HW218846   2.321   3.971   2.822 -2.2649  2.0986 -2.3703
 2463SOL     OW18847   2.633   3.821  13.189 -0.8006  0.0314  0.2012
 2463SOL    HW118848   2.544   3.813  13.224 -1.0785 -0.2359 -0.5643
 2463SOL    HW218849   2.694   3.765  13.236  0.3515  1.3279  0.2393
 2464SOL     OW18850   0.800   4.091   5.161  0.3755 -0.0419 -0.0977
 2464SOL    HW118851   0.876   4.098   5.218  0.1307 -0.0998  0.2365
 2464SOL    HW218852   0.731   4.141   5.204  0.6846 -0.7980  1.2582
 2465SOL     OW18853   0.808   3.888   6.830  0.6403  0.2225 -0.2628
 2465SOL    HW118854   0.902   3.899   6.840  0.4173  0.5504  1.4113
 2465SOL    HW218855   0.795   3.811   6.885  1.7224  1.7225  2.0631
 2466SOL     OW18856   2.639   2.210   8.488  0.0366  0.1151 -0.7031
 2466SOL    HW118857   2.711   2.208   8.426  1.2339  0.3917  0.6687
 2466SOL    HW218858   2.561   2.222   8.434  0.8901  1.4314 -1.6564
 2467SOL     OW18859   3.156   3.558   5.820  0.6563 -0.0525 -0.1422
 2467SOL    HW118860   3.197   3.502   5.754 -0.3098 -1.7085  0.6753
 2467SOL    HW218861   3.200   3.540   5.903  0.0017 -1.3531 -0.0817
 2468SOL     OW18862   2.256   1.977   5.913  0.1593  0.3228 -0.0856
 2468SOL    HW118863   2.329   2.024   5.953 -0.7720 -0.8084  2.9802
 2468SOL    HW218864   2.293   1.973   5.825  0.1344 -1.7241 -0.0189
 2469SOL     OW18865   0.892   2.268   3.942 -0.3348  0.1885  0.1218
 2469SOL    HW118866   0.879   2.354   3.902  0.0438  1.7244  3.3635
 2469SOL    HW218867   0.845   2.220   3.873 -2.0242  2.6566 -0.4472
 2470SOL     OW18868   0.100   0.040   8.940  0.0288 -0.2611  0.6195
 2470SOL    HW118869   0.074   4.687   8.892  2.5233  0.2821 -1.6241
 2470SOL    HW218870   0.045   0.022   9.016  0.0556 -0.6666  0.5436
 2471SOL     OW18871   4.318   2.103  15.138 -0.0319 -0.3153 -0.2201
 2471SOL    HW118872   4.265   2.180  15.157 -0.9754 -0.5955 -1.7028
 2471SOL    HW218873   4.251   2.035  15.146 -0.5635  0.4565  1.7682
 2472SOL     OW18874   3.548   3.167   4.118  0.4610  0.2470 -0.5402
 2472SOL    HW118875   3.642   3.150   4.109  0.7766  1.6273  0.1304
 2472SOL    HW218876   3.548   3.261   4.131  1.1540  0.2045 -0.2397
 2473SOL     OW18877   3.942   2.366   6.387  0.6493 -0.0638  0.4430
 2473SOL    HW118878   4.018   2.396   6.337  0.2777 -1.1857 -0.7904
 2473SOL    HW218879   3.986   2.335   6.467  0.4141 -0.1361  0.5426
 2474SOL     OW18880   2.151   4.507  11.000 -0.2961 -0.4637  0.0080
 2474SOL    HW118881   2.135   4.601  10.998 -0.2082 -0.4203  1.6677
 2474SOL    HW218882   2.241   4.495  10.970 -0.3842 -2.9338  0.7084
 2475SOL     OW18883   1.966   4.153   1.864 -0.2123  0.1169  0.0540
 2475SOL    HW118884   2.021   4.221   1.825  1.4370  0.1778  2.5095
 2475SOL    HW218885   1.880   4.181   1.832 -0.0565 -2.0845 -2.3122
 2476SOL     OW18886   1.484   3.189  11.051  1.1656  0.0949  0.4853
 2476SOL    HW118887   1.465   3.184  11.144 -0.1975  1.3536  0.2829
 2476SOL    HW218888   1.513   3.280  11.042  0.7988  0.2872  1.3180
 2477SOL     OW18889   1.918   1.667   7.792  0.0286  0.2477 -0.1816
 2477SOL    HW118890   1.885   1.581   7.767 -1.3149  0.8024 -0.3321
 2477SOL    HW218891   1.844   1.718   7.757 -0.4976 -0.6840 -0.4410
 2478SOL     OW18892   3.002   3.701   4.633  0.4240  0.2344 -0.3882
 2478SOL    HW118893   2.933   3.649   4.590  1.2080  0.7150 -2.2423
 2478SOL    HW218894   3.070   3.701   4.565  1.0079  0.4383  0.1994
 2479SOL     OW18895   2.491   1.527   5.825 -0.0416  0.4391  0.1469
 2479SOL    HW118896   2.470   1.613   5.787 -0.8313  1.2726  2.4417
 2479SOL    HW218897   2.584   1.518   5.802 -0.2939 -1.1794 -0.2375
 2480SOL     OW18898   0.888   2.441   7.862 -0.0504 -0.4269  0.2096
 2480SOL    HW118899   0.836   2.517   7.835 -0.6019 -1.3555 -1.3629
 2480SOL    HW218900   0.908   2.446   7.956  0.5893  0.3625  0.0308
 2481SOL     OW18901   1.028   4.696   2.541 -0.5976 -0.4208  0.5575
 2481SOL    HW118902   1.092   4.716   2.609  0.3549  0.0140 -0.4664
 2481SOL    HW218903   0.958   0.034   2.551 -1.6444 -1.3180 -0.9069
 2482SOL     OW18904   1.440   2.810   8.179  0.3762 -0.4731 -0.0803
 2482SOL    HW118905   1.347   2.788   8.176 -0.3224  2.2936  0.9807
 2482SOL    HW218906   1.439   2.902   8.154 -1.7606 -0.6627 -0.6555
 2483SOL     OW18907   0.774   0.442   9.102 -0.7738 -0.0154  0.1242
 2483SOL    HW118908   0.765   0.525   9.055 -0.0295 -0.4069 -0.7053
 2483SOL    HW218909   0.711   0.457   9.173 -1.2131 -1.4511  0.0456
 2484SOL     OW18910   4.150   2.192  15.439 -0.0067  0.2188  0.4203
 2484SOL    HW118911   4.244   2.188  15.456  0.2999  0.0474 -1.2921
 2484SOL    HW218912   4.124   2.165  15.527 -1.7535  3.6010  0.9329
 2485SOL     OW18913   0.229   4.044  15.899  0.0493 -0.0951 -0.2461
 2485SOL    HW118914   0.190   4.056  15.986  0.4072  3.0645 -0.5178
 2485SOL    HW218915   0.306   4.101  15.901  1.1812 -1.6521 -0.0826
 2486SOL     OW18916   4.657   1.724   2.208 -0.3524 -0.5531 -0.2636
 2486SOL    HW118917   0.010   1.723   2.261 -0.0361 -0.5997 -0.7275
 2486SOL    HW218918   4.606   1.661   2.258 -2.8831  1.7473  0.0444
 2487SOL     OW18919   4.515   3.453   7.397  0.1638 -0.1579  0.0082
 2487SOL    HW118920   4.540   3.503   7.475  0.7383 -0.7499  0.2051
 2487SOL    HW218921   4.440   3.406   7.433  0.3698 -1.5567 -1.4059
 2488SOL     OW18922   2.405   3.690  17.660  0.1824 -0.2631  0.0130
 2488SOL    HW118923   2.353   3.747   0.010  1.5142 -0.2981  1.2719
 2488SOL    HW218924   2.362   3.714  17.578 -0.4815  0.2994  0.5264
 2489SOL     OW18925   1.223   1.539   6.682  0.2464  0.4506 -0.4158
 2489SOL    HW118926   1.252   1.592   6.607  0.1188 -2.0891 -2.2527
 2489SOL    HW218927   1.268   1.459   6.654  1.7624  0.8969  0.7778
 2490SOL     OW18928   3.104   1.528  14.774 -0.0800 -0.1972 -0.7684
 2490SOL    HW118929   3.052   1.486  14.842  0.9598  0.6712  0.5563
 2490SOL    HW218930   3.187   1.552  14.816 -1.0381  1.4818  0.1765
 2491SOL     OW18931   3.131   2.277   9.524 -0.1561  0.4338 -0.3455
 2491SOL    HW118932   3.159   2.287   9.615 -0.7692  0.4912 -0.1634
 2491SOL    HW218933   3.041   2.307   9.538  0.3385  0.9592  1.6363
 2492SOL     OW18934   4.100   0.817  14.097  0.0666 -0.2317  0.6150
 2492SOL    HW118935   4.180   0.838  14.145  2.0018 -0.4265 -2.5342
 2492SOL    HW218936   4.045   0.893  14.118 -3.6660 -3.0965  1.2400
 2493SOL     OW18937   4.304   0.147   5.513 -0.2330 -0.2616  0.1419
 2493SOL    HW118938   4.271   0.149   5.423  0.6537  1.6435 -0.1257
 2493SOL    HW218939   4.397   0.164   5.500 -0.6917  0.8339 -1.6491
 2494SOL     OW18940   2.207   4.666   4.347  0.7720 -0.0956 -0.0504
 2494SOL    HW118941   2.149   0.015   4.360  1.4947  0.1685  1.6362
 2494SOL    HW218942   2.283   4.687   4.401  0.3598 -0.1983  0.5708
 2495SOL     OW18943   2.265   0.870  14.532 -0.2814  0.2376 -0.0044
 2495SOL    HW118944   2.247   0.848  14.440  0.6373  0.5467 -0.2605
 2495SOL    HW218945   2.200   0.820  14.581 -0.8484  1.8009  0.8257
 2496SOL     OW18946   0.327   3.665   6.532 -0.5532 -0.6198 -0.0692
 2496SOL    HW118947   0.339   3.759   6.515  0.3331 -0.6772  0.2313
 2496SOL    HW218948   0.317   3.650   6.438  0.8961 -0.4459 -0.2640
 2497SOL     OW18949   2.069   2.372   5.768  0.3966 -0.5358  0.3333
 2497SOL    HW118950   2.046   2.459   5.799 -2.0040 -0.9735 -0.2133
 2497SOL    HW218951   2.164   2.370   5.755  0.5264 -1.2187  1.4025
 2498SOL     OW18952   3.774   1.419   7.849 -0.0740  0.2154 -0.0345
 2498SOL    HW118953   3.711   1.397   7.917  1.4660 -0.6797  1.0951
 2498SOL    HW218954   3.831   1.478   7.899 -0.7325 -0.3714  1.3881
 2499SOL     OW18955   4.367   4.549   5.410 -0.2284  0.4385 -0.1764
 2499SOL    HW118956   4.439   4.612   5.397  1.1643 -0.7944  1.5796
 2499SOL    HW218957   4.352   4.531   5.317  0.4614  0.8199 -0.3665
 2500SOL     OW18958   4.247   1.965   1.855 -0.2443  0.3089  0.4875
 2500SOL    HW118959   4.301   1.903   1.807  0.6555  0.5178  1.2326
 2500SOL    HW218960   4.242   1.924   1.941 -1.6806  0.1381  0.3246
 2501SOL     OW18961   2.487   4.419   5.127  0.0778 -0.0827 -0.6746
 2501SOL    HW118962   2.446   4.383   5.049  1.0023 -0.1573 -1.1244
 2501SOL    HW218963   2.445   4.504   5.142 -2.0973 -0.9902 -1.5616
 2502SOL     OW18964   3.943   0.817   7.487  0.1972  0.2363 -0.0403
 2502SOL    HW118965   4.027   0.780   7.512 -1.0372 -2.0535  0.7903
 2502SOL    HW218966   3.969   0.909   7.487  1.5358 -0.1500  0.9013
 2503SOL     OW18967   2.271   0.663  17.089  0.2677  0.2578  0.0714
 2503SOL    HW118968   2.289   0.716  17.167 -0.3633 -0.0921  0.4547
 2503SOL    HW218969   2.211   0.717  17.038 -1.9233 -0.2433  2.0914
 2504SOL     OW18970   2.303   1.002   7.276 -0.2806 -0.5522  0.3623
 2504SOL    HW118971   2.244   1.027   7.347 -0.2274  0.9641 -0.1196
 2504SOL    HW218972   2.344   0.930   7.324  2.8867  1.8783  1.3276
 2505SOL     OW18973   2.625   4.512  11.460  0.4625  0.3963 -0.1096
 2505SOL    HW118974   2.716   4.494  11.435 -0.0233  1.6542 -2.7901
 2505SOL    HW218975   2.608   4.429  11.503  1.0586  0.6406  0.5885
 2506SOL     OW18976   1.572   1.284   0.792 -0.3956 -0.0310 -0.2029
 2506SOL    HW118977   1.478   1.274   0.777  0.0465 -1.1819 -2.1309
 2506SOL    HW218978   1.570   1.284   0.888 -1.4465 -0.3244 -0.2326
 2507SOL     OW18979   1.548   0.220   4.893 -0.3694 -0.0581  0.3159
 2507SOL    HW118980   1.512   0.153   4.952  1.7912  0.5048  2.2815
 2507SOL    HW218981   1.480   0.211   4.826  0.9423 -0.6340 -0.9398
 2508SOL     OW18982   0.534   2.853   7.795  0.1760  0.1167 -0.0924
 2508SOL    HW118983   0.598   2.924   7.782  1.0814 -0.4895  1.0959
 2508SOL    HW218984   0.481   2.905   7.855  2.2750 -0.2099  2.0090
 2509SOL     OW18985   2.482   3.875   3.083 -0.1237  0.0697 -0.2224
 2509SOL    HW118986   2.555   3.849   3.027 -1.4272 -2.9368 -0.5042
 2509SOL    HW218987   2.416   3.899   3.018  0.3801  1.0869 -0.3547
 2510SOL     OW18988   0.490   3.879   1.688  0.0191 -0.3231 -0.0673
 2510SOL    HW118989   0.466   3.862   1.779  2.3490  2.6085  1.0652
 2510SOL    HW218990   0.546   3.804   1.667 -0.2551 -0.8127  0.9551
 2511SOL     OW18991   2.583   0.578   8.416 -0.7700 -0.1626 -0.3874
 2511SOL    HW118992   2.616   0.510   8.358  1.3690  1.6450 -1.2969
 2511SOL    HW218993   2.665   0.627   8.424 -0.0416 -1.8271  2.0051
 2512SOL     OW18994   0.858   3.223   4.772 -0.0894  0.3762 -0.2511
 2512SOL    HW118995   0.881   3.147   4.717  1.9809  1.3297 -0.6827
 2512SOL    HW218996   0.937   3.275   4.782 -0.5177  0.5121  2.3233
 2513SOL     OW18997   2.696   3.162   6.739  0.0807 -0.6734 -0.4745
 2513SOL    HW118998   2.700   3.194   6.829  1.7602  0.7781 -1.0665
 2513SOL    HW218999   2.771   3.202   6.695 -0.3962  0.4263 -0.2948
 2514SOL     OW19000   3.355   4.264  13.979  0.2327  0.0853 -0.5685
 2514SOL    HW119001   3.438   4.295  14.017  0.5143  1.3914 -2.2433
 2514SOL    HW219002   3.300   4.334  14.013 -0.4414 -1.1585  0.8881
 2515SOL     OW19003   2.150   1.637   7.294 -0.2849  0.0118  0.1130
 2515SOL    HW119004   2.164   1.731   7.305  0.7633 -0.4730  2.8664
 2515SOL    HW219005   2.183   1.624   7.205  0.9156 -1.7546  0.8189
 2516SOL     OW19006   2.030   3.399   9.832 -0.2923 -0.1503  0.1164
 2516SOL    HW119007   2.104   3.341   9.852 -1.1626 -1.2685  0.0909
 2516SOL    HW219008   1.968   3.336   9.797 -0.6285  0.2962 -0.0896
 2517SOL     OW19009   4.215   2.287  14.818 -0.7675  0.1569  0.4605
 2517SOL    HW119010   4.130   2.297  14.860 -0.2432  2.1497  1.0087
 2517SOL    HW219011   4.182   2.237  14.744 -0.5258 -0.4526  0.7600
 2518SOL     OW19012   0.765   0.663   5.859  0.0624  0.6067 -0.1608
 2518SOL    HW119013   0.732   0.683   5.771  1.8069  0.8669 -0.7523
 2518SOL    HW219014   0.819   0.741   5.875  0.7952  0.2335 -0.7957
 2519SOL     OW19015   0.064   1.413   7.262  0.0085 -0.3580  0.5284
 2519SOL    HW119016   0.156   1.419   7.289  0.0273 -0.7102  0.5431
 2519SOL    HW219017   0.012   1.406   7.342 -3.0028  1.3335 -1.3045
 2520SOL     OW19018   4.119   3.658  11.390 -0.0950  0.2691  0.4002
 2520SOL    HW119019   4.214   3.667  11.387 -0.0323 -1.8285 -3.4667
 2520SOL    HW219020   4.107   3.640  11.483  0.5897 -0.3152  0.3701
 2521SOL     OW19021   0.424   4.228   6.663  0.0619 -0.2426 -0.4201
 2521SOL    HW119022   0.499   4.257   6.611  1.4630 -0.8096  1.2511
 2521SOL    HW219023   0.392   4.313   6.694  1.0827  1.1430 -3.2137
 2522SOL     OW19024   3.846   1.262  15.380  0.3903 -0.1026 -0.1797
 2522SOL    HW119025   3.837   1.174  15.342  3.0912 -0.3385 -0.2385
 2522SOL    HW219026   3.936   1.267  15.412  0.5042 -0.6400 -0.4191
 2523SOL     OW19027   0.629   1.425   1.809  0.0218 -0.4540  0.2646
 2523SOL    HW119028   0.691   1.467   1.749  2.9497 -0.6057  3.1934
 2523SOL    HW219029   0.676   1.347   1.836 -1.3372 -0.6247  2.1031
 2524SOL     OW19030   4.081   1.893   1.554 -0.5110  1.0802 -0.0370
 2524SOL    HW119031   4.099   1.800   1.543 -2.6053  1.0098 -3.0943
 2524SOL    HW219032   4.155   1.926   1.505  0.9688 -2.5148 -0.2203
 2525SOL     OW19033   1.299   1.914   6.847 -0.3399  0.1443  0.1191
 2525SOL    HW119034   1.248   1.904   6.767  1.8850 -1.6312 -1.0734
 2525SOL    HW219035   1.266   1.839   6.896 -0.7348  0.7532  0.7871
 2526SOL     OW19036   0.565   0.614   6.763  0.2379  0.1223  0.5916
 2526SOL    HW119037   0.637   0.647   6.817  0.6256  0.3084 -0.0318
 2526SOL    HW219038   0.568   0.519   6.776  0.0949  0.4509  2.9670
 2527SOL     OW19039   1.609   2.988  15.014 -0.1694  0.5566  0.2057
 2527SOL    HW119040   1.689   2.976  15.065  1.0270  1.2135 -1.5245
 2527SOL    HW219041   1.552   3.017  15.086 -1.5809  0.0778 -0.7092
 2528SOL     OW19042   1.346   2.741  17.209  0.4635 -0.1940  0.0276
 2528SOL    HW119043   1.440   2.723  17.203  0.5546  1.0963 -2.2836
 2528SOL    HW219044   1.318   2.655  17.241  0.1533  0.2639  0.9936
 2529SOL     OW19045   2.369   0.437   6.508 -0.1987  0.6549  0.4870
 2529SOL    HW119046   2.294   0.379   6.496  0.2778  0.1331  0.0130
 2529SOL    HW219047   2.319   0.516   6.489  1.7493  1.4907 -1.1825
 2530SOL     OW19048   3.843   0.353   4.653 -0.1608  0.2781 -0.3293
 2530SOL    HW119049   3.874   0.360   4.563 -3.1392 -0.1938 -1.3806
 2530SOL    HW219050   3.922   0.332   4.704  0.8682 -1.3950 -2.6164
 2531SOL     OW19051   1.298   2.891  16.435  0.9156  0.0221  0.2002
 2531SOL    HW119052   1.259   2.846  16.510 -1.7289  1.3109 -0.3855
 2531SOL    HW219053   1.260   2.978  16.447  2.3673  0.3251  2.5325
 2532SOL     OW19054   0.331   1.944   5.249 -0.5022  0.3049  0.2517
 2532SOL    HW119055   0.351   1.876   5.313 -0.2455  0.3762  0.2480
 2532SOL    HW219056   0.421   1.975   5.243 -0.5112  0.1887 -0.5091
 2533SOL     OW19057   1.267   3.042   5.484 -0.3840 -0.4103  0.3309
 2533SOL    HW119058   1.254   3.068   5.575 -0.3964 -0.8979  0.4667
 2533SOL    HW219059   1.175   3.046   5.457  0.8273 -0.6205 -3.8032
 2534SOL     OW19060   0.756   1.506   4.224  0.6285  0.0977  0.4478
 2534SOL    HW119061   0.790   1.418   4.241 -0.1782 -0.0287  1.4007
 2534SOL    HW219062   0.667   1.473   4.212  1.1467 -0.7037 -1.2191
 2535SOL     OW19063   4.178   1.361   2.989 -0.4633 -0.2498 -0.0802
 2535SOL    HW119064   4.091   1.334   3.019 -0.5229 -0.7992 -0.7789
 2535SOL    HW219065   4.220   1.293   3.041  2.1646 -1.0421 -3.2643
 2536SOL     OW19066   0.184   2.607   9.407 -0.0843  0.5708  0.3229
 2536SOL    HW119067   0.126   2.601   9.483  1.3703  2.9529  1.6289
 2536SOL    HW219068   0.125   2.553   9.356  0.2105 -0.5272  1.1397
 2537SOL     OW19069   0.191   2.078  13.656  0.3563 -0.0386 -0.0381
 2537SOL    HW119070   0.197   1.993  13.611 -0.0774 -0.6887  1.1442
 2537SOL    HW219071   0.105   2.107  13.624  0.0999 -2.7948 -1.8856
 2538SOL     OW19072   1.787   0.840   3.781  0.0580 -0.0349 -0.0777
 2538SOL    HW119073   1.699   0.874   3.763 -0.3191 -0.0099  1.8872
 2538SOL    HW219074   1.779   0.816   3.873  0.2719 -1.1821 -0.3536
 2539SOL     OW19075   0.573   2.177   7.414  0.6177  1.0941  0.2434
 2539SOL    HW119076   0.526   2.193   7.332 -0.9393  0.8433  1.0914
 2539SOL    HW219077   0.512   2.121   7.461  1.2339 -0.9457 -1.3272
 2540SOL     OW19078   4.093   4.031  11.356  0.5484 -0.1732  0.0257
 2540SOL    HW119079   4.148   4.087  11.302  1.3313 -0.9665  0.0075
 2540SOL    HW219080   4.079   4.091  11.430  2.5777 -0.3811  0.5626
 2541SOL     OW19081   2.310   0.960   6.522  0.2531 -0.6608 -0.0599
 2541SOL    HW119082   2.383   0.983   6.466 -0.3771  0.4736 -0.4131
 2541SOL    HW219083   2.353   0.932   6.603 -0.7760 -0.9407  0.3931
 2542SOL     OW19084   2.186   3.236   1.127 -0.0800 -0.0226  0.6197
 2542SOL    HW119085   2.128   3.194   1.065 -1.9209  2.9721  0.2974
 2542SOL    HW219086   2.131   3.303   1.168  1.0867  1.0232  0.5111
 2543SOL     OW19087   3.348   4.629   0.970 -0.2073  0.1298  0.5413
 2543SOL    HW119088   3.419   4.691   0.984 -0.6052  0.2700  1.9027
 2543SOL    HW219089   3.284   4.668   1.030  0.6324  1.2190  0.7118
 2544SOL     OW19090   0.226   1.837  16.062 -0.1915  0.2995  0.1475
 2544SOL    HW119091   0.181   1.773  16.008  2.2111 -1.4835  0.2517
 2544SOL    HW219092   0.212   1.805  16.151  0.2119  0.3993  0.2496
 2545SOL     OW19093   4.620   2.022   1.887 -0.2052  0.0157 -0.3348
 2545SOL    HW119094   4.614   2.008   1.982 -1.4647  1.1294 -0.2555
 2545SOL    HW219095   4.612   1.937   1.843 -0.3971  0.6977 -1.6129
 2546SOL     OW19096   1.355   4.366  12.544  0.3496  0.4362  0.8923
 2546SOL    HW119097   1.343   4.379  12.450  0.9895 -0.3969  0.7026
 2546SOL    HW219098   1.376   4.455  12.573  2.5857 -0.1817  1.1336
 2547SOL     OW19099   1.915   1.946   7.206  0.2167 -0.1954  0.3846
 2547SOL    HW119100   1.831   1.927   7.248  1.3242 -2.9348  1.3471
 2547SOL    HW219101   1.890   2.029   7.166 -0.4192 -0.7177 -0.2916
 2548SOL     OW19102   1.076   2.651   2.455  0.1811 -0.2744  0.2174
 2548SOL    HW119103   1.009   2.589   2.484  0.6942  0.1676  2.4121
 2548SOL    HW219104   1.022   2.702   2.395  0.7811  0.1225  0.0062
 2549SOL     OW19105   3.528   0.288  14.224 -0.3076 -0.4734 -0.0376
 2549SOL    HW119106   3.623   0.296  14.228 -0.3403  0.7697 -2.1125
 2549SOL    HW219107   3.523   0.199  14.260  1.1217  0.9158  3.6022
 2550SOL     OW19108   0.915   4.706  17.313  0.2084 -0.0043 -0.1429
 2550SOL    HW119109   1.009   4.696  17.295 -0.0986 -1.0634 -1.1384
 2550SOL    HW219110   0.900   0.071  17.288  0.7931  0.3159  0.6933
 2551SOL     OW19111   0.599   0.184   9.064 -0.9278 -0.1399 -0.6653
 2551SOL    HW119112   0.657   0.260   9.075  0.8577 -1.6179  0.0239
 2551SOL    HW219113   0.572   0.168   9.154 -0.7306  0.3527 -0.5185
 2552SOL     OW19114   4.092   3.118   8.204  0.4381  0.1191  0.3090
 2552SOL    HW119115   4.188   3.122   8.209  0.4052  2.1116 -0.8650
 2552SOL    HW219116   4.075   3.043   8.148 -0.5497 -1.0248  2.1333
 2553SOL     OW19117   2.467   2.597   3.975  0.2512  0.1260 -0.1007
 2553SOL    HW119118   2.497   2.506   3.976 -1.3129 -0.4420 -3.0117
 2553SOL    HW219119   2.437   2.590   4.066  2.0761 -2.2771  0.3036
 2554SOL     OW19120   1.137   1.980   4.829  0.3550 -0.8308  0.6941
 2554SOL    HW119121   1.189   2.054   4.799  0.0673 -1.4148 -1.1969
 2554SOL    HW219122   1.142   1.921   4.754 -2.0860 -1.7138  1.2281
 2555SOL     OW19123   3.905   0.569   5.822  0.0088 -0.7247  0.6124
 2555SOL    HW119124   3.848   0.631   5.868  0.3100  0.4694 -0.6049
 2555SOL    HW219125   3.856   0.488   5.833 -1.7211  0.3261  0.5591
 2556SOL     OW19126   1.979   4.174   6.167 -1.1295  0.1764  0.4396
 2556SOL    HW119127   2.017   4.184   6.254  1.6234  0.5320 -0.8092
 2556SOL    HW219128   2.015   4.090   6.139 -4.1106 -1.5363  1.7405
 2557SOL     OW19129   0.873   1.362   2.866 -0.1724  0.0437 -0.3836
 2557SOL    HW119130   0.944   1.391   2.923  0.7558 -2.0313 -0.5011
 2557SOL    HW219131   0.813   1.437   2.865  0.9646  0.9702  1.1105
 2558SOL     OW19132   3.010   1.456   4.132  0.1113  0.1965 -0.2960
 2558SOL    HW119133   2.990   1.536   4.083  2.6651  0.1259 -1.4534
 2558SOL    HW219134   3.105   1.453   4.120 -0.2243 -1.8126 -2.3923
 2559SOL     OW19135   4.200   4.206   6.354  0.3823 -0.3578 -0.6121
 2559SOL    HW119136   4.161   4.153   6.284  0.2990 -0.7141 -0.2990
 2559SOL    HW219137   4.293   4.183   6.350  0.5418  0.1136  0.3310
 2560SOL     OW19138   4.623   2.418   6.622  0.2875 -0.2887 -0.4408
 2560SOL    HW119139   4.620   2.513   6.634  0.4008 -0.1779 -1.2746
 2560SOL    HW219140   4.645   2.423   6.529  1.5228  2.0880 -0.0254
 2561SOL     OW19141   3.335   1.083  13.354 -0.3673 -0.1483 -0.3067
 2561SOL    HW119142   3.245   1.081  13.387 -0.9997 -0.4350 -2.0509
 2561SOL    HW219143   3.322   1.074  13.259 -0.5634 -0.9003 -0.2052
 2562SOL     OW19144   1.425   3.451   2.820 -0.9309 -0.1942  0.4307
 2562SOL    HW119145   1.331   3.434   2.813 -1.0882  0.6905  0.3619
 2562SOL    HW219146   1.430   3.540   2.785 -0.4794 -0.2998  0.2297
 2563SOL     OW19147   4.389   2.103  15.530  0.2632  0.1069 -0.7267
 2563SOL    HW119148   4.457   2.080  15.467 -1.5342 -2.7045 -1.6473
 2563SOL    HW219149   4.375   2.022  15.578  0.7925 -0.4126 -1.4527
 2564SOL     OW19150   1.961   1.893   1.238 -0.2496  0.0277 -0.0552
 2564SOL    HW119151   1.998   1.805   1.233  1.0245  0.6392 -1.3895
 2564SOL    HW219152   1.950   1.923   1.148 -0.4712  0.8612  0.2488
 2565SOL     OW19153   1.806   3.463   5.585  0.3425 -0.5177  0.0344
 2565SOL    HW119154   1.727   3.418   5.555  0.2042 -2.2576  2.9466
 2565SOL    HW219155   1.848   3.472   5.499  0.4656  0.8014  0.2331
 2566SOL     OW19156   2.795   1.128  15.453  0.4305 -0.1250 -0.6405
 2566SOL    HW119157   2.884   1.120  15.419 -0.5836 -0.8166 -3.1092
 2566SOL    HW219158   2.799   1.107  15.547 -1.9095  4.2093  0.4447
 2567SOL     OW19159   3.972   1.793   2.481 -0.6283 -0.2778  0.4924
 2567SOL    HW119160   3.888   1.812   2.523 -1.0193 -1.7844  0.3986
 2567SOL    HW219161   4.017   1.876   2.499 -2.0767  0.6121 -0.0506
 2568SOL     OW19162   2.022   0.462   9.883  0.4726 -0.7854  0.5201
 2568SOL    HW119163   1.975   0.380   9.891  1.4053 -1.2887  0.8599
 2568SOL    HW219164   2.079   0.460   9.960  2.7510 -0.3767 -1.1325
 2569SOL     OW19165   1.046   4.189   5.604  0.2654  0.7663 -0.2181
 2569SOL    HW119166   1.111   4.196   5.674 -0.8376  0.2665  0.8729
 2569SOL    HW219167   0.963   4.213   5.647  0.7912  2.6984 -0.2961
 2570SOL     OW19168   4.599   2.592   7.830  0.5826 -0.2020 -0.1157
 2570SOL    HW119169   4.526   2.634   7.876 -0.5964 -0.9420 -1.3095
 2570SOL    HW219170   4.566   2.551   7.750 -1.2615  1.6482 -0.2949
 2571SOL     OW19171   3.966   3.269   5.959 -0.4539 -0.4135  0.6492
 2571SOL    HW119172   3.951   3.249   5.866 -0.3984 -0.1171  0.5770
 2571SOL    HW219173   3.932   3.195   6.008 -0.5379 -0.0446  1.1448
 2572SOL     OW19174   0.443   4.640   8.691 -0.3453 -0.3895  0.2853
 2572SOL    HW119175   0.429   0.002   8.726 -1.2563 -0.3500 -0.1785
 2572SOL    HW219176   0.526   4.625   8.736  0.6732 -2.0372 -2.2064
 2573SOL     OW19177   4.661   0.336   4.471  0.4746 -0.0604  0.2749
 2573SOL    HW119178   0.018   0.308   4.434  0.4106  0.7055 -0.4484
 2573SOL    HW219179   4.601   0.343   4.396  0.8795  2.8071  0.2085
 2574SOL     OW19180   3.347   1.495   3.547 -0.2578 -0.1927  0.0522
 2574SOL    HW119181   3.280   1.468   3.484  0.9439 -0.5243 -1.0712
 2574SOL    HW219182   3.403   1.550   3.493 -1.5087  0.2840 -0.7589
 2575SOL     OW19183   3.827   3.055   6.069 -0.3914 -0.5050 -0.3205
 2575SOL    HW119184   3.756   3.054   6.133 -3.3695 -1.7290 -3.6885
 2575SOL    HW219185   3.834   2.966   6.037 -0.0477  0.7742 -3.7459
 2576SOL     OW19186   2.639   2.535   9.047 -0.2734  0.5018 -0.3908
 2576SOL    HW119187   2.598   2.620   9.028 -0.2231  0.2321 -1.7487
 2576SOL    HW219188   2.713   2.567   9.098 -0.7384 -0.3383  0.8193
 2577SOL     OW19189   4.236   3.622   1.963  0.0054 -0.2057 -0.4153
 2577SOL    HW119190   4.197   3.600   1.879 -0.8935 -0.4591  0.0721
 2577SOL    HW219191   4.311   3.672   1.931  1.1239 -0.3881  1.8423
 2578SOL     OW19192   0.780   1.276  15.142  0.0634  0.6512 -0.0208
 2578SOL    HW119193   0.685   1.280  15.130 -0.1382  0.8608  1.7596
 2578SOL    HW219194   0.804   1.243  15.055 -2.0210 -1.7421  0.3322
 2579SOL     OW19195   0.428   2.031  11.231  0.3833  0.0961 -0.2952
 2579SOL    HW119196   0.492   2.059  11.297 -1.1217  2.0461  0.3182
 2579SOL    HW219197   0.445   1.938  11.212  0.6512  0.2234 -0.6653
 2580SOL     OW19198   0.658   3.354   4.912 -0.3983  0.3090 -0.1768
 2580SOL    HW119199   0.681   3.442   4.882 -0.6093  0.8893  1.3611
 2580SOL    HW219200   0.724   3.291   4.883  0.1570  0.9569 -0.3355
 2581SOL     OW19201   2.513   1.643   8.566  0.2330 -0.3025 -0.0078
 2581SOL    HW119202   2.507   1.737   8.548  0.6689 -0.5007 -1.1167
 2581SOL    HW219203   2.552   1.648   8.654  0.9608 -2.0399 -0.2351
 2582SOL     OW19204   2.818   1.704   3.878 -0.1488  0.4634 -0.0157
 2582SOL    HW119205   2.906   1.679   3.849 -0.0710  2.6279 -1.6303
 2582SOL    HW219206   2.798   1.753   3.799 -1.9762  0.2889  0.3397
 2583SOL     OW19207   2.696   2.995   7.126 -0.0795  0.3899 -0.4343
 2583SOL    HW119208   2.661   2.910   7.098 -0.8599  0.1664  1.1774
 2583SOL    HW219209   2.699   3.043   7.044 -0.3860  1.0767 -0.0534
 2584SOL     OW19210   1.954   1.379  14.674  0.1870 -0.0515  0.5109
 2584SOL    HW119211   1.927   1.460  14.717  0.7974 -1.3488  3.3571
 2584SOL    HW219212   1.909   1.320  14.736 -0.7184  0.3349  0.2263
 2585SOL     OW19213   2.789   2.800   8.951 -0.7878 -0.4821  0.0100
 2585SOL    HW119214   2.784   2.871   9.015 -0.0290  0.9169 -1.4621
 2585SOL    HW219215   2.704   2.809   8.908 -0.4359 -0.1021 -0.6144
 2586SOL     OW19216   3.435   0.021  14.494 -0.1476 -0.2506 -0.0065
 2586SOL    HW119217   3.448   4.686  14.423 -0.0683 -0.8744  0.5487
 2586SOL    HW219218   3.494   0.096  14.484 -2.5760  1.4995 -1.3389
 2587SOL     OW19219   0.447   4.609   9.424 -0.0593  0.1888  0.3409
 2587SOL    HW119220   0.541   4.613   9.443 -0.5590  0.6240  2.7255
 2587SOL    HW219221   0.445   4.607   9.328  0.7246 -1.2736  0.3536
 2588SOL     OW19222   1.462   4.435   3.622 -0.7323 -0.0585 -0.3541
 2588SOL    HW119223   1.414   4.496   3.565  0.9526  0.1729 -1.5062
 2588SOL    HW219224   1.407   4.437   3.700 -1.5907 -0.8514 -0.9394
 2589SOL     OW19225   2.055   1.999  12.996  0.8262  0.1259 -0.6782
 2589SOL    HW119226   2.143   1.962  13.006  0.6441  0.0464  0.6417
 2589SOL    HW219227   2.044   2.049  13.077  1.3778 -0.4461 -0.2450
 2590SOL     OW19228   0.721   0.264   6.215 -0.0787  0.1695 -0.1288
 2590SOL    HW119229   0.740   0.203   6.286  0.2405 -1.1196 -1.3154
 2590SOL    HW219230   0.731   0.204   6.141 -0.1127  1.1508 -0.9278
 2591SOL     OW19231   1.132   3.122   9.175  0.5219 -0.1982  0.8220
 2591SOL    HW119232   1.149   3.031   9.150 -0.1682 -0.4267  1.1872
 2591SOL    HW219233   1.085   3.094   9.253  0.7534  1.3268  1.5070
 2592SOL     OW19234   3.054   4.222   7.123  0.5426  0.6755  0.4662
 2592SOL    HW119235   2.995   4.149   7.141  2.7167 -0.9261  1.2177
 2592SOL    HW219236   3.056   4.234   7.028 -0.1699  1.6261  0.5752
 2593SOL     OW19237   0.215   2.385   3.489 -0.3482 -0.3396 -0.2392
 2593SOL    HW119238   0.240   2.297   3.460 -0.0243  0.5523 -2.6925
 2593SOL    HW219239   0.214   2.382   3.584  1.2320  2.0986 -0.1362
 2594SOL     OW19240   0.941   3.938  17.630 -0.0605  0.2627 -0.1015
 2594SOL    HW119241   0.966   4.014  17.578  2.1636  0.9602  2.0172
 2594SOL    HW219242   0.886   3.894  17.565  1.7470  0.3407 -1.6818
 2595SOL     OW19243   3.197   3.170  15.624  0.0683 -0.0485  0.0807
 2595SOL    HW119244   3.139   3.244  15.608 -0.8432 -1.0076 -1.0082
 2595SOL    HW219245   3.282   3.210  15.606  1.5197 -2.3988  1.7597
 2596SOL     OW19246   4.372   2.196   3.501 -0.1216 -0.1554 -0.2688
 2596SOL    HW119247   4.316   2.136   3.451 -0.9308 -0.2756  0.8015
 2596SOL    HW219248   4.386   2.260   3.431  0.4936  0.7319  0.6870
 2597SOL     OW19249   0.990   3.429  16.776 -0.5688 -0.7346 -0.0421
 2597SOL    HW119250   0.896   3.448  16.768 -0.5381 -0.8393 -0.6445
 2597SOL    HW219251   1.014   3.440  16.868  0.2145  0.3867 -0.3850
 2598SOL     OW19252   1.603   0.664  15.524  0.4357  0.3747  0.7458
 2598SOL    HW119253   1.659   0.722  15.471 -0.9029  1.3907  0.4399
 2598SOL    HW219254   1.670   0.615  15.571  1.8851  1.3490 -0.2820
 2599SOL     OW19255   4.333   2.210   5.076  0.0918 -0.5043 -0.2176
 2599SOL    HW119256   4.382   2.131   5.050  0.3797 -0.6893  0.8864
 2599SOL    HW219257   4.353   2.208   5.169  0.5015 -0.3458 -0.3029
 2600SOL     OW19258   0.432   1.145  16.954  0.1049  0.3847  0.7767
 2600SOL    HW119259   0.503   1.111  17.009  0.1806  0.7576  0.9092
 2600SOL    HW219260   0.391   1.074  16.904  0.5018  0.1604  0.7668
 2601SOL     OW19261   3.939   1.711   6.981  0.2133 -0.0414 -0.2863
 2601SOL    HW119262   3.940   1.649   7.054 -0.9738 -0.3409 -0.5160
 2601SOL    HW219263   3.916   1.788   7.033  0.7530 -0.5989  0.7788
 2602SOL     OW19264   0.376   3.991   2.304 -0.4188 -0.2018 -0.6694
 2602SOL    HW119265   0.288   3.970   2.337  0.6224 -1.0180  1.6192
 2602SOL    HW219266   0.354   4.062   2.245  2.1034  1.5218  0.4728
 2603SOL     OW19267   4.386   0.911   9.072  0.3679 -0.1729  0.4293
 2603SOL    HW119268   4.366   1.004   9.071 -0.9107 -0.4880 -1.6755
 2603SOL    HW219269   4.327   0.880   9.141 -1.6635  0.0166 -1.2343
 2604SOL     OW19270   0.709   4.516   8.469 -0.4602  0.3226 -0.6884
 2604SOL    HW119271   0.754   4.433   8.452 -0.1484  0.1100  1.1672
 2604SOL    HW219272   0.627   4.490   8.426 -1.4826  2.0575  0.1742
 2605SOL     OW19273   4.654   2.212  13.451 -0.2353 -0.4073  0.5186
 2605SOL    HW119274   4.559   2.227  13.449 -0.3820 -1.3747  0.4888
 2605SOL    HW219275   4.669   2.156  13.527 -1.3366 -0.4770  0.6865
 2606SOL     OW19276   0.873   2.255   0.931  0.0552  0.3664 -0.3302
 2606SOL    HW119277   0.861   2.171   0.975 -1.2417 -1.2707 -3.8161
 2606SOL    HW219278   0.892   2.240   0.838  1.4773 -0.2802  0.0629
 2607SOL     OW19279   0.159   3.603   6.973 -0.2695  0.2236 -0.0911
 2607SOL    HW119280   0.116   3.687   6.955  1.6701  1.4880  1.1054
 2607SOL    HW219281   0.172   3.564   6.887  0.4116 -0.2242  0.2126
 2608SOL     OW19282   4.257   2.155   7.709  0.2375 -0.2256  0.3586
 2608SOL    HW119283   4.246   2.159   7.804  1.0308 -2.1455  0.5327
 2608SOL    HW219284   4.278   2.062   7.703  1.4020  0.0053  0.9202
 2609SOL     OW19285   1.510   1.819   5.177 -0.0592  0.0453  0.2415
 2609SOL    HW119286   1.424   1.847   5.144 -0.5628  0.8498  2.2278
 2609SOL    HW219287   1.493   1.813   5.271  1.9897  1.0828  0.6664
 2610SOL     OW19288   0.913   2.509  14.961  0.1779  0.1472 -0.1711
 2610SOL    HW119289   0.906   2.449  15.036 -0.4634 -0.2364 -0.5333
 2610SOL    HW219290   0.823   2.541  14.955  0.9248  1.9985 -1.4421
 2611SOL     OW19291   2.012   1.756  13.631 -1.0746  0.2140 -0.3204
 2611SOL    HW119292   2.025   1.829  13.692 -2.0894 -0.9074  1.2185
 2611SOL    HW219293   1.951   1.792  13.566 -0.4053 -0.5833 -1.3899
 2612SOL     OW19294   3.672   1.388   7.369  0.0199  0.2468  0.0496
 2612SOL    HW119295   3.697   1.474   7.336 -0.8665  0.7952  0.7875
 2612SOL    HW219296   3.728   1.375   7.446  0.0746 -0.5579 -0.1269
 2613SOL     OW19297   3.812   0.136  14.677  0.0220  0.1207  0.1027
 2613SOL    HW119298   3.874   0.068  14.651 -0.3321  0.7093 -2.2593
 2613SOL    HW219299   3.771   0.158  14.593 -0.5946 -0.8438  0.1439
 2614SOL     OW19300   1.903   3.069   3.104 -0.3120  0.1331 -0.1912
 2614SOL    HW119301   1.993   3.078   3.136 -1.1854 -1.1190  2.6713
 2614SOL    HW219302   1.917   3.030   3.018  1.6733  2.7148 -1.0569
 2615SOL     OW19303   1.721   4.128   9.627  0.1174  0.1529 -0.0231
 2615SOL    HW119304   1.736   4.035   9.639 -1.4001 -0.4293 -2.6852
 2615SOL    HW219305   1.673   4.150   9.707  1.2563  0.4816  0.5720
 2616SOL     OW19306   0.878   3.816   7.497  0.0647  0.7563 -0.3530
 2616SOL    HW119307   0.840   3.860   7.573  0.3946 -2.2061  1.5022
 2616SOL    HW219308   0.844   3.730   7.519  2.1032  0.2882  0.9342
 2617SOL     OW19309   2.887   4.480   9.213  0.0749  0.2950 -0.2450
 2617SOL    HW119310   2.792   4.489   9.228  0.3896  2.4771  0.4023
 2617SOL    HW219311   2.905   4.513   9.301 -0.2355 -0.2861  0.0440
 2618SOL     OW19312   1.105   1.659   7.523 -0.3305 -0.3503  0.4004
 2618SOL    HW119313   1.136   1.570   7.508 -1.4664 -0.4528 -1.3034
 2618SOL    HW219314   1.184   1.697   7.561 -1.4008  0.9878  1.2854
 2619SOL     OW19315   2.465   2.516   7.021  0.6611  0.1992  0.1303
 2619SOL    HW119316   2.370   2.528   7.021  0.5244 -0.8360 -1.8673
 2619SOL    HW219317   2.469   2.423   7.044  2.2645  0.2878  0.2347
 2620SOL     OW19318   4.533   2.890   2.834  0.1303  0.0495  0.2712
 2620SOL    HW119319   4.588   2.826   2.879  0.2005  0.0057  0.1223
 2620SOL    HW219320   4.603   2.935   2.786 -1.8344  1.5796 -1.1690
 2621SOL     OW19321   2.035   2.082   8.522 -0.7941  0.4826 -0.2804
 2621SOL    HW119322   2.036   1.990   8.494 -1.1297  0.8381 -1.4103
 2621SOL    HW219323   2.097   2.117   8.458  0.5811  1.1284  1.3864
 2622SOL     OW19324   2.432   2.574  12.237 -0.4142  0.2935 -0.0737
 2622SOL    HW119325   2.453   2.552  12.328  0.2470 -1.1334 -0.5655
 2622SOL    HW219326   2.337   2.565  12.244 -0.4851  1.5694  0.5061
 2623SOL     OW19327   4.013   2.538   2.427 -0.3546  0.2387  0.4577
 2623SOL    HW119328   3.980   2.522   2.338 -1.2030 -1.8483  1.1599
 2623SOL    HW219329   4.089   2.481   2.431 -0.1945  0.3361 -1.0165
 2624SOL     OW19330   0.497   2.183  12.013  0.4220  0.7260 -0.3230
 2624SOL    HW119331   0.472   2.268  11.977 -0.1081  0.2495 -1.0867
 2624SOL    HW219332   0.473   2.196  12.105  0.8983 -0.6351 -0.0060
 2625SOL     OW19333   1.082   3.408  16.214  0.1611  0.2701 -0.3293
 2625SOL    HW119334   1.044   3.333  16.169 -0.0452  1.2255 -1.7710
 2625SOL    HW219335   1.001   3.429  16.260 -0.1528 -1.9981  0.1520
 2626SOL     OW19336   2.109   1.833   7.870 -0.2206 -0.5452  0.0476
 2626SOL    HW119337   2.189   1.811   7.822 -1.6198 -0.1983 -2.4574
 2626SOL    HW219338   2.046   1.765   7.848  0.1269 -0.4529 -1.2399
 2627SOL     OW19339   4.089   2.373   6.615 -0.2551 -0.3596  0.5604
 2627SOL    HW119340   4.184   2.361   6.608 -0.1825 -1.3319  3.1805
 2627SOL    HW219341   4.079   2.468   6.613 -2.9742 -0.7119 -1.9888
 2628SOL     OW19342   0.127   2.829   5.418  0.1751 -0.2397  0.1091
 2628SOL    HW119343   0.080   2.861   5.496  2.1955  0.9295  0.8434
 2628SOL    HW219344   0.141   2.912   5.373  0.7205 -0.7806 -0.7077
 2629SOL     OW19345   3.916   1.287  11.029 -0.4226  0.2773  0.9179
 2629SOL    HW119346   3.975   1.362  11.028 -0.6561  0.4670  1.4309
 2629SOL    HW219347   3.934   1.247  10.944  0.7015  1.0426  0.8066
 2630SOL     OW19348   1.452   4.571   2.077  0.4972  0.6231  0.0037
 2630SOL    HW119349   1.540   4.578   2.113  1.6385 -1.6727 -2.3399
 2630SOL    HW219350   1.448   4.643   2.013 -0.4674  1.5420  1.0947
 2631SOL     OW19351   2.403   4.025  12.005  0.2466  0.0784 -0.5914
 2631SOL    HW119352   2.465   4.013  12.077  2.9020  2.8753 -2.4191
 2631SOL    HW219353   2.317   4.025  12.047  0.0782 -1.3679 -0.9604
 2632SOL     OW19354   2.688   1.386  13.631 -0.0746  0.2836  0.4026
 2632SOL    HW119355   2.762   1.434  13.667 -0.6226  0.4324  1.3312
 2632SOL    HW219356   2.613   1.444  13.648 -0.8591 -0.9543  1.1516
 2633SOL     OW19357   1.795   0.937   7.662 -0.1901  0.7463  0.1492
 2633SOL    HW119358   1.840   0.853   7.648  0.8494  1.3991 -0.4090
 2633SOL    HW219359   1.855   0.975   7.726  0.1619  0.3424  0.0622
 2634SOL     OW19360   3.696   3.976   3.505  0.0010  0.1675 -0.1109
 2634SOL    HW119361   3.703   3.923   3.426 -1.8135  0.9275 -0.7844
 2634SOL    HW219362   3.746   4.051   3.474  0.4552  0.0950  0.4329
 2635SOL     OW19363   4.024   3.282   6.825  0.6705 -0.2643  0.3157
 2635SOL    HW119364   4.076   3.207   6.796  0.2284  0.1877 -1.6051
 2635SOL    HW219365   3.976   3.253   6.903  0.2989  3.3057  1.4167
 2636SOL     OW19366   0.502   1.128   4.015  0.2245 -0.4060 -0.2482
 2636SOL    HW119367   0.419   1.174   4.018  0.3736 -0.3417  2.7948
 2636SOL    HW219368   0.504   1.121   3.920 -1.3408 -2.0043 -0.1637
 2637SOL     OW19369   3.147   1.522   3.743 -0.5686  0.3947  0.3350
 2637SOL    HW119370   3.072   1.514   3.683  0.3940  3.3207 -1.2542
 2637SOL    HW219371   3.216   1.516   3.677 -1.4350  2.7314 -0.7753
 2638SOL     OW19372   4.548   3.361   9.748 -0.7438 -0.0383 -0.0350
 2638SOL    HW119373   4.473   3.355   9.689 -0.2712  0.7387 -0.7194
 2638SOL    HW219374   4.503   3.380   9.830 -1.5369 -0.3341 -0.4019
 2639SOL     OW19375   3.751   2.140  16.188  0.2442  0.5297  0.0027
 2639SOL    HW119376   3.841   2.175  16.191  1.2881 -2.0229 -1.3723
 2639SOL    HW219377   3.769   2.047  16.175  0.7714  0.5657  0.4672
 2640SOL     OW19378   1.737   0.934   5.065 -0.0735  0.7082 -0.0638
 2640SOL    HW119379   1.813   0.977   5.026  0.6190 -0.0559  0.4328
 2640SOL    HW219380   1.678   0.940   4.990 -0.3219  0.8354  0.1426
 2641SOL     OW19381   2.871   0.840   4.908 -0.6667  0.3019 -0.1195
 2641SOL    HW119382   2.827   0.908   4.857 -0.7211  1.6145  1.6883
 2641SOL    HW219383   2.849   0.758   4.865 -1.3510  0.8454 -0.8017
 2642SOL     OW19384   2.483   1.911   8.497  0.4182 -0.5488 -0.6998
 2642SOL    HW119385   2.566   1.953   8.474  0.6494 -0.6044  0.0611
 2642SOL    HW219386   2.427   1.952   8.431  0.1263 -0.1248 -0.1877
 2643SOL     OW19387   4.314   3.683   5.156 -0.0891 -0.1586  0.0745
 2643SOL    HW119388   4.324   3.722   5.243 -0.6833  1.3475 -0.5353
 2643SOL    HW219389   4.390   3.720   5.111  0.8583 -1.1328  0.8519
 2644SOL     OW19390   0.123   0.745   9.726  0.0095  0.1116  0.7962
 2644SOL    HW119391   0.172   0.702   9.656  0.2334 -1.2234  1.7732
 2644SOL    HW219392   0.084   0.674   9.777  1.1246  0.2703  1.8850
 2645SOL     OW19393   4.383   0.881   8.231 -0.3546 -0.1714 -0.5558
 2645SOL    HW119394   4.455   0.920   8.281 -0.3455 -1.1512  0.2018
 2645SOL    HW219395   4.333   0.958   8.206  0.7229  0.8587  0.5014
 2646SOL     OW19396   2.724   3.063   4.480 -0.4316 -0.2062  0.6385
 2646SOL    HW119397   2.670   3.139   4.501  1.2854  1.2512 -0.2619
 2646SOL    HW219398   2.743   3.086   4.389  0.8282  0.0934  0.9784
 2647SOL     OW19399   2.679   4.386   6.342  0.2058  0.0126  0.6524
 2647SOL    HW119400   2.622   4.421   6.274  0.0192  1.8247  1.7330
 2647SOL    HW219401   2.691   4.293   6.322 -1.1095  0.4298 -2.0699
 2648SOL     OW19402   2.664   0.670   9.875  0.1668 -0.3931 -0.1565
 2648SOL    HW119403   2.690   0.657   9.784 -0.6535  0.9351 -0.5720
 2648SOL    HW219404   2.575   0.706   9.877  1.0361  1.7521  0.2899
 2649SOL     OW19405   3.105   4.288  16.852  0.6541 -0.1458 -0.0906
 2649SOL    HW119406   3.024   4.334  16.873  0.4077 -0.4994 -0.2670
 2649SOL    HW219407   3.161   4.298  16.929  1.0465  0.2400 -0.4198
 2650SOL     OW19408   3.606   1.897  12.006  0.2124 -0.7608 -0.2227
 2650SOL    HW119409   3.645   1.842  12.074 -0.4155 -1.3850 -0.3657
 2650SOL    HW219410   3.534   1.914  12.067  0.7461  4.2532 -1.0632
 2651SOL     OW19411   0.981   3.038  13.080 -0.6909  0.0666  0.7575
 2651SOL    HW119412   0.935   2.959  13.110 -0.9436 -1.0540 -2.6339
 2651SOL    HW219413   1.074   3.014  13.087 -1.0835 -1.1585  1.8701
 2652SOL     OW19414   3.032   1.986   3.449 -0.1285  0.2013  0.2579
 2652SOL    HW119415   3.084   1.992   3.369 -0.4866 -2.0817 -0.1500
 2652SOL    HW219416   3.024   2.078   3.474  0.4902  0.8747 -2.0838
 2653SOL     OW19417   1.586   3.516   2.262  0.6243  0.0736 -0.1086
 2653SOL    HW119418   1.501   3.531   2.302  0.2348  0.1625 -0.9757
 2653SOL    HW219419   1.632   3.545   2.341 -0.7377 -0.8927  1.0367
 2654SOL     OW19420   1.881   4.554  11.425 -0.4513  0.3002  0.2974
 2654SOL    HW119421   1.844   4.628  11.474 -1.2301 -0.1200  0.3392
 2654SOL    HW219422   1.970   4.583  11.403 -0.0509 -1.0391  0.1625
 2655SOL     OW19423   1.741   0.325  10.303 -0.2699  0.3127  0.2606
 2655SOL    HW119424   1.798   0.379  10.357 -1.2760 -0.4560  2.0988
 2655SOL    HW219425   1.703   0.388  10.241 -0.0019  0.2256  0.0106
 2656SOL     OW19426   3.417   4.585   7.321  0.8445  0.3098  0.1323
 2656SOL    HW119427   3.382   4.623   7.240  0.3769  0.4363  0.3927
 2656SOL    HW219428   3.405   4.491   7.308 -0.0701  0.2068  1.7416
 2657SOL     OW19429   3.974   1.501   2.425 -0.3396 -0.4000  0.4121
 2657SOL    HW119430   3.963   1.589   2.459  1.1119 -0.5201  1.1999
 2657SOL    HW219431   3.950   1.454   2.505 -1.9580 -0.2459  0.0120
 2658SOL     OW19432   0.132   0.980   1.738 -0.2648 -0.1445  0.0140
 2658SOL    HW119433   0.222   0.973   1.707 -0.5662 -1.2921 -0.6198
 2658SOL    HW219434   0.144   1.030   1.819  1.5102 -0.5332 -0.0191
 2659SOL     OW19435   3.704   0.757  10.517 -0.2494  0.1227  0.1130
 2659SOL    HW119436   3.668   0.793  10.598  0.5820  0.2845  0.4121
 2659SOL    HW219437   3.628   0.708  10.486 -1.2351  1.3004  0.6910
 2660SOL     OW19438   2.664   0.733   0.452  0.7481 -0.0361 -0.1240
 2660SOL    HW119439   2.657   0.798   0.522  2.9235 -0.5372  0.5693
 2660SOL    HW219440   2.640   0.652   0.497  0.8740  0.7379  1.3721
 2661SOL     OW19441   4.557   2.395   3.652  0.0995  0.2407 -0.2761
 2661SOL    HW119442   4.606   2.443   3.585 -1.6918  0.8989 -1.1073
 2661SOL    HW219443   4.476   2.380   3.604 -0.4481  3.3489 -0.3011
 2662SOL     OW19444   1.667   3.626  17.186  0.3454 -0.4365  0.1921
 2662SOL    HW119445   1.629   3.547  17.147  0.3806 -0.9277  1.1521
 2662SOL    HW219446   1.752   3.587  17.202  0.7105  0.1759 -0.2473
 2663SOL     OW19447   4.203   2.060   7.991  0.4276  0.3058  0.1659
 2663SOL    HW119448   4.112   2.087   8.002 -0.0404 -0.6039 -1.4861
 2663SOL    HW219449   4.219   2.001   8.064 -0.9371  0.5097  0.6360
 2664SOL     OW19450   0.784   0.973  12.270  0.1884 -0.1107  0.0104
 2664SOL    HW119451   0.828   0.920  12.204  1.1798 -0.3375  0.8429
 2664SOL    HW219452   0.729   1.026  12.212 -2.0939  0.1044  2.3953
 2665SOL     OW19453   3.819   4.175  15.790  0.1414  0.4274  0.4873
 2665SOL    HW119454   3.858   4.123  15.860  1.2899  1.0276  0.2900
 2665SOL    HW219455   3.892   4.236  15.781  0.1734  0.6336  2.1945
 2666SOL     OW19456   3.653   1.482  10.084  0.1979 -0.1926 -0.0200
 2666SOL    HW119457   3.694   1.438  10.010 -0.3994 -1.7353  0.5631
 2666SOL    HW219458   3.637   1.567  10.043 -0.4352 -1.5555 -2.5789
 2667SOL     OW19459   4.619   0.733   2.517 -0.0442 -0.3807 -0.4098
 2667SOL    HW119460   4.541   0.786   2.534  3.0170  3.9484  0.1489
 2667SOL    HW219461   4.605   0.708   2.426  0.0904 -0.1902 -0.4826
 2668SOL     OW19462   2.075   4.556   1.939 -0.0678  0.2661  0.3969
 2668SOL    HW119463   2.086   4.498   1.863 -1.6593  1.0258 -0.4001
 2668SOL    HW219464   2.012   4.501   1.985 -0.9963  1.5365  0.6480
 2669SOL     OW19465   0.947   2.571   6.908  0.0510 -0.0094 -0.1440
 2669SOL    HW119466   0.888   2.577   6.983 -0.6622 -0.5135 -0.6664
 2669SOL    HW219467   0.946   2.475   6.910 -2.1332  0.0107 -0.4265
 2670SOL     OW19468   3.622   0.425  14.539 -0.1657  0.1858 -0.0372
 2670SOL    HW119469   3.651   0.504  14.584  0.1983  0.0329 -0.0026
 2670SOL    HW219470   3.692   0.412  14.476  0.0764  1.3547 -0.0082
 2671SOL     OW19471   3.370   3.554  11.928  0.2136  0.5449 -0.1534
 2671SOL    HW119472   3.413   3.633  11.959  1.3127 -0.1017 -0.0073
 2671SOL    HW219473   3.400   3.535  11.839  2.2658 -0.4644  0.7439
 2672SOL     OW19474   1.537   3.763   9.008 -0.5214 -0.5261  0.5140
 2672SOL    HW119475   1.544   3.827   8.937 -1.6359 -0.2586  0.6509
 2672SOL    HW219476   1.519   3.815   9.086  2.4809  2.4668 -0.7853
 2673SOL     OW19477   2.372   2.646   1.888  0.3829  0.0042  0.5587
 2673SOL    HW119478   2.295   2.612   1.842  0.7521  1.2757 -0.9616
 2673SOL    HW219479   2.440   2.621   1.825 -0.9359  0.3839 -1.0063
 2674SOL     OW19480   3.169   3.783   5.104 -0.5424 -0.2569  0.0030
 2674SOL    HW119481   3.200   3.700   5.066 -0.0697  1.0793 -2.5565
 2674SOL    HW219482   3.250   3.834   5.101 -0.8194  0.2903  1.9284
 2675SOL     OW19483   2.963   4.681   7.765 -0.0622 -0.2703 -0.4532
 2675SOL    HW119484   2.926   4.602   7.725 -0.5327  0.2128 -0.9684
 2675SOL    HW219485   3.020   4.648   7.835 -0.4186  2.0493  0.9120
 2676SOL     OW19486   3.776   4.541   8.398 -0.1595 -0.2508  0.2664
 2676SOL    HW119487   3.776   4.452   8.363  1.7916 -0.4493  0.8084
 2676SOL    HW219488   3.871   4.554   8.396 -0.3908  1.4790  0.6442
 2677SOL     OW19489   1.674   2.187  14.902 -0.2487  0.5457  0.0039
 2677SOL    HW119490   1.680   2.162  14.809  0.9807  0.2423  0.1687
 2677SOL    HW219491   1.764   2.172  14.930 -0.5124 -0.9597  0.0958
 2678SOL     OW19492   3.637   4.278   6.243 -0.4380  0.3633  0.0155
 2678SOL    HW119493   3.712   4.279   6.183 -0.1332  0.6145  0.3989
 2678SOL    HW219494   3.660   4.338   6.314  2.4893  0.4814 -1.0406
 2679SOL     OW19495   2.350   2.376  16.321 -0.5419  0.0882  0.2334
 2679SOL    HW119496   2.360   2.458  16.370  0.3731 -0.0608  0.3047
 2679SOL    HW219497   2.412   2.402  16.252 -0.0260  1.2397  1.1232
 2680SOL     OW19498   3.977   4.471   8.750 -0.1371 -0.2226  0.1183
 2680SOL    HW119499   4.032   4.496   8.824 -1.3259  1.6505  0.3657
 2680SOL    HW219500   4.032   4.409   8.702  0.6501  0.0602  0.6573
 2681SOL     OW19501   2.328   2.312   5.684 -0.0287  0.4026 -0.2632
 2681SOL    HW119502   2.413   2.326   5.725 -0.0278 -1.1725  0.2954
 2681SOL    HW219503   2.344   2.259   5.605 -1.2906  0.5042 -0.5902
 2682SOL     OW19504   1.804   2.441   2.405 -0.3302  0.4328  0.4339
 2682SOL    HW119505   1.761   2.356   2.391 -1.9382  1.2105  0.6663
 2682SOL    HW219506   1.736   2.493   2.448 -0.1961  1.2984 -0.4140
 2683SOL     OW19507   1.323   3.374  15.904 -0.0897  0.6325 -0.1381
 2683SOL    HW119508   1.252   3.318  15.937 -0.0336  1.5269  1.5188
 2683SOL    HW219509   1.392   3.381  15.970 -1.7376  0.1084  1.6460
 2684SOL     OW19510   2.746   0.761   6.674 -0.2512  0.2157  0.1274
 2684SOL    HW119511   2.810   0.818   6.717  0.8049 -0.0366 -1.0763
 2684SOL    HW219512   2.713   0.708   6.747  0.7226 -0.5858 -0.0174
 2685SOL     OW19513   3.492   1.660  12.316 -0.0881 -0.3487 -0.1115
 2685SOL    HW119514   3.467   1.568  12.321  1.9796 -0.9466 -0.4739
 2685SOL    HW219515   3.558   1.672  12.247 -0.2723  1.8283  0.0811
 2686SOL     OW19516   0.746   1.607  15.010  0.0839  0.1602 -0.3695
 2686SOL    HW119517   0.768   1.663  14.936  1.5162  0.7006  0.4623
 2686SOL    HW219518   0.763   1.520  14.974  0.4457 -1.2522  3.1742
 2687SOL     OW19519   2.921   0.641   0.393  0.0703  0.0879 -0.0966
 2687SOL    HW119520   2.835   0.671   0.422  0.6801  3.0471 -1.3334
 2687SOL    HW219521   2.949   0.707   0.329 -0.4811  0.2328 -0.1946
 2688SOL     OW19522   1.646   3.255   0.294 -0.2554 -0.4113  0.0463
 2688SOL    HW119523   1.583   3.200   0.249 -1.8104  0.3109  1.3192
 2688SOL    HW219524   1.685   3.193   0.355  0.0717  0.6432  0.9170
 2689SOL     OW19525   0.580   3.259   8.600  0.1913  0.3728  0.1843
 2689SOL    HW119526   0.605   3.321   8.668 -1.1180 -2.5823  3.3525
 2689SOL    HW219527   0.514   3.205   8.643 -0.1373 -0.5567 -1.5093
 2690SOL     OW19528   2.809   2.468   5.288 -0.0275  0.1972 -0.3241
 2690SOL    HW119529   2.799   2.374   5.296 -1.0784  0.2612 -0.8284
 2690SOL    HW219530   2.742   2.494   5.225 -0.4950  1.5358  0.7371
 2691SOL     OW19531   4.020   4.423   1.868 -0.1396  0.1741  0.1699
 2691SOL    HW119532   4.016   4.495   1.805 -0.1763 -0.1315 -0.1790
 2691SOL    HW219533   4.104   4.377   1.869 -0.7822 -0.9621  2.3552
 2692SOL     OW19534   4.673   4.458   4.875  0.4923 -0.2483  0.4220
 2692SOL    HW119535   4.721   4.375   4.865  0.3101 -0.2263 -0.6620
 2692SOL    HW219536   4.702   4.501   4.795 -0.5304 -0.4107 -0.0350
 2693SOL     OW19537   3.861   0.783   5.231  0.5998  0.2688 -0.3534
 2693SOL    HW119538   3.913   0.707   5.206 -0.6282 -0.7036  0.0658
 2693SOL    HW219539   3.812   0.794   5.149 -0.1331  1.4419  0.2449
 2694SOL     OW19540   0.462   4.685  13.505  0.3407 -0.0136  0.4024
 2694SOL    HW119541   0.547   0.003  13.505  1.3551 -1.9245  1.0678
 2694SOL    HW219542   0.403   0.030  13.526 -2.0397 -1.5776 -0.9411
 2695SOL     OW19543   2.556   3.639   5.927  0.6130  0.1706 -0.0938
 2695SOL    HW119544   2.607   3.671   5.852  1.8626 -3.7220 -0.9545
 2695SOL    HW219545   2.586   3.548   5.936 -1.2234 -0.5393 -1.1554
 2696SOL     OW19546   3.677   1.267   5.531  0.0628  0.7310  0.4018
 2696SOL    HW119547   3.727   1.261   5.613  0.2724 -2.5542  0.0295
 2696SOL    HW219548   3.683   1.179   5.494  0.9248  0.6226  0.7864
 2697SOL     OW19549   0.747   1.379  10.020 -0.9409  0.1225  0.6854
 2697SOL    HW119550   0.664   1.333  10.015  0.4450 -2.3616  0.3997
 2697SOL    HW219551   0.749   1.420   9.933  0.4806 -0.7437  0.3188
 2698SOL     OW19552   4.020   3.383   1.599 -0.4288  0.1940  0.2714
 2698SOL    HW119553   3.985   3.445   1.535  0.7995  0.2224 -0.3636
 2698SOL    HW219554   4.113   3.399   1.587 -0.1969  1.1945  3.2762
 2699SOL     OW19555   0.781   0.951   3.682  0.1312  0.0691 -0.5462
 2699SOL    HW119556   0.751   0.961   3.592 -0.5608 -0.1383 -0.3394
 2699SOL    HW219557   0.875   0.969   3.685 -0.1539  1.8236 -1.8393
 2700SOL     OW19558   3.175   0.395   0.087  0.5663 -0.6702  0.0484
 2700SOL    HW119559   3.269   0.382   0.075  0.6240 -0.8571  0.7229
 2700SOL    HW219560   3.140   0.307   0.076  0.4801 -0.4144 -1.8043
 2701SOL     OW19561   0.263   3.523   1.865 -0.7690 -0.2307  0.5854
 2701SOL    HW119562   0.181   3.539   1.820 -1.6017 -2.2976  1.3843
 2701SOL    HW219563   0.232   3.451   1.921 -0.8834  0.1485  1.0140
 2702SOL     OW19564   0.292   3.657  12.169 -0.1126 -0.0968  0.5560
 2702SOL    HW119565   0.206   3.616  12.162  0.1883 -0.9996  2.2000
 2702SOL    HW219566   0.297   3.662  12.264 -0.9227 -0.6647  0.6315
 2703SOL     OW19567   3.998   4.521   6.048 -0.3098  0.2276  0.0291
 2703SOL    HW119568   3.931   4.586   6.069 -1.0807  0.2769 -2.6077
 2703SOL    HW219569   4.007   4.547   5.956  0.2154  1.5446  0.4532
 2704SOL     OW19570   1.248   3.968  12.029  1.0550 -0.3206 -0.2631
 2704SOL    HW119571   1.158   3.994  12.053  0.2020 -3.1562 -0.3461
 2704SOL    HW219572   1.301   3.993  12.105 -1.5843 -1.5219  2.0004
 2705SOL     OW19573   1.681   0.668   6.168 -0.4468 -0.2088  0.4478
 2705SOL    HW119574   1.760   0.671   6.113 -0.6882 -2.8454 -0.0609
 2705SOL    HW219575   1.656   0.576   6.161 -0.0179 -0.1875 -1.4782
 2706SOL     OW19576   2.405   3.680   8.283 -0.4372 -0.1305 -0.3552
 2706SOL    HW119577   2.428   3.590   8.262 -0.9044 -0.4959  0.6960
 2706SOL    HW219578   2.484   3.709   8.329 -1.5357 -0.2255  1.5757
 2707SOL     OW19579   3.328   1.796   7.223  0.5390  0.1163 -0.7031
 2707SOL    HW119580   3.357   1.828   7.308 -0.0396 -0.6655 -0.2046
 2707SOL    HW219581   3.247   1.756   7.256  0.4739  0.5364 -0.3573
 2708SOL     OW19582   2.505   2.176  12.879 -0.0869  0.0418 -0.1478
 2708SOL    HW119583   2.438   2.181  12.811 -1.1301  0.7218  0.9223
 2708SOL    HW219584   2.459   2.161  12.962  0.2783  1.2178  0.2766
 2709SOL     OW19585   2.003   2.359  11.001 -0.1819 -0.3169  0.2308
 2709SOL    HW119586   2.080   2.303  11.016 -1.2657 -2.0156 -0.6565
 2709SOL    HW219587   1.989   2.349  10.907 -0.6264 -2.0574  0.4709
 2710SOL     OW19588   0.422   1.727   3.206  0.2796  0.5860 -0.2369
 2710SOL    HW119589   0.495   1.672   3.177  0.0895  0.5075 -0.5727
 2710SOL    HW219590   0.421   1.707   3.300 -1.8200  0.2806 -0.3167
 2711SOL     OW19591   2.109   1.291   9.384  0.4338  0.0593 -0.2259
 2711SOL    HW119592   2.181   1.352   9.399  1.5545 -1.6294  1.3452
 2711SOL    HW219593   2.034   1.351   9.384  1.3662  1.2147 -1.1321
 2712SOL     OW19594   4.251   2.892   5.546  0.1185 -0.0888  0.1597
 2712SOL    HW119595   4.252   2.941   5.629  0.0247  0.4601 -0.1685
 2712SOL    HW219596   4.228   2.800   5.558 -0.3430  0.1326  0.9858
 2713SOL     OW19597   4.497   1.577   3.574  0.6733 -0.0752 -0.3302
 2713SOL    HW119598   4.437   1.635   3.621 -1.7948  0.0980 -3.7139
 2713SOL    HW219599   4.552   1.645   3.535  1.6472 -0.0637  1.0699
 2714SOL     OW19600   3.521   0.587  13.162 -0.3821 -0.4700 -0.6786
 2714SOL    HW119601   3.549   0.604  13.072 -1.7405  1.8833 -0.6467
 2714SOL    HW219602   3.493   0.496  13.151 -0.8772  0.0132 -3.3828
 2715SOL     OW19603   2.798   2.273   2.923 -0.0358  0.1613 -0.3139
 2715SOL    HW119604   2.843   2.237   2.846 -2.0852  0.7506 -1.7840
 2715SOL    HW219605   2.853   2.347   2.947  1.3899 -1.0134  0.0369
 2716SOL     OW19606   1.462   3.654   8.075 -0.6707 -0.2018 -0.0098
 2716SOL    HW119607   1.438   3.564   8.100  1.1106 -0.7310 -0.2057
 2716SOL    HW219608   1.443   3.655   7.981  1.2620 -1.6712 -0.4153
 2717SOL     OW19609   2.406   0.250  13.053 -0.7717  0.3639  0.4329
 2717SOL    HW119610   2.489   0.246  13.005 -0.1116  1.9895  1.4223
 2717SOL    HW219611   2.366   0.326  13.011  0.5021  1.7757  1.7494
 2718SOL     OW19612   2.924   1.934  10.051 -0.1860  0.4591  0.5558
 2718SOL    HW119613   3.001   1.991  10.062 -0.6268  1.0374  0.6374
 2718SOL    HW219614   2.954   1.855  10.095 -1.5816 -0.7969 -0.7807
 2719SOL     OW19615   4.558   3.450   5.668 -0.2236  0.2202 -0.3675
 2719SOL    HW119616   4.616   3.526   5.671  0.8292 -0.5741 -0.6676
 2719SOL    HW219617   4.481   3.499   5.697 -0.4645  0.4336 -1.3388
 2720SOL     OW19618   4.677   4.027   3.374 -0.2881  0.7672 -0.2699
 2720SOL    HW119619   4.629   3.944   3.368  0.7901  0.0684  0.8370
 2720SOL    HW219620   4.596   4.076   3.389 -0.6071  0.1174  0.1381
 2721SOL     OW19621   0.421   1.577   8.398 -0.6881 -0.1309 -0.1727
 2721SOL    HW119622   0.415   1.590   8.304 -3.4429 -0.1036  0.0056
 2721SOL    HW219623   0.450   1.661   8.433  2.4017 -1.5156  0.5820
 2722SOL     OW19624   0.303   1.017  16.401  0.4666  0.3147  0.4169
 2722SOL    HW119625   0.329   1.100  16.441 -1.1725  0.3313  1.4418
 2722SOL    HW219626   0.245   0.992  16.473 -2.2074  2.2592 -1.0450
 2723SOL     OW19627   0.182   2.203  10.479 -0.3200  0.7283 -0.6469
 2723SOL    HW119628   0.158   2.280  10.530 -1.3824  0.8536 -1.3455
 2723SOL    HW219629   0.225   2.239  10.401 -0.2773  0.4098 -0.7746
 2724SOL     OW19630   2.275   3.821   4.894 -0.2685 -0.1264  0.1504
 2724SOL    HW119631   2.283   3.874   4.814  2.4186  0.2298  0.6607
 2724SOL    HW219632   2.247   3.890   4.955  1.0295  0.4813  0.0511
 2725SOL     OW19633   3.898   0.371   3.981  0.0728 -0.4185 -0.1389
 2725SOL    HW119634   3.863   0.358   4.069 -1.5447  0.6073 -0.6353
 2725SOL    HW219635   3.821   0.346   3.929 -0.0782  1.4545 -0.8099
 2726SOL     OW19636   2.443   2.199   1.234  0.3948  0.7527  0.0265
 2726SOL    HW119637   2.534   2.178   1.213  0.1510  1.4295 -1.7371
 2726SOL    HW219638   2.451   2.194   1.329 -1.8749 -1.5027  0.0974
 2727SOL     OW19639   3.013   3.500   5.234  0.1359 -0.0730 -0.2113
 2727SOL    HW119640   2.974   3.523   5.150  0.2566 -0.9348 -0.5007
 2727SOL    HW219641   3.011   3.587   5.273 -3.4233  0.2306 -1.0912
 2728SOL     OW19642   4.632   0.825   9.120  0.1008  0.0740 -0.6242
 2728SOL    HW119643   4.643   0.868   9.205 -4.1458 -0.6054  0.2685
 2728SOL    HW219644   4.543   0.850   9.094  0.5268  0.0893 -2.0377
 2729SOL     OW19645   1.517   2.963   5.600 -0.0147 -0.2031 -0.4639
 2729SOL    HW119646   1.483   2.942   5.687 -3.7985 -0.2850 -1.9614
 2729SOL    HW219647   1.436   2.989   5.556 -0.1180  2.7928  1.5122
 2730SOL     OW19648   2.110   0.079   2.053 -0.1892  0.3559 -0.0224
 2730SOL    HW119649   2.108   4.725   2.000  0.8941  0.7903 -0.7187
 2730SOL    HW219650   2.028   0.073   2.103 -0.7193  0.7797 -0.8255
 2731SOL     OW19651   0.994   3.538   4.171 -0.6091 -0.0836 -0.0097
 2731SOL    HW119652   1.016   3.554   4.080  0.4120 -1.7552 -0.0512
 2731SOL    HW219653   1.084   3.523   4.199 -1.4001 -1.5418  1.7503
 2732SOL     OW19654   0.139   4.343  10.329 -0.3899  0.1062 -0.0697
 2732SOL    HW119655   0.105   4.359  10.417 -1.3455 -0.6514 -0.3095
 2732SOL    HW219656   0.217   4.289  10.345 -0.7345 -1.1135 -2.6189
 2733SOL     OW19657   2.666   3.851   7.290  0.2386 -0.1792 -0.1388
 2733SOL    HW119658   2.592   3.838   7.350  0.4555 -0.5096  0.0579
 2733SOL    HW219659   2.726   3.785   7.323  0.1168  0.8991  2.2273
 2734SOL     OW19660   3.209   1.979   6.824  0.6680  0.3204 -0.2695
 2734SOL    HW119661   3.302   2.003   6.829  0.8806 -1.0965  2.4049
 2734SOL    HW219662   3.202   1.968   6.729 -1.0167  1.1787 -0.2369
 2735SOL     OW19663   1.682   3.537  15.771  0.0046  0.3458 -0.0371
 2735SOL    HW119664   1.595   3.559  15.803  0.8312  0.8329  1.9161
 2735SOL    HW219665   1.664   3.470  15.706  0.9963 -0.6764  0.7465
 2736SOL     OW19666   2.195   2.230   1.729 -1.0488  0.5797  1.0283
 2736SOL    HW119667   2.192   2.135   1.725 -1.9927  0.5684  2.1011
 2736SOL    HW219668   2.279   2.249   1.770 -0.1702 -0.9488 -0.0799
 2737SOL     OW19669   0.327   3.026   6.330  0.3244 -0.1595  0.2482
 2737SOL    HW119670   0.313   2.937   6.365 -0.8393 -0.8118 -1.8959
 2737SOL    HW219671   0.240   3.059   6.310 -0.7907 -3.1521  0.0759
 2738SOL     OW19672   2.182   2.546   7.029  0.0828  1.0099  0.5030
 2738SOL    HW119673   2.179   2.622   7.087  1.4214  3.0823 -2.1144
 2738SOL    HW219674   2.093   2.513   7.024 -0.2609  1.8381  1.2975
 2739SOL     OW19675   0.298   3.950   8.934 -0.2012 -0.3782 -0.3158
 2739SOL    HW119676   0.273   3.884   8.998  1.1694  0.3350  0.9633
 2739SOL    HW219677   0.261   4.022   8.986  4.9344  0.9973  1.4802
 2740SOL     OW19678   1.558   1.769  13.308  0.1782  0.5019  0.9674
 2740SOL    HW119679   1.471   1.802  13.285  0.5194  1.0827  0.4999
 2740SOL    HW219680   1.602   1.852  13.289  1.1342 -0.6432 -1.9083
 2741SOL     OW19681   4.595   2.125  10.899  0.7830 -0.1042 -0.7345
 2741SOL    HW119682   4.547   2.183  10.959  0.3790  0.9594 -2.0887
 2741SOL    HW219683   4.527   2.078  10.851  0.2437 -0.8844  0.7811
 2742SOL     OW19684   2.364   0.669   2.641 -0.2805 -0.0341 -0.2967
 2742SOL    HW119685   2.275   0.666   2.676 -0.7550  1.3894 -1.3490
 2742SOL    HW219686   2.333   0.671   2.550 -0.1367 -2.5826 -0.3902
 2743SOL     OW19687   1.842   0.672   6.602 -0.4175  0.8476 -0.4773
 2743SOL    HW119688   1.887   0.716   6.530  1.1177  0.5707  0.3124
 2743SOL    HW219689   1.760   0.655   6.555 -2.0602  1.7145  2.0704
 2744SOL     OW19690   2.208   1.685   3.061 -0.4407  0.0983 -0.3301
 2744SOL    HW119691   2.199   1.753   2.994  1.1875 -0.0299 -0.6652
 2744SOL    HW219692   2.303   1.682   3.058 -0.3906  0.9675  0.4168
 2745SOL     OW19693   2.327   1.448   7.770  0.3019 -0.0910 -0.1013
 2745SOL    HW119694   2.245   1.400   7.785 -1.2301  2.5316 -0.1791
 2745SOL    HW219695   2.322   1.474   7.678 -1.1120 -1.1395 -0.3204
 2746SOL     OW19696   0.197   2.928   6.656 -0.3550  0.2991 -0.0257
 2746SOL    HW119697   0.283   2.970   6.664 -0.2699 -0.1231  1.3757
 2746SOL    HW219698   0.188   2.882   6.740  1.1819  1.9981  1.0732
 2747SOL     OW19699   2.047   0.434  14.869  0.1117 -0.3731 -0.0303
 2747SOL    HW119700   2.001   0.360  14.908 -1.6517 -1.2896 -3.8271
 2747SOL    HW219701   2.099   0.388  14.803 -0.2646 -0.8872  0.0345
 2748SOL     OW19702   1.758   3.172   8.529 -0.6202 -0.3881  0.0676
 2748SOL    HW119703   1.781   3.091   8.484 -0.8841 -0.1322 -0.5305
 2748SOL    HW219704   1.822   3.174   8.601  0.1391 -1.2514 -0.5863
 2749SOL     OW19705   0.390   3.076   8.673 -0.1594 -0.0427  0.5018
 2749SOL    HW119706   0.398   2.989   8.711  0.9309  0.0232  0.4076
 2749SOL    HW219707   0.339   3.115   8.744 -0.4650  1.1871 -0.3861
 2750SOL     OW19708   3.280   0.971   5.764 -0.0292  0.2272 -0.1841
 2750SOL    HW119709   3.364   0.975   5.718 -1.2913  0.4287 -2.4698
 2750SOL    HW219710   3.280   1.051   5.817 -0.7163 -0.2143  0.4984
 2751SOL     OW19711   2.795   0.171  16.884 -0.6612 -0.1526  0.3139
 2751SOL    HW119712   2.867   0.108  16.888  0.6928  1.4919  1.6989
 2751SOL    HW219713   2.727   0.113  16.848 -0.9168  1.1125 -1.2644
 2752SOL     OW19714   1.363   1.510   2.943  0.4310 -0.0773  0.9767
 2752SOL    HW119715   1.417   1.538   2.869  3.2690 -3.7825  1.6608
 2752SOL    HW219716   1.433   1.469   2.994  1.4914 -1.6950 -1.7518
 2753SOL     OW19717   3.088   3.995   0.603 -0.6856  0.4025 -0.2250
 2753SOL    HW119718   3.129   3.915   0.635 -1.2445  0.6375  1.1008
 2753SOL    HW219719   3.033   4.024   0.676  0.0328 -2.6157  1.4875
 2754SOL     OW19720   3.138   4.344   8.426 -0.4427 -0.3446  0.0024
 2754SOL    HW119721   3.132   4.399   8.504  1.0814 -1.0986  0.6539
 2754SOL    HW219722   3.078   4.386   8.364 -0.7439  1.7863  1.7622
 2755SOL     OW19723   3.300   2.292   5.679 -0.4827 -0.3549 -0.0107
 2755SOL    HW119724   3.281   2.201   5.703 -1.1736  0.0578  1.0074
 2755SOL    HW219725   3.337   2.288   5.591  1.0891  0.7814  0.5886
 2756SOL     OW19726   3.772   1.677   3.227  0.1156 -0.7196  0.5977
 2756SOL    HW119727   3.689   1.684   3.180  1.6617  0.2619 -1.9950
 2756SOL    HW219728   3.829   1.695   3.152 -0.3866  1.2430  0.6983
 2757SOL     OW19729   3.874   1.679   8.972 -0.6692 -0.2577  0.2050
 2757SOL    HW119730   3.903   1.601   8.924 -1.5188  1.1193 -2.5336
 2757SOL    HW219731   3.949   1.739   8.977  1.2080 -2.4986 -1.0740
 2758SOL     OW19732   1.890   2.579   5.448  0.6071  0.1003  0.2336
 2758SOL    HW119733   1.977   2.609   5.476  0.4561 -0.9872  1.9007
 2758SOL    HW219734   1.825   2.643   5.479 -1.8393 -2.9222  1.3690
 2759SOL     OW19735   1.610   1.646   2.338  0.2481  0.6353 -0.3371
 2759SOL    HW119736   1.665   1.669   2.263  2.2292 -0.8414  0.6777
 2759SOL    HW219737   1.557   1.725   2.348 -0.5811  0.0722 -0.3352
 2760SOL     OW19738   1.532   0.427   3.520  0.3417 -0.4594  0.2119
 2760SOL    HW119739   1.554   0.506   3.570  0.4754 -0.3464 -0.0265
 2760SOL    HW219740   1.481   0.375   3.582 -0.0465  0.9624  1.0807
 2761SOL     OW19741   2.270   4.604   1.565  0.1415  0.0378 -0.3029
 2761SOL    HW119742   2.227   4.676   1.610  0.0742  0.3608 -0.8749
 2761SOL    HW219743   2.204   4.597   1.496  0.3182  1.0198 -0.5712
 2762SOL     OW19744   2.190   4.604   6.882  0.0705 -0.6228 -0.8764
 2762SOL    HW119745   2.152   4.684   6.847 -0.4580 -0.2212  0.6278
 2762SOL    HW219746   2.113   4.561   6.917 -0.7375  0.8353 -0.8768
 2763SOL     OW19747   0.168   2.969  14.098 -0.1307  0.3184  0.2100
 2763SOL    HW119748   0.123   2.925  14.170 -0.5091  0.7630  0.2413
 2763SOL    HW219749   0.101   2.948  14.033  2.1037  0.0241 -2.0039
 2764SOL     OW19750   2.199   3.030  15.332 -0.0665 -0.4516  0.5766
 2764SOL    HW119751   2.261   3.031  15.405 -0.6711 -1.4070  1.1094
 2764SOL    HW219752   2.222   3.117  15.301 -1.6835 -0.6906 -1.2341
 2765SOL     OW19753   1.903   0.301   7.352  0.3393  0.9176  0.2414
 2765SOL    HW119754   1.848   0.289   7.430  0.2592  0.0117  0.0493
 2765SOL    HW219755   1.890   0.394   7.334  3.8377  1.2808 -0.3159
 2766SOL     OW19756   3.822   2.531  16.200  0.0478 -0.0980 -0.1101
 2766SOL    HW119757   3.911   2.513  16.169  0.5220 -0.1388  1.3010
 2766SOL    HW219758   3.796   2.590  16.129 -0.0713 -2.5182 -2.0782
 2767SOL     OW19759   1.819   2.166   4.682 -0.6347  0.6789 -0.2757
 2767SOL    HW119760   1.839   2.259   4.696  0.8783  0.1630  1.0110
 2767SOL    HW219761   1.886   2.145   4.617  1.7450  1.7202  1.8411
 2768SOL     OW19762   0.405   4.212  11.920  0.6195  0.1245  0.5055
 2768SOL    HW119763   0.351   4.145  11.963  1.9364  0.2894  2.4137
 2768SOL    HW219764   0.343   4.268  11.873  0.7111 -0.4434 -0.3011
 2769SOL     OW19765   0.412   3.714   7.434 -0.2532 -0.4764  0.0646
 2769SOL    HW119766   0.451   3.639   7.390 -0.0394 -0.6832  0.6099
 2769SOL    HW219767   0.366   3.668   7.504 -1.9846 -0.0587 -0.8074
 2770SOL     OW19768   2.091   4.172   3.422 -0.0687 -0.0116 -0.1957
 2770SOL    HW119769   2.079   4.264   3.399  1.2480  0.3493  0.5424
 2770SOL    HW219770   2.178   4.146   3.389  0.3744  0.8631  0.2724
 2771SOL     OW19771   2.096   4.055   7.966  0.4159 -0.0286 -0.3689
 2771SOL    HW119772   2.069   4.131   7.915 -0.1093 -0.5359 -0.8461
 2771SOL    HW219773   2.042   4.076   8.043  0.1342  0.2523 -0.6435
 2772SOL     OW19774   0.424   4.692  11.371  0.4305 -0.0663 -0.5190
 2772SOL    HW119775   0.497   4.701  11.432 -0.0031  0.3508 -0.0610
 2772SOL    HW219776   0.450   4.611  11.327 -0.9099 -0.9990  0.4333
 2773SOL     OW19777   0.050   2.779  10.636 -0.1258  0.8848 -0.2928
 2773SOL    HW119778   0.008   2.767  10.550 -3.6584  0.3622  1.5052
 2773SOL    HW219779   0.141   2.798  10.612  0.2307  0.3982  0.6865
 2774SOL     OW19780   1.507   3.342   6.424 -0.3215 -0.1081  0.8111
 2774SOL    HW119781   1.447   3.399   6.473 -0.6257 -0.5822  0.9870
 2774SOL    HW219782   1.529   3.279   6.493  0.0864 -1.7822 -0.8544
 2775SOL     OW19783   4.048   0.969   5.010  0.1340 -0.6810  0.0439
 2775SOL    HW119784   4.120   0.945   5.068 -1.1941 -1.3188  1.4273
 2775SOL    HW219785   3.986   0.896   5.017 -1.2291  0.4015 -0.8492
 2776SOL     OW19786   4.307   3.216   6.658  0.0342  0.5911 -0.2190
 2776SOL    HW119787   4.355   3.240   6.737 -0.1914  0.3965 -0.0208
 2776SOL    HW219788   4.249   3.153   6.702  2.0997 -1.3137 -0.2689
 2777SOL     OW19789   3.210   0.141  16.199  0.0807  0.3933 -0.1574
 2777SOL    HW119790   3.211   0.200  16.274  0.0496 -0.1897  0.2928
 2777SOL    HW219791   3.229   0.056  16.238 -2.5391 -0.6921 -1.2294
 2778SOL     OW19792   1.837   4.589   4.706 -0.1020  0.7587 -0.3477
 2778SOL    HW119793   1.893   4.587   4.628  0.9000 -0.0275  0.3970
 2778SOL    HW219794   1.906   4.576   4.772 -2.4022 -1.0927  1.6622
 2779SOL     OW19795   0.826   3.161  14.019 -0.1612 -0.0575  0.4092
 2779SOL    HW119796   0.861   3.155  13.930  0.0589  1.6321  0.3837
 2779SOL    HW219797   0.826   3.069  14.048  1.5879 -0.1885 -0.0204
 2780SOL     OW19798   4.386   2.520   6.102 -0.3348 -0.0763  0.4471
 2780SOL    HW119799   4.478   2.500   6.083  0.2333  1.5083  1.6020
 2780SOL    HW219800   4.355   2.514   6.011 -0.1198 -0.3999  0.3930
 2781SOL     OW19801   2.223   2.532   8.584 -0.2995  0.0489  0.3135
 2781SOL    HW119802   2.160   2.468   8.549  0.0844 -0.3200  0.2935
 2781SOL    HW219803   2.270   2.554   8.504 -0.5996  0.5445  0.2754
 2782SOL     OW19804   3.657   0.674  15.346 -0.1595 -0.5604  0.1990
 2782SOL    HW119805   3.687   0.739  15.283 -1.4060 -0.1904 -0.0147
 2782SOL    HW219806   3.668   0.726  15.425  1.6247 -2.1499  1.0101
 2783SOL     OW19807   2.894   2.020  17.256  0.2255 -0.1742 -0.3248
 2783SOL    HW119808   2.836   1.975  17.318  0.2513 -0.1811 -0.3055
 2783SOL    HW219809   2.891   1.964  17.178  0.2978  2.4469 -2.2211
 2784SOL     OW19810   4.040   4.089  17.641  0.0671  0.1102 -0.0956
 2784SOL    HW119811   4.072   4.097   0.024  1.0907  3.0964 -0.7159
 2784SOL    HW219812   4.091   4.017  17.603  1.3217  0.6698  0.5388
 2785SOL     OW19813   1.720   3.033   9.214 -0.7424  0.6411  0.6287
 2785SOL    HW119814   1.697   3.113   9.167 -2.5735 -0.0525  0.3487
 2785SOL    HW219815   1.741   3.077   9.296 -0.1134  0.0844  0.7696
 2786SOL     OW19816   2.229   0.564   3.495 -0.0259 -0.6670  0.5623
 2786SOL    HW119817   2.148   0.591   3.537 -1.1273 -1.3720 -1.0913
 2786SOL    HW219818   2.195   0.481   3.461  0.4523 -0.5027 -0.3094
 2787SOL     OW19819   0.718   3.951   5.669  0.2792 -0.0736  0.1995
 2787SOL    HW119820   0.650   3.919   5.729  0.9669 -0.4401  0.7819
 2787SOL    HW219821   0.798   3.950   5.721  0.1915 -2.3293  0.2902
 2788SOL     OW19822   2.696   2.707   7.988 -0.1860  0.2629 -0.5268
 2788SOL    HW119823   2.792   2.710   7.990 -0.2078  1.0884 -0.8106
 2788SOL    HW219824   2.683   2.801   7.976 -0.6260  0.2329 -0.2885
 2789SOL     OW19825   3.301   2.736  12.726 -0.0564  0.1327  0.0571
 2789SOL    HW119826   3.267   2.805  12.783  1.7364  0.8616  0.2496
 2789SOL    HW219827   3.224   2.720  12.671 -0.5574 -0.6041  0.9810
 2790SOL     OW19828   1.366   1.994   8.404  0.2572 -0.0752  0.2828
 2790SOL    HW119829   1.312   1.995   8.483 -1.6440  1.5510 -1.0227
 2790SOL    HW219830   1.378   2.088   8.389  2.6104 -0.6481 -1.3053
 2791SOL     OW19831   0.510   0.923   9.287  0.3189 -0.6440  0.0305
 2791SOL    HW119832   0.472   0.943   9.373 -0.2150  0.8338 -0.5462
 2791SOL    HW219833   0.442   0.963   9.233 -1.0100  0.2739  2.3896
 2792SOL     OW19834   2.147   0.281   3.519 -0.0071 -0.8249  0.1018
 2792SOL    HW119835   2.227   0.289   3.467  0.1904  0.1468  0.5681
 2792SOL    HW219836   2.084   0.332   3.469  1.7236  0.3816 -0.8645
 2793SOL     OW19837   1.497   2.278   5.611  0.0839  0.3980 -0.3927
 2793SOL    HW119838   1.416   2.323   5.589  0.3214  1.5457  1.1274
 2793SOL    HW219839   1.478   2.258   5.703 -0.0306 -0.1592 -0.5382
 2794SOL     OW19840   2.433   3.375   1.828  0.1816  0.1160  0.2311
 2794SOL    HW119841   2.521   3.346   1.850  0.8835  0.2432 -2.4222
 2794SOL    HW219842   2.437   3.355   1.735 -2.6909 -2.2536  0.6098
 2795SOL     OW19843   0.330   1.823  13.294  0.0259 -0.3274  0.5092
 2795SOL    HW119844   0.341   1.742  13.244  0.0527  0.6629 -1.0725
 2795SOL    HW219845   0.415   1.863  13.278 -0.1793 -0.2536 -0.3949
 2796SOL     OW19846   2.389   3.359  16.713  0.0947  0.4583  0.2400
 2796SOL    HW119847   2.295   3.352  16.726  0.2645 -1.4589  0.3912
 2796SOL    HW219848   2.405   3.441  16.666 -0.5005  1.2875  1.4785
 2797SOL     OW19849   1.905   0.075   2.245  0.4716  0.1794  0.7306
 2797SOL    HW119850   1.867   0.156   2.279  1.3954  1.1003 -0.3855
 2797SOL    HW219851   1.957   0.057   2.322  1.2146 -0.4934  0.0669
 2798SOL     OW19852   3.034   2.165  14.038 -0.4067 -0.0284 -0.0012
 2798SOL    HW119853   3.109   2.201  14.086 -0.8122  0.4621  0.2635
 2798SOL    HW219854   2.967   2.158  14.105  0.1510  0.8416  0.6466
 2799SOL     OW19855   1.043   1.032   3.948 -0.6295 -0.0783  0.1530
 2799SOL    HW119856   1.076   1.032   3.858  0.8080 -1.9666  0.6742
 2799SOL    HW219857   0.951   1.055   3.934 -0.1648  2.0486  0.7162
 2800SOL     OW19858   1.247   0.102   5.344  0.4545 -0.3121 -0.0686
 2800SOL    HW119859   1.340   0.080   5.339  0.5335 -0.1189  0.5960
 2800SOL    HW219860   1.245   0.181   5.288 -0.6037  0.8925  1.6622
 2801SOL     OW19861   1.833   0.992   8.902 -0.3167  0.1161  0.2808
 2801SOL    HW119862   1.905   1.044   8.939  1.7875 -1.4779 -1.5548
 2801SOL    HW219863   1.876   0.919   8.857 -1.3960  0.8935 -2.0168
 2802SOL     OW19864   0.907   0.798  15.835  0.3403  0.4434  0.0363
 2802SOL    HW119865   0.906   0.843  15.920 -2.0585  1.6722 -0.6481
 2802SOL    HW219866   0.847   0.725  15.850  1.0303 -0.6957 -2.8117
 2803SOL     OW19867   3.285   4.285   3.074 -0.3496 -0.1038 -0.0359
 2803SOL    HW119868   3.199   4.272   3.113 -0.2707  2.0335  0.8039
 2803SOL    HW219869   3.272   4.319   2.986  1.8769  0.9723  0.0604
 2804SOL     OW19870   4.059   1.436   3.805 -0.2897 -0.0762 -0.1572
 2804SOL    HW119871   4.061   1.385   3.724  1.8218  1.6493 -1.1882
 2804SOL    HW219872   4.010   1.517   3.790  2.1592  1.3777 -0.2219
 2805SOL     OW19873   2.364   1.415   2.793 -0.3038  0.3494  0.0629
 2805SOL    HW119874   2.378   1.474   2.719 -1.0378  1.5878  0.9183
 2805SOL    HW219875   2.416   1.443   2.868 -0.9066 -0.0507  0.6315
 2806SOL     OW19876   2.896   4.664   5.561 -0.3359 -0.6682  0.1584
 2806SOL    HW119877   2.838   0.009   5.535 -1.0920 -1.6770 -0.9454
 2806SOL    HW219878   2.938   4.636   5.479 -1.4803 -1.5010 -0.1521
 2807SOL     OW19879   4.333   2.411   9.162  0.4804  0.1307 -0.3245
 2807SOL    HW119880   4.406   2.353   9.140 -1.2058 -2.2191  0.2202
 2807SOL    HW219881   4.268   2.418   9.092  0.1838 -0.7210 -0.1291
 2808SOL     OW19882   2.684   3.881  17.676  0.2872 -0.2425  0.3108
 2808SOL    HW119883   2.684   3.974  17.652 -1.3656 -0.7792 -1.7935
 2808SOL    HW219884   2.589   3.873  17.683  0.4131 -2.8920 -1.1467
 2809SOL     OW19885   2.720   1.617   6.985 -0.1704  1.0485 -0.4486
 2809SOL    HW119886   2.724   1.620   6.890 -1.0959 -0.3853 -0.5361
 2809SOL    HW219887   2.797   1.561   6.994 -1.4015 -0.0742  3.1248
 2810SOL     OW19888   0.081   4.156   5.199  0.2395  0.1954  0.2180
 2810SOL    HW119889   0.106   4.247   5.213 -1.5957  0.6360  0.6297
 2810SOL    HW219890   0.116   4.110   5.276 -0.3348  0.3741  0.5855
 2811SOL     OW19891   4.326   3.637  11.092  0.5037 -0.8570 -0.7588
 2811SOL    HW119892   4.308   3.545  11.072  0.1182 -0.5870 -1.7067
 2811SOL    HW219893   4.381   3.632  11.170  0.4113 -1.3049 -0.7213
 2812SOL     OW19894   1.391   3.423   5.551  0.2046  0.1408 -0.0958
 2812SOL    HW119895   1.420   3.479   5.623 -1.7376  1.6774 -0.4813
 2812SOL    HW219896   1.474   3.406   5.508  0.8968  0.5776  1.0661
 2813SOL     OW19897   1.137   3.604   3.040 -0.7225 -0.0885  0.3773
 2813SOL    HW119898   1.094   3.655   2.971 -0.1195 -2.1516 -1.5068
 2813SOL    HW219899   1.172   3.533   2.987  1.8398  2.4565 -1.3211
 2814SOL     OW19900   1.286   4.241   4.242 -0.1525 -0.7851  0.2148
 2814SOL    HW119901   1.286   4.295   4.322 -1.1872 -1.9413  0.9881
 2814SOL    HW219902   1.350   4.289   4.189 -0.1675 -0.5890  0.3728
 2815SOL     OW19903   4.522   1.982   4.553  0.4802  0.1205  0.0963
 2815SOL    HW119904   4.560   2.043   4.490  1.5900 -0.6070  0.0470
 2815SOL    HW219905   4.602   1.941   4.588  0.2601  0.6533  1.2123
 2816SOL     OW19906   3.335   2.117   1.785 -0.0132 -0.2467  0.4418
 2816SOL    HW119907   3.258   2.123   1.842  0.1883 -1.3783  0.8241
 2816SOL    HW219908   3.295   2.150   1.705  1.2883 -0.5668 -0.3317
 2817SOL     OW19909   4.144   0.997   7.277 -0.0391 -0.2526 -0.1201
 2817SOL    HW119910   4.114   1.068   7.220  2.8426  1.9622  1.0631
 2817SOL    HW219911   4.080   0.928   7.265  0.9839 -1.2793  0.3436
 2818SOL     OW19912   3.556   3.329   5.641 -0.0232 -0.1190 -0.1548
 2818SOL    HW119913   3.651   3.328   5.644  0.0013 -1.5590 -1.8329
 2818SOL    HW219914   3.540   3.235   5.653  0.0108 -0.0795  0.2152
 2819SOL     OW19915   1.995   1.836   0.843  0.5919  0.3137  0.6128
 2819SOL    HW119916   2.080   1.814   0.882  0.4142  0.4434  1.0745
 2819SOL    HW219917   2.008   1.930   0.829  0.4220 -0.2163 -2.9183
 2820SOL     OW19918   2.430   3.414   8.189  0.5138 -0.2417 -0.6622
 2820SOL    HW119919   2.359   3.354   8.166  1.4832 -1.9784  0.7539
 2820SOL    HW219920   2.489   3.369   8.250  0.1598  2.2628  1.5125
 2821SOL     OW19921   2.096   0.707   3.883  0.3058 -0.4315 -0.1975
 2821SOL    HW119922   2.020   0.653   3.907  0.9813 -1.2291  0.1422
 2821SOL    HW219923   2.080   0.686   3.791  0.3271  2.2344 -0.7965
 2822SOL     OW19924   4.702   4.532   4.617  0.1935 -0.5042 -0.4650
 2822SOL    HW119925   4.677   4.492   4.534 -0.0462 -4.2669  1.4299
 2822SOL    HW219926   0.069   4.553   4.606  0.0492  0.9468  0.9830
 2823SOL     OW19927   4.544   3.964   9.591 -0.4020 -0.2464  0.0447
 2823SOL    HW119928   4.598   4.031   9.634 -1.5262  1.4309 -1.1682
 2823SOL    HW219929   4.522   3.930   9.678 -1.2520 -2.3701 -1.0288
 2824SOL     OW19930   2.693   2.279  10.909  0.2435  0.3234 -0.4859
 2824SOL    HW119931   2.788   2.275  10.902  0.4290 -0.8336  2.8809
 2824SOL    HW219932   2.674   2.307  10.998 -1.9739  0.8057 -1.0926
 2825SOL     OW19933   4.313   1.080   7.913 -0.1242 -0.0368 -0.2326
 2825SOL    HW119934   4.368   1.033   7.850  0.3130  0.5845 -0.3114
 2825SOL    HW219935   4.275   1.152   7.863 -0.4633 -0.0193  0.0488
 2826SOL     OW19936   3.894   3.430   8.748  0.3248  0.1792  0.2385
 2826SOL    HW119937   3.850   3.415   8.832 -1.2759  0.7374 -0.5095
 2826SOL    HW219938   3.909   3.525   8.745  3.0964 -0.2274  0.5495
 2827SOL     OW19939   1.381   0.001   8.625  0.4567  0.2600  0.2855
 2827SOL    HW119940   1.453   0.012   8.563  2.7310  0.5964  2.9897
 2827SOL    HW219941   1.403   0.056   8.700  1.5042 -0.4118  0.4770
 2828SOL     OW19942   3.168   4.084   1.401 -0.1926 -0.2977 -0.1605
 2828SOL    HW119943   3.138   4.016   1.462  1.9716 -0.9900  0.1294
 2828SOL    HW219944   3.138   4.160   1.452  1.8611 -0.9677  2.0330
 2829SOL     OW19945   2.286   1.192  14.729  0.3327 -0.1975 -0.1616
 2829SOL    HW119946   2.196   1.174  14.756 -0.3723  2.7938 -0.4424
 2829SOL    HW219947   2.337   1.185  14.809  1.9899  0.1780 -1.1922
 2830SOL     OW19948   4.127   3.974   4.555 -0.1032  0.1742  0.1456
 2830SOL    HW119949   4.152   3.998   4.466 -0.0399  1.8569  0.6258
 2830SOL    HW219950   4.049   3.921   4.538 -1.3878  1.9399  0.5752
 2831SOL     OW19951   0.170   3.545   6.705 -0.5735  0.3975 -0.7776
 2831SOL    HW119952   0.158   3.452   6.685  0.2327 -0.3808  2.3102
 2831SOL    HW219953   0.223   3.575   6.631  0.4882  0.3977 -0.0161
 2832SOL     OW19954   0.858   2.604  11.258  0.6410  0.4074  0.2746
 2832SOL    HW119955   0.896   2.688  11.232 -1.6983  0.8722 -1.6351
 2832SOL    HW219956   0.882   2.543  11.189  0.2760  0.3299  0.2142
 2833SOL     OW19957   0.860   2.986   3.530  0.3184  0.2008 -0.0825
 2833SOL    HW119958   0.955   2.996   3.537  0.2561  0.3306  0.6191
 2833SOL    HW219959   0.859   2.962   3.437  0.9061 -0.0628 -0.0202
 2834SOL     OW19960   4.650   1.824   5.491  0.3047 -0.1383 -0.0586
 2834SOL    HW119961   4.624   1.874   5.414 -2.7874 -2.8569 -0.7789
 2834SOL    HW219962   4.607   1.877   5.558  2.1738  0.7141  0.4894
 2835SOL     OW19963   3.307   3.770  17.314 -0.2569 -0.4085  0.2939
 2835SOL    HW119964   3.238   3.768  17.248  0.7560 -0.2642 -0.7606
 2835SOL    HW219965   3.378   3.797  17.256 -0.6875  0.7113  0.2857
 2836SOL     OW19966   0.602   4.379   7.664  0.0397  0.0879  0.0868
 2836SOL    HW119967   0.536   4.378   7.733  0.3489  0.5320  0.3896
 2836SOL    HW219968   0.681   4.351   7.711 -0.4487 -0.8932  0.3110
 2837SOL     OW19969   4.320   4.396   3.709  0.1151 -0.5376 -0.0910
 2837SOL    HW119970   4.245   4.447   3.681 -0.3345 -1.1831 -0.0463
 2837SOL    HW219971   4.386   4.456   3.673 -1.3002 -0.2867 -2.2416
 2838SOL     OW19972   1.209   0.923   5.313 -0.5402  0.0128 -0.1596
 2838SOL    HW119973   1.210   0.889   5.402 -0.6334  0.3489 -0.0298
 2838SOL    HW219974   1.261   1.004   5.312 -1.3945  0.5701  0.5242
 2839SOL     OW19975   1.833   1.675   8.171  0.0615 -0.1251 -0.4655
 2839SOL    HW119976   1.816   1.626   8.251 -1.8077  3.3469  1.2344
 2839SOL    HW219977   1.742   1.697   8.150  0.8578 -0.2916 -4.1425
 2840SOL     OW19978   3.748   0.398   2.814 -0.0625 -0.2326 -0.2937
 2840SOL    HW119979   3.724   0.486   2.786 -2.0030  0.1370  2.6227
 2840SOL    HW219980   3.694   0.347   2.753 -0.9546 -1.4382  1.5140
 2841SOL     OW19981   3.632   1.899  12.846  0.3401  0.0864  0.8301
 2841SOL    HW119982   3.618   1.858  12.761 -0.1826  0.3842  0.7676
 2841SOL    HW219983   3.707   1.857  12.887  0.7005  0.4311  0.5237
 2842SOL     OW19984   0.692   1.920   7.260 -0.1425  0.3479  0.1442
 2842SOL    HW119985   0.664   1.950   7.347  0.8899 -1.8892  1.2501
 2842SOL    HW219986   0.786   1.912   7.276 -0.2807 -1.6022 -0.0899
 2843SOL     OW19987   4.189   4.567   6.935 -0.4894 -0.0411 -0.4340
 2843SOL    HW119988   4.104   4.546   6.973 -1.2391  0.9108 -1.5756
 2843SOL    HW219989   4.249   4.565   7.009 -1.8370  0.4382  0.6655
 2844SOL     OW19990   1.149   2.557   1.897  0.2483 -0.1021 -0.2876
 2844SOL    HW119991   1.219   2.578   1.958  0.8671  1.2926 -1.4693
 2844SOL    HW219992   1.150   2.639   1.847  1.5140  0.2863  0.4038
 2845SOL     OW19993   1.230   3.086  12.295 -0.0540  0.3737  0.2923
 2845SOL    HW119994   1.314   3.039  12.292 -0.3346 -0.2480  2.0294
 2845SOL    HW219995   1.172   3.029  12.245 -0.1435  0.7789 -0.0651
 2846SOL     OW19996   3.811   3.999  11.223  0.0562 -0.0219 -0.2188
 2846SOL    HW119997   3.811   4.012  11.128  1.0224 -1.1599 -0.3840
 2846SOL    HW219998   3.777   3.909  11.226 -1.7203  0.6522 -0.5691
 2847SOL     OW19999   0.058   1.200  17.120  0.3439 -0.0305  0.2078
 2847SOL    HW120000   4.693   1.211  17.093  0.2581  1.0415  0.9299
 2847SOL    HW220001   0.043   1.230  17.209  0.6130  1.9973 -0.4295
 2848SOL     OW20002   4.240   3.991  10.302 -0.5786 -0.2873  0.0735
 2848SOL    HW120003   4.184   3.915  10.319 -0.1434 -1.2832 -2.9498
 2848SOL    HW220004   4.183   4.044  10.359  0.6066 -1.3693  2.2647
 2849SOL     OW20005   2.064   0.327   2.923 -0.1391 -0.2646 -0.3031
 2849SOL    HW120006   1.976   0.298   2.947  0.9237 -1.3969  2.2566
 2849SOL    HW220007   2.127   0.265   2.958 -2.7469 -2.4494  0.5037
 2850SOL     OW20008   3.360   3.626   3.099  0.0926  0.5135 -0.1485
 2850SOL    HW120009   3.422   3.630   3.026  0.4425 -0.8662  0.0865
 2850SOL    HW220010   3.275   3.611   3.057  1.1892 -1.9709 -1.4619
 2851SOL     OW20011   4.059   0.705   2.910 -0.4677  0.3418 -0.4060
 2851SOL    HW120012   3.970   0.731   2.936 -0.0525  1.1537  0.2084
 2851SOL    HW220013   4.102   0.693   2.995 -2.1442 -2.9348 -0.0092
 2852SOL     OW20014   2.028   3.916   3.851 -0.6886  0.7624 -0.0525
 2852SOL    HW120015   2.047   3.850   3.784  1.6706  1.9728 -0.5627
 2852SOL    HW220016   2.005   3.994   3.801  2.0915  1.8069  0.3069
 2853SOL     OW20017   3.603   0.617   4.596 -0.4356  0.0407  0.2370
 2853SOL    HW120018   3.677   0.663   4.635 -0.9059  2.3923 -1.5675
 2853SOL    HW220019   3.651   0.536   4.584  0.9635  0.7850  0.7722
 2854SOL     OW20020   4.410   1.592   4.605 -0.3318 -0.5040 -0.1687
 2854SOL    HW120021   4.429   1.594   4.699 -0.6448  1.2839 -0.1354
 2854SOL    HW220022   4.496   1.610   4.565 -0.9109 -1.3628 -1.8150
 2855SOL     OW20023   0.771   0.501  10.897 -0.1613 -0.0013 -0.3300
 2855SOL    HW120024   0.754   0.576  10.954 -0.0823 -2.1394  2.4501
 2855SOL    HW220025   0.825   0.539  10.827 -0.3938  1.6774  0.4005
 2856SOL     OW20026   0.970   4.015   3.410  0.0596  0.3274  0.8746
 2856SOL    HW120027   0.954   3.942   3.470  1.3348 -0.7483 -0.0883
 2856SOL    HW220028   0.984   3.971   3.327 -1.4713  0.7566  0.3850
 2857SOL     OW20029   1.885   4.386   3.343 -0.1555  0.3337  0.1496
 2857SOL    HW120030   1.930   4.469   3.356  1.4493 -0.2398 -1.7751
 2857SOL    HW220031   1.794   4.416   3.338 -0.6527 -1.3237 -0.7310
 2858SOL     OW20032   3.032   1.497   5.525 -0.1289 -0.2463 -0.1423
 2858SOL    HW120033   2.964   1.564   5.527 -0.9658 -1.0742 -1.4075
 2858SOL    HW220034   3.067   1.512   5.438 -1.4643  1.4847 -0.3680
 2859SOL     OW20035   2.181   2.363   8.243  0.6357 -0.1172 -0.2878
 2859SOL    HW120036   2.208   2.428   8.178  3.3722 -1.8008 -0.7936
 2859SOL    HW220037   2.121   2.307   8.194  1.5601 -1.7698  0.4933
 2860SOL     OW20038   4.642   2.258   3.203  0.0995  0.6349  0.1633
 2860SOL    HW120039   4.672   2.188   3.260  1.4121  2.4207  1.6829
 2860SOL    HW220040   4.601   2.212   3.129  0.9617  1.4184 -0.8115
 2861SOL     OW20041   4.091   0.393   6.169 -0.2150  0.1305  1.0350
 2861SOL    HW120042   4.106   0.478   6.211 -0.8234  1.0773 -0.6385
 2861SOL    HW220043   4.120   0.336   6.240  1.2798 -0.7666 -0.3066
 2862SOL     OW20044   0.295   0.545   8.527 -0.0422 -0.1323 -0.5353
 2862SOL    HW120045   0.214   0.586   8.555  1.2936  1.4238  1.0692
 2862SOL    HW220046   0.320   0.472   8.583  3.4024  2.2132  0.9644
 2863SOL     OW20047   3.784   2.659   2.937 -0.8029  0.3830  0.2392
 2863SOL    HW120048   3.689   2.667   2.949 -0.6245  1.3081  0.9864
 2863SOL    HW220049   3.801   2.578   2.889 -0.9826  0.7665 -0.4748
 2864SOL     OW20050   3.440   1.022   7.086 -0.3332 -0.1611 -0.0653
 2864SOL    HW120051   3.523   0.980   7.066  0.2440  0.4845  1.0101
 2864SOL    HW220052   3.393   0.961   7.142  0.0644 -0.1126  0.3154
 2865SOL     OW20053   4.423   2.737  10.209  0.3426 -0.0335 -0.3192
 2865SOL    HW120054   4.355   2.786  10.162 -1.8434 -2.4909  0.2356
 2865SOL    HW220055   4.371   2.678  10.264 -1.4294 -1.1834 -3.1736
 2866SOL     OW20056   2.824   1.565   1.746 -0.2442  0.2921  0.1728
 2866SOL    HW120057   2.805   1.479   1.783 -0.1563 -0.5713 -1.8061
 2866SOL    HW220058   2.878   1.611   1.811  0.0638  0.0058  0.1211
 2867SOL     OW20059   0.717   2.898  16.160 -0.2000  0.7274 -0.7980
 2867SOL    HW120060   0.792   2.845  16.184 -0.4765  0.2085 -1.0836
 2867SOL    HW220061   0.657   2.881  16.233  1.2075  0.2976  0.2550
 2868SOL     OW20062   1.670   0.462   8.508 -0.1119 -0.0859 -0.0303
 2868SOL    HW120063   1.762   0.444   8.524 -0.1907 -0.3643  0.0947
 2868SOL    HW220064   1.625   0.426   8.584  1.0242  1.1721  1.2273
 2869SOL     OW20065   0.274   2.256   6.785 -0.3718 -0.2000 -0.5474
 2869SOL    HW120066   0.298   2.305   6.707  0.1760  1.9740  0.9740
 2869SOL    HW220067   0.281   2.167   6.752  1.5636 -0.0343 -0.6010
 2870SOL     OW20068   4.259   1.478  12.099  0.3505 -0.7951  0.2036
 2870SOL    HW120069   4.253   1.396  12.051 -0.6228  0.1048 -1.1851
 2870SOL    HW220070   4.333   1.518  12.055  0.0339 -1.1111 -0.6099
 2871SOL     OW20071   3.791   1.516   5.513 -0.4398  0.2062 -0.2086
 2871SOL    HW120072   3.798   1.551   5.602  2.2474 -1.0124  0.0421
 2871SOL    HW220073   3.752   1.431   5.530  1.9846 -0.1731  3.4303
 2872SOL     OW20074   4.688   3.486   6.063 -0.2510  0.0467  1.2125
 2872SOL    HW120075   0.044   3.466   6.019 -0.7071  1.2597 -0.1766
 2872SOL    HW220076   4.650   3.559   6.014  3.0028  0.5168 -0.5438
 2873SOL     OW20077   1.882   1.200   7.239  0.6097  0.9672  0.0676
 2873SOL    HW120078   1.912   1.117   7.277  1.2061  1.2161  0.1442
 2873SOL    HW220079   1.959   1.256   7.250  0.9072  0.6113 -0.1968
 2874SOL     OW20080   2.417   1.073   2.477 -0.9451  0.1555  0.0989
 2874SOL    HW120081   2.396   0.980   2.487 -1.4373  0.2484 -0.0972
 2874SOL    HW220082   2.376   1.088   2.392  0.4705  2.2076 -0.2117
 2875SOL     OW20083   2.948   2.828   8.472  0.1013 -0.0324 -0.3182
 2875SOL    HW120084   2.870   2.779   8.449 -2.0549  2.8213  0.9883
 2875SOL    HW220085   2.983   2.797   8.555  1.1503  2.4092  0.1663
 2876SOL     OW20086   1.026   1.158  17.190 -0.0099  0.1670 -0.1962
 2876SOL    HW120087   1.120   1.173  17.181  0.0946 -0.9375 -1.0936
 2876SOL    HW220088   0.993   1.176  17.102 -0.7828 -1.0297 -0.1619
 2877SOL     OW20089   4.680   3.578   9.036 -0.4444  0.6316 -0.2890
 2877SOL    HW120090   4.586   3.594   9.041 -0.3778  1.5251 -2.1282
 2877SOL    HW220091   4.725   3.595   9.119  1.1706 -2.1980 -0.5746
 2878SOL     OW20092   4.444   1.962   5.012  0.7741 -0.4187  0.3249
 2878SOL    HW120093   4.364   1.927   4.973  1.4086 -0.2819 -1.1063
 2878SOL    HW220094   4.515   1.910   4.976  1.4505  1.8547 -1.6390
 2879SOL     OW20095   0.720   2.387   7.518  0.5224  0.2954 -0.6072
 2879SOL    HW120096   0.660   2.397   7.592  0.8864 -1.3085 -0.0991
 2879SOL    HW220097   0.699   2.296   7.498 -0.2355 -0.3614  3.2192
 2880SOL     OW20098   0.522   1.771   2.322  0.2889 -0.1893  0.1865
 2880SOL    HW120099   0.543   1.697   2.379 -0.0398 -1.1130 -0.9019
 2880SOL    HW220100   0.556   1.739   2.239 -0.3162 -0.9275  0.2235
 2881SOL     OW20101   2.574   0.917   4.351  0.3635 -0.2135 -0.0438
 2881SOL    HW120102   2.595   0.861   4.277 -1.6836 -0.5151 -0.3879
 2881SOL    HW220103   2.479   0.914   4.342  0.2499 -1.5437  1.5104
 2882SOL     OW20104   3.280   1.800   7.981  0.5808 -0.1377  0.2208
 2882SOL    HW120105   3.292   1.830   8.071 -1.3798 -0.6570  0.6551
 2882SOL    HW220106   3.215   1.864   7.952  2.0790  1.5565  0.5986
 2883SOL     OW20107   2.141   2.986   9.916  0.4437  0.2296  0.0068
 2883SOL    HW120108   2.060   2.950   9.879 -0.1538  1.0360  0.5261
 2883SOL    HW220109   2.196   2.909   9.900 -2.6346 -2.0046  0.0613
 2884SOL     OW20110   3.732   3.510  13.954  0.1726 -0.0533 -0.0228
 2884SOL    HW120111   3.658   3.472  13.907 -1.2998  3.0206 -0.2042
 2884SOL    HW220112   3.699   3.598  13.974 -0.7953 -0.2437 -0.7880
 2885SOL     OW20113   4.650   0.427  13.383  0.1526 -0.0946  0.1559
 2885SOL    HW120114   4.681   0.422  13.473  0.4910 -1.1101 -0.0256
 2885SOL    HW220115   4.688   0.347  13.347 -0.8861 -0.3121 -0.4840
 2886SOL     OW20116   2.579   4.043  17.264  0.3797 -0.5019 -0.2680
 2886SOL    HW120117   2.516   4.094  17.213  2.4061  2.5618  0.2502
 2886SOL    HW220118   2.581   4.096  17.345  0.0266  1.1214 -1.3121
 2887SOL     OW20119   2.230   0.289   4.509 -0.4753  0.4124  0.0149
 2887SOL    HW120120   2.243   0.258   4.419  2.2182  0.8055  0.2531
 2887SOL    HW220121   2.141   0.261   4.527 -0.0855 -1.0132 -0.3061
 2888SOL     OW20122   1.682   3.895  15.895 -0.1762  0.1928 -0.0314
 2888SOL    HW120123   1.677   3.827  15.829 -1.0642  0.8570 -0.6464
 2888SOL    HW220124   1.774   3.884  15.920  0.2723  2.3663 -0.6465
 2889SOL     OW20125   4.418   3.411   8.239 -0.2141  0.3626  0.4238
 2889SOL    HW120126   4.440   3.453   8.322  0.8841  0.1443  0.2436
 2889SOL    HW220127   4.500   3.407   8.190 -0.4336 -1.2401  0.1863
 2890SOL     OW20128   1.990   2.102   5.825  0.5346  0.5962  0.0663
 2890SOL    HW120129   1.992   2.196   5.811 -1.6150  0.6301 -0.0155
 2890SOL    HW220130   2.084   2.108   5.842  0.8526  1.0348 -1.8245
 2891SOL     OW20131   2.665   3.536  11.928  0.2836  0.1488  0.1882
 2891SOL    HW120132   2.688   3.588  11.851 -2.9416  2.4170  0.7581
 2891SOL    HW220133   2.737   3.475  11.943  0.2103 -0.4598 -1.8719
 2892SOL     OW20134   4.012   3.284   7.957  0.1267 -0.7094 -0.2626
 2892SOL    HW120135   3.960   3.331   8.022 -0.1500 -0.9886 -0.2810
 2892SOL    HW220136   4.049   3.215   8.012 -0.1643  0.3544  1.2666
 2893SOL     OW20137   0.688   4.646   4.389  0.4553  0.4921 -0.3161
 2893SOL    HW120138   0.750   4.632   4.461 -0.0257 -0.6865 -0.1276
 2893SOL    HW220139   0.651   4.558   4.375  0.9203  0.3669 -0.7467
 2894SOL     OW20140   4.678   0.254  15.107  0.2972 -0.0674  0.1248
 2894SOL    HW120141   4.710   0.272  15.019  0.2878 -1.1026 -0.0808
 2894SOL    HW220142   4.667   0.341  15.147  0.7141 -0.3620  0.8805
 2895SOL     OW20143   2.745   0.882   5.520 -0.3398  0.1200  0.0636
 2895SOL    HW120144   2.720   0.869   5.429 -1.2316 -0.1631  0.3410
 2895SOL    HW220145   2.692   0.960   5.538  0.9465  1.0573 -0.2047
 2896SOL     OW20146   1.253   2.393  10.095 -0.5400 -0.0098  0.1599
 2896SOL    HW120147   1.279   2.347  10.015  1.3507  0.9199  0.2389
 2896SOL    HW220148   1.160   2.409  10.076 -0.5258 -0.1023  0.0142
 2897SOL     OW20149   3.168   3.528   8.368  0.5594  0.0094 -0.6818
 2897SOL    HW120150   3.230   3.518   8.440 -1.7804 -2.1704  1.0191
 2897SOL    HW220151   3.140   3.438   8.351 -0.6517  0.0888  0.9324
 2898SOL     OW20152   0.400   3.033   7.948 -0.0250  0.1472 -0.2463
 2898SOL    HW120153   0.316   3.025   7.992  0.1277  0.5560  0.1234
 2898SOL    HW220154   0.450   3.075   8.018  2.5879 -2.2686 -0.6391
 2899SOL     OW20155   4.437   4.158   7.206 -0.2430  0.0389 -0.0616
 2899SOL    HW120156   4.530   4.146   7.227  0.0481 -0.5682 -1.6283
 2899SOL    HW220157   4.411   4.226   7.268  1.1358 -0.9975  1.6584
 2900SOL     OW20158   3.876   1.118   5.279  0.2201  0.0656  0.2952
 2900SOL    HW120159   3.943   1.079   5.334  0.7660 -0.3426 -0.6564
 2900SOL    HW220160   3.820   1.045   5.252 -0.7408  1.8747 -2.5729
 2901SOL     OW20161   3.938   2.700   3.786 -0.7248 -0.0385  0.3848
 2901SOL    HW120162   3.944   2.670   3.695 -0.9652  0.1125  0.3194
 2901SOL    HW220163   4.019   2.670   3.826 -0.7074  1.4699  1.4705
 2902SOL     OW20164   0.521   0.275  17.426  0.0733 -0.2753  0.2873
 2902SOL    HW120165   0.438   0.288  17.472  0.9255  0.3635  1.6361
 2902SOL    HW220166   0.540   0.364  17.397  3.0179 -0.4656  1.6278
 2903SOL     OW20167   0.143   3.596  10.607 -0.1413  0.0327 -0.1280
 2903SOL    HW120168   0.144   3.638  10.693 -0.0193 -0.3460  0.0547
 2903SOL    HW220169   0.237   3.583  10.597 -0.0213  0.2730  0.6832
 2904SOL     OW20170   1.784   0.501   2.393  0.1095 -0.4362  0.0777
 2904SOL    HW120171   1.792   0.444   2.317 -0.3034  0.4655 -0.6401
 2904SOL    HW220172   1.800   0.583   2.346  3.9439 -0.7483  0.8303
 2905SOL     OW20173   1.122   2.130  13.866  0.6764 -0.4496  0.0407
 2905SOL    HW120174   1.069   2.156  13.790  1.4299  0.8673 -0.0319
 2905SOL    HW220175   1.205   2.161  13.832  0.2391  0.6553 -0.0316
 2906SOL     OW20176   0.145   2.290  13.956  0.3874 -0.5672  0.2392
 2906SOL    HW120177   0.085   2.218  13.971 -2.1175  1.3542 -0.5626
 2906SOL    HW220178   0.108   2.361  14.009  0.5893  1.1669 -1.9497
 2907SOL     OW20179   1.929   2.450   9.354 -0.3343 -0.0390  0.5979
 2907SOL    HW120180   1.952   2.536   9.320 -1.4183 -0.1937 -0.5456
 2907SOL    HW220181   1.878   2.464   9.434  0.4737  0.6882  0.9770
 2908SOL     OW20182   3.313   3.625   3.622 -0.0442 -0.3163  0.6294
 2908SOL    HW120183   3.292   3.636   3.529  0.3776  4.1785  1.0585
 2908SOL    HW220184   3.371   3.699   3.642 -0.7221  0.3917 -0.0257
 2909SOL     OW20185   2.598   1.308  14.705  0.2223  0.0657 -0.4265
 2909SOL    HW120186   2.586   1.215  14.720 -0.0904  0.1915  0.1225
 2909SOL    HW220187   2.586   1.353  14.789 -2.3837 -0.1973 -0.6607
 2910SOL     OW20188   3.148   3.109  14.368  0.6529  0.4096 -0.1699
 2910SOL    HW120189   3.212   3.052  14.326  1.5566  1.6210 -0.4114
 2910SOL    HW220190   3.210   3.156  14.424 -0.1219  0.9708  0.2138
 2911SOL     OW20191   0.794   1.321   9.104 -0.0170  0.1375 -0.9084
 2911SOL    HW120192   0.808   1.285   9.016 -0.0262 -1.0507 -0.4132
 2911SOL    HW220193   0.744   1.403   9.101 -0.9219 -0.3735  0.5562
 2912SOL     OW20194   0.428   4.281   5.754  0.2373  0.1858  0.1214
 2912SOL    HW120195   0.375   4.202   5.754  1.3538 -0.5636  0.0501
 2912SOL    HW220196   0.439   4.302   5.847 -1.8934  0.3372  0.3315
 2913SOL     OW20197   0.634   3.409  14.835 -0.4110 -0.2517  0.2074
 2913SOL    HW120198   0.706   3.459  14.873 -1.2550  0.7453  0.4729
 2913SOL    HW220199   0.658   3.397  14.743 -2.2000  2.8868 -0.6474
 2914SOL     OW20200   4.201   3.838   8.697  0.2190 -0.1317  0.4726
 2914SOL    HW120201   4.133   3.894   8.660  1.9161  1.8591  0.3615
 2914SOL    HW220202   4.205   3.879   8.784 -1.7136 -0.2020  0.5850
 2915SOL     OW20203   3.660   4.257   7.656  0.2684 -0.6623 -0.1490
 2915SOL    HW120204   3.715   4.179   7.660 -1.2382 -1.7039  0.1917
 2915SOL    HW220205   3.637   4.249   7.564  0.0297  2.4430 -0.3549
 2916SOL     OW20206   2.071   4.423  10.736  0.0818 -0.5724  0.1098
 2916SOL    HW120207   2.111   4.417  10.823 -0.6092 -0.3533  0.4449
 2916SOL    HW220208   1.980   4.442  10.759  0.4716  1.1243  0.1914
 2917SOL     OW20209   1.630   1.020   4.420 -0.4387 -0.8817  0.0972
 2917SOL    HW120210   1.599   1.058   4.338  2.1928 -2.3785 -1.5892
 2917SOL    HW220211   1.683   1.095   4.447 -1.1461  0.0159 -1.0131
 2918SOL     OW20212   3.702   2.432   8.544  0.3304  0.9197  0.5365
 2918SOL    HW120213   3.711   2.467   8.455  3.6281  2.0419  1.2964
 2918SOL    HW220214   3.694   2.510   8.598  0.6225  0.4759  1.2276
 2919SOL     OW20215   1.320   3.648   3.943  0.3547 -0.8089 -0.0049
 2919SOL    HW120216   1.361   3.732   3.924  2.5845 -1.2077  3.0228
 2919SOL    HW220217   1.392   3.600   3.984 -0.5199  0.0039  2.5046
 2920SOL     OW20218   0.029   4.368   9.058  0.4608 -0.2646  0.1043
 2920SOL    HW120219   0.042   4.420   8.979 -0.6888 -0.7489 -0.4150
 2920SOL    HW220220   0.080   4.418   9.121  1.9238 -1.0494 -0.4699
 2921SOL     OW20221   2.368   3.375   9.683 -0.0675 -0.0286  0.3177
 2921SOL    HW120222   2.325   3.461   9.677  0.2862  0.2313  1.4725
 2921SOL    HW220223   2.310   3.330   9.744  0.0851 -1.2935 -0.4859
 2922SOL     OW20224   2.881   1.242   7.121  0.0243  0.6296  0.1454
 2922SOL    HW120225   2.937   1.169   7.097 -2.6293 -1.1036 -0.7468
 2922SOL    HW220226   2.937   1.273   7.192  0.6176 -1.8715  0.7553
 2923SOL     OW20227   2.205   0.663   5.771 -0.6545  0.3234  0.0041
 2923SOL    HW120228   2.220   0.744   5.723  0.1397  0.7721  1.0101
 2923SOL    HW220229   2.127   0.640   5.721 -0.9187 -0.2845  0.6952
 2924SOL     OW20230   2.739   2.057   9.139 -0.2549 -0.2212  0.2894
 2924SOL    HW120231   2.750   2.150   9.157  1.1272 -0.7313  2.1072
 2924SOL    HW220232   2.645   2.044   9.148  0.1055 -2.7311  0.5394
 2925SOL     OW20233   4.567   4.652   6.449  0.3276  0.0514  0.2486
 2925SOL    HW120234   4.550   4.628   6.358  0.6752  1.8031 -0.2611
 2925SOL    HW220235   4.494   4.620   6.503  2.4374 -1.7052  2.0739
 2926SOL     OW20236   0.498   0.524   7.441  0.1374  0.0005  0.4720
 2926SOL    HW120237   0.591   0.510   7.424  0.2073  1.5579 -0.4177
 2926SOL    HW220238   0.471   0.445   7.487 -2.7151  0.8557  0.2783
 2927SOL     OW20239   3.833   4.448   4.114 -0.0497  0.3448  0.5907
 2927SOL    HW120240   3.821   4.382   4.183 -0.2395  2.0392  2.1762
 2927SOL    HW220241   3.928   4.454   4.123 -0.3622  0.3842  4.0707
 2928SOL     OW20242   1.029   2.827   0.016  0.0929  0.1406 -0.0170
 2928SOL    HW120243   1.049   2.760   0.082  1.4591 -0.3157 -0.9013
 2928SOL    HW220244   1.004   2.901   0.072 -1.8122 -0.7185  0.2683
 2929SOL     OW20245   3.880   3.683  13.392  0.1262 -0.5131 -0.8492
 2929SOL    HW120246   3.855   3.758  13.338  1.7174  0.7165  0.1093
 2929SOL    HW220247   3.914   3.631  13.320  1.9103 -1.3475  0.5848
 2930SOL     OW20248   2.693   0.902  17.388  0.0713 -0.1020 -0.6583
 2930SOL    HW120249   2.752   0.942  17.324 -0.7675 -1.1661 -2.1018
 2930SOL    HW220250   2.637   0.859  17.323 -1.7808 -0.6977  1.3343
 2931SOL     OW20251   3.597   3.932  14.851 -0.3569 -0.1885  0.2564
 2931SOL    HW120252   3.634   4.021  14.854 -1.0325  0.0916  0.2016
 2931SOL    HW220253   3.523   3.946  14.792 -0.1616  0.4735  0.1660
 2932SOL     OW20254   1.557   0.014   2.721  0.0567  0.1339 -0.6141
 2932SOL    HW120255   1.601   4.656   2.712 -1.1454 -0.5407 -0.2373
 2932SOL    HW220256   1.465   4.716   2.732  0.4248 -0.7389  0.6044
 2933SOL     OW20257   0.798   0.193   9.370  0.4083  0.4952 -0.0628
 2933SOL    HW120258   0.707   0.175   9.347  0.0718  0.5832  1.1618
 2933SOL    HW220259   0.797   0.209   9.465 -0.3601  2.7571 -0.4547
 2934SOL     OW20260   0.667   2.093   5.545 -0.1551  0.2832  0.1292
 2934SOL    HW120261   0.689   2.051   5.629 -0.3414 -0.0077  0.0338
 2934SOL    HW220262   0.749   2.103   5.498 -0.6233  1.5731 -0.3942
 2935SOL     OW20263   3.525   1.783   7.029 -0.1801  0.7177  0.9481
 2935SOL    HW120264   3.462   1.791   7.100 -1.0082 -0.5476  0.3493
 2935SOL    HW220265   3.509   1.867   6.985 -2.5167 -0.1975  0.0698
 2936SOL     OW20266   0.422   3.082   7.306  1.0508 -0.2193  0.5516
 2936SOL    HW120267   0.392   3.000   7.345 -0.1044 -0.3965 -0.7492
 2936SOL    HW220268   0.378   3.143   7.365 -0.7630  0.5884 -1.6512
 2937SOL     OW20269   1.896   1.752   5.079 -0.1507 -0.1290  0.1296
 2937SOL    HW120270   1.919   1.703   5.000  2.0881 -0.2877  0.8788
 2937SOL    HW220271   1.953   1.720   5.149  0.1696 -1.1583 -0.6091
 2938SOL     OW20272   4.553   3.389   8.709  0.2437 -0.1433  0.1715
 2938SOL    HW120273   4.635   3.341   8.702 -0.2534 -1.1422  1.2793
 2938SOL    HW220274   4.561   3.454   8.639 -0.1556 -0.8736 -0.5375
 2939SOL     OW20275   0.766   1.336   4.623 -0.5148  0.2962  0.0918
 2939SOL    HW120276   0.696   1.380   4.574 -1.7457 -2.0642 -0.2449
 2939SOL    HW220277   0.749   1.349   4.716  0.0362 -0.9574  0.3642
 2940SOL     OW20278   3.809   2.566   6.516  0.7858 -0.2883 -0.1007
 2940SOL    HW120279   3.854   2.491   6.477 -0.0722 -0.4437 -0.7865
 2940SOL    HW220280   3.846   2.638   6.465 -0.9893  2.1407  2.0282
 2941SOL     OW20281   1.081   4.707   7.415  0.0009 -0.2242  0.0077
 2941SOL    HW120282   1.082   0.021   7.328 -2.9540 -1.7481 -0.7438
 2941SOL    HW220283   0.999   0.024   7.439  0.2493 -0.2584  0.9470
 2942SOL     OW20284   3.757   3.393   2.605  0.3946  0.0527  0.1628
 2942SOL    HW120285   3.754   3.436   2.519 -0.0089 -2.0653 -0.8773
 2942SOL    HW220286   3.663   3.376   2.610  0.4454 -0.6993 -1.5285
 2943SOL     OW20287   1.490   1.002  14.093  0.6113  0.0778  0.0136
 2943SOL    HW120288   1.500   0.919  14.140 -1.5952 -0.2474 -0.1138
 2943SOL    HW220289   1.398   0.997  14.067  1.2746 -0.7767 -2.1826
 2944SOL     OW20290   1.675   1.920   9.336 -0.0712 -0.0656 -0.4228
 2944SOL    HW120291   1.690   1.895   9.245 -0.0955 -1.9531  0.0949
 2944SOL    HW220292   1.733   1.991   9.363 -1.1000  0.4463  0.4449
 2945SOL     OW20293   3.087   2.216   8.370  0.3303 -0.4038  0.2899
 2945SOL    HW120294   3.023   2.285   8.355  0.8734  0.3731  1.4962
 2945SOL    HW220295   3.053   2.170   8.447 -0.8936 -0.5440 -0.3349
 2946SOL     OW20296   1.953   0.179   5.184  0.6778  0.4422 -0.0383
 2946SOL    HW120297   1.961   0.092   5.224  1.7517  0.8120  0.5544
 2946SOL    HW220298   1.877   0.209   5.233 -0.2270 -0.6996 -0.7345
 2947SOL     OW20299   3.484   3.766   0.848 -0.3078 -0.9116  0.4131
 2947SOL    HW120300   3.429   3.769   0.927  1.0339  1.0897  1.2369
 2947SOL    HW220301   3.470   3.854   0.813 -1.0892 -1.8395 -1.6010
 2948SOL     OW20302   1.379   2.811   6.347  0.1415 -0.4341  0.0352
 2948SOL    HW120303   1.310   2.753   6.377 -0.5078  1.2500  1.7808
 2948SOL    HW220304   1.383   2.788   6.254  2.0274  0.3839 -0.0929
 2949SOL     OW20305   1.098   3.199  14.119  0.1310 -0.1095  0.1856
 2949SOL    HW120306   1.143   3.277  14.086 -1.5522 -0.5067 -3.1148
 2949SOL    HW220307   1.006   3.225  14.105 -0.1014 -1.7881 -1.4609
 2950SOL     OW20308   2.864   4.125   4.553  0.3994  0.3320  0.2568
 2950SOL    HW120309   2.815   4.207   4.550  1.0437  0.6737 -0.7755
 2950SOL    HW220310   2.955   4.154   4.560  0.4368 -0.0495  1.2938
 2951SOL     OW20311   3.062   4.546   3.142 -0.7175  0.4251 -0.4250
 2951SOL    HW120312   3.119   4.551   3.065 -0.7662  0.9949 -0.4203
 2951SOL    HW220313   2.981   4.571   3.098 -0.8007  1.1803  0.1635
 2952SOL     OW20314   1.480   0.823   6.815 -0.3776 -0.6832 -0.5586
 2952SOL    HW120315   1.558   0.826   6.760  0.2226  0.9511  0.3807
 2952SOL    HW220316   1.414   0.808   6.747 -0.9774  0.5048 -0.2400
 2953SOL     OW20317   3.242   0.920  11.698  0.1090 -0.4671  0.3578
 2953SOL    HW120318   3.280   0.856  11.759 -1.9902 -1.1739  0.8968
 2953SOL    HW220319   3.301   0.996  11.705 -0.9795  0.4511 -0.5915
 2954SOL     OW20320   3.724   2.676   9.409 -0.5023 -0.1260 -0.2204
 2954SOL    HW120321   3.783   2.732   9.459 -1.9351  0.2654  1.0583
 2954SOL    HW220322   3.638   2.712   9.432 -0.0447  0.6624  0.2379
 2955SOL     OW20323   0.727   0.805   2.528 -0.4332 -0.3501 -0.1373
 2955SOL    HW120324   0.712   0.883   2.581  0.3591  0.8735 -1.6973
 2955SOL    HW220325   0.668   0.746   2.574 -2.1871  1.4938 -0.0313
 2956SOL     OW20326   0.179   1.221   4.320 -0.4160 -0.0266  0.1411
 2956SOL    HW120327   0.209   1.285   4.384 -0.3437 -0.8757  0.9458
 2956SOL    HW220328   0.181   1.143   4.375  0.3970  0.1433  0.3581
 2957SOL     OW20329   2.246   4.621   7.725  0.0438 -0.4090 -0.4657
 2957SOL    HW120330   2.314   4.643   7.788  0.5138 -2.6195 -0.2109
 2957SOL    HW220331   2.177   4.611   7.791  1.1584 -0.1615  0.7177
 2958SOL     OW20332   3.387   3.829   5.633 -0.2745 -0.2231 -0.4042
 2958SOL    HW120333   3.340   3.890   5.575 -0.0449  1.5070  1.2131
 2958SOL    HW220334   3.347   3.849   5.718  1.2490 -2.0806  0.7354
 2959SOL     OW20335   4.179   0.554   4.048  0.4508 -0.0368 -0.2184
 2959SOL    HW120336   4.095   0.517   4.074  0.9311 -0.4728  0.7087
 2959SOL    HW220337   4.189   0.628   4.108  1.1600  1.7257 -2.4571
 2960SOL     OW20338   2.412   2.047   3.428 -0.2427 -0.1996 -0.7025
 2960SOL    HW120339   2.487   1.987   3.420  0.2382  0.3267 -0.1599
 2960SOL    HW220340   2.383   2.052   3.338  0.4264 -0.9538 -0.9673
 2961SOL     OW20341   4.518   3.613  11.628  0.7259 -0.1675  0.3729
 2961SOL    HW120342   4.444   3.597  11.570  2.3239 -3.1952 -0.8379
 2961SOL    HW220343   4.477   3.587  11.710 -2.6876  0.7071 -1.0504
 2962SOL     OW20344   0.553   1.687   7.938  0.6429  0.3514 -0.2226
 2962SOL    HW120345   0.461   1.664   7.946  0.9521 -1.1298 -1.0089
 2962SOL    HW220346   0.562   1.723   7.850 -0.3183  1.1557  0.0125
 2963SOL     OW20347   0.531   0.011   6.788 -0.5357  0.1831  0.3487
 2963SOL    HW120348   0.459   0.041   6.733 -1.5706  1.3853  2.3740
 2963SOL    HW220349   0.486   4.669   6.839 -0.6959  0.2986  0.3593
 2964SOL     OW20350   0.837   1.506  13.275  0.0487 -0.1545  0.8361
 2964SOL    HW120351   0.834   1.580  13.214  1.5905 -1.3898 -0.7578
 2964SOL    HW220352   0.758   1.465  13.240 -0.1593 -1.0420  2.3917
 2965SOL     OW20353   4.615   3.627   9.845 -0.4360  0.2455  0.2681
 2965SOL    HW120354   4.578   3.713   9.825  3.3550  2.0004  0.7811
 2965SOL    HW220355   4.537   3.583   9.877 -0.8016  0.0894 -0.8663
 2966SOL     OW20356   0.905   4.485  12.258  0.1483  0.0538  0.4207
 2966SOL    HW120357   0.988   4.527  12.236  1.0151 -0.8852  1.8450
 2966SOL    HW220358   0.881   4.523  12.343 -0.0153  0.5415  0.1552
 2967SOL     OW20359   3.126   3.386   3.973  0.2015  0.2506 -0.2972
 2967SOL    HW120360   3.220   3.377   3.957  0.0946  0.0704 -0.8258
 2967SOL    HW220361   3.127   3.466   4.026 -0.8728 -0.9527  1.5384
 2968SOL     OW20362   4.297   2.018  13.940 -0.1826 -0.5137 -0.3897
 2968SOL    HW120363   4.351   1.954  13.987 -0.0118  0.4702  0.7426
 2968SOL    HW220364   4.235   1.956  13.901 -0.4681 -1.2492  1.2193
 2969SOL     OW20365   2.195   0.189   6.371  0.0251  0.0306  0.0807
 2969SOL    HW120366   2.215   0.207   6.279 -0.2185  0.6609  0.1452
 2969SOL    HW220367   2.245   0.108   6.382  0.2889  0.6330  3.2245
 2970SOL     OW20368   0.223   0.705   8.308 -0.1815 -0.3310 -0.0065
 2970SOL    HW120369   0.237   0.787   8.355  0.0208 -0.8539  0.8368
 2970SOL    HW220370   0.262   0.646   8.372 -0.9929  0.2074  0.9828
 2971SOL     OW20371   0.219   1.669   2.719 -0.1129 -0.0624 -0.1403
 2971SOL    HW120372   0.248   1.701   2.804 -1.3298  0.3959  0.1092
 2971SOL    HW220373   0.236   1.745   2.663  3.7518 -0.3543  0.6339
 2972SOL     OW20374   3.926   3.853   7.271 -0.2002 -0.3036 -0.6379
 2972SOL    HW120375   4.005   3.817   7.232  0.1405  0.5051 -0.6933
 2972SOL    HW220376   3.872   3.858   7.192 -2.7396 -0.9733  1.0389
 2973SOL     OW20377   1.152   2.820  14.228  0.1553  0.0810  0.6517
 2973SOL    HW120378   1.221   2.758  14.254  1.9093  1.9839  0.5078
 2973SOL    HW220379   1.187   2.904  14.258  2.8215 -0.7528 -0.1099
 2974SOL     OW20380   1.818   0.343   8.094 -0.3776 -0.1941 -0.1527
 2974SOL    HW120381   1.859   0.334   8.180  3.0386 -1.1177 -1.8591
 2974SOL    HW220382   1.726   0.350   8.117  0.2736 -1.5017  2.8437
 2975SOL     OW20383   1.818   2.840   9.050 -0.2540  0.3238 -0.3910
 2975SOL    HW120384   1.782   2.905   9.111  1.8027 -0.2432  1.4276
 2975SOL    HW220385   1.768   2.872   8.975 -1.8023 -1.1353  0.0284
 2976SOL     OW20386   0.981   4.514   0.162 -0.2655  0.3243  0.0379
 2976SOL    HW120387   0.896   4.471   0.175  0.2573 -1.0208 -1.0430
 2976SOL    HW220388   1.043   4.448   0.193 -1.8642 -0.9806  0.4993
 2977SOL     OW20389   0.926   1.271   0.385 -0.6215  0.2434 -0.1061
 2977SOL    HW120390   0.833   1.257   0.367 -0.7197  1.0086 -0.1695
 2977SOL    HW220391   0.968   1.215   0.320  1.5271  0.0546  1.4395
 2978SOL     OW20392   4.120   2.762   3.060 -0.4764 -0.4350  0.5776
 2978SOL    HW120393   4.112   2.810   3.143  2.1029  1.3812 -0.2403
 2978SOL    HW220394   4.198   2.808   3.030 -0.3035  0.8041  2.8864
 2979SOL     OW20395   0.209   1.197   4.821 -0.2362  1.2022  0.3030
 2979SOL    HW120396   0.287   1.142   4.829 -1.0693 -0.3020 -2.2014
 2979SOL    HW220397   0.139   1.136   4.842  0.1979  1.0513  1.3437
 2980SOL     OW20398   4.547   3.048   4.581  0.2197  0.1432  0.1292
 2980SOL    HW120399   4.630   3.016   4.545  0.5488  0.0200  1.0081
 2980SOL    HW220400   4.558   3.060   4.675  2.1443  1.2421 -0.2331
 2981SOL     OW20401   4.644   4.166   6.550  0.4453 -0.3639 -0.7764
 2981SOL    HW120402   4.719   4.214   6.585 -1.4384  0.0474  2.7200
 2981SOL    HW220403   4.639   4.206   6.464 -0.9161 -1.4872 -1.2226
 2982SOL     OW20404   4.582   2.644   3.252 -0.1949 -0.6155 -0.8125
 2982SOL    HW120405   4.638   2.669   3.179  1.2866 -0.3381  0.4239
 2982SOL    HW220406   4.648   2.594   3.301 -1.2447  1.7819  3.1046
 2983SOL     OW20407   2.096   3.491   8.385 -0.3137  0.2260 -0.1839
 2983SOL    HW120408   2.175   3.545   8.387  0.3760 -0.8144  0.6304
 2983SOL    HW220409   2.122   3.409   8.425 -0.2139 -0.0899 -0.9006
 2984SOL     OW20410   2.861   0.886   1.764  0.2009 -0.5852  0.0816
 2984SOL    HW120411   2.831   0.949   1.699  1.8158  0.6147  0.5169
 2984SOL    HW220412   2.913   0.828   1.708  2.1175 -1.3172  2.5904
 2985SOL     OW20413   2.902   0.040   4.758  0.1707 -0.1177 -0.0496
 2985SOL    HW120414   2.955   4.724   4.826  0.2916  0.6325  0.3205
 2985SOL    HW220415   2.947   0.022   4.675  0.8628 -0.5059  0.4056
 2986SOL     OW20416   2.711   0.522   7.616 -0.4550  0.1082  0.4151
 2986SOL    HW120417   2.798   0.501   7.580 -1.9010 -3.8236 -0.8408
 2986SOL    HW220418   2.743   0.599   7.663  2.2415  0.5718 -2.1855
 2987SOL     OW20419   2.326   2.789  16.327  0.2113  0.1828  0.1154
 2987SOL    HW120420   2.306   2.717  16.386  1.0882  0.1860  0.4044
 2987SOL    HW220421   2.392   2.836  16.377 -1.3951  0.5367  1.8935
 2988SOL     OW20422   2.624   1.419   2.291 -0.4392 -0.1544 -0.2157
 2988SOL    HW120423   2.597   1.388   2.377  0.8142  1.8574  0.8925
 2988SOL    HW220424   2.672   1.500   2.307  1.6133 -1.3992 -0.0961
 2989SOL     OW20425   2.503   2.797  13.562  0.2481  0.2985  0.1002
 2989SOL    HW120426   2.545   2.781  13.478  0.6770  2.0869 -0.0154
 2989SOL    HW220427   2.465   2.882  13.541 -0.3550 -0.1325 -0.5793
 2990SOL     OW20428   3.289   1.347   5.275  0.7873  0.1658 -0.1918
 2990SOL    HW120429   3.304   1.323   5.184 -2.9311  0.0551 -0.7995
 2990SOL    HW220430   3.293   1.256   5.305 -2.9830  0.5525  1.4850
 2991SOL     OW20431   1.568   3.252   4.323 -0.6528  0.1464  0.4424
 2991SOL    HW120432   1.556   3.202   4.404 -1.5549 -3.4316 -1.8755
 2991SOL    HW220433   1.610   3.331   4.357 -1.1004  0.4907  0.1950
 2992SOL     OW20434   3.464   1.669   5.190  0.2183  0.0040 -0.2702
 2992SOL    HW120435   3.538   1.613   5.164 -0.7272 -1.6831  0.6167
 2992SOL    HW220436   3.443   1.641   5.279  2.2270  0.8017  0.4488
 2993SOL     OW20437   0.624   0.783   1.145  0.0217 -0.0323  0.1894
 2993SOL    HW120438   0.620   0.824   1.232 -2.2695  1.4122 -0.6055
 2993SOL    HW220439   0.682   0.709   1.165 -0.7665 -0.7728 -0.2432
 2994SOL     OW20440   2.504   3.016   9.049  0.2522 -0.6055 -0.2196
 2994SOL    HW120441   2.501   2.922   9.064 -0.9602 -0.2538  1.6689
 2994SOL    HW220442   2.464   3.022   8.962  2.4221 -2.3447 -1.3234
 2995SOL     OW20443   4.715   2.048  13.976  0.2184 -0.4307 -0.0535
 2995SOL    HW120444   0.016   1.972  14.026  2.0859  0.3195  0.0683
 2995SOL    HW220445   4.632   2.021  13.937  0.4354 -1.5998  0.2836
 2996SOL     OW20446   0.194   3.763   3.399  0.3707 -0.4484 -0.0541
 2996SOL    HW120447   0.101   3.744   3.393  0.4473 -0.4114 -1.5599
 2996SOL    HW220448   0.216   3.789   3.309 -1.3847  0.6943 -0.1453
 2997SOL     OW20449   4.445   0.455  10.247  0.0829 -0.3251  0.0928
 2997SOL    HW120450   4.411   0.366  10.246 -1.2066  0.1780 -0.6376
 2997SOL    HW220451   4.527   0.435  10.203 -1.0114  0.6085 -2.3944
 2998SOL     OW20452   0.662   2.174   1.186 -0.4480  0.4173  0.0696
 2998SOL    HW120453   0.572   2.184   1.156 -0.3345  0.7436 -0.1590
 2998SOL    HW220454   0.711   2.184   1.105 -0.6836 -0.4014 -0.1784
 2999SOL     OW20455   3.178   0.246   1.045 -0.4771  0.0748 -0.4890
 2999SOL    HW120456   3.205   0.297   1.121 -0.5765 -0.5139 -0.0584
 2999SOL    HW220457   3.148   0.163   1.080  0.2916 -0.7178 -1.7001
 3000SOL     OW20458   4.624   0.140  15.650  0.1268 -0.4267  0.2855
 3000SOL    HW120459   4.599   0.229  15.674 -2.6455 -1.7100  2.0367
 3000SOL    HW220460   4.706   0.137  15.700  1.7783  0.9933 -2.3437
 3001SOL     OW20461   4.448   4.644  15.503  0.0174  0.1834 -0.3302
 3001SOL    HW120462   4.381   4.705  15.535  0.9435  0.4825  1.0455
 3001SOL    HW220463   4.400   4.566  15.475 -0.3196  1.0476 -2.1497
 3002SOL     OW20464   4.079   3.741   7.075 -0.6383 -0.3248  0.1744
 3002SOL    HW120465   4.012   3.675   7.059 -0.5501 -0.5770  0.8249
 3002SOL    HW220466   4.117   3.753   6.988 -0.1614 -1.1556  0.2599
 3003SOL     OW20467   3.611   2.407  15.878  0.2786 -0.4244  0.2320
 3003SOL    HW120468   3.565   2.468  15.935  1.7895  0.7917  0.1431
 3003SOL    HW220469   3.547   2.383  15.811  2.8564 -2.7094 -1.4086
 3004SOL     OW20470   0.607   2.211   5.083 -0.1623  0.1042 -0.4163
 3004SOL    HW120471   0.602   2.151   5.158  1.5057 -1.2580 -1.4129
 3004SOL    HW220472   0.560   2.285   5.122  1.3052 -0.0176  1.6090
 3005SOL     OW20473   4.128   4.157  14.927  0.5949  0.3677  0.3939
 3005SOL    HW120474   4.068   4.087  14.953  1.4269 -1.1056 -1.6559
 3005SOL    HW220475   4.197   4.111  14.880 -0.4455  0.5743 -1.3255
 3006SOL     OW20476   1.923   2.591   6.949 -0.2320  0.3431 -0.0765
 3006SOL    HW120477   1.850   2.590   7.011 -0.0681 -0.5451  0.1082
 3006SOL    HW220478   1.911   2.681   6.917  2.0522  1.7471  3.1227
 3007SOL     OW20479   3.745   0.742   6.011  0.2313  0.2271  0.4113
 3007SOL    HW120480   3.685   0.672   5.988  0.2029  0.1318  0.7759
 3007SOL    HW220481   3.709   0.758   6.098 -0.3410 -0.6711  0.3327
 3008SOL     OW20482   4.456   0.083  17.506  0.0891 -0.3372 -0.1946
 3008SOL    HW120483   4.520   0.061  17.574  0.2124  0.6505  0.0132
 3008SOL    HW220484   4.398   0.007  17.502 -1.0215  0.5515 -1.0421
 3009SOL     OW20485   4.373   2.126   1.170  0.5461 -0.0660 -0.3344
 3009SOL    HW120486   4.422   2.106   1.090 -1.0591 -2.8094 -0.6452
 3009SOL    HW220487   4.290   2.165   1.143 -0.3542 -1.4084  0.5063
 3010SOL     OW20488   3.193   3.732  16.453 -0.3184 -0.2956 -0.3058
 3010SOL    HW120489   3.182   3.805  16.514 -0.0194 -0.6360  0.1516
 3010SOL    HW220490   3.277   3.756  16.414 -0.9832  1.6568 -0.5517
 3011SOL     OW20491   1.765   3.280   6.689 -0.3355  0.1007  0.0820
 3011SOL    HW120492   1.804   3.303   6.774 -0.4706 -3.1769  1.0368
 3011SOL    HW220493   1.697   3.346   6.678  0.6367  1.5338  2.5250
 3012SOL     OW20494   1.617   2.989   3.581  0.4395 -0.2298  0.2306
 3012SOL    HW120495   1.706   2.998   3.549  0.2644 -0.7044 -0.3731
 3012SOL    HW220496   1.608   3.069   3.634  0.1139  0.1391 -0.3827
 3013SOL     OW20497   0.603   3.776  17.662 -0.0213 -0.0939  0.1594
 3013SOL    HW120498   0.604   3.708  17.595 -2.2256 -1.2452  1.2738
 3013SOL    HW220499   0.618   3.848  17.602  1.4675 -0.0502  0.5947
 3014SOL     OW20500   4.152   1.623   1.546  0.3519  0.0698 -0.3763
 3014SOL    HW120501   4.130   1.596   1.635  0.8157  0.6722 -0.0773
 3014SOL    HW220502   4.117   1.547   1.499  0.2551  1.1461 -2.0262
 3015SOL     OW20503   0.893   4.490   9.032 -0.4475  0.2116 -0.3840
 3015SOL    HW120504   0.966   4.531   9.077 -1.5397  0.1076  1.4916
 3015SOL    HW220505   0.812   4.534   9.060 -0.8024 -0.2575 -0.6688
 3016SOL     OW20506   3.107   0.484  14.869 -0.4328 -0.2096 -0.4657
 3016SOL    HW120507   3.170   0.555  14.870 -2.1518  1.2985  0.1291
 3016SOL    HW220508   3.171   0.423  14.907 -0.9250 -1.1589 -1.1779
 3017SOL     OW20509   3.063   3.068   6.868 -0.3677  0.1973 -0.0914
 3017SOL    HW120510   3.081   3.109   6.952  0.5100 -0.6698  0.1474
 3017SOL    HW220511   3.147   3.024   6.855 -0.7229 -0.9095  1.4173
 3018SOL     OW20512   3.159   4.624   3.618  0.2670 -0.5781 -0.6159
 3018SOL    HW120513   3.079   4.594   3.662  0.4664 -0.0396  0.1314
 3018SOL    HW220514   3.120   4.693   3.564  1.2583 -0.1981 -0.8489
 3019SOL     OW20515   1.847   1.435   2.411  0.2674  0.2840  0.5331
 3019SOL    HW120516   1.851   1.526   2.441 -0.0976  0.7196 -0.7499
 3019SOL    HW220517   1.813   1.385   2.485 -0.0340 -1.2783 -0.6653
 3020SOL     OW20518   0.252   1.049   5.595  0.2645  0.0939 -0.2273
 3020SOL    HW120519   0.340   1.082   5.612 -0.9968  3.6072 -0.6805
 3020SOL    HW220520   0.215   1.051   5.683 -0.5793  0.7203 -0.5954
 3021SOL     OW20521   2.113   4.401   1.717  0.1855 -0.6222 -0.2223
 3021SOL    HW120522   2.037   4.434   1.669 -1.4954 -3.0290  0.8171
 3021SOL    HW220523   2.184   4.415   1.654 -0.5882 -0.0730 -0.9689
 3022SOL     OW20524   1.396   2.501   8.500  0.6515 -0.2790  0.2713
 3022SOL    HW120525   1.470   2.454   8.538  1.7090  0.7336 -0.5210
 3022SOL    HW220526   1.386   2.577   8.557  1.7896 -1.3024  1.8407
 3023SOL     OW20527   0.650   3.193   8.995  0.2960  0.6141 -0.0674
 3023SOL    HW120528   0.588   3.155   8.933 -1.9948  3.1794  0.6472
 3023SOL    HW220529   0.602   3.201   9.078  2.6540 -2.5691  1.6195
 3024SOL     OW20530   2.068   1.983  16.093 -0.1655  0.0101 -0.6378
 3024SOL    HW120531   2.105   2.037  16.163 -0.2211 -0.0608 -0.5545
 3024SOL    HW220532   2.071   2.044  16.019 -0.0326 -1.2580 -1.6842
 3025SOL     OW20533   0.523   3.566   7.024  0.0003 -0.7008  0.2228
 3025SOL    HW120534   0.438   3.604   7.001 -0.4990 -1.4326  0.8632
 3025SOL    HW220535   0.544   3.520   6.943  0.5201  0.7546 -0.4625
 3026SOL     OW20536   3.645   0.226   1.810 -0.1902  0.0939 -0.2933
 3026SOL    HW120537   3.665   0.133   1.819  0.7417  0.4438  1.3743
 3026SOL    HW220538   3.704   0.250   1.739 -1.5732  1.9243 -0.8406
 3027SOL     OW20539   3.423   4.631  11.762 -0.1702 -0.2044  0.3136
 3027SOL    HW120540   3.472   4.661  11.685 -1.1070  1.8859  0.5416
 3027SOL    HW220541   3.482   4.651  11.835 -0.9685  2.5597  0.1600
 3028SOL     OW20542   0.101   3.659   4.025  0.3402 -0.1926  0.1023
 3028SOL    HW120543   0.072   3.729   3.966  0.0711  0.3593  0.8930
 3028SOL    HW220544   0.073   3.584   3.973 -1.3101 -0.8043  1.8736
 3029SOL     OW20545   2.056   0.771   7.386  0.0035  0.0695 -0.1061
 3029SOL    HW120546   2.024   0.808   7.469  0.1399 -1.9021  0.8204
 3029SOL    HW220547   2.129   0.712   7.401 -1.2420 -2.3149 -3.4815
 3030SOL     OW20548   3.279   0.015   2.456  0.2557 -0.0219 -0.3741
 3030SOL    HW120549   3.243   0.103   2.444  0.3650 -0.3714 -3.2290
 3030SOL    HW220550   3.359   0.029   2.405  0.2415 -3.6464 -1.3592
 3031SOL     OW20551   4.638   4.335   2.493  0.1438 -0.0742 -0.2325
 3031SOL    HW120552   4.692   4.414   2.488 -0.1581 -0.0689 -3.1646
 3031SOL    HW220553   4.594   4.340   2.579  0.3325 -0.9305 -0.0938
 3032SOL     OW20554   3.516   3.885   7.113 -0.3325  0.0836 -0.5327
 3032SOL    HW120555   3.490   3.977   7.111  0.4810  0.3537  0.5932
 3032SOL    HW220556   3.454   3.838   7.170 -0.3831  0.7495 -0.0359
 3033SOL     OW20557   4.109   2.044   4.127  0.4642 -0.2053 -0.3330
 3033SOL    HW120558   4.032   1.994   4.153  0.3933 -0.0326 -0.2120
 3033SOL    HW220559   4.141   1.962   4.089  0.4780 -0.9208  1.2408
 3034SOL     OW20560   1.964   4.551  13.932  0.3865 -0.1155 -0.4655
 3034SOL    HW120561   2.008   4.550  14.017  0.7661  0.1390 -0.6600
 3034SOL    HW220562   1.940   4.644  13.933  2.7438  0.4959  0.5649
 3035SOL     OW20563   3.845   0.199   8.106 -0.1290 -0.1209 -0.3845
 3035SOL    HW120564   3.894   0.119   8.088 -1.1879 -1.0782  0.9574
 3035SOL    HW220565   3.848   0.233   8.017  0.8841 -0.0950 -0.3356
 3036SOL     OW20566   4.218   2.372   2.514  0.3930 -0.1428  0.2007
 3036SOL    HW120567   4.219   2.300   2.577 -2.8931 -0.2156  0.2154
 3036SOL    HW220568   4.309   2.372   2.485 -0.0678 -0.7496 -1.2298
 3037SOL     OW20569   3.394   1.134   8.667 -0.3234  0.0190  0.2465
 3037SOL    HW120570   3.302   1.162   8.672 -0.2188  0.5407 -0.7906
 3037SOL    HW220571   3.392   1.050   8.712  0.7138 -0.6157 -0.9019
 3038SOL     OW20572   0.098   4.595   8.078  0.7577 -0.4362 -0.2465
 3038SOL    HW120573   0.072   4.684   8.052  0.7194 -0.0313  1.1835
 3038SOL    HW220574   0.068   4.540   8.006  1.1956 -1.4819  0.3825
 3039SOL     OW20575   3.582   4.126   3.707  0.1679  0.3955 -0.1533
 3039SOL    HW120576   3.536   4.152   3.627 -1.8255 -0.6831  0.6310
 3039SOL    HW220577   3.659   4.100   3.657  1.5168  2.0973  1.0451
 3040SOL     OW20578   3.368   0.211   4.481  0.0299  0.3536 -0.9296
 3040SOL    HW120579   3.309   0.262   4.425  2.0986  1.7421 -1.8354
 3040SOL    HW220580   3.350   0.120   4.456  0.0884  0.1494 -0.2325
 3041SOL     OW20581   2.797   4.198   2.401  0.4290 -0.7111 -0.2744
 3041SOL    HW120582   2.748   4.274   2.371  0.0997  0.0652  2.2782
 3041SOL    HW220583   2.852   4.239   2.468  0.1161 -1.1482  0.2573
 3042SOL     OW20584   1.701   3.446   3.528  0.1903 -0.6789  0.0665
 3042SOL    HW120585   1.793   3.437   3.552 -0.0031 -1.1667  0.6360
 3042SOL    HW220586   1.685   3.540   3.536 -1.9001 -0.8080 -2.7511
 3043SOL     OW20587   4.300   3.937   5.755  0.2035  0.4410 -0.4218
 3043SOL    HW120588   4.226   3.878   5.744  1.6561 -2.0758  3.4795
 3043SOL    HW220589   4.269   4.011   5.807  1.5200  0.0534  0.9066
 3044SOL     OW20590   0.604   1.527  11.159 -0.4144  0.2053  0.0760
 3044SOL    HW120591   0.540   1.477  11.109 -1.0730  1.0621  0.0615
 3044SOL    HW220592   0.659   1.556  11.087  0.4283 -1.2060  0.1450
 3045SOL     OW20593   3.144   0.993   3.518  0.0281 -0.3000 -0.4202
 3045SOL    HW120594   3.235   1.013   3.495 -0.8296  4.7418  0.5374
 3045SOL    HW220595   3.120   1.003   3.425 -3.3074 -0.4125  0.4262
 3046SOL     OW20596   2.252   0.616  14.685 -0.0011 -0.1478 -0.7442
 3046SOL    HW120597   2.281   0.527  14.707  1.3336  0.7951  1.3114
 3046SOL    HW220598   2.323   0.645  14.628  0.8190  0.9198  0.7961
 3047SOL     OW20599   0.473   1.722  11.389  0.7849  0.2740 -0.3215
 3047SOL    HW120600   0.511   1.682  11.311  1.1033  0.3080 -0.1830
 3047SOL    HW220601   0.533   1.693  11.457  1.2573 -1.4562 -1.4480
 3048SOL     OW20602   2.735   4.155  17.616  0.0612 -0.1092  0.0540
 3048SOL    HW120603   2.759   4.132  17.526 -2.4026  1.1590 -0.9575
 3048SOL    HW220604   2.812   4.208  17.635 -0.2378  1.1505 -2.2420
 3049SOL     OW20605   3.324   0.322  12.004 -0.1161  0.2651  0.3434
 3049SOL    HW120606   3.418   0.313  12.018 -0.0180  1.0624  0.2247
 3049SOL    HW220607   3.275   0.270  12.068 -1.7769 -3.1827 -3.7261
 3050SOL     OW20608   3.475   2.002   4.176  0.4774  0.3107  0.6471
 3050SOL    HW120609   3.466   1.911   4.205  1.4368  0.7872  2.4412
 3050SOL    HW220610   3.466   2.000   4.081  0.2706  1.4972  0.6506
 3051SOL     OW20611   1.252   0.601   6.240 -0.1099  0.3980 -0.3321
 3051SOL    HW120612   1.323   0.536   6.233 -0.2585  0.1338  0.6024
 3051SOL    HW220613   1.213   0.577   6.324 -0.3884  0.1992 -0.5185
 3052SOL     OW20614   4.036   0.263   1.408 -0.2283 -0.3201 -0.3349
 3052SOL    HW120615   4.124   0.286   1.380  0.2929 -2.4956 -0.4676
 3052SOL    HW220616   3.976   0.317   1.355 -2.1121  0.1470  2.2790
 3053SOL     OW20617   1.826   2.415   6.098  0.4388 -0.2955 -0.1653
 3053SOL    HW120618   1.847   2.342   6.157  1.3693  0.3532  0.3118
 3053SOL    HW220619   1.873   2.480   6.151 -2.6723  1.3461  0.5455
 3054SOL     OW20620   1.946   0.721   7.644 -0.0543  0.3801 -0.1955
 3054SOL    HW120621   1.959   0.627   7.659 -0.7365  0.3195  0.0439
 3054SOL    HW220622   1.954   0.746   7.736  0.8273  1.4072 -0.5586
 3055SOL     OW20623   1.795   2.650   2.616  0.2637 -0.2047 -0.3736
 3055SOL    HW120624   1.872   2.608   2.577  0.4742  0.1599 -0.3556
 3055SOL    HW220625   1.776   2.599   2.694  0.7655  0.2426  0.0382
 3056SOL     OW20626   1.998   2.215   0.443  0.3309 -0.1439  0.3248
 3056SOL    HW120627   2.017   2.298   0.399 -1.9995  0.5714  0.6571
 3056SOL    HW220628   2.075   2.204   0.499 -0.8566  0.7764  2.1171
 3057SOL     OW20629   0.044   2.396   9.930 -0.1262 -0.6260 -0.1519
 3057SOL    HW120630   4.691   2.445   9.951  0.9246  0.1470  2.0171
 3057SOL    HW220631   0.069   2.353  10.012  1.6281 -0.7734 -0.7531
 3058SOL     OW20632   2.123   1.624   8.110  0.1397  0.5028 -0.3718
 3058SOL    HW120633   2.044   1.673   8.086 -0.3826  0.3626  1.0860
 3058SOL    HW220634   2.106   1.542   8.063  2.1052 -1.0589  1.6791
 3059SOL     OW20635   1.745   3.776   4.288  0.7920  0.2263 -0.3418
 3059SOL    HW120636   1.804   3.809   4.220  0.8682 -0.8824 -0.8116
 3059SOL    HW220637   1.774   3.687   4.306 -1.2402 -0.6455 -1.4847
 3060SOL     OW20638   2.309   4.221   9.027  0.3799  0.1667  0.5105
 3060SOL    HW120639   2.298   4.140   9.077 -0.5675  0.3405  0.5954
 3060SOL    HW220640   2.277   4.286   9.090 -1.9414  0.8733 -1.4127
 3061SOL     OW20641   4.338   0.795  11.832 -0.5472 -0.5638 -0.3118
 3061SOL    HW120642   4.376   0.725  11.886 -0.1227 -1.5377 -1.8432
 3061SOL    HW220643   4.419   0.843  11.812 -1.1208  0.3913 -0.3226
 3062SOL     OW20644   4.177   3.960   1.919  0.2060  0.1222  0.0852
 3062SOL    HW120645   4.181   4.006   1.835  0.4492 -3.3160 -1.7629
 3062SOL    HW220646   4.234   3.884   1.906  1.4829  1.1244 -0.1640
 3063SOL     OW20647   2.423   4.368   4.014  0.2110  0.1086  0.1981
 3063SOL    HW120648   2.376   4.446   3.985 -0.6551  0.1707  1.8089
 3063SOL    HW220649   2.352   4.311   4.041  1.3366 -1.7407 -0.7060
 3064SOL     OW20650   0.341   4.330  17.566 -0.0985 -0.6611  0.1579
 3064SOL    HW120651   0.319   4.421  17.547 -0.6138 -0.6665  0.7461
 3064SOL    HW220652   0.258   4.294  17.599  0.0376  0.1343  1.3360
 3065SOL     OW20653   4.016   1.124   8.738 -0.4363 -0.0028  0.0274
 3065SOL    HW120654   4.048   1.067   8.667  1.5976  0.8332  0.2847
 3065SOL    HW220655   4.053   1.207   8.709 -0.0630 -0.5704 -1.1485
 3066SOL     OW20656   1.717   1.787   6.088 -0.4611 -1.0084  0.2570
 3066SOL    HW120657   1.735   1.748   6.174  2.9745 -0.1187 -0.0427
 3066SOL    HW220658   1.782   1.858   6.091 -0.3525 -1.0207 -2.2934
 3067SOL     OW20659   1.608   1.618   1.136  1.0379 -0.2292  0.3536
 3067SOL    HW120660   1.603   1.710   1.108 -2.2831 -0.3076  0.7090
 3067SOL    HW220661   1.646   1.630   1.223  0.7144 -0.0142  0.4651
 3068SOL     OW20662   3.350   2.717   7.519  0.2830 -0.4932 -0.2848
 3068SOL    HW120663   3.307   2.716   7.434  0.1045 -2.1486 -0.1681
 3068SOL    HW220664   3.316   2.634   7.552 -1.3660 -0.0097 -0.8140
 3069SOL     OW20665   4.037   1.002  15.051  0.8917  0.0091 -0.1863
 3069SOL    HW120666   4.120   1.030  15.090  0.7286  0.2801 -0.0413
 3069SOL    HW220667   4.050   1.045  14.967 -0.0869  0.8414  0.0981
 3070SOL     OW20668   3.124   1.491   3.402 -0.5597  0.6934 -0.0640
 3070SOL    HW120669   3.048   1.502   3.460  1.0434  0.4543  2.0972
 3070SOL    HW220670   3.084   1.444   3.329  0.4543  2.2265 -1.6018
 3071SOL     OW20671   0.874   3.441   5.717 -0.0799 -0.0775 -0.0729
 3071SOL    HW120672   0.950   3.414   5.768 -0.5413  3.3372  2.4290
 3071SOL    HW220673   0.903   3.499   5.648 -1.1799  0.5153 -0.0361
 3072SOL     OW20674   4.330   2.246   2.848 -0.1588 -0.0431  0.1271
 3072SOL    HW120675   4.330   2.332   2.890  0.4448  0.3178 -0.6188
 3072SOL    HW220676   4.411   2.207   2.880  0.9166  0.2319 -2.3438
 3073SOL     OW20677   1.096   4.570   3.825  0.6387 -0.3390 -0.0850
 3073SOL    HW120678   1.104   4.487   3.871 -4.5531 -0.8509 -0.0232
 3073SOL    HW220679   1.135   4.559   3.739  0.0378  0.2860 -0.4400
 3074SOL     OW20680   0.778   2.608   3.191  0.2488  0.2144  0.2974
 3074SOL    HW120681   0.744   2.697   3.202 -1.5985 -0.3195 -1.0761
 3074SOL    HW220682   0.869   2.618   3.161  0.7003 -0.6943  1.3712
 3075SOL     OW20683   0.167   2.503  14.911 -0.0029 -0.2733 -0.0277
 3075SOL    HW120684   0.176   2.436  14.843  0.1371  0.1384 -0.4147
 3075SOL    HW220685   0.225   2.469  14.979  1.4876 -0.2069 -1.2852
 3076SOL     OW20686   2.687   0.539   5.470  0.2441  0.3775  0.7570
 3076SOL    HW120687   2.689   0.604   5.541  0.5927  2.2453 -0.9342
 3076SOL    HW220688   2.597   0.520   5.494  0.5721 -0.1801  1.5510
 3077SOL     OW20689   2.458   2.108   6.021 -0.0777  0.1647 -0.1509
 3077SOL    HW120690   2.511   2.188   6.017  0.0140  0.1433  0.5886
 3077SOL    HW220691   2.503   2.049   6.081  0.1546 -1.3723 -1.8445
 3078SOL     OW20692   2.147   4.652  11.383 -0.2858  0.5431  0.2146
 3078SOL    HW120693   2.222   4.606  11.345 -1.2874 -0.5694 -0.4182
 3078SOL    HW220694   2.158   0.008  11.335 -2.3593  0.7513  0.0966
 3079SOL     OW20695   3.801   1.871  16.215  0.0665  0.7176  0.3202
 3079SOL    HW120696   3.742   1.799  16.235  1.2735 -0.6051 -0.8792
 3079SOL    HW220697   3.877   1.829  16.174 -2.0035 -0.6271 -2.1239
 3080SOL     OW20698   0.109   4.241  10.888 -0.2390 -0.0565 -0.2520
 3080SOL    HW120699   0.105   4.325  10.934  1.7499 -0.0928 -0.0131
 3080SOL    HW220700   0.081   4.270  10.801  1.3869  0.6337 -0.5554
 3081SOL     OW20701   0.261   2.701  12.594 -0.1183 -0.5949  0.2033
 3081SOL    HW120702   0.343   2.657  12.572 -0.2318  0.3880 -2.1821
 3081SOL    HW220703   0.270   2.787  12.551 -1.8075 -0.4092  0.2133
 3082SOL     OW20704   2.847   0.105  13.744 -0.3224 -0.8379  0.2248
 3082SOL    HW120705   2.925   0.106  13.689 -1.0926  0.1391 -0.8662
 3082SOL    HW220706   2.889   0.142  13.821  0.2414  0.3074 -0.6228
 3083SOL     OW20707   3.749   1.834   7.926 -0.5907  1.1217  0.0731
 3083SOL    HW120708   3.692   1.817   7.852 -2.0783  0.3034  1.4079
 3083SOL    HW220709   3.694   1.880   7.989 -2.9760  0.1200 -1.3037
 3084SOL     OW20710   0.964   2.104   5.107 -0.2927 -0.6795 -0.3919
 3084SOL    HW120711   1.034   2.064   5.159  0.0532  2.5340  1.5834
 3084SOL    HW220712   0.894   2.104   5.173 -1.1800 -1.0512 -1.3313
 3085SOL     OW20713   1.457   4.621   8.905  0.0991  0.1583  0.6910
 3085SOL    HW120714   1.495   4.707   8.887 -0.2023  0.0253 -0.5798
 3085SOL    HW220715   1.509   4.563   8.850  0.8675  0.1198  1.4734
 3086SOL     OW20716   0.877   3.679  14.189  0.1925  0.0989 -0.2756
 3086SOL    HW120717   0.793   3.679  14.144 -0.7542 -0.0931  1.4849
 3086SOL    HW220718   0.872   3.598  14.239  2.5434  0.0413 -0.1217
 3087SOL     OW20719   1.100   3.361   9.280  0.0528 -0.6724  0.3777
 3087SOL    HW120720   1.017   3.353   9.327 -0.4027  2.2047  0.0581
 3087SOL    HW220721   1.102   3.272   9.244  2.0495 -0.7279  0.6207
 3088SOL     OW20722   4.269   2.555   4.526  0.3972 -0.0509  0.1340
 3088SOL    HW120723   4.256   2.622   4.459 -1.7394 -0.2690  0.3046
 3088SOL    HW220724   4.236   2.477   4.482 -0.8627  0.5137  0.0556
 3089SOL     OW20725   2.397   4.631   0.188 -0.1295  0.2809 -0.5088
 3089SOL    HW120726   2.324   4.618   0.249 -0.5250 -0.6963 -1.2031
 3089SOL    HW220727   2.465   4.576   0.227  1.0264  1.2890 -1.1082
 3090SOL     OW20728   1.616   3.239   2.253  0.0400 -0.5870 -0.1668
 3090SOL    HW120729   1.599   3.333   2.266  2.1640 -0.1505 -0.4532
 3090SOL    HW220730   1.578   3.232   2.165  0.9015 -0.3637 -0.5591
 3091SOL     OW20731   0.991   3.875  16.760 -0.4525 -0.4229 -0.5490
 3091SOL    HW120732   0.958   3.882  16.670 -3.7591 -1.3735  0.5560
 3091SOL    HW220733   0.998   3.780  16.761 -1.9824 -0.5369  0.1910
 3092SOL     OW20734   0.576   1.317  12.353  0.6805  0.0137  0.3101
 3092SOL    HW120735   0.507   1.276  12.301  0.0622 -0.7987  1.7969
 3092SOL    HW220736   0.599   1.249  12.416 -0.9027  0.1368  1.0084
 3093SOL     OW20737   3.913   2.806   2.399 -0.1455  0.1359  0.5017
 3093SOL    HW120738   3.880   2.716   2.391 -1.1397  0.2846  2.8182
 3093SOL    HW220739   3.964   2.811   2.480  1.3910  0.9203 -0.5257
 3094SOL     OW20740   4.498   3.114  10.506 -0.5229 -0.2034 -0.1558
 3094SOL    HW120741   4.449   3.152  10.433 -1.9616  0.8681  1.3407
 3094SOL    HW220742   4.452   3.143  10.585  0.4623 -1.3122  0.8204
 3095SOL     OW20743   3.178   2.017   9.175 -0.4294 -0.6921 -0.4632
 3095SOL    HW120744   3.204   1.948   9.113 -2.5556 -1.3961 -0.5573
 3095SOL    HW220745   3.242   2.005   9.245  0.4798 -0.4005 -1.2249
 3096SOL     OW20746   4.547   1.218   4.100 -0.2384 -0.4468  0.0489
 3096SOL    HW120747   4.568   1.276   4.172  2.2134 -1.9741  0.5597
 3096SOL    HW220748   4.601   1.256   4.031 -0.6943  0.9124  0.4544
 3097SOL     OW20749   4.164   2.230  13.832 -0.2345 -0.8427  0.7960
 3097SOL    HW120750   4.204   2.281  13.762 -2.1481 -1.1873 -0.5510
 3097SOL    HW220751   4.226   2.158  13.840  0.9900  0.0914 -0.5064
 3098SOL     OW20752   0.516   1.304   7.595  0.3485 -0.2568 -0.5044
 3098SOL    HW120753   0.512   1.216   7.635  1.0416 -0.2195 -0.3672
 3098SOL    HW220754   0.610   1.309   7.612  0.4047  1.6840 -1.4636
 3099SOL     OW20755   1.862   1.148   5.323  0.6590 -0.0996  0.6241
 3099SOL    HW120756   1.773   1.148   5.290  1.7062 -2.5860 -2.1923
 3099SOL    HW220757   1.867   1.055   5.342 -1.7225 -0.1355  0.9831
 3100SOL     OW20758   0.819   1.025   7.373 -0.0606 -0.3991 -0.4517
 3100SOL    HW120759   0.814   0.934   7.405  1.5393  0.0992  1.2358
 3100SOL    HW220760   0.735   1.055   7.409  0.2817 -1.2830  1.1158
 3101SOL     OW20761   3.633   0.402   4.361 -0.1988  0.0365  0.3216
 3101SOL    HW120762   3.552   0.355   4.342  1.5498 -2.2991 -1.2640
 3101SOL    HW220763   3.686   0.322   4.362 -1.6708 -0.9550 -1.9203
 3102SOL     OW20764   1.152   0.999  12.282 -0.0654  0.2896  0.3110
 3102SOL    HW120765   1.175   0.906  12.277  2.8182  0.9257  1.7165
 3102SOL    HW220766   1.101   1.007  12.201  1.0712  0.8056 -0.3475
 3103SOL     OW20767   2.826   0.000   3.310 -0.2402 -0.6035  0.6289
 3103SOL    HW120768   2.824   4.650   3.368 -0.5213 -0.3908  0.9003
 3103SOL    HW220769   2.916   0.033   3.319 -0.7696  0.7602  0.8448
 3104SOL     OW20770   3.519   4.501   3.362  0.0067 -0.8688  0.4075
 3104SOL    HW120771   3.509   4.482   3.268 -1.7291 -1.3600  0.7064
 3104SOL    HW220772   3.519   4.597   3.362 -1.2429 -0.8776  1.3585
 3105SOL     OW20773   0.641   1.313   0.417  0.0088  0.2920  0.0707
 3105SOL    HW120774   0.617   1.244   0.479 -1.1781  0.2628 -0.4233
 3105SOL    HW220775   0.644   1.389   0.476  0.4259  0.2163  0.1435
 3106SOL     OW20776   1.556   0.568   1.676 -0.2890  0.2563 -0.3562
 3106SOL    HW120777   1.624   0.501   1.669 -1.3227 -0.9638  1.3159
 3106SOL    HW220778   1.602   0.650   1.658 -2.1566  1.0059 -1.7649
 3107SOL     OW20779   1.468   0.576   8.755  0.0881  0.6624 -0.0457
 3107SOL    HW120780   1.466   0.543   8.845  1.0114 -0.6642 -0.5191
 3107SOL    HW220781   1.553   0.620   8.747  1.0066 -1.0325  0.4724
 3108SOL     OW20782   2.487   0.324  16.574 -0.2023  0.5042 -0.3739
 3108SOL    HW120783   2.466   0.280  16.656  1.5481 -0.2107 -0.3032
 3108SOL    HW220784   2.562   0.372  16.610  0.5269  1.0364 -2.5703
 3109SOL     OW20785   1.729   4.436   7.127 -0.1381 -0.0399  0.4169
 3109SOL    HW120786   1.635   4.449   7.131  0.1238  2.0132 -0.1550
 3109SOL    HW220787   1.738   4.403   7.216 -0.8214 -0.1015  0.4590
 3110SOL     OW20788   0.952   3.058  16.699 -0.2343 -0.0442  0.1073
 3110SOL    HW120789   0.985   3.061  16.789  1.0546  0.2318 -0.3867
 3110SOL    HW220790   0.890   3.131  16.707  0.0139  0.0747  0.9894
 3111SOL     OW20791   1.630   3.351   4.643  0.1598  0.3723 -0.9181
 3111SOL    HW120792   1.666   3.271   4.680 -0.1232 -0.0000 -1.4383
 3111SOL    HW220793   1.704   3.409   4.626 -0.2271  0.9765 -0.5728
 3112SOL     OW20794   0.511   3.411   8.354  0.1006  0.0044 -0.0037
 3112SOL    HW120795   0.537   3.363   8.432  2.0144 -0.5746 -0.9725
 3112SOL    HW220796   0.417   3.399   8.342  0.0180  0.6449 -0.0084
 3113SOL     OW20797   4.504   3.943   7.991  0.1921  0.0343  0.2142
 3113SOL    HW120798   4.594   3.950   8.025 -0.2772 -1.0029  1.6759
 3113SOL    HW220799   4.490   4.036   7.973 -1.6799 -0.8236 -2.7293
 3114SOL     OW20800   4.525   0.257   6.426  0.1731 -0.1512  0.6668
 3114SOL    HW120801   4.558   0.293   6.509 -0.9829  1.6052  0.3869
 3114SOL    HW220802   4.507   0.171   6.465  0.8122  0.3663  2.0927
 3115SOL     OW20803   3.308   0.433   4.150  0.5335 -0.6516 -0.1620
 3115SOL    HW120804   3.228   0.422   4.099 -1.1719 -0.5997  2.4973
 3115SOL    HW220805   3.274   0.399   4.233  1.5884 -1.0662  0.1061
 3116SOL     OW20806   3.399   0.653   6.265 -0.5304 -0.0487 -0.1724
 3116SOL    HW120807   3.364   0.656   6.354 -0.0170  0.4548  0.0100
 3116SOL    HW220808   3.352   0.574   6.240 -1.3208  0.1734  0.6097
 3117SOL     OW20809   1.188   3.048  15.342  1.0614 -0.0633  0.8045
 3117SOL    HW120810   1.216   3.095  15.421 -2.0222  0.9283  1.3182
 3117SOL    HW220811   1.148   3.120  15.294 -0.3423 -0.9145  0.6962
 3118SOL     OW20812   2.997   3.429  14.097 -0.7535  0.1830 -0.9299
 3118SOL    HW120813   2.944   3.504  14.122  0.1110 -0.1106  1.8873
 3118SOL    HW220814   2.982   3.360  14.162  1.5908  0.1243 -0.4189
 3119SOL     OW20815   0.479   3.440  16.938  0.4358  0.7166 -0.2618
 3119SOL    HW120816   0.410   3.501  16.965  1.1226  1.2114  0.3713
 3119SOL    HW220817   0.479   3.470  16.847 -1.3111  0.2639 -0.4187
 3120SOL     OW20818   0.912   2.287  11.362  0.0196 -0.1566  0.4617
 3120SOL    HW120819   0.905   2.192  11.364  1.5688 -0.2451  1.8613
 3120SOL    HW220820   0.954   2.301  11.277 -2.8993  0.6417 -0.8132
 3121SOL     OW20821   1.620   1.783   1.621 -0.5108 -0.1116  0.3881
 3121SOL    HW120822   1.542   1.758   1.571 -1.7006  0.2581  2.0288
 3121SOL    HW220823   1.580   1.849   1.678  1.1928  0.2577  1.1626
 3122SOL     OW20824   2.234   1.996   8.343 -0.6419 -0.2379  0.5584
 3122SOL    HW120825   2.184   1.921   8.374 -0.6741 -0.6046 -0.3911
 3122SOL    HW220826   2.248   1.971   8.252 -3.1779  0.3018  0.0129
 3123SOL     OW20827   2.275   4.559   2.145  0.2625 -0.2118  0.0160
 3123SOL    HW120828   2.213   4.559   2.072 -0.4316  2.5939  0.6101
 3123SOL    HW220829   2.340   4.615   2.102  1.1856 -1.4227 -0.1959
 3124SOL     OW20830   2.109   1.086  16.703 -0.4350 -0.5079 -0.2422
 3124SOL    HW120831   2.073   0.997  16.706  0.2555 -0.6757  2.5943
 3124SOL    HW220832   2.102   1.116  16.794  2.5395  1.8462 -0.8116
 3125SOL     OW20833   3.504   0.163   4.919 -0.1144  0.6825  0.4634
 3125SOL    HW120834   3.516   0.202   4.833  3.5165  0.2285  0.7727
 3125SOL    HW220835   3.517   0.070   4.900 -1.8954  0.7916 -1.3231
 3126SOL     OW20836   2.439   4.482  15.214 -0.3574  0.2455  0.4032
 3126SOL    HW120837   2.430   4.576  15.230  0.7884  0.3685  0.3399
 3126SOL    HW220838   2.377   4.484  15.141  1.4722 -3.0862 -1.2412
 3127SOL     OW20839   3.642   0.672   4.295 -0.0170  0.2603  0.2476
 3127SOL    HW120840   3.648   0.578   4.313 -1.3128  0.1194 -0.0560
 3127SOL    HW220841   3.593   0.697   4.374  0.4147 -0.0866  0.6276
 3128SOL     OW20842   2.401   4.218  13.314 -0.5298  0.1076 -0.4887
 3128SOL    HW120843   2.366   4.162  13.244 -1.7744 -0.2703  0.4525
 3128SOL    HW220844   2.338   4.289  13.315  0.8127  1.2783  0.9402
 3129SOL     OW20845   4.725   2.494   4.751  0.1208  0.7615  0.1774
 3129SOL    HW120846   4.652   2.457   4.701  1.1227 -0.2162 -0.5565
 3129SOL    HW220847   0.067   2.465   4.691  0.6766  2.6859 -0.1250
 3130SOL     OW20848   0.069   1.856   6.550  0.1192  0.0598  0.1429
 3130SOL    HW120849   0.001   1.833   6.486  1.6019 -1.1583 -0.9820
 3130SOL    HW220850   0.016   1.876   6.627  0.6941  3.0952 -0.2159
 3131SOL     OW20851   1.760   3.088   2.418 -0.0781 -0.2069 -0.2709
 3131SOL    HW120852   1.693   3.068   2.484 -3.5488  0.6898 -3.4875
 3131SOL    HW220853   1.720   3.129   2.341 -0.0372 -1.1487 -0.7972
 3132SOL     OW20854   1.383   4.476  14.504 -0.2246  0.3008  0.1772
 3132SOL    HW120855   1.429   4.393  14.497 -0.9889 -0.1442  0.4907
 3132SOL    HW220856   1.445   4.531  14.454  0.7423 -0.3593  0.6497
 3133SOL     OW20857   1.368   1.814   7.337 -0.7211 -0.1223 -0.2955
 3133SOL    HW120858   1.376   1.810   7.432 -2.5530  0.0098 -0.1405
 3133SOL    HW220859   1.385   1.725   7.305 -1.3111 -1.0129  1.8394
 3134SOL     OW20860   2.634   2.581   9.998  0.2640 -0.1591 -0.3434
 3134SOL    HW120861   2.584   2.540  10.069 -4.4283  2.4390 -2.1583
 3134SOL    HW220862   2.721   2.548  10.022 -0.4997 -2.7758 -1.1666
 3135SOL     OW20863   1.689   3.766   8.112 -0.5281  0.2741  0.5455
 3135SOL    HW120864   1.734   3.749   8.195  0.6473 -0.4539 -0.2502
 3135SOL    HW220865   1.611   3.710   8.111 -0.2765 -0.0105 -2.9721
 3136SOL     OW20866   0.887   0.372   5.234 -0.1846 -0.4447 -0.4095
 3136SOL    HW120867   0.855   0.405   5.149  0.7877  1.1694 -0.1565
 3136SOL    HW220868   0.952   0.439   5.255 -0.4492 -0.7664  1.4482
 3137SOL     OW20869   2.992   2.079   1.702 -0.5364  0.2709  0.0979
 3137SOL    HW120870   3.019   2.132   1.627 -2.0528 -0.4734 -0.9822
 3137SOL    HW220871   2.943   2.143   1.753 -0.7764  0.1944 -0.0335
 3138SOL     OW20872   0.091   2.479  12.856 -0.0606 -0.6494 -0.0565
 3138SOL    HW120873   0.138   2.458  12.937  0.1120  2.1155  0.5826
 3138SOL    HW220874   0.099   2.393  12.816  3.1068 -0.2448 -0.2398
 3139SOL     OW20875   3.208   4.223   7.806 -0.5180 -0.0172 -0.4735
 3139SOL    HW120876   3.298   4.226   7.840 -0.4945 -0.0133 -0.5364
 3139SOL    HW220877   3.165   4.193   7.886  2.3140  0.4370  1.2093
 3140SOL     OW20878   1.651   1.857   4.285 -0.3592 -0.2409  0.9217
 3140SOL    HW120879   1.719   1.914   4.250 -0.9140  0.3814  0.8636
 3140SOL    HW220880   1.590   1.864   4.212  0.4172 -0.1491  0.2832
 3141SOL     OW20881   4.346   1.020   5.564 -0.0090 -0.1335  0.7744
 3141SOL    HW120882   4.439   1.011   5.583  0.0567 -0.8864  0.1149
 3141SOL    HW220883   4.310   0.993   5.648  0.0303 -2.2064  0.1135
 3142SOL     OW20884   4.207   4.413  16.162  0.2971 -0.2263  0.4603
 3142SOL    HW120885   4.270   4.342  16.166  0.1695 -0.4463 -1.1932
 3142SOL    HW220886   4.119   4.375  16.153 -0.2939  1.3169 -0.4272
 3143SOL     OW20887   0.074   2.818   0.937 -0.2806 -0.2395  0.2395
 3143SOL    HW120888   0.149   2.870   0.908 -0.6577 -0.3028 -0.8514
 3143SOL    HW220889   0.047   2.776   0.856  0.7380 -1.3448  0.4827
 3144SOL     OW20890   4.560   1.945   0.840 -0.5263  0.4888 -0.1666
 3144SOL    HW120891   4.587   1.925   0.930  0.7855 -1.8806 -1.1074
 3144SOL    HW220892   4.582   1.858   0.807  2.1893  2.1852 -2.7377
 3145SOL     OW20893   3.289   3.836   4.483 -0.0808 -0.4804 -0.5692
 3145SOL    HW120894   3.337   3.919   4.474  0.7777 -0.9163 -0.0386
 3145SOL    HW220895   3.201   3.871   4.469 -0.9595 -2.3728  0.2565
 3146SOL     OW20896   3.042   3.161   5.709  0.3430  0.3868 -0.2458
 3146SOL    HW120897   3.121   3.147   5.760  0.2877 -1.2299 -0.6208
 3146SOL    HW220898   3.082   3.214   5.640  0.4211 -0.8781 -1.1731
 3147SOL     OW20899   3.830   3.598   4.888 -0.1422 -0.1859  0.3614
 3147SOL    HW120900   3.898   3.651   4.930 -2.5778  0.9840  2.7721
 3147SOL    HW220901   3.873   3.513   4.885  0.2222  0.0003  0.3184
 3148SOL     OW20902   1.458   3.185   3.442 -0.0626  0.8444  0.5320
 3148SOL    HW120903   1.420   3.119   3.500 -2.3017  0.3731 -1.4409
 3148SOL    HW220904   1.526   3.130   3.403 -0.5001 -0.3042  1.4109
 3149SOL     OW20905   0.201   4.392   1.362  0.0648 -0.0534 -0.1561
 3149SOL    HW120906   0.169   4.331   1.296 -1.6234 -0.2378  0.8474
 3149SOL    HW220907   0.224   4.330   1.431  0.4377  4.3309  3.7079
 3150SOL     OW20908   1.555   4.057  14.095  0.1155 -0.6605 -0.0949
 3150SOL    HW120909   1.612   4.096  14.029 -3.1179  0.8816 -1.9613
 3150SOL    HW220910   1.506   4.134  14.123 -1.3813 -1.2947 -0.9567
 3151SOL     OW20911   1.033   1.126   1.885 -0.4643  0.3419  0.1299
 3151SOL    HW120912   0.965   1.074   1.926  0.4354 -0.3280  0.7636
 3151SOL    HW220913   1.079   1.058   1.837  0.6890  1.0842  0.1886
 3152SOL     OW20914   3.414   1.693   6.600 -0.0376 -0.8165  0.2550
 3152SOL    HW120915   3.333   1.744   6.589 -0.7496 -1.1637  3.9526
 3152SOL    HW220916   3.477   1.757   6.569 -0.5011 -1.0635 -1.2036
 3153SOL     OW20917   0.353   1.119   3.212  0.0276  0.1150  0.1314
 3153SOL    HW120918   0.392   1.032   3.206 -1.6588 -0.7857  2.3348
 3153SOL    HW220919   0.358   1.145   3.120 -3.5310 -0.9928 -0.3400
 3154SOL     OW20920   0.140   2.268  11.409 -0.4525  0.5560 -0.2610
 3154SOL    HW120921   0.235   2.277  11.411 -0.5401  0.9944  2.0604
 3154SOL    HW220922   0.123   2.355  11.446 -0.9462  0.4158 -0.1502
 3155SOL     OW20923   1.187   3.704   0.022 -0.0600 -0.0682  0.2278
 3155SOL    HW120924   1.139   3.664   0.094 -1.1412  0.5910 -0.1246
 3155SOL    HW220925   1.124   3.741  17.666  0.5585  0.2063 -0.2398
 3156SOL     OW20926   1.039   1.575   2.220  0.0494 -0.4366 -0.8147
 3156SOL    HW120927   1.027   1.660   2.178 -2.0495 -0.6576 -0.6348
 3156SOL    HW220928   1.080   1.533   2.144  1.0432  1.8946 -1.5552
 3157SOL     OW20929   3.914   3.782  15.245  0.2559 -0.0675 -0.2196
 3157SOL    HW120930   3.907   3.872  15.277  0.6162 -0.0258 -0.2560
 3157SOL    HW220931   3.967   3.739  15.312  0.8503  0.9736 -0.0257
 3158SOL     OW20932   3.553   2.491   7.932  0.5124  0.4323  0.5204
 3158SOL    HW120933   3.502   2.572   7.940  2.3756  1.9716 -3.2712
 3158SOL    HW220934   3.588   2.489   7.843  0.8653 -1.7969  0.7122
 3159SOL     OW20935   1.317   0.705   1.592 -0.3385  0.0872 -0.0028
 3159SOL    HW120936   1.349   0.763   1.661  1.8115 -0.6211 -0.4014
 3159SOL    HW220937   1.378   0.631   1.601 -0.0464  0.5329  1.7274
 3160SOL     OW20938   2.426   2.758   8.672  0.1877  0.0879 -0.4983
 3160SOL    HW120939   2.488   2.823   8.639 -0.1521  0.1827 -0.9313
 3160SOL    HW220940   2.375   2.748   8.592  0.1173  1.6515 -0.6429
 3161SOL     OW20941   3.888   2.456   7.221 -0.1800 -0.5230  0.1432
 3161SOL    HW120942   3.868   2.550   7.218 -1.3173 -0.6974  2.4805
 3161SOL    HW220943   3.895   2.429   7.129 -1.8077  1.6445 -0.6206
 3162SOL     OW20944   3.861   0.341  10.080  0.1796 -0.4931 -0.1693
 3162SOL    HW120945   3.840   0.403  10.010  1.5582  0.8634  0.6160
 3162SOL    HW220946   3.955   0.325  10.066  0.0003 -2.2202  0.6494
 3163SOL     OW20947   0.214   4.400   9.809 -0.4302  0.0262 -0.6287
 3163SOL    HW120948   0.120   4.391   9.819 -0.3424 -0.0569  0.1062
 3163SOL    HW220949   0.239   4.410   9.901  0.6342 -0.1268 -0.8934
 3164SOL     OW20950   4.019   1.122   7.047 -0.6811 -0.9175 -0.0634
 3164SOL    HW120951   4.002   1.165   6.963  1.8094  0.9353  0.3939
 3164SOL    HW220952   3.959   1.172   7.104  0.4542  2.3124 -1.6772
 3165SOL     OW20953   2.141   2.557  12.199 -0.4456 -0.1777 -0.1751
 3165SOL    HW120954   2.118   2.612  12.124  0.6355 -1.8931 -1.7629
 3165SOL    HW220955   2.064   2.502  12.183 -1.4807  0.9830  0.8401
 3166SOL     OW20956   4.622   3.256   3.639  0.4835  0.4229 -0.5670
 3166SOL    HW120957   4.700   3.242   3.693 -1.1650 -0.8739  1.5134
 3166SOL    HW220958   4.556   3.290   3.699 -0.8169 -2.9830 -0.0360
 3167SOL     OW20959   2.402   4.408  14.361  0.3933  0.3526 -0.5394
 3167SOL    HW120960   2.383   4.498  14.336 -1.2089  0.3883  0.8119
 3167SOL    HW220961   2.492   4.407  14.328  0.6242 -0.1064  0.1039
 3168SOL     OW20962   3.621   2.544  10.939 -0.6387 -0.0228 -0.1504
 3168SOL    HW120963   3.557   2.615  10.947 -1.8800 -0.9606 -1.8971
 3168SOL    HW220964   3.699   2.599  10.929 -0.0662 -0.7474  0.3605
 3169SOL     OW20965   0.304   1.069   9.155  0.0301 -0.6166 -0.6283
 3169SOL    HW120966   0.244   1.059   9.081 -0.1258 -1.4914 -0.3830
 3169SOL    HW220967   0.379   1.104   9.108 -0.9308  1.8659 -0.3330
 3170SOL     OW20968   1.901   4.175  14.124  0.2210  0.1745 -0.2265
 3170SOL    HW120969   1.819   4.194  14.080 -0.5835 -0.9229  0.7900
 3170SOL    HW220970   1.964   4.184  14.053  1.7663  0.3210  1.1597
 3171SOL     OW20971   0.100   1.849   9.467 -0.6969 -0.5213 -0.2439
 3171SOL    HW120972   0.046   1.891   9.534  0.4735 -1.9084  1.5696
 3171SOL    HW220973   0.084   1.915   9.399 -1.1937 -0.2925  0.1000
 3172SOL     OW20974   3.860   0.767  14.380  0.4987 -0.0432  0.1784
 3172SOL    HW120975   3.801   0.710  14.329  0.0980  0.2626  0.3049
 3172SOL    HW220976   3.888   0.838  14.322 -0.9018  0.3114 -0.0606
 3173SOL     OW20977   0.900   0.397   2.786 -0.6397  0.4478  0.6937
 3173SOL    HW120978   0.865   0.486   2.780 -1.3656  0.2096  1.4851
 3173SOL    HW220979   0.982   0.417   2.832  0.2359 -2.2487  0.3282
 3174SOL     OW20980   4.199   4.563   2.902  0.2512 -0.0361 -0.2182
 3174SOL    HW120981   4.109   4.583   2.928 -0.2874 -1.1685 -1.1889
 3174SOL    HW220982   4.186   4.581   2.809 -1.0564  0.5938  0.0856
 3175SOL     OW20983   3.746   3.903  12.117 -0.3742  0.2660 -0.8638
 3175SOL    HW120984   3.678   3.927  12.181 -0.9849  0.7599 -1.7024
 3175SOL    HW220985   3.729   3.973  12.055 -1.5185 -1.3194 -2.3570
 3176SOL     OW20986   3.315   3.329   2.829 -0.2429  0.4114  0.1801
 3176SOL    HW120987   3.229   3.310   2.793  0.8990  0.1364 -2.4193
 3176SOL    HW220988   3.325   3.421   2.807  0.6475  0.1053 -0.7288
 3177SOL     OW20989   1.115   1.409   8.500  0.1457 -0.0885  0.2782
 3177SOL    HW120990   1.047   1.351   8.532 -0.0580  0.0497  0.0952
 3177SOL    HW220991   1.064   1.453   8.432  0.6517  2.7941  1.7296
 3178SOL     OW20992   0.154   4.123   9.087  0.6908 -0.2079 -0.5598
 3178SOL    HW120993   0.128   4.212   9.065 -0.2063  0.3444  2.7485
 3178SOL    HW220994   0.061   4.099   9.094  0.6169  0.8302  2.1696
 3179SOL     OW20995   1.301   2.170  10.878 -0.0362  0.0557 -0.2698
 3179SOL    HW120996   1.274   2.249  10.924  0.5146  0.1506 -0.1106
 3179SOL    HW220997   1.218   2.122  10.880 -1.0377  1.8527  0.6504
 3180SOL     OW20998   3.341   1.890   3.513 -0.2246  0.2485 -0.0242
 3180SOL    HW120999   3.326   1.932   3.598  1.3036  3.5498 -1.3696
 3180SOL    HW221000   3.398   1.951   3.465  0.0420 -0.0500 -0.0880
 3181SOL     OW21001   2.365   2.741  15.704 -0.4658  0.3744  0.5161
 3181SOL    HW121002   2.299   2.680  15.737 -0.3485 -0.0675 -0.0607
 3181SOL    HW221003   2.336   2.808  15.765  0.8932  1.2596  0.1734
 3182SOL     OW21004   2.396   1.381   0.112 -0.2535  0.6881 -0.0247
 3182SOL    HW121005   2.372   1.384   0.204  0.4593 -1.6847  0.2502
 3182SOL    HW221006   2.319   1.356   0.061  0.8340 -2.7540  0.0175
 3183SOL     OW21007   1.797   1.065   9.887 -0.1510  0.2348  0.4402
 3183SOL    HW121008   1.886   1.029   9.893 -1.1509 -1.8895  2.3949
 3183SOL    HW221009   1.759   1.002   9.826 -0.7155  1.2053 -0.2054
 3184SOL     OW21010   3.286   1.335   2.768  0.7328  0.5797 -0.3553
 3184SOL    HW121011   3.293   1.241   2.755  2.5487  0.4937  1.1803
 3184SOL    HW221012   3.209   1.358   2.717  0.7376  0.1876 -0.5401
 3185SOL     OW21013   3.244   2.974   0.514 -0.2204  0.1754  0.2281
 3185SOL    HW121014   3.254   3.066   0.539  1.5927 -0.0029  0.1802
 3185SOL    HW221015   3.334   2.943   0.525 -0.8232 -1.1205  1.4732
 3186SOL     OW21016   0.580   1.275  14.683  0.1516  0.5546  0.6879
 3186SOL    HW121017   0.549   1.189  14.654  1.8150 -0.9201  3.2195
 3186SOL    HW221018   0.666   1.276  14.640 -0.7008  0.5587 -1.0044
 3187SOL     OW21019   0.762   0.223   9.630  0.0407 -0.0134  0.4828
 3187SOL    HW121020   0.711   0.270   9.696  0.0067 -0.9372  1.1267
 3187SOL    HW221021   0.846   0.227   9.675  0.0982  1.2912  0.2470
 3188SOL     OW21022   4.114   3.313   5.549  0.3487 -0.5894 -0.4094
 3188SOL    HW121023   4.182   3.378   5.533  1.3971 -1.7207 -0.4851
 3188SOL    HW221024   4.035   3.364   5.528  1.9624  2.1290  0.1245
 3189SOL     OW21025   4.151   0.341  12.217 -0.2963  0.0858  0.2329
 3189SOL    HW121026   4.159   0.288  12.138  0.7322 -0.1388  0.4822
 3189SOL    HW221027   4.245   0.345  12.238  0.0633 -1.5555 -1.0674
 3190SOL     OW21028   0.649   2.516  14.908 -0.4233 -0.2478 -0.2322
 3190SOL    HW121029   0.696   2.484  14.831  2.1968  2.6200  0.1373
 3190SOL    HW221030   0.600   2.593  14.880 -0.2128  0.3288  0.9758
 3191SOL     OW21031   0.988   4.423   3.110 -0.0518  0.2621  0.2808
 3191SOL    HW121032   0.950   4.335   3.109  0.6571 -0.0436  0.2691
 3191SOL    HW221033   0.934   4.469   3.046  0.8973  1.8343  0.6253
 3192SOL     OW21034   2.629   2.769   9.625  0.0207 -0.5512  0.3843
 3192SOL    HW121035   2.683   2.788   9.548 -1.3779  1.1068 -0.1928
 3192SOL    HW221036   2.543   2.806   9.604 -1.8899 -3.5813  2.9449
 3193SOL     OW21037   1.625   0.571  16.890  0.5042  0.6241  0.1210
 3193SOL    HW121038   1.569   0.603  16.819 -0.5120 -0.7029  0.3325
 3193SOL    HW221039   1.559   0.560  16.958  0.8058 -0.0273  0.3074
 3194SOL     OW21040   3.924   4.212   8.525  0.0797 -0.1128 -0.2892
 3194SOL    HW121041   4.012   4.242   8.550 -0.5669  0.2372  1.5305
 3194SOL    HW221042   3.926   4.239   8.433  2.6505 -1.5822 -0.6568
 3195SOL     OW21043   3.942   3.715   8.816  0.4109 -0.3127  0.2032
 3195SOL    HW121044   3.952   3.796   8.766  0.6687  0.9332  2.2933
 3195SOL    HW221045   4.030   3.678   8.817  0.8953  0.8188 -0.5606
 3196SOL     OW21046   2.044   0.543  16.940  0.3801 -0.3417  0.4699
 3196SOL    HW121047   2.076   0.626  16.975 -0.3561  0.0192  0.2794
 3196SOL    HW221048   2.091   0.474  16.989  2.2068 -0.5988 -1.6421
 3197SOL     OW21049   0.493   2.622   8.877 -0.1247 -0.1168  0.0027
 3197SOL    HW121050   0.567   2.570   8.908  0.3010  0.2575 -0.3828
 3197SOL    HW221051   0.418   2.569   8.902 -0.7399  1.1888  0.9443
 3198SOL     OW21052   4.084   3.291  12.377 -0.7371 -0.4869 -0.0784
 3198SOL    HW121053   4.045   3.365  12.425  0.1162  1.3791 -2.2529
 3198SOL    HW221054   4.144   3.266  12.447  0.2374  1.3295 -0.2580
 3199SOL     OW21055   0.849   4.686   3.954  0.2282 -0.3477  0.4655
 3199SOL    HW121056   0.781   4.651   3.896 -0.3016 -0.6486  1.2625
 3199SOL    HW221057   0.933   4.664   3.914 -0.0620 -0.1399 -0.2550
 3200SOL     OW21058   3.065   1.833   7.319 -0.2515  0.3291 -0.1673
 3200SOL    HW121059   3.077   1.900   7.387  2.9051  0.0703 -0.5175
 3200SOL    HW221060   2.974   1.839   7.288 -0.3873 -2.4822 -0.3315
 3201SOL     OW21061   0.810   1.104   5.090  0.0946  0.2177  0.2689
 3201SOL    HW121062   0.831   1.145   5.174  0.4236 -1.2890  0.9089
 3201SOL    HW221063   0.886   1.046   5.082  0.5952  0.6490  1.9466
 3202SOL     OW21064   1.011   1.883   2.133 -0.3465  0.1804 -0.2248
 3202SOL    HW121065   0.918   1.890   2.115 -0.6958 -1.2137  0.9824
 3202SOL    HW221066   1.045   1.944   2.068  2.1919 -0.0565  0.8560
 3203SOL     OW21067   4.341   2.195   7.126  0.5513  0.5183  0.0917
 3203SOL    HW121068   4.271   2.130   7.117  0.1701  0.6262  2.2484
 3203SOL    HW221069   4.414   2.139   7.100 -0.3120 -1.0871  1.0880
 3204SOL     OW21070   0.921   2.491   2.133  0.3512  0.0557 -0.0171
 3204SOL    HW121071   1.012   2.507   2.159  0.4215 -1.1169  0.4570
 3204SOL    HW221072   0.899   2.580   2.106  1.5366  0.5613  0.6616
 3205SOL     OW21073   4.553   0.618   9.548 -0.3410 -0.2527  0.2427
 3205SOL    HW121074   4.512   0.584   9.627  0.9415 -2.3601 -0.0228
 3205SOL    HW221075   4.615   0.546   9.539 -0.7842 -0.6725  0.5683
 3206SOL     OW21076   0.424   0.781   6.298 -0.3733  0.6183  0.0948
 3206SOL    HW121077   0.332   0.775   6.325 -0.9419  2.1660 -1.5553
 3206SOL    HW221078   0.469   0.762   6.381  0.4371 -1.2801 -0.7718
 3207SOL     OW21079   3.973   0.936  13.423 -0.4831 -0.1645 -0.1322
 3207SOL    HW121080   3.894   0.965  13.469 -0.7127  0.1118 -0.7055
 3207SOL    HW221081   4.005   0.866  13.480 -0.5339 -0.8750 -0.9759
 3208SOL     OW21082   0.970   4.594   8.246  0.8642  0.1310  0.0554
 3208SOL    HW121083   0.938   4.529   8.184 -0.2151  0.8213 -0.1008
 3208SOL    HW221084   0.921   4.571   8.325  1.8766 -0.9175  0.3877
 3209SOL     OW21085   2.473   0.137   2.665 -0.2086  0.2701 -0.3215
 3209SOL    HW121086   2.436   0.064   2.615  1.2634 -0.2362 -0.6588
 3209SOL    HW221087   2.415   0.207   2.634 -0.7079  0.2388  0.5176
 3210SOL     OW21088   0.165   0.278   4.369 -0.1129  0.2221  0.0146
 3210SOL    HW121089   0.251   0.310   4.395  0.7127 -1.3024 -0.8224
 3210SOL    HW221090   0.183   0.191   4.334 -0.4140 -0.1952  0.8908
 3211SOL     OW21091   3.086   1.324   8.214 -0.6186  0.2019 -0.3399
 3211SOL    HW121092   3.015   1.298   8.274 -0.1111  0.5168  0.3922
 3211SOL    HW221093   3.034   1.394   8.175 -0.4213  0.5118 -0.0498
 3212SOL     OW21094   2.101   4.286   0.509  0.3697  0.1580  0.2203
 3212SOL    HW121095   2.056   4.370   0.504  1.2818  0.4894 -2.6298
 3212SOL    HW221096   2.134   4.275   0.598 -1.3036 -0.2597  0.7982
 3213SOL     OW21097   0.555   0.708   9.875  0.1668  0.0379  0.2529
 3213SOL    HW121098   0.602   0.700   9.791 -1.6934  2.6124 -1.0205
 3213SOL    HW221099   0.502   0.784   9.854 -1.2576 -0.8290  0.7482
 3214SOL     OW21100   2.000   0.555   9.123  0.0357 -0.1967 -0.4347
 3214SOL    HW121101   1.982   0.494   9.194 -0.0573  0.1140 -0.1904
 3214SOL    HW221102   1.953   0.635   9.148 -0.9433 -1.1235  0.6982
 3215SOL     OW21103   3.684   2.739  10.660  0.6240 -0.1965 -0.7040
 3215SOL    HW121104   3.751   2.799  10.693  1.9163 -1.0956 -1.6587
 3215SOL    HW221105   3.619   2.769  10.723 -1.3058 -1.0971 -2.2747
 3216SOL     OW21106   2.481   2.986   0.455  0.2487  0.2766 -0.3774
 3216SOL    HW121107   2.422   3.055   0.486  1.1561  0.6386  0.5459
 3216SOL    HW221108   2.419   2.918   0.430  0.3045 -0.3225  1.1316
 3217SOL     OW21109   1.641   2.773   6.443  0.0108  0.2586  0.1696
 3217SOL    HW121110   1.546   2.767   6.449  0.0008 -0.0464 -0.2618
 3217SOL    HW221111   1.650   2.699   6.382 -1.9227  0.2366 -0.0746
 3218SOL     OW21112   2.682   0.671  12.894  0.2143  0.5870 -0.0402
 3218SOL    HW121113   2.593   0.645  12.918  0.0902  1.0696  0.0292
 3218SOL    HW221114   2.744   0.617  12.943  2.3974  1.9734 -1.3163
 3219SOL     OW21115   0.062   0.253   2.188  0.0200 -0.5973  0.4640
 3219SOL    HW121116   0.135   0.204   2.225  1.1787  1.0203  0.3276
 3219SOL    HW221117   0.074   0.232   2.095 -0.0115 -2.1453  0.8178
 3220SOL     OW21118   3.300   2.166   6.539 -0.0540 -0.3241  0.0522
 3220SOL    HW121119   3.218   2.180   6.586  1.5278 -2.3862  3.3907
 3220SOL    HW221120   3.292   2.240   6.479  0.7373 -0.1598  0.1420
 3221SOL     OW21121   4.383   0.427  16.063 -0.3470  0.0079 -0.1080
 3221SOL    HW121122   4.333   0.476  15.997 -2.0787 -1.3774  0.1597
 3221SOL    HW221123   4.346   0.339  16.052  0.3799 -0.3781  0.5285
 3222SOL     OW21124   0.216   0.993   5.149 -0.3664  0.5842  0.0323
 3222SOL    HW121125   0.150   1.059   5.126  0.4056  1.6349  0.7920
 3222SOL    HW221126   0.172   0.927   5.202  0.3299  0.3069  0.2661
 3223SOL     OW21127   3.557   2.033  13.238  0.5432  0.1002  0.5350
 3223SOL    HW121128   3.499   1.971  13.193  1.9160  1.1381 -2.6493
 3223SOL    HW221129   3.609   2.064  13.164  0.5316 -1.5657 -0.1824
 3224SOL     OW21130   1.010   4.722   0.414  0.5971 -0.1443 -0.0854
 3224SOL    HW121131   1.055   0.078   0.437 -2.6749  1.4840  0.4984
 3224SOL    HW221132   1.061   4.657   0.462 -0.9517 -0.4796  1.0999
 3225SOL     OW21133   3.550   0.877  16.551  0.1291  0.4669  0.6824
 3225SOL    HW121134   3.468   0.924  16.532  1.0816  1.5408 -0.7420
 3225SOL    HW221135   3.554   0.886  16.646  1.9003  3.9377  0.2879
 3226SOL     OW21136   0.042   2.652   1.531 -0.1589 -0.0470  0.2008
 3226SOL    HW121137   0.107   2.610   1.586 -0.0235 -1.3348 -0.9395
 3226SOL    HW221138   4.723   2.575   1.496  0.1590 -0.1570  0.0348
 3227SOL     OW21139   4.438   1.655   1.141  0.2801 -0.3285  0.0835
 3227SOL    HW121140   4.424   1.675   1.233  0.5322 -0.7032  0.2027
 3227SOL    HW221141   4.465   1.739   1.103 -0.9476 -0.3060 -0.7379
 3228SOL     OW21142   1.305   0.771   8.130 -0.1702 -0.5626  0.7107
 3228SOL    HW121143   1.237   0.833   8.159  0.3172  0.6694 -0.7575
 3228SOL    HW221144   1.248   0.714   8.079  0.4312 -0.2519 -0.2914
 3229SOL     OW21145   2.171   4.252  14.386  0.5936  0.7970  0.7824
 3229SOL    HW121146   2.237   4.316  14.357  0.9633 -0.3626 -0.8820
 3229SOL    HW221147   2.211   4.211  14.463 -1.2075  0.8340  1.7454
 3230SOL     OW21148   0.585   2.012   0.078  0.1085  0.0605 -0.0440
 3230SOL    HW121149   0.681   2.015   0.080  0.2587 -3.8985 -1.8225
 3230SOL    HW221150   0.574   2.085   0.017 -0.5489 -0.2868 -0.3472
 3231SOL     OW21151   3.856   3.137   2.642 -0.2860  0.3024 -0.1375
 3231SOL    HW121152   3.816   3.095   2.566 -1.0378  0.1523  0.3424
 3231SOL    HW221153   3.856   3.231   2.625  0.3630  0.4183  0.4964
 3232SOL     OW21154   4.622   0.877   5.121  0.0701  0.1099 -0.1740
 3232SOL    HW121155   4.557   0.810   5.103 -0.2630  0.2826  0.3541
 3232SOL    HW221156   4.585   0.908   5.204  0.4599  1.3568 -0.4630
 3233SOL     OW21157   2.991   3.778   2.441 -0.3193 -0.0391  0.0209
 3233SOL    HW121158   2.916   3.722   2.420 -0.2816  0.7022 -2.1366
 3233SOL    HW221159   2.977   3.865   2.404 -0.2802 -0.4293 -0.9277
 3234SOL     OW21160   3.878   0.509   3.407  0.2301  0.3129  0.1263
 3234SOL    HW121161   3.787   0.509   3.380  0.7258 -0.0764 -1.5368
 3234SOL    HW221162   3.859   0.486   3.498  1.0837  1.8228  0.6982
 3235SOL     OW21163   2.421   0.118   7.074 -0.0701 -0.2008 -0.0568
 3235SOL    HW121164   2.425   0.078   6.988  0.0879 -2.5496  1.0406
 3235SOL    HW221165   2.502   0.093   7.119  0.7000  0.0085 -1.3517
 3236SOL     OW21166   3.819   4.721   6.070 -0.3160  0.0622  0.2426
 3236SOL    HW121167   3.833   0.080   6.111  0.7442 -0.1263  0.2724
 3236SOL    HW221168   3.732   0.011   6.034  0.5573  4.2253  0.0332
 3237SOL     OW21169   3.114   3.188   5.424  0.2194  0.0739 -0.8814
 3237SOL    HW121170   3.151   3.251   5.486  0.8976 -0.5278 -0.6704
 3237SOL    HW221171   3.173   3.204   5.350 -0.2239 -0.3358 -1.3272
 3238SOL     OW21172   4.577   1.555   4.843 -0.4780 -0.3305  0.0033
 3238SOL    HW121173   4.590   1.646   4.869  0.3641  0.2178 -2.2900
 3238SOL    HW221174   4.665   1.529   4.817 -0.2194 -2.6327  3.2652
 3239SOL     OW21175   2.020   4.004   6.390  0.2529 -0.3711  0.4589
 3239SOL    HW121176   1.976   4.026   6.472  0.8131 -1.7248  1.1068
 3239SOL    HW221177   2.080   3.931   6.401  1.0108  0.3612  1.1936
 3240SOL     OW21178   2.054   3.826   7.436 -0.0711 -0.1806 -0.4418
 3240SOL    HW121179   2.008   3.901   7.473 -1.9695 -2.4438  1.8000
 3240SOL    HW221180   2.142   3.840   7.470 -0.1218 -0.4763 -0.1915
 3241SOL     OW21181   1.641   2.683   9.258 -0.2061 -0.1785  0.0016
 3241SOL    HW121182   1.697   2.696   9.182 -2.3487  0.5895 -1.4528
 3241SOL    HW221183   1.689   2.720   9.332 -0.6781 -1.8213  1.1599
 3242SOL     OW21184   2.476   1.876   1.446 -0.0959  0.3186  0.3153
 3242SOL    HW121185   2.537   1.903   1.376 -0.0509  0.2644  0.3331
 3242SOL    HW221186   2.517   1.795   1.476 -0.9368  0.4334  1.7597
 3243SOL     OW21187   4.573   2.144   2.928  0.0407  0.1085 -0.1288
 3243SOL    HW121188   4.653   2.115   2.971 -0.3796  0.3174  0.7934
 3243SOL    HW221189   4.572   2.079   2.857 -1.9054 -0.8590  0.7680
 3244SOL     OW21190   2.401   3.042   2.681 -0.0429 -0.2219 -0.1470
 3244SOL    HW121191   2.356   3.049   2.765  0.5972 -0.2188  0.1917
 3244SOL    HW221192   2.428   2.952   2.692  0.3628 -0.0344  0.3757
 3245SOL     OW21193   2.829   1.680  11.156  0.5273 -0.3238 -0.0839
 3245SOL    HW121194   2.878   1.752  11.194 -0.8117  1.2123 -1.2531
 3245SOL    HW221195   2.799   1.623  11.227 -1.8924 -1.8647 -2.3339
 3246SOL     OW21196   3.366   3.319   0.029  0.3652  0.2980 -0.1847
 3246SOL    HW121197   3.356   3.331  17.641 -0.7320 -2.4303 -0.4299
 3246SOL    HW221198   3.311   3.384   0.072 -1.4592 -1.0639 -0.4513
 3247SOL     OW21199   3.910   4.233  12.146  0.6662 -0.2775 -0.3591
 3247SOL    HW121200   3.844   4.185  12.196  0.7011 -0.9858 -0.9975
 3247SOL    HW221201   3.946   4.169  12.085  1.2164  0.3070 -0.6505
 3248SOL     OW21202   2.880   2.827  12.459  0.4420  0.3620  0.4067
 3248SOL    HW121203   2.871   2.921  12.473  1.3463  0.2628  1.6369
 3248SOL    HW221204   2.795   2.798  12.426  0.2854  0.8381  0.3996
 3249SOL     OW21205   4.701   4.162   4.789 -0.6343  0.4942  0.0648
 3249SOL    HW121206   4.705   4.104   4.866 -1.7779  1.5726  0.9317
 3249SOL    HW221207   0.058   4.134   4.750  0.5214  2.6939  0.9550
 3250SOL     OW21208   2.349   4.338   4.908 -0.7670  0.2205 -0.6863
 3250SOL    HW121209   2.431   4.309   4.868 -0.6384 -1.1987  0.6218
 3250SOL    HW221210   2.278   4.299   4.857 -0.1890  0.1387 -1.4334
 3251SOL     OW21211   1.653   4.444   4.830  0.5558 -0.0960  0.1737
 3251SOL    HW121212   1.711   4.476   4.899  0.5811 -0.2610  0.2279
 3251SOL    HW221213   1.699   4.493   4.761 -2.9865  1.3657 -1.1428
 3252SOL     OW21214   1.737   3.736  15.092  0.0461  0.3387  0.2137
 3252SOL    HW121215   1.660   3.777  15.053  0.0443  0.4011  0.2810
 3252SOL    HW221216   1.764   3.804  15.154 -0.5314  0.6839  0.0912
 3253SOL     OW21217   1.710   3.766   0.444  0.6848  0.0029  0.6271
 3253SOL    HW121218   1.640   3.824   0.414  1.2104  0.8336  1.0093
 3253SOL    HW221219   1.677   3.727   0.525  0.9418 -1.1825  0.1598
 3254SOL     OW21220   0.439   0.062   6.355  0.4662  0.5804  0.2906
 3254SOL    HW121221   0.501   0.061   6.428  1.1032 -1.0040 -0.2633
 3254SOL    HW221222   0.432   0.154   6.330  0.9168  0.3421 -0.7085
 3255SOL     OW21223   1.992   3.141   2.557  0.0530 -0.2084 -0.2567
 3255SOL    HW121224   1.905   3.122   2.523  0.3152  2.5202 -2.5012
 3255SOL    HW221225   2.039   3.157   2.474  0.6328 -0.2239  0.0689
 3256SOL     OW21226   3.243   0.916   6.227 -0.0607 -0.4442  0.2205
 3256SOL    HW121227   3.213   0.909   6.317  1.9243  1.0184  0.9846
 3256SOL    HW221228   3.215   0.831   6.194 -0.6660 -0.5833  1.0887
 3257SOL     OW21229   2.046   1.395   8.027 -0.4505 -0.7344 -0.9963
 3257SOL    HW121230   2.042   1.313   8.077 -0.2468 -1.2030 -1.7425
 3257SOL    HW221231   1.962   1.389   7.980  0.1367 -0.2136 -2.1214
 3258SOL     OW21232   1.504   2.304   2.292 -0.2363  0.0107  0.2331
 3258SOL    HW121233   1.527   2.385   2.338 -0.1965 -0.6357  1.3557
 3258SOL    HW221234   1.413   2.280   2.310 -0.8803 -1.0196 -4.3087
 3259SOL     OW21235   0.266   3.565   4.419 -0.3892 -0.2508 -0.2188
 3259SOL    HW121236   0.337   3.524   4.370  0.4789  2.2964 -1.0840
 3259SOL    HW221237   0.182   3.521   4.406 -1.4027  2.1790 -1.8452
 3260SOL     OW21238   3.009   1.764   8.896 -0.1483 -0.0725 -0.0687
 3260SOL    HW121239   3.015   1.704   8.970 -0.8402 -2.2589 -1.7855
 3260SOL    HW221240   2.915   1.781   8.901 -0.7597 -3.3122 -0.2994
 3261SOL     OW21241   1.468   1.447   4.747  0.1494 -0.2979 -0.4025
 3261SOL    HW121242   1.374   1.454   4.729  0.4274 -0.3649 -1.9045
 3261SOL    HW221243   1.513   1.499   4.680  3.1202 -0.6140  1.3460
 3262SOL     OW21244   0.324   1.084   6.084  0.1367  0.2410 -0.5015
 3262SOL    HW121245   0.329   1.050   5.994 -0.4326  0.3647 -0.5843
 3262SOL    HW221246   0.389   1.038   6.137  0.5934  2.0646  0.4983
 3263SOL     OW21247   0.604   3.975   4.488 -0.2373 -0.1583  0.0409
 3263SOL    HW121248   0.555   3.970   4.570 -0.8813 -1.5250 -0.4353
 3263SOL    HW221249   0.667   4.044   4.513  0.4260 -0.5866 -0.4374
 3264SOL     OW21250   3.872   3.218   9.605  0.3316  0.4692  0.3072
 3264SOL    HW121251   3.795   3.208   9.659  1.3093 -0.0540  1.5960
 3264SOL    HW221252   3.911   3.131   9.598 -1.6095 -0.3544 -0.2146
 3265SOL     OW21253   3.312   3.567   6.399 -0.2498  0.5028 -0.0832
 3265SOL    HW121254   3.363   3.644   6.425 -0.0692  0.4207 -0.2006
 3265SOL    HW221255   3.373   3.544   6.329  0.7902 -0.5528  1.1815
 3266SOL     OW21256   4.034   4.363   3.258 -0.3522  0.1014 -0.5424
 3266SOL    HW121257   4.014   4.297   3.191 -0.6040  0.2058 -0.5702
 3266SOL    HW221258   3.957   4.417   3.241  0.5179  1.9477  1.5190
 3267SOL     OW21259   2.772   1.915   8.865  0.3042  0.2754  0.4387
 3267SOL    HW121260   2.748   1.978   8.933  0.3969 -2.0798  2.6509
 3267SOL    HW221261   2.810   1.982   8.809  2.8221 -2.2628 -0.9340
 3268SOL     OW21262   0.839   3.434   6.121  0.0311 -0.1915 -0.0796
 3268SOL    HW121263   0.835   3.507   6.059  0.3889  0.2470  0.4026
 3268SOL    HW221264   0.931   3.418   6.142 -0.7722 -2.7107  1.4755
 3269SOL     OW21265   0.065   3.601   2.240 -0.0637  0.1028  0.8093
 3269SOL    HW121266   0.132   3.549   2.196  0.4445  2.2924 -1.0083
 3269SOL    HW221267   0.001   3.535   2.268 -0.5512  0.4012  0.4056
 3270SOL     OW21268   3.241   0.885   4.927 -0.0769  0.3961  0.4501
 3270SOL    HW121269   3.188   0.927   4.860  0.0488 -0.2252 -0.0409
 3270SOL    HW221270   3.311   0.865   4.864  0.2606 -1.1737  1.3176
 3271SOL     OW21271   4.400   3.655   9.038 -0.7637 -0.2480  0.3359
 3271SOL    HW121272   4.355   3.647   9.122  0.0095  1.0888  0.8920
 3271SOL    HW221273   4.429   3.746   9.036  1.2299 -0.9352 -1.5808
 3272SOL     OW21274   1.479   1.509  11.003 -0.0324  0.4619 -0.5627
 3272SOL    HW121275   1.540   1.522  10.930 -1.0034 -0.8355 -1.6032
 3272SOL    HW221276   1.537   1.543  11.070  0.4439 -1.3503 -0.0680
 3273SOL     OW21277   1.434   3.994   9.773  0.1265 -0.1754  0.0304
 3273SOL    HW121278   1.482   4.076   9.782 -1.3682  0.4438  2.5158
 3273SOL    HW221279   1.356   4.005   9.829  1.4705  1.0286  1.6607
 3274SOL     OW21280   4.335   3.076   3.770 -0.1195  0.1046  0.2326
 3274SOL    HW121281   4.297   3.055   3.855 -0.6214  1.4549  0.3571
 3274SOL    HW221282   4.336   3.172   3.777  0.1637  0.1645 -0.5817
 3275SOL     OW21283   3.860   0.334  14.411 -0.2685  0.1187 -0.7705
 3275SOL    HW121284   3.912   0.414  14.403  2.4735 -1.8775 -2.4167
 3275SOL    HW221285   3.914   0.286  14.348  0.9388 -1.6267  1.5852
 3276SOL     OW21286   4.093   1.297   6.386 -0.2858  0.3575  0.0090
 3276SOL    HW121287   4.025   1.241   6.425  0.6871 -0.5771  0.3713
 3276SOL    HW221288   4.137   1.325   6.466 -0.7111  1.7108 -0.2287
 3277SOL     OW21289   1.991   3.230   7.983  0.2564  0.3745  0.2533
 3277SOL    HW121290   1.921   3.187   8.032  1.0493 -0.9355  0.2465
 3277SOL    HW221291   1.987   3.187   7.897 -0.1473 -0.1604  0.5384
 3278SOL     OW21292   3.444   0.563  15.065 -0.3066  0.4131 -0.6568
 3278SOL    HW121293   3.377   0.630  15.053  0.7319  1.8273  1.4765
 3278SOL    HW221294   3.429   0.527  15.153 -1.3178  0.7195 -0.7003
 3279SOL     OW21295   0.544   1.095  14.988 -0.5197  0.2005  0.0904
 3279SOL    HW121296   0.596   1.045  15.051  1.0441 -0.0086 -1.3666
 3279SOL    HW221297   0.527   1.031  14.920 -0.7475  1.1983 -0.7812
 3280SOL     OW21298   1.838   2.637  11.192 -0.0758 -0.3015  0.2646
 3280SOL    HW121299   1.851   2.641  11.287 -0.1981 -2.4730  0.3737
 3280SOL    HW221300   1.775   2.706  11.171 -0.1425  0.7123  3.7166
 3281SOL     OW21301   3.239   2.172   8.946  0.1801  0.3324  0.5769
 3281SOL    HW121302   3.229   2.120   9.025 -1.2159  1.5918  1.2219
 3281SOL    HW221303   3.148   2.195   8.927  0.4313  0.9534  0.1035
 3282SOL     OW21304   3.978   4.136   1.711  0.1236 -0.3593  0.7620
 3282SOL    HW121305   3.942   4.195   1.778 -1.1887  0.7320 -0.9022
 3282SOL    HW221306   3.972   4.191   1.633 -0.1056 -2.0117 -0.3851
 3283SOL     OW21307   2.518   1.858   9.726  0.4006  0.0634 -0.4443
 3283SOL    HW121308   2.498   1.774   9.768 -0.1578 -0.0876 -1.0153
 3283SOL    HW221309   2.578   1.906   9.784 -1.3903 -0.0489  1.4875
 3284SOL     OW21310   4.305   0.957   5.225  0.9230  0.3029  0.7075
 3284SOL    HW121311   4.332   0.866   5.218  1.8523  0.5640  0.9668
 3284SOL    HW221312   4.249   0.953   5.302 -2.6281  0.3585 -1.8467
 3285SOL     OW21313   4.156   1.892  16.186 -0.0336  0.3741  0.6114
 3285SOL    HW121314   4.099   1.820  16.212  1.2223 -0.8521 -0.0083
 3285SOL    HW221315   4.168   1.940  16.267 -2.8766 -0.1961  1.3468
 3286SOL     OW21316   0.996   3.837   3.185 -0.7288 -0.1936  0.4458
 3286SOL    HW121317   1.010   3.747   3.156 -1.2473 -0.3005  0.5082
 3286SOL    HW221318   0.935   3.869   3.118  0.8808 -0.4534 -1.1281
 3287SOL     OW21319   4.190   1.425  12.375 -0.7648 -0.0113  0.3406
 3287SOL    HW121320   4.196   1.456  12.284  0.4994 -0.2164  0.3565
 3287SOL    HW221321   4.178   1.331  12.366 -0.4385 -0.1910  1.8039
 3288SOL     OW21322   0.258   2.288   2.427  0.4464  0.0287  0.6472
 3288SOL    HW121323   0.223   2.202   2.403 -0.8972  0.9755 -0.7614
 3288SOL    HW221324   0.306   2.299   2.344  0.0141  0.6167  0.4804
 3289SOL     OW21325   0.711   4.408   6.202 -0.5888  0.7573  0.0475
 3289SOL    HW121326   0.785   4.451   6.158  1.0050 -1.4030  0.6096
 3289SOL    HW221327   0.726   4.414   6.296  0.5467  0.3332 -0.1089
 3290SOL     OW21328   0.060   3.070   6.285  0.0456 -0.6893  0.1853
 3290SOL    HW121329   0.020   3.057   6.370 -0.9680  1.7240  0.0488
 3290SOL    HW221330   0.010   3.145   6.253  0.9963  2.1162  5.4453
 3291SOL     OW21331   1.366   4.340   9.036 -0.4313 -0.0339  0.0809
 3291SOL    HW121332   1.402   4.384   8.960  1.3878 -2.3542 -0.4217
 3291SOL    HW221333   1.276   4.324   9.006 -0.3287  1.2149 -0.8651
 3292SOL     OW21334   1.227   4.578   5.155  0.2307  0.5360 -0.4645
 3292SOL    HW121335   1.219   4.630   5.235 -0.5053 -0.1157 -0.1008
 3292SOL    HW221336   1.144   4.529   5.150  0.7227 -0.4329  0.7465
 3293SOL     OW21337   2.899   2.334   3.219  0.3958  0.5304 -0.6183
 3293SOL    HW121338   2.831   2.266   3.222 -0.4846  1.4628  0.4140
 3293SOL    HW221339   2.950   2.287   3.152 -0.1137 -0.8383 -0.0568
 3294SOL     OW21340   1.121   4.553  14.115 -0.6216 -0.6452 -0.4817
 3294SOL    HW121341   1.088   4.527  14.201 -3.1421  1.4813 -0.8339
 3294SOL    HW221342   1.214   4.561  14.137 -0.7362 -1.6566  0.4084
 3295SOL     OW21343   3.547   4.623   4.886 -0.0348  0.4502 -0.2953
 3295SOL    HW121344   3.609   4.657   4.950 -2.0096  1.0296  1.3194
 3295SOL    HW221345   3.485   4.582   4.947 -1.4884  2.0191 -0.6912
 3296SOL     OW21346   4.678   0.659   4.813  0.7326  0.7053  0.3129
 3296SOL    HW121347   4.725   0.587   4.856  1.7708 -0.0146 -2.0204
 3296SOL    HW221348   4.621   0.600   4.763  0.4650  2.9634 -1.9844
 3297SOL     OW21349   4.399   2.215  15.777 -0.0178  0.6254 -0.2565
 3297SOL    HW121350   4.474   2.181  15.827  0.8149  2.6723 -0.0972
 3297SOL    HW221351   4.410   2.183  15.688  0.3086 -0.1767  0.0726
 3298SOL     OW21352   0.552   1.747  14.557 -0.0446  0.4535 -0.1946
 3298SOL    HW121353   0.523   1.736  14.466 -0.5707  2.5628 -0.2960
 3298SOL    HW221354   0.483   1.695  14.598 -0.2109  0.8332  0.0125
 3299SOL     OW21355   2.343   1.195  12.089 -0.5290 -0.5169  0.5953
 3299SOL    HW121356   2.428   1.201  12.134 -0.9788  1.8956  1.1457
 3299SOL    HW221357   2.325   1.101  12.093 -1.3168 -0.3646  0.5257
 3300SOL     OW21358   0.255   0.224   4.867  0.0391 -0.7023 -0.2808
 3300SOL    HW121359   0.207   0.283   4.809  1.1693  1.4170  0.9245
 3300SOL    HW221360   0.218   0.233   4.955 -0.2499  0.7099 -0.5351
 3301SOL     OW21361   4.404   1.139   5.928 -0.0264  0.3336 -0.2927
 3301SOL    HW121362   4.339   1.076   5.897  0.1255  0.6508 -1.2858
 3301SOL    HW221363   4.402   1.208   5.861  1.5636 -1.1333 -1.8187
 3302SOL     OW21364   1.094   4.725  17.648  0.2813  0.2805  0.3601
 3302SOL    HW121365   1.066   4.684  17.567  0.8512  0.2089  0.2023
 3302SOL    HW221366   1.146   0.069  17.609  0.9542  0.6361  1.8776
 3303SOL     OW21367   0.871   3.574   8.583  0.0414  0.2112 -0.5567
 3303SOL    HW121368   0.892   3.572   8.677 -0.3638 -1.4709 -0.4982
 3303SOL    HW221369   0.888   3.481   8.566  0.6038 -0.2202  2.3933
 3304SOL     OW21370   0.496   3.303  10.428  0.2897  0.3219  0.2005
 3304SOL    HW121371   0.529   3.231  10.481 -0.0519  0.0232  0.0075
 3304SOL    HW221372   0.471   3.362  10.500  0.4630  0.8868 -0.2035
 3305SOL     OW21373   2.341   1.988   7.587 -0.5209 -0.1181 -0.0790
 3305SOL    HW121374   2.381   1.926   7.647  2.4783 -0.7332 -2.7217
 3305SOL    HW221375   2.314   1.936   7.511 -0.0875 -0.0702 -0.2630
 3306SOL     OW21376   0.035   3.849   8.510  0.0159  0.2857  0.0754
 3306SOL    HW121377   4.719   3.930   8.539 -0.1170  0.4993 -0.7089
 3306SOL    HW221378   0.076   3.803   8.583 -0.4203  1.2128  0.9051
 3307SOL     OW21379   1.652   0.214  12.155 -0.0538  0.1639  0.3543
 3307SOL    HW121380   1.612   0.131  12.181  1.1124 -0.5706 -0.1924
 3307SOL    HW221381   1.588   0.281  12.181 -0.0347  1.0750 -1.9490
 3308SOL     OW21382   2.558   0.088  16.793 -0.7371 -0.5209 -0.4504
 3308SOL    HW121383   2.486   0.131  16.838 -0.9447 -1.4190  0.0833
 3308SOL    HW221384   2.517   0.069  16.709  0.7347  3.6880 -2.0894
 3309SOL     OW21385   4.283   4.069   1.638 -0.3231 -0.5228  0.2662
 3309SOL    HW121386   4.214   4.056   1.574  1.0050  1.6795 -1.6243
 3309SOL    HW221387   4.355   4.041   1.581 -0.9403  3.2068 -2.3478
 3310SOL     OW21388   2.454   2.626   7.876  0.3554  0.2927 -0.2818
 3310SOL    HW121389   2.453   2.662   7.788  2.6479  1.2505  0.1020
 3310SOL    HW221390   2.544   2.633   7.906  0.8837  1.1350 -2.0971
 3311SOL     OW21391   1.039   1.303   5.081  0.0522 -0.1479 -0.6888
 3311SOL    HW121392   1.095   1.374   5.111  0.7693 -0.8014 -0.4909
 3311SOL    HW221393   1.005   1.262   5.161  1.5697 -0.1695 -0.0679
 3312SOL     OW21394   2.957   1.529   2.380 -0.3665  0.1700  0.8135
 3312SOL    HW121395   2.923   1.576   2.303 -2.0376  0.8991  2.0140
 3312SOL    HW221396   2.991   1.603   2.430  1.6997 -0.5958  0.5562
 3313SOL     OW21397   0.724   2.583   7.161 -0.7680 -0.1229 -0.3654
 3313SOL    HW121398   0.669   2.650   7.121  0.0864 -0.4103 -2.0275
 3313SOL    HW221399   0.655   2.519   7.176  0.3687 -0.8937  1.6369
 3314SOL     OW21400   1.101   1.389   0.530 -0.0244 -0.8223  0.1158
 3314SOL    HW121401   1.160   1.425   0.463 -1.6716  2.2341  0.3544
 3314SOL    HW221402   1.045   1.333   0.475  0.0786 -0.0709 -0.7598
 3315SOL     OW21403   4.045   3.605   5.931  0.3816 -0.2884  0.0028
 3315SOL    HW121404   3.992   3.655   5.992  2.3716  0.0922  1.4173
 3315SOL    HW221405   4.120   3.590   5.989 -2.1819 -0.3730  3.2694
 3316SOL     OW21406   2.957   2.928  12.979 -0.2198 -0.2379  0.2298
 3316SOL    HW121407   2.943   2.840  12.943  1.0427 -1.4221  2.5783
 3316SOL    HW221408   3.051   2.936  12.991 -0.7535  0.8076  3.9221
 3317SOL     OW21409   1.329   2.589   4.941  0.3351 -0.6535  0.1057
 3317SOL    HW121410   1.295   2.501   4.957 -0.6545 -0.1960  0.5353
 3317SOL    HW221411   1.352   2.611   5.032  0.2301  1.9365 -0.4723
 3318SOL     OW21412   3.322   2.442   4.872  0.3078 -0.1987 -0.5136
 3318SOL    HW121413   3.334   2.465   4.780  0.9832  0.0648 -0.3606
 3318SOL    HW221414   3.302   2.530   4.904  0.3406 -0.3380 -0.1044
 3319SOL     OW21415   2.477   0.846   4.715  0.2115  0.7110 -1.0079
 3319SOL    HW121416   2.401   0.901   4.698 -0.4454 -0.1548 -0.8536
 3319SOL    HW221417   2.535   0.866   4.642  1.4491  0.0084 -0.2272
 3320SOL     OW21418   4.282   1.427   5.240  0.0471 -0.0023 -0.7215
 3320SOL    HW121419   4.271   1.517   5.210  0.7624  0.2142 -0.3334
 3320SOL    HW221420   4.321   1.396   5.158  1.5801 -1.5217  0.5712
 3321SOL     OW21421   0.237   3.244  13.992 -0.1973  0.3930 -0.0059
 3321SOL    HW121422   0.195   3.164  14.023 -1.4106  1.0787  0.1421
 3321SOL    HW221423   0.310   3.253  14.053  0.6255 -0.8527 -0.7918
 3322SOL     OW21424   3.224   1.919   4.346 -0.6330 -0.0634  0.1006
 3322SOL    HW121425   3.305   1.962   4.374 -1.0209  0.3594  0.5704
 3322SOL    HW221426   3.195   1.867   4.421  1.1447 -0.0948  0.7648
 3323SOL     OW21427   4.278   2.233  10.119  0.4449  0.6308  0.0009
 3323SOL    HW121428   4.352   2.179  10.146 -0.8385 -0.5994  1.0026
 3323SOL    HW221429   4.257   2.275  10.202  2.0780  0.8525  0.3113
 3324SOL     OW21430   2.916   3.299   2.319  0.0521 -0.1948 -0.0517
 3324SOL    HW121431   2.908   3.265   2.230 -0.7084 -0.6282  0.1835
 3324SOL    HW221432   2.845   3.245   2.352  0.5290 -1.0887 -0.4773
 3325SOL     OW21433   0.779   0.260   2.415 -0.2957  0.2312 -0.4469
 3325SOL    HW121434   0.789   0.206   2.337 -0.3963  0.2727 -0.4884
 3325SOL    HW221435   0.849   0.219   2.465 -0.2493  2.0207  0.9679
 3326SOL     OW21436   4.400   2.639   2.340  0.1917  0.3983 -0.0811
 3326SOL    HW121437   4.425   2.677   2.256 -0.4955  0.3506 -0.3076
 3326SOL    HW221438   4.471   2.578   2.358  0.9122  1.4632  0.7306
 3327SOL     OW21439   0.889   1.454   3.210  0.5024  1.1553  0.1434
 3327SOL    HW121440   0.942   1.466   3.289 -1.2569  1.7523  1.2574
 3327SOL    HW221441   0.954   1.438   3.142 -0.4023 -1.1316 -0.1755
 3328SOL     OW21442   2.728   0.396   8.290 -0.1266  0.9380 -0.3991
 3328SOL    HW121443   2.821   0.383   8.271 -0.0753 -2.7871  2.4087
 3328SOL    HW221444   2.685   0.351   8.218 -2.3868 -0.9742  2.1272
 3329SOL     OW21445   3.209   3.633   0.412 -0.3269  0.7340 -0.1886
 3329SOL    HW121446   3.136   3.686   0.381  0.7296 -0.4078 -4.7933
 3329SOL    HW221447   3.218   3.573   0.337 -0.1513 -0.2041  0.5752
 3330SOL     OW21448   1.030   2.465   3.447  0.2799  0.1032 -0.2988
 3330SOL    HW121449   1.116   2.447   3.483  0.0706 -0.5587 -0.1240
 3330SOL    HW221450   1.049   2.547   3.402 -0.0570  0.0811 -0.4842
 3331SOL     OW21451   3.930   4.347   2.323 -0.1182  0.1196  0.3460
 3331SOL    HW121452   3.906   4.290   2.250 -1.3718  0.5150  0.4372
 3331SOL    HW221453   4.001   4.400   2.286 -1.8231  0.7148 -2.1171
 3332SOL     OW21454   1.583   2.381  13.635 -0.8620 -0.2881  0.2710
 3332SOL    HW121455   1.620   2.321  13.699  0.6533  0.7045  0.3198
 3332SOL    HW221456   1.579   2.466  13.679 -0.2993  0.5918 -1.3379
 3333SOL     OW21457   1.183   2.521  17.325 -0.1365 -0.3097 -0.3571
 3333SOL    HW121458   1.175   2.530  17.420 -0.5469 -3.0375 -0.1248
 3333SOL    HW221459   1.144   2.435  17.310  1.1988 -1.3029  1.9147
 3334SOL     OW21460   4.596   4.253   9.837 -0.1277 -0.1002  0.3423
 3334SOL    HW121461   4.521   4.312   9.833 -0.5795 -0.4828  3.0093
 3334SOL    HW221462   4.625   4.257   9.928 -0.3395 -1.3633  0.4738
 3335SOL     OW21463   2.314   2.787   3.311  0.2097 -0.1085  0.3507
 3335SOL    HW121464   2.402   2.767   3.279 -0.1387  1.7429 -1.7527
 3335SOL    HW221465   2.307   2.710   3.367 -1.8210 -0.4084 -0.3040
 3336SOL     OW21466   2.838   1.435   6.508  0.2013  0.6757  0.3585
 3336SOL    HW121467   2.890   1.406   6.433  0.0618  2.4188 -0.4062
 3336SOL    HW221468   2.761   1.379   6.498  1.7328 -0.9397 -2.5635
 3337SOL     OW21469   1.124   3.711   7.025  0.0111  0.4453 -0.3697
 3337SOL    HW121470   1.108   3.805   7.028  0.5067  0.5075  0.4649
 3337SOL    HW221471   1.081   3.686   7.107  0.5929 -1.2236 -0.5768
 3338SOL     OW21472   1.480   4.428   8.050  0.1964 -0.6248  0.0538
 3338SOL    HW121473   1.398   4.423   8.099  0.3807 -2.2547  0.1832
 3338SOL    HW221474   1.535   4.356   8.081  1.1388  0.9686  2.0336
 3339SOL     OW21475   1.568   2.127  15.139 -0.1284 -0.1292 -0.1841
 3339SOL    HW121476   1.604   2.043  15.111 -1.1125 -0.6658  0.1659
 3339SOL    HW221477   1.599   2.184  15.069  0.9523  1.4550  1.5971
 3340SOL     OW21478   4.637   2.350  16.528 -0.3639  0.4275 -0.2849
 3340SOL    HW121479   4.710   2.366  16.468 -0.3534 -2.8744 -1.1211
 3340SOL    HW221480   4.676   2.363  16.614  0.1217 -2.1475 -0.1093
 3341SOL     OW21481   1.929   0.632   3.215 -0.2509 -0.2835  0.6194
 3341SOL    HW121482   2.008   0.632   3.160 -0.4703  0.9277  0.2990
 3341SOL    HW221483   1.929   0.711   3.269 -0.2955  1.4206 -1.8796
 3342SOL     OW21484   0.735   3.715   3.832  0.0001  0.0719 -0.0836
 3342SOL    HW121485   0.758   3.645   3.772 -0.4736 -0.5705  0.4894
 3342SOL    HW221486   0.741   3.670   3.916  0.7173  1.7619  0.7702
 3343SOL     OW21487   2.087   0.048   2.463  0.3670  0.1626  0.5075
 3343SOL    HW121488   2.151   4.708   2.489  1.7665  0.6907 -1.6051
 3343SOL    HW221489   2.039   0.071   2.543 -0.2123 -1.1261  0.5321
 3344SOL     OW21490   3.368   0.271   1.817 -0.2962  0.0326  0.2937
 3344SOL    HW121491   3.456   0.251   1.787 -0.2877  0.6400 -0.0930
 3344SOL    HW221492   3.339   0.315   1.737  1.6450  2.0318  0.6940
 3345SOL     OW21493   3.561   4.403   1.036  0.2858 -0.2233  0.2289
 3345SOL    HW121494   3.584   4.473   1.096 -1.1682 -1.0421  1.7398
 3345SOL    HW221495   3.481   4.439   0.997 -0.9807 -1.9979  1.1744
 3346SOL     OW21496   1.145   3.125   5.029  0.5173  0.5144  0.1995
 3346SOL    HW121497   1.066   3.073   5.013 -0.2986  2.2104 -1.2860
 3346SOL    HW221498   1.180   3.147   4.943  1.7472  0.7829  0.7640
 3347SOL     OW21499   1.325   3.319  16.317 -0.5750  0.1323 -0.3590
 3347SOL    HW121500   1.286   3.327  16.404  1.7844  0.3311  0.6775
 3347SOL    HW221501   1.246   3.358  16.280 -0.7267 -0.3695 -0.5612
 3348SOL     OW21502   3.718   2.925   3.164  0.0034 -0.4830  0.1585
 3348SOL    HW121503   3.740   2.906   3.073 -0.5150 -1.4821  0.2471
 3348SOL    HW221504   3.764   2.862   3.219  0.0927 -0.3600  0.2246
 3349SOL     OW21505   3.828   1.972   9.078  0.2469 -0.7147 -0.1120
 3349SOL    HW121506   3.819   1.937   9.167  0.9982 -0.3237  0.1195
 3349SOL    HW221507   3.921   1.948   9.069  0.1890 -0.8825 -0.2574
 3350SOL     OW21508   3.666   2.528   5.008  0.1527 -0.3040  0.8605
 3350SOL    HW121509   3.760   2.527   4.995 -0.4593 -0.4515 -3.5222
 3350SOL    HW221510   3.640   2.535   4.916 -0.3536  0.4990  1.0661
 3351SOL     OW21511   2.265   2.417   4.617 -0.1138  0.0319  0.0729
 3351SOL    HW121512   2.346   2.467   4.611  0.9128 -1.8811 -1.8254
 3351SOL    HW221513   2.315   2.343   4.650 -2.0218 -0.4232  1.9472
 3352SOL     OW21514   0.850   0.117   7.356  0.2657 -0.4197 -0.0174
 3352SOL    HW121515   0.919   0.136   7.293  0.6427 -0.1643  0.4732
 3352SOL    HW221516   0.880   0.178   7.423  0.6873  0.1687 -0.7469
 3353SOL     OW21517   3.659   2.458   7.693  0.3939 -0.3619  0.2943
 3353SOL    HW121518   3.730   2.394   7.695  1.2211  0.5078 -1.0703
 3353SOL    HW221519   3.632   2.441   7.603  0.7048  1.5620 -0.1602
 3354SOL     OW21520   0.825   3.253   2.784 -0.4788  0.3523  0.1135
 3354SOL    HW121521   0.837   3.347   2.788 -0.3795  0.2995  0.9869
 3354SOL    HW221522   0.865   3.215   2.862 -0.3165 -0.9575 -0.6032
 3355SOL     OW21523   4.285   2.592   5.860 -0.3305  0.6501  0.1058
 3355SOL    HW121524   4.245   2.670   5.897 -1.1267 -1.1212  2.9686
 3355SOL    HW221525   4.374   2.621   5.840  0.6307 -0.9551  1.9846
 3356SOL     OW21526   3.522   2.364   3.706 -0.1187 -0.4894  0.5143
 3356SOL    HW121527   3.571   2.417   3.643 -4.0722  0.1233 -2.0451
 3356SOL    HW221528   3.591   2.346   3.769  2.5902  2.7886 -1.4648
 3357SOL     OW21529   1.025   4.722   1.609 -0.7036  0.3330 -0.5461
 3357SOL    HW121530   1.032   4.711   1.704 -0.3684  1.6678 -0.4072
 3357SOL    HW221531   0.982   0.081   1.604 -0.0522  0.6977 -0.0813
 3358SOL     OW21532   1.694   2.460   2.793 -0.6505  0.4553 -0.0782
 3358SOL    HW121533   1.602   2.438   2.807 -0.4852 -0.6384 -0.7315
 3358SOL    HW221534   1.736   2.396   2.851 -3.5968 -0.8126  0.6862
 3359SOL     OW21535   0.467   0.482   5.271 -0.3233 -0.0156  0.2332
 3359SOL    HW121536   0.537   0.548   5.280  0.5389 -0.8201 -0.5445
 3359SOL    HW221537   0.432   0.473   5.359  1.3279 -1.9902  0.6700
 3360SOL     OW21538   2.980   1.100   7.945 -0.0908  0.0699 -0.5558
 3360SOL    HW121539   2.898   1.150   7.944 -0.9247 -1.3006 -0.3453
 3360SOL    HW221540   3.032   1.137   7.873  3.1503  0.9777  2.2775
 3361SOL     OW21541   1.186   1.411   7.416 -0.2880  0.5297 -0.3378
 3361SOL    HW121542   1.156   1.427   7.327  0.3903 -0.2229 -0.7015
 3361SOL    HW221543   1.129   1.340   7.444  2.0482 -1.9685 -1.8571
 3362SOL     OW21544   0.231   0.974   8.380 -0.6670  0.8374 -0.3587
 3362SOL    HW121545   0.263   1.047   8.328 -1.7243  0.4637 -1.5246
 3362SOL    HW221546   0.144   1.007   8.402 -1.5557 -1.9907  0.4126
 3363SOL     OW21547   3.431   3.641  15.006  0.1113 -0.0293  0.4199
 3363SOL    HW121548   3.394   3.698  15.073  1.5420  1.3284  0.0763
 3363SOL    HW221549   3.353   3.591  14.984  0.6927 -0.1042 -1.4513
 3364SOL     OW21550   1.449   4.388  10.789 -0.3617  0.1203  0.3106
 3364SOL    HW121551   1.420   4.314  10.736 -0.8054 -0.1789  0.9624
 3364SOL    HW221552   1.505   4.338  10.849 -1.3924 -0.6042  0.6648
 3365SOL     OW21553   3.956   1.741  12.508 -0.3063 -0.2436 -0.3176
 3365SOL    HW121554   4.029   1.698  12.552  0.0777 -0.6364 -1.3507
 3365SOL    HW221555   3.991   1.705  12.427  0.9580 -1.4000  0.7528
 3366SOL     OW21556   0.889   3.887  15.736  0.5684 -0.0501  0.4964
 3366SOL    HW121557   0.901   3.950  15.808 -2.3133 -1.0002  1.8215
 3366SOL    HW221558   0.901   3.799  15.771 -1.1302 -0.4986 -0.0386
 3367SOL     OW21559   3.918   4.116  16.175 -0.1300  0.3080 -0.5642
 3367SOL    HW121560   3.993   4.084  16.224  0.4687  2.2548 -0.1907
 3367SOL    HW221561   3.903   4.207  16.203  0.4706  0.7412 -1.6726
 3368SOL     OW21562   4.428   0.390   3.529 -0.6090 -0.5186 -0.2938
 3368SOL    HW121563   4.480   0.422   3.455  0.7683  0.4584  1.1138
 3368SOL    HW221564   4.375   0.319   3.491 -0.2632 -1.1840  0.4725
 3369SOL     OW21565   3.977   0.414  14.647 -0.4208 -0.0575 -0.3559
 3369SOL    HW121566   4.070   0.407  14.669  0.1776  0.3905 -2.7354
 3369SOL    HW221567   3.941   0.326  14.641 -0.0505 -0.2938  0.8374
 3370SOL     OW21568   0.023   1.459  16.315  0.8354  0.6295  0.1371
 3370SOL    HW121569   0.043   1.527  16.251 -0.2666  2.0438  1.3034
 3370SOL    HW221570   4.716   1.515  16.386 -3.2043  1.7067 -2.6216
 3371SOL     OW21571   0.322   4.410   7.208 -0.2475  0.2082  0.5451
 3371SOL    HW121572   0.387   4.451   7.264 -0.4484  1.2286  0.0216
 3371SOL    HW221573   0.284   4.348   7.271  0.3062 -0.0011  0.6657
 3372SOL     OW21574   4.147   3.389   3.749  0.4247  0.8047 -0.2259
 3372SOL    HW121575   4.078   3.333   3.714  1.4117 -0.2473 -0.5082
 3372SOL    HW221576   4.129   3.464   3.693 -2.1239  0.1181 -0.3351
 3373SOL     OW21577   2.958   0.843   1.495 -0.6595 -0.2946  0.2162
 3373SOL    HW121578   2.924   0.807   1.413  2.0331 -1.3961 -0.4472
 3373SOL    HW221579   2.939   0.935   1.477 -0.5006 -0.3663 -0.3207
 3374SOL     OW21580   0.094   0.291   8.827 -0.8072  0.2670 -0.2472
 3374SOL    HW121581   0.069   0.265   8.738  2.3117 -1.4639 -0.6088
 3374SOL    HW221582   0.078   0.209   8.873 -0.8297 -1.1346 -2.7479
 3375SOL     OW21583   2.308   1.180   9.138 -0.1426 -0.7077 -0.9711
 3375SOL    HW121584   2.391   1.138   9.118 -0.9683 -1.8942 -1.9024
 3375SOL    HW221585   2.348   1.262   9.166 -1.0596 -0.3148 -0.8069
 3376SOL     OW21586   0.632   4.011   2.391  0.6259  0.2380  0.7545
 3376SOL    HW121587   0.543   3.981   2.371  0.1134  2.5476 -0.3685
 3376SOL    HW221588   0.676   4.002   2.306  0.2160 -0.7768  0.6474
 3377SOL     OW21589   3.178   1.408   2.179  0.6523  0.4724  0.8328
 3377SOL    HW121590   3.212   1.364   2.257 -0.6282  0.8260  1.6053
 3377SOL    HW221591   3.154   1.489   2.223 -1.2131 -0.1512  0.9658
 3378SOL     OW21592   2.121   3.567  10.852  0.0090 -0.2219 -0.2801
 3378SOL    HW121593   2.190   3.519  10.897  0.0149 -0.2715 -0.3419
 3378SOL    HW221594   2.089   3.505  10.787 -1.8768  0.4597 -0.0066
 3379SOL     OW21595   1.786   1.222   3.525 -0.4431 -0.2372 -0.3274
 3379SOL    HW121596   1.801   1.196   3.615 -2.0609  0.1037  0.0355
 3379SOL    HW221597   1.869   1.194   3.485 -0.5795 -1.3896  0.1945
 3380SOL     OW21598   1.317   4.107   9.517  0.3571 -0.1196 -0.4458
 3380SOL    HW121599   1.319   4.069   9.605 -0.1761 -2.8114 -1.6187
 3380SOL    HW221600   1.285   4.029   9.472  0.6764 -1.3688  1.5017
 3381SOL     OW21601   1.584   0.886   7.111 -0.4746  0.0101 -0.5708
 3381SOL    HW121602   1.607   0.920   7.197 -0.3209 -0.7262 -0.3307
 3381SOL    HW221603   1.666   0.859   7.070 -0.4366  0.5365 -0.8480
 3382SOL     OW21604   3.822   2.544   1.077  0.0245 -0.0024 -0.1663
 3382SOL    HW121605   3.764   2.468   1.070  0.8972 -0.4314 -2.7803
 3382SOL    HW221606   3.881   2.525   1.004 -0.7295 -2.9190 -0.0226
 3383SOL     OW21607   2.790   4.295  12.634  0.6053 -0.0771  0.4542
 3383SOL    HW121608   2.752   4.240  12.703 -1.8690 -1.5389 -2.1211
 3383SOL    HW221609   2.760   4.381  12.663  0.0908 -0.0579 -0.1641
 3384SOL     OW21610   1.422   2.566  10.205  0.6531 -0.7546 -0.2509
 3384SOL    HW121611   1.388   2.500  10.145  0.6459 -0.2719 -0.7755
 3384SOL    HW221612   1.391   2.522  10.285 -1.2301 -2.4562 -1.9178
 3385SOL     OW21613   0.731   3.220   5.633 -0.3087 -0.1326 -0.4097
 3385SOL    HW121614   0.762   3.187   5.549  0.4200 -0.7025  0.0866
 3385SOL    HW221615   0.793   3.291   5.652 -0.0017  0.1112 -2.3586
 3386SOL     OW21616   2.732   0.732  12.451  0.2563 -0.6834 -0.6916
 3386SOL    HW121617   2.670   0.728  12.378 -1.2205 -0.1192  0.5272
 3386SOL    HW221618   2.679   0.764  12.524  0.6026 -0.2081 -0.6504
 3387SOL     OW21619   0.514   4.708   4.145 -0.1843 -0.4950  0.1726
 3387SOL    HW121620   0.560   0.053   4.189  0.0077 -0.5923  0.1259
 3387SOL    HW221621   0.494   0.025   4.061 -2.3410 -0.5964  0.6384
 3388SOL     OW21622   1.228   1.224   2.073  0.0767  0.7404 -0.2422
 3388SOL    HW121623   1.221   1.163   2.147  0.4199 -1.6018 -2.1384
 3388SOL    HW221624   1.165   1.184   2.014 -1.5033  3.2738 -0.2650
 3389SOL     OW21625   3.687   3.117   1.609 -0.0217 -0.7570 -0.0961
 3389SOL    HW121626   3.752   3.113   1.679 -0.2814 -1.3273  0.1140
 3389SOL    HW221627   3.677   3.023   1.595 -3.2690 -0.5897  1.0933
 3390SOL     OW21628   4.589   0.849   7.505  0.0978  0.1797  0.5090
 3390SOL    HW121629   4.555   0.817   7.422  4.9902 -1.0599 -1.0320
 3390SOL    HW221630   4.652   0.915   7.475 -0.4617  0.2911 -0.4180
 3391SOL     OW21631   1.720   0.155   8.707 -0.4287 -0.3221 -0.0828
 3391SOL    HW121632   1.638   0.169   8.754  0.1395 -4.0866  2.0041
 3391SOL    HW221633   1.690   0.137   8.618  0.7457 -1.1255 -0.3107
 3392SOL     OW21634   0.544   4.072   6.901  0.3016 -0.9309 -0.1248
 3392SOL    HW121635   0.527   4.146   6.843  2.6535 -1.0352 -0.9246
 3392SOL    HW221636   0.638   4.085   6.916  0.5517  0.6131 -3.0657
 3393SOL     OW21637   0.452   1.478   2.149 -0.3766 -0.4102  0.4133
 3393SOL    HW121638   0.486   1.538   2.083  0.2964 -0.9667  0.2542
 3393SOL    HW221639   0.361   1.507   2.162 -0.8692 -1.4434 -0.6582
 3394SOL     OW21640   0.261   0.155  11.466  0.1803 -0.3450 -0.7222
 3394SOL    HW121641   0.306   0.074  11.443  2.1657  0.6627 -0.4051
 3394SOL    HW221642   0.268   0.161  11.561 -2.1186  0.2369 -0.5800
 3395SOL     OW21643   3.506   3.475   6.218  0.6592 -0.2565  0.3756
 3395SOL    HW121644   3.559   3.434   6.286 -0.3171 -3.8717 -0.9960
 3395SOL    HW221645   3.576   3.464   6.154 -1.5905  0.7521 -2.2847
 3396SOL     OW21646   2.635   4.306   2.018 -0.0192  0.6491 -0.3066
 3396SOL    HW121647   2.683   4.223   2.013  1.8806  1.5835  2.4439
 3396SOL    HW221648   2.544   4.276   2.018  0.3227 -0.3676 -1.7916
 3397SOL     OW21649   4.710   2.588  17.277 -0.5382  0.0012  0.1449
 3397SOL    HW121650   4.670   2.623  17.197  1.6916  1.4939 -0.3384
 3397SOL    HW221651   4.646   2.532  17.319 -0.4299  0.1912  0.5636
 3398SOL     OW21652   4.719   0.232   5.058 -0.1076 -0.2271  0.0311
 3398SOL    HW121653   4.661   0.244   5.133 -1.4603 -1.7191 -0.7623
 3398SOL    HW221654   4.659   0.247   4.985  1.7306  1.0507 -1.2017
 3399SOL     OW21655   1.656   3.867  17.111 -0.9921 -0.0173 -0.6288
 3399SOL    HW121656   1.662   3.782  17.156  2.3514  0.0504 -0.9019
 3399SOL    HW221657   1.729   3.922  17.140 -0.7996  0.2390 -1.6201
 3400SOL     OW21658   4.324   2.459   8.610  0.3516 -0.0234 -0.1894
 3400SOL    HW121659   4.401   2.412   8.642 -1.6059 -0.7946  3.4493
 3400SOL    HW221660   4.360   2.523   8.549  0.4258 -0.6964 -0.8438
 3401SOL     OW21661   1.053   1.077   0.243  0.3594  0.0810 -0.0728
 3401SOL    HW121662   1.116   1.034   0.301  2.9802 -1.3235 -3.8773
 3401SOL    HW221663   1.093   1.056   0.158  3.0696  0.6870  1.0546
 3402SOL     OW21664   2.690   2.556   8.483 -0.0385 -0.5316 -0.0111
 3402SOL    HW121665   2.654   2.551   8.395 -0.4717 -0.0127  0.1355
 3402SOL    HW221666   2.612   2.558   8.539  0.3129 -0.6178  0.4842
 3403SOL     OW21667   2.150   2.278   9.940 -0.5073  0.4852  0.4291
 3403SOL    HW121668   2.197   2.195   9.938 -0.5958  0.4235  0.7799
 3403SOL    HW221669   2.161   2.304  10.032  1.2553  1.9548 -0.2082
 3404SOL     OW21670   0.755   2.527   2.826  0.2054  0.2832  0.3154
 3404SOL    HW121671   0.677   2.534   2.882 -2.2117 -0.1654 -2.9645
 3404SOL    HW221672   0.726   2.461   2.762 -1.6161  0.1540  1.2861
 3405SOL     OW21673   0.093   4.571   6.197  0.1968 -0.5401 -0.0528
 3405SOL    HW121674   0.089   4.554   6.291 -0.6955 -1.7667 -0.3165
 3405SOL    HW221675   0.000   4.562   6.176 -0.0018  0.2877  0.4667
 3406SOL     OW21676   2.258   1.520   7.518 -0.6340 -0.2212  1.0582
 3406SOL    HW121677   2.234   1.429   7.500  1.6520 -1.1723  2.8194
 3406SOL    HW221678   2.210   1.573   7.455 -0.2834  0.4334  1.3367
 3407SOL     OW21679   2.797   1.955   8.395 -0.0617  0.5468 -0.4186
 3407SOL    HW121680   2.795   2.015   8.321  1.1799 -0.1747 -1.0349
 3407SOL    HW221681   2.852   1.886   8.360 -2.0018 -1.0649 -0.2920
 3408SOL     OW21682   2.998   3.279   9.412  0.3062 -0.3248 -0.5869
 3408SOL    HW121683   3.074   3.266   9.356  1.5034  1.4671  0.6159
 3408SOL    HW221684   3.028   3.242   9.495 -2.1292 -0.9298  0.0312
 3409SOL     OW21685   0.893   3.834   4.900 -0.0054 -0.6296 -0.0002
 3409SOL    HW121686   0.805   3.871   4.907  1.4447  3.2737 -2.8723
 3409SOL    HW221687   0.868   3.746   4.871 -0.7067 -0.8988  1.4304
 3410SOL     OW21688   1.268   4.418   8.229  0.3878  0.1394  0.1257
 3410SOL    HW121689   1.207   4.345   8.222  1.5089 -0.8015  0.0728
 3410SOL    HW221690   1.199   4.476   8.261  1.1571  0.7218  0.7324
 3411SOL     OW21691   2.174   2.369   2.525  0.4141 -0.1563 -0.0536
 3411SOL    HW121692   2.228   2.292   2.511 -0.3722 -0.3473 -2.0313
 3411SOL    HW221693   2.166   2.366   2.620  2.8517  0.1024  0.1544
 3412SOL     OW21694   4.485   2.298   4.788 -0.0493 -0.9097 -0.4353
 3412SOL    HW121695   4.432   2.299   4.868 -1.7056  1.9043 -1.5871
 3412SOL    HW221696   4.425   2.295   4.713  0.1307 -0.8197 -0.5815
 3413SOL     OW21697   2.809   2.395   7.020 -0.4797  0.1392  0.2193
 3413SOL    HW121698   2.727   2.354   7.048 -0.3651 -0.0806  0.2389
 3413SOL    HW221699   2.786   2.383   6.928  3.1555 -2.9155 -0.3161
 3414SOL     OW21700   4.218   4.585   6.660  0.3946  0.3510  0.2268
 3414SOL    HW121701   4.197   4.564   6.751  1.1701  1.2911  0.6232
 3414SOL    HW221702   4.303   4.544   6.645 -0.9189 -2.3755  0.1455
 3415SOL     OW21703   3.222   4.455  11.774  0.3141 -0.5043 -0.2990
 3415SOL    HW121704   3.298   4.503  11.740  2.4127 -2.4400  1.6662
 3415SOL    HW221705   3.155   4.469  11.707 -1.3393  0.0669  1.4731
 3416SOL     OW21706   4.485   0.083  17.231  0.0587  0.2640 -0.2668
 3416SOL    HW121707   4.490   0.104  17.324  1.8817  1.9320 -0.7418
 3416SOL    HW221708   4.431   0.150  17.191 -1.2500 -0.4603  0.2898
 3417SOL     OW21709   1.567   0.717   4.280 -0.0387  0.0707  0.0349
 3417SOL    HW121710   1.535   0.798   4.318 -2.3038 -0.8521  0.0565
 3417SOL    HW221711   1.488   0.665   4.264  1.1042 -0.7849 -2.8771
 3418SOL     OW21712   1.131   0.675   1.941  0.3359  0.7650  0.9108
 3418SOL    HW121713   1.162   0.632   2.021  0.7634  0.1523  0.4138
 3418SOL    HW221714   1.207   0.709   1.894 -0.6575 -0.5305 -1.6327
 3419SOL     OW21715   1.224   0.789   2.715 -0.1228 -0.5430 -0.1124
 3419SOL    HW121716   1.155   0.797   2.781  0.9370 -1.7676  1.1489
 3419SOL    HW221717   1.302   0.825   2.758  1.1164 -2.3310 -0.8550
 3420SOL     OW21718   4.480   3.217   8.982  0.5378 -0.1127 -0.7079
 3420SOL    HW121719   4.461   3.308   8.959  0.2859  0.1068  0.3889
 3420SOL    HW221720   4.568   3.229   9.018  0.4391 -1.1431 -0.1180
 3421SOL     OW21721   2.021   2.143  14.223 -0.6701  0.0463 -0.0395
 3421SOL    HW121722   1.990   2.227  14.188  0.8923  0.4147 -0.5256
 3421SOL    HW221723   2.114   2.140  14.204 -0.5193  0.6444  0.5770
 3422SOL     OW21724   2.953   2.897   4.474  0.1554  0.3870 -1.0697
 3422SOL    HW121725   2.879   2.954   4.494  0.0008 -0.4835  0.7497
 3422SOL    HW221726   3.024   2.936   4.525 -0.9208  0.3251  0.4671
 3423SOL     OW21727   4.154   1.584  12.590  0.4695  0.5755 -0.0195
 3423SOL    HW121728   4.164   1.543  12.676 -0.2123  0.1134 -0.1668
 3423SOL    HW221729   4.174   1.520  12.522  0.7426 -0.3072  0.8955
 3424SOL     OW21730   3.679   4.385   3.624 -0.5588  0.3953  0.5454
 3424SOL    HW121731   3.605   4.443   3.641 -0.5210  1.2647 -2.1802
 3424SOL    HW221732   3.636   4.324   3.564 -2.2325  2.4892 -0.3915
 3425SOL     OW21733   0.788   3.891   7.228  0.1555  0.0464 -0.0696
 3425SOL    HW121734   0.856   3.958   7.229 -0.0875  0.3063 -1.7396
 3425SOL    HW221735   0.788   3.866   7.321 -3.1890  1.6418  0.3474
 3426SOL     OW21736   3.443   3.349  12.510 -0.1550  0.0767 -0.2855
 3426SOL    HW121737   3.457   3.408  12.436 -0.5950 -1.8687 -1.9273
 3426SOL    HW221738   3.463   3.271  12.459 -1.6381  0.4233 -1.4219
 3427SOL     OW21739   4.055   3.616   9.106 -0.3504  0.3809  0.2172
 3427SOL    HW121740   4.078   3.698   9.062 -0.3324 -0.6303 -1.6756
 3427SOL    HW221741   4.110   3.627   9.183  0.9286  1.4153 -0.8458
 3428SOL     OW21742   2.008   3.754   3.640  0.3215  0.3204  0.3044
 3428SOL    HW121743   2.004   3.788   3.550  0.8969 -1.7466 -0.5088
 3428SOL    HW221744   1.921   3.714   3.648 -1.5646  4.4279 -0.0811
 3429SOL     OW21745   3.495   0.324  13.110 -0.5779  0.2851 -0.5782
 3429SOL    HW121746   3.491   0.255  13.177 -0.2588 -0.9729 -1.8616
 3429SOL    HW221747   3.487   0.276  13.028 -1.9320  0.7260 -0.6916
 3430SOL     OW21748   1.695   2.730   5.578  0.2953 -0.3134 -0.3257
 3430SOL    HW121749   1.722   2.765   5.663 -4.0189  0.4054  0.7466
 3430SOL    HW221750   1.605   2.762   5.579  1.0459  1.8243 -0.4046
 3431SOL     OW21751   3.503   1.560   8.453 -0.1911 -0.4925 -0.5890
 3431SOL    HW121752   3.521   1.470   8.425 -1.2073 -1.0078  0.4328
 3431SOL    HW221753   3.409   1.559   8.441 -0.4151  0.6802  0.9879
 3432SOL     OW21754   2.995   4.381   2.509  0.1003  0.6854  0.0119
 3432SOL    HW121755   3.040   4.419   2.584  1.0165 -1.7824  0.7014
 3432SOL    HW221756   3.051   4.395   2.433 -3.2396  1.6995 -2.3151
 3433SOL     OW21757   3.229   0.786   2.749 -0.2164  0.3324  0.3015
 3433SOL    HW121758   3.253   0.715   2.690  1.2331  0.4090  0.7910
 3433SOL    HW221759   3.218   0.734   2.829 -2.0310 -1.4119 -1.1170
 3434SOL     OW21760   1.325   3.417   9.412 -0.8644 -0.2348 -0.1121
 3434SOL    HW121761   1.266   3.413   9.337 -0.9582  1.3198 -0.1195
 3434SOL    HW221762   1.362   3.329   9.400 -0.3580 -0.0492  0.0762
 3435SOL     OW21763   1.334   2.433   9.113 -0.2160 -0.4059  0.4339
 3435SOL    HW121764   1.429   2.418   9.114 -0.1677 -0.1982 -1.0560
 3435SOL    HW221765   1.316   2.509   9.168  3.4989  2.5134 -2.3059
 3436SOL     OW21766   3.954   3.253   3.652  0.6997 -0.0279 -0.0715
 3436SOL    HW121767   3.896   3.307   3.599  0.0801 -1.9542 -1.3592
 3436SOL    HW221768   3.942   3.163   3.622 -0.9424 -0.6432  2.4601
 3437SOL     OW21769   3.687   1.139   4.057  0.1006 -0.0791  0.1403
 3437SOL    HW121770   3.744   1.139   3.980  0.2097  1.5333  0.2360
 3437SOL    HW221771   3.694   1.045   4.076 -1.1325  0.1224  1.6447
 3438SOL     OW21772   1.196   2.563   2.224  0.2896 -1.2046  0.4954
 3438SOL    HW121773   1.191   2.568   2.320 -2.1056  0.3041  0.2780
 3438SOL    HW221774   1.250   2.638   2.200 -1.2568 -0.3444 -0.2594
 3439SOL     OW21775   2.241   4.165   2.228 -0.4301  0.4589 -0.3398
 3439SOL    HW121776   2.164   4.111   2.210  0.0470 -0.0930 -0.7587
 3439SOL    HW221777   2.245   4.220   2.150 -1.2166 -0.4113 -0.9911
 3440SOL     OW21778   0.613   2.007   5.303  0.3312 -0.0176 -0.4782
 3440SOL    HW121779   0.605   2.042   5.392  0.3327 -0.2230 -0.3966
 3440SOL    HW221780   0.652   1.922   5.323 -0.2662 -0.1405  0.1730
 3441SOL     OW21781   3.141   1.114   2.398  0.0695  0.0114  0.3669
 3441SOL    HW121782   3.122   1.056   2.324  3.3648 -0.9973  0.3480
 3441SOL    HW221783   3.073   1.180   2.383  0.3477  0.6566  2.0314
 3442SOL     OW21784   2.347   4.424   7.013 -0.6027 -0.1551  0.0918
 3442SOL    HW121785   2.366   4.453   7.102  1.3145 -1.1312 -0.0124
 3442SOL    HW221786   2.315   4.506   6.975  1.4018 -0.8889 -3.1982
 3443SOL     OW21787   1.236   0.869   5.558  0.1133  0.0385 -0.0004
 3443SOL    HW121788   1.221   0.795   5.617 -1.9311 -0.3185 -0.9450
 3443SOL    HW221789   1.331   0.876   5.555 -0.2599  3.9426 -3.6778
 3444SOL     OW21790   4.539   0.940   8.630  0.2392 -0.1316 -0.9106
 3444SOL    HW121791   4.467   0.992   8.665  0.2911 -1.4622  1.1781
 3444SOL    HW221792   4.508   0.850   8.634  1.9966 -0.7273 -0.4730
 3445SOL     OW21793   1.494   3.169   8.428  0.1522  0.3608  0.1590
 3445SOL    HW121794   1.588   3.162   8.445  0.2543  0.3506 -0.3913
 3445SOL    HW221795   1.484   3.264   8.439 -2.9779 -0.3549  3.3464
 3446SOL     OW21796   1.053   3.535   6.479  0.1752 -0.6002  0.0008
 3446SOL    HW121797   1.004   3.492   6.549  0.2356 -0.9487 -0.1700
 3446SOL    HW221798   1.033   3.628   6.489 -1.9933 -0.7488 -2.8244
 3447SOL     OW21799   0.071   1.706   7.809 -0.0828  0.8000 -0.0069
 3447SOL    HW121800   0.102   1.775   7.867 -1.0419 -0.3449  1.8432
 3447SOL    HW221801   0.146   1.682   7.755 -0.2296 -0.3693  0.2999
 3448SOL     OW21802   2.958   1.553   7.081  0.3409  0.2066  0.0719
 3448SOL    HW121803   2.979   1.517   7.167 -2.3564 -1.8455 -0.1291
 3448SOL    HW221804   3.038   1.539   7.031 -1.3567 -0.3493 -2.4578
 3449SOL     OW21805   4.443   1.974   6.244  1.0909 -0.6172 -0.0611
 3449SOL    HW121806   4.469   2.025   6.167  0.4475  1.1517  0.9155
 3449SOL    HW221807   4.388   1.907   6.202 -0.2035  0.7551 -0.5532
 3450SOL     OW21808   0.009   2.019   9.858 -0.5071 -0.0119 -0.0873
 3450SOL    HW121809   0.028   1.962   9.784  0.9056 -1.3370  1.2745
 3450SOL    HW221810   4.677   2.080   9.813 -0.8265 -1.7063 -1.9686
 3451SOL     OW21811   0.435   3.713   9.895  0.3913 -0.3531  0.0912
 3451SOL    HW121812   0.347   3.744   9.875  0.8832  3.1544  3.1676
 3451SOL    HW221813   0.407   3.627   9.928 -0.0363 -2.0806 -4.7493
 3452SOL     OW21814   1.380   0.534   5.972  0.0042 -0.2971  0.4158
 3452SOL    HW121815   1.348   0.486   6.048  0.3610 -1.5942 -0.2541
 3452SOL    HW221816   1.468   0.497   5.961  0.4640 -0.4137  4.7739
 3453SOL     OW21817   3.605   2.734  13.424  0.4141  0.4072 -0.0167
 3453SOL    HW121818   3.565   2.745  13.338  0.2732 -1.3129 -0.1830
 3453SOL    HW221819   3.530   2.706  13.477  2.0124 -1.0021  1.5118
 3454SOL     OW21820   1.221   0.067   5.782 -0.5066 -0.2667  0.3376
 3454SOL    HW121821   1.138   0.093   5.822  0.2798  0.0521  1.7515
 3454SOL    HW221822   1.259   0.151   5.758  0.9312 -0.2462  2.7194
 3455SOL     OW21823   1.093   1.712  14.185  0.2130 -0.0913  0.3326
 3455SOL    HW121824   1.143   1.694  14.106 -0.7576  0.5877 -0.4292
 3455SOL    HW221825   1.046   1.788  14.152  1.2916  0.4195 -0.0271
 3456SOL     OW21826   2.123   2.095   1.337  0.1436  0.3235  0.2483
 3456SOL    HW121827   2.192   2.075   1.401  0.9246  0.8652 -0.4186
 3456SOL    HW221828   2.083   2.014   1.307 -3.1765  1.7355  0.8649
 3457SOL     OW21829   4.547   0.719  17.610  0.0807 -0.2285 -0.1061
 3457SOL    HW121830   4.502   0.795  17.573  0.2530  0.0138  0.1775
 3457SOL    HW221831   4.502   0.702  17.693 -0.3844  1.6573  0.0182
 3458SOL     OW21832   2.218   2.200   3.847  0.5436 -0.7687 -0.1757
 3458SOL    HW121833   2.214   2.129   3.784 -1.5509 -1.4496  0.7029
 3458SOL    HW221834   2.165   2.150   3.910 -2.1502  3.4802  0.9159
 3459SOL     OW21835   0.300   3.466   5.875  0.9209 -0.1221  0.6701
 3459SOL    HW121836   0.357   3.393   5.900 -0.6216 -1.0756  1.4046
 3459SOL    HW221837   0.355   3.545   5.877  1.7860 -0.6987 -0.2756
 3460SOL     OW21838   1.074   1.044   7.184  0.0445 -0.0671  0.3295
 3460SOL    HW121839   1.038   0.982   7.248 -2.4547 -1.4880 -2.4230
 3460SOL    HW221840   1.033   1.016   7.101  1.2150  0.6029 -0.4708
 3461SOL     OW21841   3.699   4.604   7.295  0.0640 -0.1149  0.0115
 3461SOL    HW121842   3.610   4.596   7.262 -0.9842  2.9469  2.0930
 3461SOL    HW221843   3.711   4.691   7.256  0.0093 -0.5295 -0.9194
 3462SOL     OW21844   0.904   2.788   1.983 -0.3608 -0.7125 -0.2506
 3462SOL    HW121845   0.945   2.751   1.904 -0.4997 -2.5521  0.5301
 3462SOL    HW221846   0.819   2.817   1.952  0.4660  1.0321 -0.8538
 3463SOL     OW21847   2.460   4.429  10.990  0.5673  0.6274  0.0588
 3463SOL    HW121848   2.423   4.341  10.985 -0.7134  1.2925 -2.0674
 3463SOL    HW221849   2.551   4.416  10.963  0.4274 -1.1485  0.4067
 3464SOL     OW21850   3.436   4.391   6.807 -0.0320  0.7148 -0.0032
 3464SOL    HW121851   3.453   4.439   6.726 -1.8148  0.9221 -0.2489
 3464SOL    HW221852   3.351   4.418   6.841  0.2955  1.0396  0.5589
 3465SOL     OW21853   2.934   0.845   7.982  0.3400 -0.3753 -0.3302
 3465SOL    HW121854   3.015   0.810   8.020 -0.8039 -1.5370  1.0229
 3465SOL    HW221855   2.954   0.937   7.966 -0.5111 -0.1101  0.1557
 3466SOL     OW21856   2.972   3.896   9.224  0.0228  0.4257  0.1745
 3466SOL    HW121857   2.966   3.992   9.220  0.1041  0.5134  2.1727
 3466SOL    HW221858   3.058   3.883   9.185  0.8191  1.0732  1.7017
 3467SOL     OW21859   4.703   3.179   4.291 -0.3486  0.4492 -0.1155
 3467SOL    HW121860   0.005   3.100   4.336  0.2437 -0.5279 -2.1770
 3467SOL    HW221861   4.629   3.150   4.237  1.6120 -0.1796 -2.4305
 3468SOL     OW21862   3.484   0.692   5.615  0.0935  0.4566  0.4920
 3468SOL    HW121863   3.506   0.669   5.705 -0.8290  0.3092  0.6766
 3468SOL    HW221864   3.566   0.721   5.574  0.0847  0.0421  0.1844
 3469SOL     OW21865   0.830   2.249  12.049  1.0352 -0.2452 -0.2809
 3469SOL    HW121866   0.833   2.157  12.074  0.5778 -0.3268 -0.5298
 3469SOL    HW221867   0.743   2.263  12.012  0.2344 -1.6607  1.0851
 3470SOL     OW21868   0.275   0.740   2.646  0.2439  0.1892  0.2628
 3470SOL    HW121869   0.215   0.804   2.685  3.6659  2.2301  2.2021
 3470SOL    HW221870   0.267   0.771   2.556  0.1836 -0.1731  0.1459
 3471SOL     OW21871   3.269   2.670   0.768 -0.5870 -0.3909 -0.3318
 3471SOL    HW121872   3.282   2.759   0.801 -1.6409 -1.4092  2.8484
 3471SOL    HW221873   3.173   2.672   0.773 -0.6176  0.6086 -1.2761
 3472SOL     OW21874   1.061   0.019   4.227  0.5779  0.3080 -0.1064
 3472SOL    HW121875   0.969   0.044   4.229 -0.3214 -3.0329  0.9809
 3472SOL    HW221876   1.085   0.048   4.139  2.7749  0.3363  0.5187
 3473SOL     OW21877   0.699   1.001   0.775  0.0727 -1.0333  0.4002
 3473SOL    HW121878   0.646   1.053   0.715  0.4028 -0.4874  0.5699
 3473SOL    HW221879   0.784   1.046   0.770 -0.1952 -0.2667  2.8983
 3474SOL     OW21880   0.531   4.294   3.083  0.3311  0.3217 -0.4247
 3474SOL    HW121881   0.574   4.249   3.156  0.5807  0.8697 -0.2358
 3474SOL    HW221882   0.480   4.219   3.051 -1.4986  1.6098 -0.5284
 3475SOL     OW21883   3.608   2.772  15.795  0.3057 -0.6452 -0.2295
 3475SOL    HW121884   3.513   2.775  15.807  0.3924 -0.4119  0.3760
 3475SOL    HW221885   3.625   2.813  15.710 -1.5253  1.6149  0.4995
 3476SOL     OW21886   1.696   0.206   5.514  0.1508  1.0820 -0.1090
 3476SOL    HW121887   1.697   0.280   5.453 -2.4419  1.2322  0.0300
 3476SOL    HW221888   1.685   0.256   5.595  0.5271 -2.0274  1.8185
 3477SOL     OW21889   3.598   3.433   7.826  1.5833 -0.0847  0.6580
 3477SOL    HW121890   3.577   3.340   7.827  0.1446  0.2402  0.8869
 3477SOL    HW221891   3.687   3.414   7.798  1.3980  0.7166 -0.5139
 3478SOL     OW21892   4.154   0.073   5.904 -0.2446 -0.2912  0.3363
 3478SOL    HW121893   4.127   0.164   5.899 -2.3363 -0.7723  2.8231
 3478SOL    HW221894   4.071   0.035   5.874  0.5528 -0.3280 -1.8483
 3479SOL     OW21895   1.646   0.101  12.708  0.4527 -0.1393 -0.3486
 3479SOL    HW121896   1.631   0.120  12.616  2.2937 -0.5629 -0.7446
 3479SOL    HW221897   1.588   0.160  12.755 -0.4395 -0.8498 -0.5688
 3480SOL     OW21898   1.829   3.732   7.699  0.6558  0.1106  0.4418
 3480SOL    HW121899   1.882   3.741   7.779  1.4803  0.7128 -0.1687
 3480SOL    HW221900   1.833   3.819   7.659  1.8593 -0.1138  0.0679
 3481SOL     OW21901   2.430   1.809  10.116 -0.2014  0.1333 -0.2514
 3481SOL    HW121902   2.482   1.888  10.129 -0.9930  0.5534  0.3508
 3481SOL    HW221903   2.344   1.842  10.141 -0.8536 -2.3206  0.7467
 3482SOL     OW21904   3.123   0.307   3.047  0.0335 -0.2687  0.0816
 3482SOL    HW121905   3.134   0.310   2.952  0.1811 -1.9109  0.0456
 3482SOL    HW221906   3.032   0.277   3.053  0.1970 -1.0676 -1.5459
 3483SOL     OW21907   1.859   1.393   2.943 -0.1897 -0.1522  0.3459
 3483SOL    HW121908   1.837   1.463   3.004  0.3713 -0.6944  1.1650
 3483SOL    HW221909   1.953   1.411   2.936 -0.0554 -1.3435 -0.8945
 3484SOL     OW21910   3.127   3.158   7.118  0.2880 -0.1266  0.1135
 3484SOL    HW121911   3.221   3.175   7.110  0.1865 -0.0707 -0.9753
 3484SOL    HW221912   3.100   3.214   7.191  1.5978 -3.0621  2.8519
 3485SOL     OW21913   1.984   1.108  12.810  0.1682  0.0403  0.0058
 3485SOL    HW121914   1.914   1.167  12.839 -0.5970 -0.4607 -0.8186
 3485SOL    HW221915   1.938   1.024  12.803 -0.8727  0.3673  2.7103
 3486SOL     OW21916   2.181   3.000   6.807 -0.0615 -0.7042  0.3287
 3486SOL    HW121917   2.117   3.058   6.766  1.2661  0.6352  0.1651
 3486SOL    HW221918   2.172   3.026   6.899  2.5286  1.5470 -0.0423
 3487SOL     OW21919   3.487   1.532   3.920  0.0042  0.0616 -0.2428
 3487SOL    HW121920   3.499   1.588   3.844 -2.0184 -0.8391 -1.2121
 3487SOL    HW221921   3.577   1.515   3.949 -0.1299  1.1412  0.8376
 3488SOL     OW21922   0.304   3.029   2.975 -0.1302  0.8106 -0.0525
 3488SOL    HW121923   0.352   3.108   2.951 -0.0800  0.9391  0.4697
 3488SOL    HW221924   0.221   3.045   2.931  0.8662  0.3136 -2.1128
 3489SOL     OW21925   4.241   0.077  15.596 -0.2813  0.5057  0.3109
 3489SOL    HW121926   4.154   0.058  15.561  0.6009 -4.5299  0.8533
 3489SOL    HW221927   4.243   0.169  15.570  1.6564  0.2531 -0.4716
 3490SOL     OW21928   3.271   0.191  15.279 -0.1108  0.0685 -0.0299
 3490SOL    HW121929   3.191   0.243  15.284 -0.1968  0.1112 -1.9484
 3490SOL    HW221930   3.235   0.115  15.325 -1.6848 -0.8969 -2.8993
 3491SOL     OW21931   1.001   1.085  13.310  0.3344 -0.2538 -0.0471
 3491SOL    HW121932   1.048   1.029  13.372  0.7423 -0.5926 -0.6670
 3491SOL    HW221933   1.015   1.173  13.344  0.7470  0.5620 -2.3566
 3492SOL     OW21934   0.455   4.306  13.706 -0.2429  0.8382 -0.4632
 3492SOL    HW121935   0.495   4.378  13.756 -0.1602  0.8472 -0.5415
 3492SOL    HW221936   0.369   4.342  13.685 -0.9977  0.5571  2.0930
 3493SOL     OW21937   2.111   3.291   2.344  0.2196 -0.0832  0.3821
 3493SOL    HW121938   2.045   3.284   2.276  1.2991  1.1204 -0.7756
 3493SOL    HW221939   2.195   3.280   2.300  0.1197 -4.8403  1.3741
 3494SOL     OW21940   0.918   2.624   7.332 -0.4406 -0.3625 -0.0273
 3494SOL    HW121941   0.865   2.643   7.409  1.0104  0.2181  0.8448
 3494SOL    HW221942   0.855   2.619   7.261  0.0738  0.1867 -0.5265
 3495SOL     OW21943   3.051   1.267   5.667  0.0107  0.8195 -0.2471
 3495SOL    HW121944   3.117   1.215   5.622  0.7949  0.8006  0.9215
 3495SOL    HW221945   3.045   1.343   5.609  0.3716  1.7496  0.9399
 3496SOL     OW21946   0.933   2.172   4.825  0.2331  0.4985  0.1313
 3496SOL    HW121947   0.919   2.184   4.919  0.2408 -0.7737  0.2927
 3496SOL    HW221948   0.972   2.085   4.821 -0.7264  0.0658  0.1520
 3497SOL     OW21949   0.126   0.204   7.529  0.7747  0.4690 -0.3246
 3497SOL    HW121950   0.134   0.266   7.457  0.1883 -0.4213 -1.1705
 3497SOL    HW221951   0.180   0.238   7.600  1.7922  0.7046 -1.2265
 3498SOL     OW21952   0.962   2.305   3.229 -0.3136 -0.1507  0.0735
 3498SOL    HW121953   1.040   2.335   3.182 -1.0289  0.1808 -0.9177
 3498SOL    HW221954   0.973   2.355   3.309  1.4834 -0.5697  0.0806
 3499SOL     OW21955   1.683   0.044   9.515 -0.8603 -0.2568 -0.5135
 3499SOL    HW121956   1.699   0.094   9.595  2.8422  2.2372 -2.8312
 3499SOL    HW221957   1.597   0.008   9.538 -0.1818 -1.3514  0.3258
 3500SOL     OW21958   0.936   2.963  10.430  0.6047  0.0816 -0.3705
 3500SOL    HW121959   0.970   2.911  10.503 -1.4908  0.8949  1.1887
 3500SOL    HW221960   0.846   2.984  10.454  1.0244 -0.2014  1.4501
 3501SOL     OW21961   3.362   1.236   3.280 -0.3436 -0.0595  0.3976
 3501SOL    HW121962   3.381   1.228   3.373 -0.5377 -0.6870  0.3828
 3501SOL    HW221963   3.286   1.178   3.275 -0.0072 -0.2479 -2.7119
 3502SOL     OW21964   1.558   3.718  11.745  0.3290  0.2461  0.0441
 3502SOL    HW121965   1.615   3.728  11.668 -1.5851 -1.3984 -1.5551
 3502SOL    HW221966   1.615   3.754  11.813 -0.0310  0.3678  0.2823
 3503SOL     OW21967   0.363   3.048   1.922 -0.0680  0.1921  0.4805
 3503SOL    HW121968   0.432   3.101   1.962 -0.2546  1.5414 -0.9822
 3503SOL    HW221969   0.377   2.973   1.980 -0.3076  1.5815  2.3542
 3504SOL     OW21970   0.771   1.194   2.669 -0.2914 -0.4692 -0.1168
 3504SOL    HW121971   0.802   1.248   2.742  0.9818  0.4261 -1.3231
 3504SOL    HW221972   0.851   1.146   2.646  0.6561 -0.1077  2.4104
 3505SOL     OW21973   2.311   4.724  13.090  0.4479 -0.4683  0.4720
 3505SOL    HW121974   2.344   0.077  13.049  0.4757  0.8437  3.0113
 3505SOL    HW221975   2.342   0.013  13.179  0.8340 -0.9420  0.4209
 3506SOL     OW21976   0.534   1.597  12.436 -0.2704  0.0241 -0.0080
 3506SOL    HW121977   0.440   1.601  12.417 -0.5770 -1.4491  1.1705
 3506SOL    HW221978   0.545   1.516  12.386  0.6763  1.7990 -2.6515
 3507SOL     OW21979   0.356   1.261   0.803 -0.2591  0.5757 -0.7775
 3507SOL    HW121980   0.350   1.202   0.878  3.8027  1.1524 -0.0292
 3507SOL    HW221981   0.280   1.317   0.821  0.0407  0.3971  1.0017
 3508SOL     OW21982   4.338   1.669  16.900  0.0720  0.0249 -0.2292
 3508SOL    HW121983   4.294   1.588  16.875  0.2442 -1.2507  3.6707
 3508SOL    HW221984   4.342   1.660  16.995 -0.0995 -2.4167 -0.4660
 3509SOL     OW21985   2.224   3.021   7.504  0.1494 -0.1690  0.4942
 3509SOL    HW121986   2.196   2.931   7.486  0.6617  0.3024 -2.5370
 3509SOL    HW221987   2.176   3.047   7.582  2.1176  0.5642  1.4828
 3510SOL     OW21988   0.209   0.033   9.340  0.1508  0.5447 -0.1018
 3510SOL    HW121989   0.225   4.718   9.425 -1.3947 -1.1371 -0.6254
 3510SOL    HW221990   0.158   0.111   9.362 -1.5751 -0.6895  0.2131
 3511SOL     OW21991   0.989   1.519  17.598  0.1810 -0.7162  0.0209
 3511SOL    HW121992   0.957   1.549  17.683 -0.4779  0.9313 -0.8017
 3511SOL    HW221993   0.964   1.427  17.604  1.2923 -0.9731  0.7114
 3512SOL     OW21994   2.574   3.361   4.091  0.2921 -0.4666 -0.0688
 3512SOL    HW121995   2.522   3.292   4.131 -1.3822  0.5868 -0.4528
 3512SOL    HW221996   2.580   3.404   4.176 -0.2905  0.3285 -0.4348
 3513SOL     OW21997   0.743   0.657   9.689  0.5553  0.1427 -0.2972
 3513SOL    HW121998   0.822   0.705   9.665  1.0979 -0.5461  0.1238
 3513SOL    HW221999   0.685   0.686   9.619 -0.6948 -3.4410 -0.7620
 3514SOL     OW22000   0.081   1.265   2.453 -0.4474  0.2196  0.2301
 3514SOL    HW122001   0.103   1.249   2.361 -1.3854 -0.0127  0.0430
 3514SOL    HW222002   0.151   1.329   2.469  1.3304 -1.3457 -1.3104
 3515SOL     OW22003   4.219   3.846  13.322  0.0502 -0.6565 -0.5599
 3515SOL    HW122004   4.190   3.755  13.312  1.3864 -1.1396 -0.0707
 3515SOL    HW222005   4.138   3.892  13.300  1.4940  1.0156 -2.3254
 3516SOL     OW22006   4.403   3.770   2.345 -0.0007  0.1985 -0.3640
 3516SOL    HW122007   4.312   3.799   2.353 -0.6179 -1.0698 -2.7669
 3516SOL    HW222008   4.453   3.850   2.333 -0.5066  0.6828  0.7886
 3517SOL     OW22009   3.870   3.178   3.211 -0.2542  0.0402  0.8777
 3517SOL    HW122010   3.819   3.205   3.134  0.3597 -1.3988 -0.0357
 3517SOL    HW222011   3.839   3.088   3.217 -0.5856  0.1795  1.2652
 3518SOL     OW22012   2.991   0.085   7.103 -0.1854  0.1253  0.2231
 3518SOL    HW122013   3.009   0.012   7.043 -1.1348  1.1989 -1.3795
 3518SOL    HW222014   2.969   0.155   7.042 -0.2608  1.9224  2.3398
 3519SOL     OW22015   0.069   4.600   1.480 -0.6074 -0.2752 -0.1646
 3519SOL    HW122016   0.130   4.531   1.454 -2.5530 -1.3848 -1.7251
 3519SOL    HW222017   0.125   4.637   1.549  0.9918 -1.9985 -0.5219
 3520SOL     OW22018   2.755   0.578   7.133  0.2842  0.1221  0.7385
 3520SOL    HW122019   2.830   0.637   7.118 -1.4193  1.0255 -4.1520
 3520SOL    HW222020   2.715   0.584   7.047  0.6774 -2.2992  0.3905
 3521SOL     OW22021   3.375   4.630  13.047 -0.4510  0.2724  0.0148
 3521SOL    HW122022   3.352   4.689  12.975  2.3578  2.0754  0.6075
 3521SOL    HW222023   3.356   4.682  13.125 -2.3305 -1.4825  0.7261
 3522SOL     OW22024   1.663   4.569   7.463 -0.2151 -0.2525  0.1877
 3522SOL    HW122025   1.715   4.625   7.405  0.3226 -1.2612 -0.2874
 3522SOL    HW222026   1.697   4.590   7.550 -0.6860 -1.3092  0.6217
 3523SOL     OW22027   1.375   0.829   5.074 -0.5493  0.4764 -0.5147
 3523SOL    HW122028   1.390   0.921   5.052  0.9978  0.2828 -0.2759
 3523SOL    HW222029   1.284   0.825   5.044 -0.3024 -0.7192 -1.0851
 3524SOL     OW22030   3.709   0.566   7.988 -0.2864  0.3313 -0.0903
 3524SOL    HW122031   3.658   0.546   8.066 -0.2405  0.4720 -0.0248
 3524SOL    HW222032   3.796   0.545   8.023 -0.6138 -1.3793 -0.2994
 3525SOL     OW22033   2.414   1.681   9.329 -1.2328 -0.7343 -0.4236
 3525SOL    HW122034   2.361   1.623   9.383 -2.1656 -2.0516 -2.7691
 3525SOL    HW222035   2.359   1.740   9.277 -0.0355 -0.8022 -1.7644
 3526SOL     OW22036   0.789   3.612  16.618 -0.1054 -0.2283  0.3946
 3526SOL    HW122037   0.772   3.572  16.533 -2.6607 -1.4149  1.4733
 3526SOL    HW222038   0.813   3.700  16.588 -1.9697  0.7594  1.7993
 3527SOL     OW22039   1.194   0.499   7.764 -0.1051 -0.1487  0.0745
 3527SOL    HW122040   1.167   0.526   7.852  0.5725 -1.0441  0.5627
 3527SOL    HW222041   1.231   0.575   7.719 -0.4541  1.4769  2.4897
 3528SOL     OW22042   0.378   2.972   4.851  0.4283 -0.1491 -0.0907
 3528SOL    HW122043   0.472   2.975   4.833  0.4664  1.1254  0.3712
 3528SOL    HW222044   0.357   3.065   4.847 -1.1875 -0.4876  0.5739
 3529SOL     OW22045   2.174   0.795  15.215 -0.1928 -0.1555  0.1463
 3529SOL    HW122046   2.124   0.857  15.163  1.6637 -0.5012 -2.0529
 3529SOL    HW222047   2.137   0.708  15.196  0.7025 -0.8127  1.4404
 3530SOL     OW22048   0.734   1.926  12.662  0.2709  0.4456  0.3597
 3530SOL    HW122049   0.776   1.898  12.580 -0.5401 -1.1013  0.4671
 3530SOL    HW222050   0.643   1.934  12.632  0.1540  0.2440  0.6643
 3531SOL     OW22051   3.572   4.149   3.138  0.3137  0.2960 -0.3578
 3531SOL    HW122052   3.575   4.078   3.073  2.1397 -0.5403  0.6496
 3531SOL    HW222053   3.509   4.112   3.200  0.2280  0.2604 -0.4661
 3532SOL     OW22054   1.207   3.864   8.084 -0.0083 -0.2774 -0.2786
 3532SOL    HW122055   1.274   3.908   8.032  1.6195  1.6085  3.4416
 3532SOL    HW222056   1.257   3.826   8.157 -0.3120 -1.1511 -0.5198
 3533SOL     OW22057   1.698   4.226   1.852 -0.1505 -0.1993  0.1807
 3533SOL    HW122058   1.656   4.141   1.842 -0.7021  0.1320 -0.2893
 3533SOL    HW222059   1.618   4.274   1.874 -0.0747 -0.7397  1.6433
 3534SOL     OW22060   0.208   0.949  17.122  0.0092 -0.5617  0.1930
 3534SOL    HW122061   0.206   1.024  17.063 -1.9768 -0.7179  0.0621
 3534SOL    HW222062   0.115   0.949  17.146 -0.1757 -0.6779 -0.5249
 3535SOL     OW22063   3.428   2.857  11.862  0.5655  0.0394 -0.7406
 3535SOL    HW122064   3.417   2.804  11.941 -1.1676  2.1288  0.4503
 3535SOL    HW222065   3.519   2.837  11.841  1.1327  1.9012 -0.1449
 3536SOL     OW22066   4.304   3.783   5.393 -0.2767  0.6790  0.2113
 3536SOL    HW122067   4.232   3.845   5.387  0.7498  1.4948 -3.2125
 3536SOL    HW222068   4.302   3.760   5.487  1.3114  2.3693  0.6522
 3537SOL     OW22069   0.206   1.821  13.546  0.1711  0.2563  0.2101
 3537SOL    HW122070   0.244   1.817  13.459 -0.6390 -0.2585 -0.1194
 3537SOL    HW222071   0.173   1.731  13.548 -2.6175  1.2873  0.8296
 3538SOL     OW22072   0.210   0.508  17.647 -0.2032 -0.0595 -0.0863
 3538SOL    HW122073   0.177   0.598  17.646  1.3952  0.5233 -0.8551
 3538SOL    HW222074   0.299   0.527  17.677 -0.2524  1.4437 -0.9227
 3539SOL     OW22075   4.692   3.986  11.171 -0.0396 -0.2752 -0.1199
 3539SOL    HW122076   0.028   4.015  11.237  0.9804 -0.5830 -0.9621
 3539SOL    HW222077   0.017   4.010  11.094 -0.8129  2.8406  0.3134
 3540SOL     OW22078   2.604   2.764   0.273  0.5415  0.1138 -0.3077
 3540SOL    HW122079   2.641   2.823   0.339 -2.8433  0.3487  1.3316
 3540SOL    HW222080   2.573   2.837   0.221 -0.4747 -0.5429 -0.6090
 3541SOL     OW22081   4.613   2.289   1.905 -0.4703 -0.6729 -0.1218
 3541SOL    HW122082   4.613   2.193   1.903 -1.5308 -0.6060 -2.7498
 3541SOL    HW222083   4.571   2.302   1.821  0.1660  1.4353 -0.1030
 3542SOL     OW22084   0.586   3.347   1.543  0.2747  0.1095 -0.2185
 3542SOL    HW122085   0.518   3.292   1.583 -0.0406 -0.5788 -1.6698
 3542SOL    HW222086   0.570   3.428   1.590 -2.5574  0.2384 -1.4014
 3543SOL     OW22087   3.239   1.895   8.492  0.2608  0.2735  0.2756
 3543SOL    HW122088   3.242   1.866   8.583  0.0507  0.2181  0.2645
 3543SOL    HW222089   3.153   1.935   8.479 -0.3563 -0.9007  0.7210
 3544SOL     OW22090   2.688   3.678  11.710  0.0968  0.4707  0.2260
 3544SOL    HW122091   2.617   3.726  11.668  1.1681  0.5896 -1.4634
 3544SOL    HW222092   2.745   3.679  11.633 -1.0052 -2.6156 -0.6092
 3545SOL     OW22093   3.479   2.829   2.804 -0.2332 -0.2278 -0.0147
 3545SOL    HW122094   3.435   2.779   2.735  1.4628 -0.3473 -1.0089
 3545SOL    HW222095   3.535   2.883   2.748 -0.1445  0.4620  0.7393
 3546SOL     OW22096   4.658   1.958   3.907  0.1744  0.2832 -0.3346
 3546SOL    HW122097   4.690   1.926   3.822 -0.4419  1.0629 -0.8667
 3546SOL    HW222098   4.672   1.886   3.967 -1.6871  1.2053  1.2051
 3547SOL     OW22099   3.997   4.179   2.527  0.2084  0.1930  0.1216
 3547SOL    HW122100   4.078   4.215   2.563 -0.5005  0.9246  0.9622
 3547SOL    HW222101   3.982   4.247   2.460 -0.7176 -1.2528 -1.1452
 3548SOL     OW22102   1.775   0.312   2.949 -0.1585 -0.2640 -0.0532
 3548SOL    HW122103   1.684   0.309   2.978 -0.1389  5.2791  0.6134
 3548SOL    HW222104   1.756   0.290   2.857  0.5732 -0.2276 -0.2092
 3549SOL     OW22105   3.078   1.876  12.789  0.1936  0.0573  0.1349
 3549SOL    HW122106   2.991   1.900  12.759  0.9897  2.6467 -0.0758
 3549SOL    HW222107   3.078   1.906  12.880  1.6322 -0.2597  0.2475
 3550SOL     OW22108   1.230   0.860   0.062  0.3759  0.3419  0.1604
 3550SOL    HW122109   1.309   0.808   0.080  0.0673  0.0169  0.5674
 3550SOL    HW222110   1.158   0.802   0.086  3.2641 -2.4845  1.9772
 3551SOL     OW22111   1.488   4.193   6.365 -0.0423  0.1240  0.4695
 3551SOL    HW122112   1.451   4.107   6.345 -3.0665  1.5885 -0.3307
 3551SOL    HW222113   1.556   4.211   6.300  0.9444  0.3063  1.5658
 3552SOL     OW22114   2.235   4.357   9.696  0.0193  0.0425 -0.1028
 3552SOL    HW122115   2.248   4.274   9.650  2.2605  1.2506 -1.6753
 3552SOL    HW222116   2.319   4.400   9.680  0.1000  0.7114  2.1848
 3553SOL     OW22117   4.122   3.180  11.156  0.4865  0.0345 -0.0315
 3553SOL    HW122118   4.144   3.103  11.207  2.7583  0.8218  0.1973
 3553SOL    HW222119   4.128   3.240  11.231  2.9825  0.0296 -0.2194
 3554SOL     OW22120   2.265   0.953  16.356  0.0470 -0.0074  0.2674
 3554SOL    HW122121   2.321   0.876  16.345  2.5944  1.9815 -0.6440
 3554SOL    HW222122   2.337   1.015  16.359  1.1707 -1.3031 -0.0358
 3555SOL     OW22123   4.629   3.206   3.310 -0.3020 -0.0525 -0.0002
 3555SOL    HW122124   4.575   3.168   3.379 -0.2852 -0.2520 -0.0953
 3555SOL    HW222125   4.566   3.244   3.248 -1.6554 -1.0973  0.7338
 3556SOL     OW22126   3.183   3.805   6.967 -0.1323 -0.3696 -0.0437
 3556SOL    HW122127   3.214   3.894   6.985 -0.1395 -0.6365  1.2506
 3556SOL    HW222128   3.090   3.814   6.985 -0.4086 -4.9735  0.7867
 3557SOL     OW22129   4.601   0.347   3.014 -0.2927 -0.0111  0.2500
 3557SOL    HW122130   4.508   0.359   3.033 -0.5812 -0.3817 -0.9622
 3557SOL    HW222131   4.616   0.430   2.968 -0.7308 -0.8389 -1.3674
 3558SOL     OW22132   4.660   0.555   9.158 -0.3338 -0.2127  0.1045
 3558SOL    HW122133   4.641   0.648   9.166 -1.0688 -0.5430  2.2691
 3558SOL    HW222134   4.648   0.532   9.066  1.4340  1.0515 -0.4387
 3559SOL     OW22135   1.391   3.264   0.053 -0.1543  0.4716  0.0231
 3559SOL    HW122136   1.401   3.190   0.113 -0.1474  0.1165 -0.4243
 3559SOL    HW222137   1.405   3.215  17.679 -2.4833 -0.0355 -0.0919
 3560SOL     OW22138   2.226   1.204   3.889  0.7296 -0.3811  0.0257
 3560SOL    HW122139   2.319   1.224   3.895  0.2548  0.5961  4.2374
 3560SOL    HW222140   2.232   1.118   3.931  3.1164  0.0919  0.6539
 3561SOL     OW22141   1.997   3.059   5.562  0.0599  0.0568 -0.1859
 3561SOL    HW122142   2.041   2.974   5.560  0.6964  0.4607 -3.6633
 3561SOL    HW222143   1.910   3.050   5.522  0.0818 -0.8912 -0.0283
 3562SOL     OW22144   1.705   0.370   2.134 -0.2962  0.0542 -0.2769
 3562SOL    HW122145   1.654   0.450   2.124 -1.5012 -0.6395  0.3331
 3562SOL    HW222146   1.666   0.327   2.057 -0.6867 -0.1911  0.0565
 3563SOL     OW22147   1.835   1.330   1.948 -0.1903 -0.2423 -0.3811
 3563SOL    HW122148   1.762   1.371   1.995 -0.4172 -0.9070 -0.1513
 3563SOL    HW222149   1.806   1.243   1.922  2.7069 -1.2173 -0.2840
 3564SOL     OW22150   0.108   0.150   8.577  0.0719  0.0130 -0.0466
 3564SOL    HW122151   0.199   0.171   8.558 -0.0226  0.8613  0.4402
 3564SOL    HW222152   0.077   0.129   8.489  0.2681  0.4525 -0.2175
 3565SOL     OW22153   2.961   4.408   6.838  0.3604  0.3481  0.3172
 3565SOL    HW122154   2.950   4.336   6.777 -3.2575  1.4160 -0.3005
 3565SOL    HW222155   2.886   4.403   6.897 -1.2426  0.9312 -1.7167
 3566SOL     OW22156   1.970   2.129  14.493  0.3846  0.2205 -0.7567
 3566SOL    HW122157   1.990   2.141  14.400 -0.0627  0.1439 -0.8629
 3566SOL    HW222158   1.957   2.035  14.509  2.6317 -0.1119 -0.7895
 3567SOL     OW22159   1.279   0.488   9.709  0.1563 -0.6684 -0.2113
 3567SOL    HW122160   1.214   0.536   9.760 -1.9615 -2.8864 -0.8244
 3567SOL    HW222161   1.239   0.406   9.678  0.5757 -0.9968  0.1004
 3568SOL     OW22162   4.120   1.585   7.763  0.5905 -0.7390  0.0398
 3568SOL    HW122163   4.057   1.583   7.835 -0.4593 -0.1949 -0.8578
 3568SOL    HW222164   4.182   1.649   7.797 -1.0251 -0.5448  2.6102
 3569SOL     OW22165   0.710   2.041   6.770  0.3362 -0.1433 -0.0452
 3569SOL    HW122166   0.729   1.974   6.835 -2.7415  0.7534  1.7941
 3569SOL    HW222167   0.708   2.117   6.829 -0.1935 -0.6681  0.6151
 3570SOL     OW22168   2.845   0.130   6.504 -0.1284 -0.4571  0.1547
 3570SOL    HW122169   2.754   0.156   6.490  0.1811  1.0799  1.0005
 3570SOL    HW222170   2.848   0.059   6.568  0.6065  0.0351  0.6581
 3571SOL     OW22171   1.866   1.996   2.285 -0.2247 -0.7389  0.0863
 3571SOL    HW122172   1.863   2.006   2.380 -0.4622  0.8858 -0.0937
 3571SOL    HW222173   1.905   2.076   2.250  0.6827 -0.5793  1.4634
 3572SOL     OW22174   2.457   4.484  10.725  0.1604 -0.1078  0.1944
 3572SOL    HW122175   2.381   4.430  10.748 -0.1859  0.3429  0.1168
 3572SOL    HW222176   2.483   4.529  10.805 -0.0867  0.3385  0.0249
 3573SOL     OW22177   3.357   3.185   5.237  0.1788 -0.1099 -0.4372
 3573SOL    HW122178   3.428   3.173   5.300  0.2426  2.0248 -0.0901
 3573SOL    HW222179   3.411   3.175   5.159  1.0066  0.6046  0.0494
 3574SOL     OW22180   1.623   2.377   4.868  0.5779 -0.5858  0.7123
 3574SOL    HW122181   1.654   2.320   4.797 -0.3076 -0.3748  0.1562
 3574SOL    HW222182   1.582   2.447   4.817 -0.6170 -2.3802 -0.8055
 3575SOL     OW22183   3.240   2.425   4.601 -0.4605  0.2089 -0.1486
 3575SOL    HW122184   3.268   2.371   4.526  2.4747  1.5923 -0.0386
 3575SOL    HW222185   3.235   2.505   4.548  0.1800 -1.4671 -2.7323
 3576SOL     OW22186   1.953   1.770   5.740 -0.1475  0.4563 -0.5783
 3576SOL    HW122187   1.861   1.800   5.739 -0.4012 -0.2002  2.4797
 3576SOL    HW222188   1.987   1.831   5.674  1.0522 -1.8665 -2.0952
 3577SOL     OW22189   3.506   2.593  15.051  0.1630  0.4173  0.1935
 3577SOL    HW122190   3.501   2.580  14.956 -1.3749 -3.4043  0.8058
 3577SOL    HW222191   3.559   2.672  15.057 -0.5882  0.8548  0.9090
 3578SOL     OW22192   3.292   0.189   3.232  0.2804  0.3121 -0.2096
 3578SOL    HW122193   3.312   0.275   3.269 -0.0688  0.6605 -0.8414
 3578SOL    HW222194   3.269   0.222   3.145 -1.7390 -0.2112  0.1193
 3579SOL     OW22195   2.836   0.314   4.010  0.0426 -0.1389 -0.7650
 3579SOL    HW122196   2.764   0.308   3.947 -0.3395 -0.5953 -0.2864
 3579SOL    HW222197   2.831   0.407   4.033 -0.1220 -0.3711  0.1417
 3580SOL     OW22198   0.371   3.403   6.177  0.3445 -0.7548 -0.3883
 3580SOL    HW122199   0.305   3.468   6.199  1.1045  0.1373 -0.7361
 3580SOL    HW222200   0.338   3.348   6.107  1.6701 -0.5442 -1.1875
 3581SOL     OW22201   0.376   4.511   8.123  0.0398 -0.3173 -0.1735
 3581SOL    HW122202   0.289   4.549   8.109  0.1468 -0.8315 -2.2816
 3581SOL    HW222203   0.427   4.580   8.081 -1.0820 -0.7230 -2.2376
 3582SOL     OW22204   3.171   4.617   7.952 -0.2936  0.0636  0.4312
 3582SOL    HW122205   3.175   4.687   8.017  1.1556 -0.0149  0.4287
 3582SOL    HW222206   3.260   4.626   7.920  0.8011 -0.1245  3.4341
 3583SOL     OW22207   4.228   1.385   6.606  0.2548 -0.3181  0.1017
 3583SOL    HW122208   4.216   1.430   6.689  1.2238 -2.2822  1.3059
 3583SOL    HW222209   4.319   1.362   6.620  0.4705  0.7930  0.4751
 3584SOL     OW22210   1.289   0.095  10.869  0.2258 -0.4429 -0.0886
 3584SOL    HW122211   1.271   0.100  10.963 -1.5945  1.1053 -0.5301
 3584SOL    HW222212   1.226   0.162  10.842 -0.3309 -1.6696 -1.8364
 3585SOL     OW22213   0.550   2.062   6.517  0.6484  0.2781 -0.2238
 3585SOL    HW122214   0.594   2.027   6.595  0.9086  1.5766  0.2034
 3585SOL    HW222215   0.528   2.150   6.546  0.2247  0.2824 -0.5608
 3586SOL     OW22216   1.125   1.942   5.270 -0.4001 -0.2640 -0.2994
 3586SOL    HW122217   1.179   1.897   5.205  1.1831  1.9957 -0.5220
 3586SOL    HW222218   1.202   1.967   5.322  0.0793 -0.4994 -0.8867
 3587SOL     OW22219   2.050   2.589   2.463 -0.0715  0.3475 -0.3493
 3587SOL    HW122220   1.985   2.525   2.432 -0.1314  0.1953  0.0844
 3587SOL    HW222221   2.111   2.516   2.471  0.7529  0.9380 -1.3977
 3588SOL     OW22222   3.326   2.733   4.838  0.3677  0.5889  0.7776
 3588SOL    HW122223   3.403   2.748   4.893  1.5657  0.7671 -0.9499
 3588SOL    HW222224   3.360   2.748   4.749 -0.2308  0.4172  0.5199
 3589SOL     OW22225   3.082   0.808   0.508  0.3892  0.2122  0.1029
 3589SOL    HW122226   3.048   0.724   0.477 -1.4223  0.6094  0.9590
 3589SOL    HW222227   3.002   0.860   0.520  1.2270  1.3578  0.7453
 3590SOL     OW22228   1.500   0.855   3.840 -0.0657  0.1712 -0.2824
 3590SOL    HW122229   1.476   0.947   3.856  1.2293  0.2412  1.3295
 3590SOL    HW222230   1.455   0.819   3.916 -0.2934 -1.4720 -1.1953
 3591SOL     OW22231   3.817   1.185  17.431 -0.1696 -0.1634 -0.4440
 3591SOL    HW122232   3.874   1.119  17.470  0.0151 -0.5904 -1.4336
 3591SOL    HW222233   3.779   1.230  17.506  0.9857 -1.9437  1.2223
 3592SOL     OW22234   3.359   0.816   3.342 -0.2450  0.2225 -0.5897
 3592SOL    HW122235   3.351   0.744   3.405  1.1902 -1.2216 -2.0573
 3592SOL    HW222236   3.366   0.774   3.256 -0.6379  0.1766 -0.5995
 3593SOL     OW22237   4.456   1.458  15.329  0.6475 -0.3792 -0.3377
 3593SOL    HW122238   4.412   1.429  15.249 -2.4456 -1.8010  1.8903
 3593SOL    HW222239   4.550   1.469  15.309  1.0904 -2.7207  0.4660
 3594SOL     OW22240   0.252   4.401  10.097  0.0041  0.7534  0.0883
 3594SOL    HW122241   0.267   4.306  10.093 -1.2482  0.5615  0.0034
 3594SOL    HW222242   0.195   4.391  10.173 -0.0849  1.7099  0.1425
 3595SOL     OW22243   0.344   1.715   7.354 -0.0618  0.4722  0.0881
 3595SOL    HW122244   0.363   1.801   7.316 -0.6498 -0.0067 -1.2764
 3595SOL    HW222245   0.416   1.659   7.326 -1.2513 -0.3068 -1.4001
 3596SOL     OW22246   4.625   0.461   8.905 -0.0579  0.0997 -0.3089
 3596SOL    HW122247   4.703   0.415   8.874 -0.0327 -0.1247  0.0822
 3596SOL    HW222248   4.601   0.499   8.821  0.1050 -0.5279 -0.6374
 3597SOL     OW22249   4.294   2.557   4.093  0.0613  0.3899  0.2913
 3597SOL    HW122250   4.311   2.628   4.155  1.2386 -0.7215  1.2422
 3597SOL    HW222251   4.201   2.542   4.107  0.3701 -0.4101  1.5969
 3598SOL     OW22252   1.273   3.663  11.764 -0.2457  0.3504 -0.4666
 3598SOL    HW122253   1.217   3.648  11.688 -1.7195  2.3579  0.1956
 3598SOL    HW222254   1.355   3.689  11.723  0.6134  2.6721  2.7467
 3599SOL     OW22255   2.458   3.955   5.283 -0.6883  0.0252 -0.4368
 3599SOL    HW122256   2.448   3.987   5.193  1.3248  0.7302 -0.4006
 3599SOL    HW222257   2.425   3.865   5.277 -3.4339  1.0251 -0.4453
 3600SOL     OW22258   0.826   2.840   2.671  0.1700  0.4818  0.3909
 3600SOL    HW122259   0.791   2.829   2.759  1.1002  1.9835  0.9331
 3600SOL    HW222260   0.774   2.771   2.628  1.1033 -1.2235  2.0288
 3601SOL     OW22261   1.472   3.979  16.142 -0.8064 -0.4652 -0.0957
 3601SOL    HW122262   1.499   3.967  16.051 -0.6432  0.0655 -0.1153
 3601SOL    HW222263   1.423   4.061  16.139  1.8795  1.2175  1.5792
 3602SOL     OW22264   2.920   4.480   6.485  0.1545 -0.0500 -0.2524
 3602SOL    HW122265   2.839   4.452   6.442 -0.2870  0.4367  0.2685
 3602SOL    HW222266   2.971   4.472   6.404 -1.1772 -0.0896 -1.0878
 3603SOL     OW22267   1.466   0.882   7.497  0.4383 -0.2596  0.4148
 3603SOL    HW122268   1.442   0.968   7.530 -1.4380 -0.4810 -0.3401
 3603SOL    HW222269   1.560   0.881   7.480 -0.0358  1.1071 -2.2924
 3604SOL     OW22270   2.336   2.315  13.741 -0.1525 -0.6780  0.3433
 3604SOL    HW122271   2.256   2.328  13.690  0.5545 -1.6941 -1.0203
 3604SOL    HW222272   2.365   2.406  13.744  0.6774 -0.9965  1.8952
 3605SOL     OW22273   4.457   1.722   1.396 -0.1474  0.3225 -0.4924
 3605SOL    HW122274   4.423   1.733   1.485  0.0545 -1.0767 -0.2470
 3605SOL    HW222275   4.542   1.766   1.401 -0.7841  1.8636 -2.9367
 3606SOL     OW22276   4.462   1.999   7.366  0.2598  0.1388 -0.2685
 3606SOL    HW122277   4.529   1.993   7.298  0.1207  1.8309 -0.5456
 3606SOL    HW222278   4.452   2.094   7.374  0.7388  0.3726 -2.5191
 3607SOL     OW22279   0.221   1.492   3.446  0.1964  0.2303 -0.3606
 3607SOL    HW122280   0.240   1.471   3.537 -0.7731 -1.0463 -0.4670
 3607SOL    HW222281   0.296   1.549   3.427 -1.8729  2.6651 -1.3252
 3608SOL     OW22282   0.790   2.240  15.837  0.3429  0.8909  0.4868
 3608SOL    HW122283   0.707   2.272  15.800  1.7257  0.6958 -2.8161
 3608SOL    HW222284   0.839   2.213  15.759  1.9201  1.4745  1.2840
 3609SOL     OW22285   1.427   1.027  15.891  0.1318  0.1302 -0.7320
 3609SOL    HW122286   1.501   1.003  15.837  0.5840  0.3574 -0.2151
 3609SOL    HW222287   1.395   0.940  15.915  1.3473 -0.5542 -1.6095
 3610SOL     OW22288   4.178   4.005   3.871 -0.0280  0.3666 -0.8093
 3610SOL    HW122289   4.256   3.950   3.875 -0.2424  0.2212  1.3124
 3610SOL    HW222290   4.183   4.027   3.778  0.7099 -2.4704 -1.4491
 3611SOL     OW22291   4.653   4.527  10.508  0.2769 -0.6411  0.3562
 3611SOL    HW122292   4.622   4.439  10.531 -2.4423  0.6526  1.6112
 3611SOL    HW222293   4.610   4.574  10.579  1.0152  0.9760 -0.2639
 3612SOL     OW22294   2.989   4.527  11.644 -0.0873 -0.0673 -0.6008
 3612SOL    HW122295   2.978   4.530  11.549 -2.6453  2.0030 -0.2441
 3612SOL    HW222296   2.980   4.620  11.666  0.2123 -0.3373  0.6680
 3613SOL     OW22297   4.658   4.502  13.370 -0.0460  0.4302 -0.2472
 3613SOL    HW122298   0.017   4.541  13.389  0.6872 -1.0541 -0.4050
 3613SOL    HW222299   4.680   4.463  13.285 -0.1543  0.6005 -0.3519
 3614SOL     OW22300   3.053   3.883   3.045 -0.3950  0.6057  0.2617
 3614SOL    HW122301   3.035   3.906   3.137 -2.1502 -1.7061  0.5097
 3614SOL    HW222302   3.143   3.912   3.043 -0.1836  0.0212  1.1955
 3615SOL     OW22303   2.502   0.133   8.744 -0.0940  0.3465  0.1168
 3615SOL    HW122304   2.437   0.203   8.753  0.7171  1.0960  0.1826
 3615SOL    HW222305   2.555   0.169   8.672  0.6928 -0.3122  0.3646
 3616SOL     OW22306   3.996   0.676   8.036 -0.1029  0.2081 -0.5772
 3616SOL    HW122307   4.058   0.672   8.109  0.6889 -0.2913 -1.2755
 3616SOL    HW222308   3.924   0.723   8.078  0.9910  0.2947  1.1979
 3617SOL     OW22309   3.317   1.461   6.370 -0.1161  0.0402  0.1402
 3617SOL    HW122310   3.269   1.543   6.373  2.0007  1.3306 -0.7764
 3617SOL    HW222311   3.361   1.456   6.455 -0.6197  2.0108  0.5175
 3618SOL     OW22312   4.422   0.373  17.587 -0.3626  0.4039 -0.2649
 3618SOL    HW122313   4.516   0.388  17.597 -0.1581 -2.4472  2.2375
 3618SOL    HW222314   4.421   0.281  17.562 -1.3048  0.5362 -0.7174
 3619SOL     OW22315   1.491   3.616   4.326  0.2566 -0.4862  0.6029
 3619SOL    HW122316   1.586   3.605   4.339  0.4122  0.7962  0.5325
 3619SOL    HW222317   1.507   3.703   4.289  0.4686 -0.3726  0.9584
 3620SOL     OW22318   2.862   2.227   0.388 -0.1986 -0.3687  0.3058
 3620SOL    HW122319   2.803   2.221   0.312  0.5054 -0.5273 -0.2301
 3620SOL    HW222320   2.893   2.136   0.382  1.1764  0.2705 -2.8079
 3621SOL     OW22321   0.719   4.035   3.030  0.0086 -0.5108  0.0750
 3621SOL    HW122322   0.646   4.067   2.976  0.0311 -0.3915  0.1170
 3621SOL    HW222323   0.680   3.959   3.075  0.3161 -0.1279  0.9871
 3622SOL     OW22324   3.802   0.984  11.378  0.3692 -0.1719  0.0390
 3622SOL    HW122325   3.764   1.065  11.342 -1.2384 -1.0110 -0.1371
 3622SOL    HW222326   3.876   0.970  11.319 -0.9089 -1.5141 -1.2602
 3623SOL     OW22327   1.877   4.010  17.584 -0.2016  0.8931  0.2706
 3623SOL    HW122328   1.836   3.928  17.556 -0.6625  0.9507  0.7756
 3623SOL    HW222329   1.816   4.065  17.536  0.8623 -0.8255 -3.0200
 3624SOL     OW22330   1.124   3.392  16.532 -0.2469 -0.0870 -0.4646
 3624SOL    HW122331   1.151   3.476  16.496  0.8731  0.1169  0.8256
 3624SOL    HW222332   1.076   3.418  16.610 -0.0296 -1.2371  0.0572
 3625SOL     OW22333   3.450   2.665   8.226 -0.1468 -0.0811 -0.2476
 3625SOL    HW122334   3.427   2.647   8.317  0.0454 -0.8446 -0.3461
 3625SOL    HW222335   3.378   2.627   8.175  2.4890 -4.8111 -0.4277
 3626SOL     OW22336   0.538   0.348  12.799  0.2430  0.1622 -0.1391
 3626SOL    HW122337   0.589   0.414  12.847  1.5831 -1.5174  0.7228
 3626SOL    HW222338   0.536   0.390  12.713 -3.6142 -0.4376 -0.3134
 3627SOL     OW22339   3.122   1.008   2.123 -0.2730 -0.1550 -0.1171
 3627SOL    HW122340   3.148   0.916   2.127  0.2505 -0.0062 -0.1088
 3627SOL    HW222341   3.037   0.987   2.085 -1.0842  1.0308  1.0310
 3628SOL     OW22342   1.151   3.411   5.402 -0.5582 -0.1870  0.0998
 3628SOL    HW122343   1.236   3.381   5.435  0.8880  1.6719 -1.8866
 3628SOL    HW222344   1.127   3.348   5.335  3.0837 -3.2925  1.7270
 3629SOL     OW22345   1.073   2.683  15.060  0.2918  0.1331  0.1479
 3629SOL    HW122346   1.026   2.619  15.006  0.2040 -0.5293  0.9984
 3629SOL    HW222347   1.009   2.752  15.078  0.5162  0.1389  0.9068
 3630SOL     OW22348   0.913   2.295   4.385  0.1910 -0.0927  0.1675
 3630SOL    HW122349   0.874   2.366   4.436  0.8933  0.4076  0.0015
 3630SOL    HW222350   0.845   2.270   4.323 -0.0909  2.2426 -0.4532
 3631SOL     OW22351   2.729   2.187   4.551  0.0813 -0.0933  0.4403
 3631SOL    HW122352   2.808   2.133   4.546 -1.4647 -2.3293  0.4841
 3631SOL    HW222353   2.683   2.182   4.468 -0.0994  0.7750  0.4829
 3632SOL     OW22354   4.101   0.273   8.240 -1.0628 -0.3915  0.0185
 3632SOL    HW122355   4.108   0.335   8.168  1.8244 -0.1559  0.5343
 3632SOL    HW222356   4.014   0.241   8.214 -0.2735 -1.3742 -1.3849
 3633SOL     OW22357   0.818   0.779  11.011 -0.3341  0.4702 -0.1959
 3633SOL    HW122358   0.902   0.822  11.026 -0.3806  0.4014  0.2693
 3633SOL    HW222359   0.758   0.835  11.062  0.5249 -0.2010  1.5462
 3634SOL     OW22360   1.691   3.553   2.006 -0.0116  0.2379  0.0521
 3634SOL    HW122361   1.661   3.517   2.089  0.2414  1.7291  0.7911
 3634SOL    HW222362   1.738   3.478   1.971 -0.5796 -0.8527  1.6373
 3635SOL     OW22363   1.978   3.825   6.079 -0.4712  0.2475  0.7393
 3635SOL    HW122364   1.941   3.746   6.040  2.6481 -0.9165  0.0703
 3635SOL    HW222365   2.009   3.791   6.163 -2.0851  0.8553  1.5674
 3636SOL     OW22366   0.465   4.002  16.871  0.5655  0.3976  0.7637
 3636SOL    HW122367   0.555   3.971  16.883  0.3270 -0.5227  0.1502
 3636SOL    HW222368   0.435   3.944  16.801 -1.4433  4.1374 -1.4743
 3637SOL     OW22369   0.594   4.013  17.161  0.2086  0.7295 -0.1716
 3637SOL    HW122370   0.646   3.994  17.083 -0.8940  1.7573 -1.1578
 3637SOL    HW222371   0.567   4.104  17.146 -0.9230  0.4356  0.0325
 3638SOL     OW22372   2.500   4.283   3.669 -0.0766  0.1947  0.0292
 3638SOL    HW122373   2.439   4.348   3.704  0.3386 -0.0649  1.2188
 3638SOL    HW222374   2.487   4.217   3.737  2.2623 -2.4297 -2.0637
 3639SOL     OW22375   1.276   1.928   2.201  0.5695  0.2778  0.6654
 3639SOL    HW122376   1.199   1.880   2.171  1.6418 -0.9297 -0.1519
 3639SOL    HW222377   1.308   1.968   2.120  1.2022 -0.2422  0.6590
 3640SOL     OW22378   2.321   0.135   4.834  0.6054  0.1061 -0.0219
 3640SOL    HW122379   2.301   0.116   4.742 -0.0427 -3.3609  0.8356
 3640SOL    HW222380   2.297   0.054   4.880 -1.0701  0.9178  0.4988
 3641SOL     OW22381   0.234   2.249   4.726  0.4894 -0.6825  1.0682
 3641SOL    HW122382   0.284   2.320   4.685  0.3224 -0.2587  1.6025
 3641SOL    HW222383   0.290   2.174   4.705  0.7084 -0.1601 -0.2141
 3642SOL     OW22384   2.783   2.705   4.765  0.1075 -0.6916  0.4647
 3642SOL    HW122385   2.785   2.615   4.734  0.2957 -0.9102  1.1136
 3642SOL    HW222386   2.869   2.720   4.804  0.4055  0.3971 -0.5696
 3643SOL     OW22387   1.112   3.959  17.072  0.1678  0.0388  0.0205
 3643SOL    HW122388   1.112   4.029  17.007  2.3756 -0.1053 -0.1333
 3643SOL    HW222389   1.189   3.905  17.053 -0.3172 -0.0871 -1.6501
 3644SOL     OW22390   3.295   2.516  13.349 -0.1816  0.0373 -0.0036
 3644SOL    HW122391   3.355   2.442  13.346 -1.1201 -0.7625  1.0809
 3644SOL    HW222392   3.221   2.494  13.292 -0.5019  1.3099 -0.1002
 3645SOL     OW22393   1.935   2.764   9.326  0.3145 -0.7583 -0.2353
 3645SOL    HW122394   1.989   2.835   9.361 -0.4803  0.9206 -2.3673
 3645SOL    HW222395   1.929   2.783   9.232  4.0408  2.0436  0.1273
 3646SOL     OW22396   2.916   0.644   5.121  0.4685  0.7397 -0.3191
 3646SOL    HW122397   2.988   0.596   5.079  1.3212  0.8012  1.0747
 3646SOL    HW222398   2.899   0.713   5.057  1.1857  1.2343  0.0243
 3647SOL     OW22399   4.257   3.267   8.546  0.1413  0.1515 -0.1191
 3647SOL    HW122400   4.194   3.208   8.587  0.2841 -0.1825 -0.3779
 3647SOL    HW222401   4.337   3.217   8.567  1.8314  2.4803 -1.0423
 3648SOL     OW22402   2.702   1.205   4.167  0.2773  0.1543 -0.4648
 3648SOL    HW122403   2.743   1.252   4.094 -0.5699 -1.6385 -2.1038
 3648SOL    HW222404   2.779   1.193   4.223  0.1097 -3.0556 -0.9171
 3649SOL     OW22405   4.246   2.213  14.127  0.1868 -0.1130  0.2819
 3649SOL    HW122406   4.266   2.142  14.066  1.6025  0.0437  0.5440
 3649SOL    HW222407   4.290   2.285  14.081  0.8846  0.2126  1.4695
 3650SOL     OW22408   3.874   0.952   4.441  0.0597 -0.0290 -0.0308
 3650SOL    HW122409   3.844   0.911   4.522  2.3945  0.1576  0.9301
 3650SOL    HW222410   3.941   0.890   4.411 -1.3168 -1.8493  0.6773
 3651SOL     OW22411   3.776   1.991   4.603  0.5301  0.0987  0.1746
 3651SOL    HW122412   3.730   2.074   4.619 -1.1520 -0.9844  0.9043
 3651SOL    HW222413   3.800   2.017   4.514  0.1052  0.6740  0.2269
 3652SOL     OW22414   2.149   3.864   7.776  0.3153 -0.2994  0.5871
 3652SOL    HW122415   2.094   3.942   7.772  1.2219  0.2246 -1.5710
 3652SOL    HW222416   2.117   3.825   7.857  0.0494 -0.2137  0.5228
 3653SOL     OW22417   3.054   4.033   2.655  0.6393 -0.1736  0.9418
 3653SOL    HW122418   3.023   3.972   2.587 -0.0669  1.4360 -0.1707
 3653SOL    HW222419   2.980   4.093   2.660  1.1412  0.2561  3.2111
 3654SOL     OW22420   2.739   2.120  12.742  0.6346  0.0397  0.4943
 3654SOL    HW122421   2.663   2.158  12.786  0.4238 -0.4305  0.5352
 3654SOL    HW222422   2.809   2.180  12.767 -1.9256  3.0166  0.5317
 3655SOL     OW22423   1.606   0.497  10.116  0.0995  0.2032  0.7252
 3655SOL    HW122424   1.539   0.462  10.058 -2.8313  2.5574  2.6697
 3655SOL    HW222425   1.673   0.537  10.061 -0.7649 -0.1553 -0.5813
 3656SOL     OW22426   1.327   1.506   7.871 -0.0636 -0.1991  0.3950
 3656SOL    HW122427   1.391   1.436   7.888  0.9699  0.1939 -1.8454
 3656SOL    HW222428   1.268   1.463   7.809 -0.0025 -0.8740  0.8042
 3657SOL     OW22429   0.787   1.816  15.545  0.6139 -0.0054  0.1890
 3657SOL    HW122430   0.872   1.796  15.506 -0.1373 -0.8570 -1.0263
 3657SOL    HW222431   0.762   1.902  15.512  0.8026 -0.0967 -0.1962
 3658SOL     OW22432   4.629   0.077   1.345  0.3970  0.5174 -0.3731
 3658SOL    HW122433   4.603   4.723   1.299 -2.6515  0.3445  1.7122
 3658SOL    HW222434   4.671   0.037   1.420 -0.4079 -1.1278 -0.8061
 3659SOL     OW22435   3.912   1.437   3.086  0.1768 -0.5949  0.4309
 3659SOL    HW122436   3.861   1.496   3.030  0.9959 -0.0952  0.2147
 3659SOL    HW222437   3.977   1.500   3.118 -0.1193 -1.4450  2.6718
 3660SOL     OW22438   1.693   3.447   3.264 -0.1920 -0.4316  0.4155
 3660SOL    HW122439   1.699   3.460   3.359  0.6693  1.4347  0.0907
 3660SOL    HW222440   1.675   3.353   3.253  0.9583 -0.7458  1.1934
 3661SOL     OW22441   4.363   3.157   8.171 -0.4001 -0.4756  0.5614
 3661SOL    HW122442   4.446   3.130   8.209 -0.3512  1.8911  2.1365
 3661SOL    HW222443   4.361   3.248   8.200 -0.5201 -1.1145  2.5818
 3662SOL     OW22444   0.055   1.471   7.560  0.2002 -0.2535  0.6095
 3662SOL    HW122445   0.130   1.530   7.568 -0.6943  1.1026 -0.9186
 3662SOL    HW222446   4.711   1.519   7.603  0.1983  0.6924 -0.4449
 3663SOL     OW22447   0.529   2.439   7.698 -0.0949  0.1382 -0.4405
 3663SOL    HW122448   0.434   2.430   7.694 -0.2746  1.9251 -0.1865
 3663SOL    HW222449   0.543   2.438   7.792  0.3298  2.6111 -0.4810
 3664SOL     OW22450   1.115   0.324   2.528  0.2044 -0.2163  0.1005
 3664SOL    HW122451   1.180   0.276   2.476  0.0674  1.5271 -1.6962
 3664SOL    HW222452   1.174   0.392   2.561  0.0276  0.4901 -1.0313
 3665SOL     OW22453   3.507   4.020   4.709  0.1570  0.4799  0.0488
 3665SOL    HW122454   3.489   4.031   4.616 -1.7256 -0.4949  0.2993
 3665SOL    HW222455   3.420   4.005   4.746 -0.6632  0.9472 -1.7185
 3666SOL     OW22456   0.469   3.117  12.954  0.3562 -0.1551 -0.2505
 3666SOL    HW122457   0.563   3.129  12.936 -0.0278 -1.9934 -3.4978
 3666SOL    HW222458   0.434   3.181  12.891 -0.2793 -0.7227 -0.4707
 3667SOL     OW22459   3.703   0.278  15.337 -1.1528 -0.2773 -0.2751
 3667SOL    HW122460   3.728   0.338  15.266 -0.5338  0.2894  0.4120
 3667SOL    HW222461   3.778   0.219  15.327  1.4194  2.6516  1.5527
 3668SOL     OW22462   3.439   1.411  11.276  0.5056 -0.4799  0.4767
 3668SOL    HW122463   3.476   1.364  11.201 -1.7840  1.6986 -2.0101
 3668SOL    HW222464   3.469   1.354  11.347 -0.3409  0.1837  1.3546
 3669SOL     OW22465   0.129   1.672   0.052  0.2165 -0.4555 -0.4343
 3669SOL    HW122466   0.183   1.594   0.062  1.3913  0.5674  1.1012
 3669SOL    HW222467   0.199   1.737   0.048  0.3132 -0.6150 -1.4219
 3670SOL     OW22468   4.531   0.364  15.792  0.1712  0.1219  0.1516
 3670SOL    HW122469   4.501   0.298  15.854  1.2703  0.2567  0.8154
 3670SOL    HW222470   4.460   0.428  15.790 -0.0858 -0.2324 -2.3128
 3671SOL     OW22471   0.415   0.401   3.478  0.2533 -0.4147  0.3385
 3671SOL    HW122472   0.498   0.358   3.499  0.3982 -0.2040  0.1855
 3671SOL    HW222473   0.362   0.370   3.552 -0.9988 -0.7193 -0.6919
 3672SOL     OW22474   1.457   4.425   5.222  0.0288  0.1949  0.1393
 3672SOL    HW122475   1.393   4.357   5.244 -1.5377  0.9448 -2.0472
 3672SOL    HW222476   1.393   4.484   5.182  0.5336  0.1298 -0.7625
 3673SOL     OW22477   0.288   1.732   1.998  0.6313  0.3587  0.7393
 3673SOL    HW122478   0.356   1.684   1.950 -0.9437 -0.4227 -0.7072
 3673SOL    HW222479   0.312   1.822   1.979  1.4743 -0.3197 -1.3879
 3674SOL     OW22480   1.773   4.008   5.982  0.8143  0.1554  0.4023
 3674SOL    HW122481   1.743   3.974   6.066  1.0573  1.4664  1.0269
 3674SOL    HW222482   1.863   3.977   5.980 -0.0218 -2.0684 -2.7912
 3675SOL     OW22483   0.380   4.324   8.896  0.0237 -0.1185 -0.5447
 3675SOL    HW122484   0.418   4.350   8.980 -1.3294  1.7389 -0.5025
 3675SOL    HW222485   0.298   4.374   8.899 -0.2253 -0.4667 -1.4363
 3676SOL     OW22486   4.698   3.135   7.256 -0.1802  0.4276  0.3149
 3676SOL    HW122487   4.669   3.214   7.212  0.2782 -0.2152 -1.1284
 3676SOL    HW222488   4.701   3.157   7.349 -1.5166 -0.2634  0.5165
 3677SOL     OW22489   2.431   0.912   6.763  0.2926 -0.0295  0.4500
 3677SOL    HW122490   2.449   0.992   6.812 -0.5641  0.0296  0.6762
 3677SOL    HW222491   2.424   0.853   6.839 -2.0483 -1.4442 -0.8566
 3678SOL     OW22492   3.409   3.107   6.571  0.2052 -0.3741 -0.5793
 3678SOL    HW122493   3.376   3.194   6.548  0.0858  0.5851  3.2462
 3678SOL    HW222494   3.396   3.107   6.666 -0.7572 -0.1704 -0.7069
 3679SOL     OW22495   2.507   3.993   4.970  0.6067 -0.0373 -0.1490
 3679SOL    HW122496   2.524   3.905   4.937  0.8070 -0.8859  2.2135
 3679SOL    HW222497   2.517   4.038   4.886  0.9471  1.0075  0.4496
 3680SOL     OW22498   1.578   2.336  10.077  0.2793  0.3151 -0.2756
 3680SOL    HW122499   1.511   2.297  10.022  1.0729 -0.1614 -0.8990
 3680SOL    HW222500   1.549   2.296  10.159  1.8705 -2.6650 -1.1761
 3681SOL     OW22501   0.699   4.713   7.912 -0.3680  0.5162  0.0130
 3681SOL    HW122502   0.689   4.686   7.820 -2.2718 -0.9737  0.6512
 3681SOL    HW222503   0.787   0.024   7.907 -0.8868  1.7832  0.3243
 3682SOL     OW22504   0.386   4.192   5.316  0.4533  0.5675 -0.0258
 3682SOL    HW122505   0.473   4.179   5.354 -0.3253 -2.8931  0.5881
 3682SOL    HW222506   0.334   4.154   5.387 -1.7782 -0.3667 -2.1272
 3683SOL     OW22507   3.841   4.266   8.261  0.3308  0.4224  0.1484
 3683SOL    HW122508   3.801   4.280   8.175  1.6374 -1.1868 -0.7181
 3683SOL    HW222509   3.916   4.211   8.240  0.6757  0.7821  0.4508
 3684SOL     OW22510   0.131   0.280   1.312  0.2417 -0.2310 -0.4391
 3684SOL    HW122511   0.050   0.236   1.288 -0.7810  0.6393  1.4235
 3684SOL    HW222512   0.190   0.224   1.262  1.9544  1.7281 -0.6067
 3685SOL     OW22513   3.841   0.681   2.571  0.0214  0.2455 -0.0014
 3685SOL    HW122514   3.870   0.693   2.480 -0.0425  0.0107 -0.0528
 3685SOL    HW222515   3.837   0.585   2.574 -3.0886  0.2967 -2.1171
 3686SOL     OW22516   2.647   4.550   9.293 -0.2998 -0.3785  0.0851
 3686SOL    HW122517   2.647   4.609   9.369  2.0029  1.5464 -1.4135
 3686SOL    HW222518   2.574   4.490   9.308  0.8484 -1.5421  1.0080
 3687SOL     OW22519   1.793   0.881   9.649  0.6316 -0.3611  0.3458
 3687SOL    HW122520   1.843   0.826   9.588  0.7311 -0.2135  0.2941
 3687SOL    HW222521   1.732   0.920   9.587 -0.2825  0.2879  1.6566
 3688SOL     OW22522   4.689   2.309  15.674 -0.2885  0.5917 -0.4610
 3688SOL    HW122523   0.004   2.386  15.715  2.3256  0.0171 -2.0357
 3688SOL    HW222524   4.637   2.342  15.601 -1.0879  1.8166  0.6643
 3689SOL     OW22525   4.354   2.996   4.409  0.3531  0.5408 -0.2469
 3689SOL    HW122526   4.425   3.019   4.469  0.0057 -0.0043  0.3662
 3689SOL    HW222527   4.285   3.048   4.450  1.0708  1.2301  0.0894
 3690SOL     OW22528   1.265   4.467   2.255 -0.1429  0.5022  0.1870
 3690SOL    HW122529   1.310   4.503   2.179  2.3272  2.2852  2.4639
 3690SOL    HW222530   1.189   4.525   2.246 -0.4074  0.1950  0.4252
 3691SOL     OW22531   1.232   2.353   8.744 -0.0454  0.0216 -0.2160
 3691SOL    HW122532   1.198   2.372   8.831  1.1195 -0.8552  0.4259
 3691SOL    HW222533   1.282   2.435   8.739 -0.3280  0.2945  1.4641
 3692SOL     OW22534   1.568   3.095   6.582  0.2407  0.0789 -0.6231
 3692SOL    HW122535   1.662   3.116   6.584  0.6906 -2.1448  1.4839
 3692SOL    HW222536   1.572   3.001   6.599  0.9304  0.3374  0.7025
 3693SOL     OW22537   3.906   1.393  12.385 -0.2734 -0.0269 -0.1400
 3693SOL    HW122538   3.994   1.424  12.406  0.5387 -1.0681 -2.0151
 3693SOL    HW222539   3.919   1.302  12.357  2.6331 -0.0382  1.3098
 3694SOL     OW22540   2.416   4.296   2.601  0.1327 -0.3253 -0.2046
 3694SOL    HW122541   2.413   4.327   2.511  0.4482 -0.0660 -0.1233
 3694SOL    HW222542   2.456   4.210   2.587 -2.0806 -1.5556  0.9930
 3695SOL     OW22543   4.587   0.007   9.727  0.3939  0.3359 -0.5279
 3695SOL    HW122544   4.639   0.040   9.801  0.4766 -0.5695 -0.1709
 3695SOL    HW222545   4.550   4.654   9.766  1.4223 -0.2279 -0.6850
 3696SOL     OW22546   2.122   3.452  16.676 -0.0807  0.3101 -0.5322
 3696SOL    HW122547   2.061   3.383  16.652 -0.5292  1.0021 -1.3960
 3696SOL    HW222548   2.100   3.482  16.764  0.8406  2.2201 -0.9377
 3697SOL     OW22549   1.286   2.826   4.833 -0.1755  0.6380  0.3258
 3697SOL    HW122550   1.294   2.741   4.876 -0.1428 -0.8226 -2.5670
 3697SOL    HW222551   1.192   2.843   4.828 -0.3755 -0.7468 -0.5422
 3698SOL     OW22552   1.198   0.023   8.284  0.0497 -0.2109  0.3613
 3698SOL    HW122553   1.131   4.689   8.251  0.0280 -0.5172  0.9712
 3698SOL    HW222554   1.153   0.103   8.310 -0.1714 -0.0280 -0.5681
 3699SOL     OW22555   1.299   0.647   5.706  0.0491  0.6157  0.2888
 3699SOL    HW122556   1.340   0.604   5.781  0.5172 -0.3953 -0.5327
 3699SOL    HW222557   1.337   0.584   5.644 -2.9246 -2.1129  1.2424
 3700SOL     OW22558   0.385   4.496  14.268 -0.0580  0.1637 -0.0867
 3700SOL    HW122559   0.307   4.476  14.216 -0.4513 -0.1787  0.6322
 3700SOL    HW222560   0.445   4.525  14.200  0.9044  1.0443  1.1241
 3701SOL     OW22561   0.672   2.631   5.172  0.7230  0.5241 -0.3120
 3701SOL    HW122562   0.696   2.583   5.093  0.1722  0.2746 -0.3224
 3701SOL    HW222563   0.584   2.657   5.145  0.3019 -2.3383 -1.6479
 3702SOL     OW22564   4.011   0.377   7.270  0.0050 -0.0787  0.1655
 3702SOL    HW122565   3.992   0.355   7.179  1.1987 -0.3569 -0.0206
 3702SOL    HW222566   3.929   0.374   7.320  0.2245 -2.7799  0.3500
 3703SOL     OW22567   0.219   0.351   3.834  0.6584  0.0591  0.0200
 3703SOL    HW122568   0.243   0.268   3.794  0.8565  1.4054 -2.6281
 3703SOL    HW222569   0.126   0.336   3.849  0.6878 -0.3137 -0.1811
 3704SOL     OW22570   2.464   0.429   6.772 -0.1600 -0.0211 -0.2523
 3704SOL    HW122571   2.454   0.428   6.677 -0.4017  3.3540 -0.2700
 3704SOL    HW222572   2.526   0.356   6.782 -0.3290  0.0817  1.5526
 3705SOL     OW22573   4.121   2.404   8.983  0.0801  0.7998  0.7842
 3705SOL    HW122574   4.119   2.460   8.906 -1.3365 -0.8504 -0.3652
 3705SOL    HW222575   4.033   2.370   9.003  0.2904 -0.7982 -1.0480
 3706SOL     OW22576   0.117   0.115   1.952  0.0524 -0.1292  0.0888
 3706SOL    HW122577   0.181   0.124   1.881  0.2077  2.2925  0.5236
 3706SOL    HW222578   0.119   0.021   1.969  0.5830 -0.3646 -1.2043
 3707SOL     OW22579   0.309   3.852   4.073  0.1515 -0.3477 -0.1479
 3707SOL    HW122580   0.355   3.855   3.990  1.6305  0.0570  0.6900
 3707SOL    HW222581   0.254   3.775   4.057 -1.4327  0.3372  1.9612
 3708SOL     OW22582   2.683   3.235   8.417  0.2828  0.0241  0.1948
 3708SOL    HW122583   2.669   3.160   8.475  0.0063  0.1979  0.3518
 3708SOL    HW222584   2.603   3.288   8.427  0.1545 -0.3010  0.9307
 3709SOL     OW22585   4.654   0.968   9.333  0.3338  0.1497  0.3026
 3709SOL    HW122586   4.607   1.049   9.350  1.7684  0.9198  0.5892
 3709SOL    HW222587   4.688   0.946   9.420 -0.9423  1.0628  1.0242
 3710SOL     OW22588   2.574   3.574  10.348  0.4309 -0.4501 -0.1347
 3710SOL    HW122589   2.550   3.564  10.440  1.3392  2.2480  0.3978
 3710SOL    HW222590   2.496   3.609  10.307  2.5842  2.6618 -1.5540
 3711SOL     OW22591   3.946   0.634   1.915  0.2817 -0.6735  0.3371
 3711SOL    HW122592   3.938   0.694   1.989 -2.2380 -0.1120 -0.4105
 3711SOL    HW222593   3.857   0.602   1.902 -0.0725  0.6325 -0.4572
 3712SOL     OW22594   1.493   2.722   3.605 -0.0836 -0.0603  0.4102
 3712SOL    HW122595   1.495   2.694   3.514  1.3021  0.2688  0.3340
 3712SOL    HW222596   1.515   2.815   3.597  0.7772 -0.2967  0.0648
 3713SOL     OW22597   2.880   1.746   1.115 -0.2655  0.8257 -0.0059
 3713SOL    HW122598   2.949   1.694   1.156 -0.4517  2.8767  2.9213
 3713SOL    HW222599   2.926   1.800   1.051 -0.9576  5.0280  3.0605
 3714SOL     OW22600   2.117   3.697   2.496 -0.4749 -0.2593  0.2702
 3714SOL    HW122601   2.132   3.743   2.414 -0.9709  0.7387  0.7333
 3714SOL    HW222602   2.040   3.745   2.527 -0.7471 -1.7691  1.9421
 3715SOL     OW22603   1.021   0.282   3.731  0.1642 -0.0639 -0.1719
 3715SOL    HW122604   0.973   0.363   3.716 -1.6670 -0.9477  0.9228
 3715SOL    HW222605   1.083   0.295   3.660 -0.3631 -2.0283 -1.0152
 3716SOL     OW22606   1.537   0.114   0.302 -0.4786 -0.0867 -0.2047
 3716SOL    HW122607   1.563   0.061   0.377  0.2007  3.7485  2.2395
 3716SOL    HW222608   1.565   0.203   0.324  1.0121 -0.1146 -1.9595
 3717SOL     OW22609   2.886   0.057   6.156 -0.1423  0.2942 -0.0665
 3717SOL    HW122610   2.792   0.063   6.170  0.0482 -0.0185  1.2737
 3717SOL    HW222611   2.884   0.101   6.071 -0.9880  0.2680 -0.0578
 3718SOL     OW22612   2.821   0.585   0.719  0.0926 -0.2276 -0.0419
 3718SOL    HW122613   2.804   0.679   0.708  1.1745 -0.0813 -0.5239
 3718SOL    HW222614   2.745   0.550   0.673 -0.6562  0.3694  0.7468
 3719SOL     OW22615   2.988   0.183   1.761 -0.4481  0.8008 -0.1835
 3719SOL    HW122616   3.000   0.278   1.762 -1.5167  0.9173  1.4876
 3719SOL    HW222617   2.920   0.173   1.828 -0.4835  0.5625 -0.2559
 3720SOL     OW22618   3.016   0.738   4.542  0.3533 -0.0378 -0.3774
 3720SOL    HW122619   3.068   0.669   4.583 -2.1771 -1.8810 -0.2371
 3720SOL    HW222620   2.956   0.682   4.494 -0.7789  0.2933  0.6393
 3721SOL     OW22621   2.608   4.161   6.638 -0.0953 -0.2971  0.0236
 3721SOL    HW122622   2.557   4.088   6.673 -2.0106  0.9180 -0.2353
 3721SOL    HW222623   2.660   4.120   6.569 -0.0782  0.1815 -0.2484
 3722SOL     OW22624   0.150   3.488  12.722  0.2653 -0.6890  0.5256
 3722SOL    HW122625   0.119   3.403  12.688 -1.4191 -0.2000  0.8072
 3722SOL    HW222626   0.067   3.537  12.725 -0.2320 -1.5782  1.4725
 3723SOL     OW22627   3.170   2.338   7.832 -0.3233  0.2762 -0.9696
 3723SOL    HW122628   3.236   2.291   7.781 -1.4972 -1.3819 -0.9339
 3723SOL    HW222629   3.106   2.354   7.762 -0.5032  1.0657 -0.6242
 3724SOL     OW22630   4.444   3.826   7.299  0.1622 -0.5954 -0.5629
 3724SOL    HW122631   4.483   3.741   7.314  2.1814  0.2741 -0.9777
 3724SOL    HW222632   4.512   3.864   7.244  1.1064 -2.5504 -0.7335
 3725SOL     OW22633   0.752   3.054  14.863 -0.4653 -0.4760  0.2134
 3725SOL    HW122634   0.826   3.085  14.914  0.3344 -1.7954 -0.1466
 3725SOL    HW222635   0.790   2.981  14.814  1.0198 -0.9585  2.0844
 3726SOL     OW22636   2.500   1.592   1.805 -0.9044 -0.1171 -0.5171
 3726SOL    HW122637   2.467   1.560   1.889  1.9732 -1.5572  0.0393
 3726SOL    HW222638   2.454   1.531   1.747 -0.3491 -0.7428 -0.2950
 3727SOL     OW22639   0.257   3.508   8.132 -0.1219  0.4470 -0.4795
 3727SOL    HW122640   0.217   3.595   8.138 -1.6050 -0.3347  0.7559
 3727SOL    HW222641   0.227   3.469   8.213  1.0651  1.0737  0.2701
 3728SOL     OW22642   1.608   3.107   5.255  0.3915 -0.3883 -0.7569
 3728SOL    HW122643   1.645   3.080   5.171  1.3473 -1.8990  0.1635
 3728SOL    HW222644   1.515   3.097   5.237  0.4591 -2.4058  0.0233
 3729SOL     OW22645   0.904   3.412  12.844  0.0463  0.3050 -0.1232
 3729SOL    HW122646   0.971   3.367  12.793 -2.1940  0.7533 -3.4433
 3729SOL    HW222647   0.943   3.493  12.875 -1.5201  0.6062  1.1186
 3730SOL     OW22648   2.331   4.078  13.092 -0.3085  0.0222 -0.1461
 3730SOL    HW122649   2.348   3.984  13.092 -0.0492  0.0663 -0.7550
 3730SOL    HW222650   2.368   4.097  13.006 -0.7962 -0.0069 -0.3579
 3731SOL     OW22651   1.244   2.300   7.131 -0.0072 -0.2196  0.2390
 3731SOL    HW122652   1.163   2.334   7.169 -0.4950 -3.4227  2.0735
 3731SOL    HW222653   1.232   2.206   7.115  2.5789 -0.2150 -1.7545
 3732SOL     OW22654   3.369   4.622   3.774 -0.3361  0.2118 -0.3035
 3732SOL    HW122655   3.359   4.530   3.796 -0.3094  0.4957  0.8893
 3732SOL    HW222656   3.299   4.617   3.708  1.4045  0.0335 -2.1547
 3733SOL     OW22657   4.579   0.060   2.255 -0.2690  0.0769 -0.7952
 3733SOL    HW122658   4.588   0.047   2.349 -0.4444  1.2916 -0.6097
 3733SOL    HW222659   4.642   0.128   2.231  0.4944 -0.2069  0.4074
 3734SOL     OW22660   3.917   3.373   1.996 -0.0630 -0.0727  0.3926
 3734SOL    HW122661   3.956   3.443   2.049 -1.7564  0.6506  0.6747
 3734SOL    HW222662   3.831   3.410   1.976  0.6060  1.2853 -0.0434
 3735SOL     OW22663   4.522   3.902  16.495  1.0303 -0.3295 -0.1062
 3735SOL    HW122664   4.535   3.834  16.561  1.4728  0.9392  1.0978
 3735SOL    HW222665   4.549   3.856  16.415 -0.3773  0.7805 -1.2154
 3736SOL     OW22666   3.866   2.890  10.855  0.1640  0.3646 -0.2553
 3736SOL    HW122667   3.824   2.960  10.904 -5.0743 -1.9259 -1.4773
 3736SOL    HW222668   3.851   2.823  10.922 -0.1661  0.0814 -0.6080
 3737SOL     OW22669   0.253   2.362   2.844 -0.2795  0.0064  0.0331
 3737SOL    HW122670   0.242   2.320   2.930  1.0266  0.2594  0.3308
 3737SOL    HW222671   0.164   2.368   2.811 -0.0437 -0.1348 -0.6255
 3738SOL     OW22672   2.273   4.622   5.964  0.4859  0.3025 -0.3131
 3738SOL    HW122673   2.251   4.532   5.988 -0.2395  0.8494  1.0957
 3738SOL    HW222674   2.204   4.674   6.006  0.6445  0.8955 -0.7864
 3739SOL     OW22675   1.270   1.189   8.268 -0.0192 -0.1372  0.0788
 3739SOL    HW122676   1.210   1.115   8.269  1.4954 -1.3616  0.2813
 3739SOL    HW222677   1.353   1.154   8.234 -0.8924 -1.0107 -1.1368
 3740SOL     OW22678   3.267   0.823   2.436 -0.5405 -0.2297  0.0107
 3740SOL    HW122679   3.184   0.784   2.463 -0.7558  1.4158  1.7609
 3740SOL    HW222680   3.285   0.792   2.348  1.4831 -1.6688  0.9443
 3741SOL     OW22681   2.025   3.782   0.726  0.6838  0.2324 -0.5272
 3741SOL    HW122682   2.017   3.877   0.721  1.4159  0.1756 -2.8730
 3741SOL    HW222683   2.004   3.748   0.639 -0.8001 -0.7114  0.1973
 3742SOL     OW22684   2.291   3.840   2.036 -1.0362  0.4020  0.3865
 3742SOL    HW122685   2.348   3.771   2.001 -0.7784  0.4992  0.6113
 3742SOL    HW222686   2.275   3.897   1.961  2.0357 -0.9689 -1.3477
 3743SOL     OW22687   3.937   2.484   9.550 -0.1350  0.0523  0.2699
 3743SOL    HW122688   3.867   2.515   9.492 -0.8403  0.9424  1.6164
 3743SOL    HW222689   3.897   2.483   9.637  0.1922  1.5328  0.4438
 3744SOL     OW22690   4.009   3.133  10.429  0.0638  0.3834 -0.3721
 3744SOL    HW122691   4.082   3.194  10.419  2.2967 -1.8600  2.0250
 3744SOL    HW222692   4.010   3.109  10.521 -3.8236  2.1069  0.1049
 3745SOL     OW22693   1.540   0.918  12.865 -0.2313 -0.4949  0.4645
 3745SOL    HW122694   1.528   1.013  12.858 -1.3723 -0.5524  1.6149
 3745SOL    HW222695   1.624   0.916  12.912  0.0204 -0.7697 -0.0018
 3746SOL     OW22696   2.501   0.203   7.441  0.0217  0.4956 -0.2083
 3746SOL    HW122697   2.533   0.113   7.441 -1.8176 -0.1626 -3.0129
 3746SOL    HW222698   2.585   0.249   7.434 -0.6926  1.7781 -0.3562
 3747SOL     OW22699   2.331   3.190   3.786  0.3249 -0.3691  0.3637
 3747SOL    HW122700   2.351   3.283   3.798  0.7147 -0.3716 -0.2334
 3747SOL    HW222701   2.328   3.180   3.690  1.3122  2.2884  0.0706
 3748SOL     OW22702   1.569   2.281   0.474  0.6859  0.4623 -0.1660
 3748SOL    HW122703   1.655   2.264   0.513 -0.0147  0.1055  1.2284
 3748SOL    HW222704   1.528   2.322   0.550 -0.8420  2.5511 -2.1359
 3749SOL     OW22705   1.659   4.332   6.775 -0.3044 -0.1085  0.2908
 3749SOL    HW122706   1.678   4.254   6.828  3.3903  0.5999 -0.0121
 3749SOL    HW222707   1.743   4.365   6.744 -1.2010  1.1470 -0.7418
 3750SOL     OW22708   2.917   3.464   3.498  1.1658  0.0984  0.7197
 3750SOL    HW122709   2.855   3.432   3.433 -0.4192  0.3466  2.0971
 3750SOL    HW222710   3.002   3.437   3.465  0.6365 -1.4697  0.6703
 3751SOL     OW22711   1.061   1.390   5.999  0.3551 -0.2373  0.1935
 3751SOL    HW122712   1.077   1.434   6.083  0.1521  0.4462 -0.1296
 3751SOL    HW222713   1.029   1.453   5.934  3.7331  0.8773 -0.3746
 3752SOL     OW22714   1.239   4.193  10.575 -0.3824  0.3311  0.5106
 3752SOL    HW122715   1.311   4.145  10.535  0.1314  3.0751 -1.8385
 3752SOL    HW222716   1.254   4.164  10.665  1.4658 -1.2661 -0.3045
 3753SOL     OW22717   3.956   4.245  11.184  0.0223 -0.0995 -0.0348
 3753SOL    HW122718   3.884   4.309  11.177  1.1109  1.2424  1.0143
 3753SOL    HW222719   3.907   4.164  11.193  0.4651 -0.2798  0.7127
 3754SOL     OW22720   1.431   1.232   2.642  0.2403 -0.4080  0.1961
 3754SOL    HW122721   1.466   1.237   2.553 -0.1516 -3.1519 -0.1394
 3754SOL    HW222722   1.437   1.315   2.688 -1.4627 -0.4146  0.4500
 3755SOL     OW22723   0.732   0.802  16.750 -0.0218  0.0592 -0.7749
 3755SOL    HW122724   0.663   0.819  16.686  0.7137 -0.0781 -1.6157
 3755SOL    HW222725   0.724   0.877  16.809 -0.1910 -2.4045  2.3532
 3756SOL     OW22726   3.869   1.151   3.170  0.5626 -0.1251 -0.6012
 3756SOL    HW122727   3.956   1.179   3.198 -0.2105  1.9107 -0.2545
 3756SOL    HW222728   3.847   1.228   3.118 -0.0061  1.6643  2.2936
 3757SOL     OW22729   2.258   0.437  14.403  0.0153 -0.1710  0.3767
 3757SOL    HW122730   2.196   0.509  14.391  0.4277  0.4286  1.8359
 3757SOL    HW222731   2.196   0.364  14.406 -1.4279  0.9196 -2.4331
 3758SOL     OW22732   1.968   2.062   4.946  0.0474  0.0212  0.0179
 3758SOL    HW122733   1.966   2.043   4.852 -0.3359  0.0173  0.0293
 3758SOL    HW222734   2.060   2.086   4.959 -0.0812  0.3286  0.3301
 3759SOL     OW22735   0.008   3.227   9.090 -0.4427  0.4121  0.9635
 3759SOL    HW122736   0.066   3.196   9.160 -0.0917 -2.4894 -0.5799
 3759SOL    HW222737   0.076   3.287   9.059  0.0223  0.0542  1.2979
 3760SOL     OW22738   0.270   3.285   7.415 -0.2489 -0.1605 -0.4075
 3760SOL    HW122739   0.286   3.345   7.342  0.5387  0.1330  0.0037
 3760SOL    HW222740   0.211   3.341   7.464 -0.3082 -0.1946 -0.4396
 3761SOL     OW22741   1.200   3.303   3.421 -0.4648 -0.0813 -0.5185
 3761SOL    HW122742   1.294   3.317   3.435 -0.4934  0.0236 -0.4325
 3761SOL    HW222743   1.196   3.232   3.485  1.9964 -0.5130 -0.8320
 3762SOL     OW22744   3.915   3.181   1.760  0.1558 -0.1061  0.4117
 3762SOL    HW122745   3.918   3.241   1.835 -1.5498 -0.2092  0.5644
 3762SOL    HW222746   3.930   3.239   1.686 -0.8688  0.6792  0.8200
 3763SOL     OW22747   1.584   1.306   7.766  0.1221 -0.4494 -0.1133
 3763SOL    HW122748   1.569   1.224   7.813  2.3585  0.0676  1.5113
 3763SOL    HW222749   1.669   1.332   7.801 -0.8498  1.9259  0.4736
 3764SOL     OW22750   1.307   2.875   7.893 -0.0977 -0.0955  0.6396
 3764SOL    HW122751   1.220   2.896   7.858 -0.5758  0.3843  2.0844
 3764SOL    HW222752   1.273   2.841   7.977  1.6292  0.9106  1.7268
 3765SOL     OW22753   1.396   2.497  14.714  0.1449  0.5718  0.0935
 3765SOL    HW122754   1.488   2.480  14.695 -0.1257 -0.8562  0.0745
 3765SOL    HW222755   1.350   2.418  14.686  0.1371  0.8796 -0.7569
 3766SOL     OW22756   0.856   1.032   2.084 -0.1506 -0.2917  0.2926
 3766SOL    HW122757   0.914   0.966   2.120  0.9962  0.9767  0.7418
 3766SOL    HW222758   0.834   1.087   2.159 -1.8838  3.3198 -2.7897
 3767SOL     OW22759   3.806   2.535   2.607 -0.1232 -0.3755  0.0202
 3767SOL    HW122760   3.880   2.522   2.548 -0.5913 -1.4973 -0.3109
 3767SOL    HW222761   3.818   2.470   2.676 -0.1418  0.2997  0.6655
 3768SOL     OW22762   4.492   1.454   7.686 -0.1999  0.3487 -0.1646
 3768SOL    HW122763   4.397   1.443   7.688 -0.4054  1.8514 -1.5528
 3768SOL    HW222764   4.512   1.363   7.706  1.5998  0.7648 -0.0571
 3769SOL     OW22765   2.614   4.233  11.528 -0.6284 -0.0161 -0.3483
 3769SOL    HW122766   2.553   4.168  11.565 -0.9234 -1.9505 -4.2735
 3769SOL    HW222767   2.698   4.213  11.569 -0.6345  1.3450  0.3206
 3770SOL     OW22768   4.459   3.760   9.453  0.0387 -0.1404  0.7061
 3770SOL    HW122769   4.536   3.707   9.473  1.5791  0.8427 -2.6051
 3770SOL    HW222770   4.493   3.840   9.493  0.1513 -0.5744  1.4728
 3771SOL     OW22771   0.559   2.855   9.578 -0.2032  0.2519  0.0154
 3771SOL    HW122772   0.493   2.899   9.633  0.5864  0.2877  0.9423
 3771SOL    HW222773   0.518   2.770   9.564  1.6745 -0.8318  1.1588
 3772SOL     OW22774   3.189   4.477  16.659 -0.2458  0.8273  0.7682
 3772SOL    HW122775   3.160   4.408  16.718  1.0689 -0.8682 -0.5418
 3772SOL    HW222776   3.110   4.463  16.607 -0.8374  0.0343  1.9087
 3773SOL     OW22777   3.486   2.435   2.664 -0.0313 -0.2240 -0.6756
 3773SOL    HW122778   3.528   2.485   2.593  1.6696 -0.9343 -0.1646
 3773SOL    HW222779   3.554   2.450   2.730 -2.9786 -0.6280  2.4174
 3774SOL     OW22780   2.934   3.466   0.382 -0.1552  0.2421  0.1956
 3774SOL    HW122781   2.954   3.554   0.351  1.8991 -0.1721  0.3530
 3774SOL    HW222782   2.839   3.457   0.370 -0.0718  0.2592 -0.4704
 3775SOL     OW22783   4.345   4.367   9.599 -0.0960 -0.1265  0.2871
 3775SOL    HW122784   4.256   4.402   9.599  0.2419  0.7568 -1.4004
 3775SOL    HW222785   4.363   4.365   9.693 -0.7558  1.4633  0.4584
 3776SOL     OW22786   3.606   1.759   8.902 -0.3280 -0.0874  0.5378
 3776SOL    HW122787   3.591   1.665   8.904 -1.3789  0.0763  0.6128
 3776SOL    HW222788   3.701   1.755   8.902 -0.2596  2.0306 -0.9884
 3777SOL     OW22789   2.176   2.195   0.644 -0.0029  0.3799 -0.5060
 3777SOL    HW122790   2.238   2.248   0.694 -2.6593 -1.9102  5.2253
 3777SOL    HW222791   2.246   2.154   0.593 -0.3256  1.0999 -1.5197
 3778SOL     OW22792   0.779   1.828  11.274 -0.2028 -0.1974  0.0097
 3778SOL    HW122793   0.799   1.843  11.366 -0.3591 -0.1152  0.0296
 3778SOL    HW222794   0.830   1.750  11.253  0.1455  0.4112 -1.4038
 3779SOL     OW22795   1.476   3.319   7.619  0.3427  0.2593 -0.2060
 3779SOL    HW122796   1.533   3.243   7.607 -0.8801 -0.9280  1.6470
 3779SOL    HW222797   1.492   3.375   7.542 -0.0532 -0.3068 -0.6963
 3780SOL     OW22798   3.780   4.001   2.742 -0.2120  0.0610 -0.2543
 3780SOL    HW122799   3.819   4.037   2.663  0.6018  1.0318  0.5879
 3780SOL    HW222800   3.838   3.926   2.754 -1.8440 -0.5164  4.0836
 3781SOL     OW22801   0.343   0.907  17.376 -0.0815 -0.3740  0.7639
 3781SOL    HW122802   0.275   0.924  17.311 -0.2371 -0.4665  0.9000
 3781SOL    HW222803   0.416   0.877  17.323  0.0376  0.7222  0.3136
 3782SOL     OW22804   3.001   0.072   4.277 -0.0892  0.1834  0.2294
 3782SOL    HW122805   2.971   0.028   4.198  4.2865 -1.3008 -0.5672
 3782SOL    HW222806   2.916   0.103   4.307  0.6372  3.2530 -0.8467
 3783SOL     OW22807   1.429   3.715   6.504  0.0595 -0.0487 -0.2793
 3783SOL    HW122808   1.413   3.621   6.519  1.4476 -0.0306  1.3170
 3783SOL    HW222809   1.390   3.751   6.583 -1.2670  1.7347 -1.7551
 3784SOL     OW22810   2.501   0.631   3.178  0.2315  0.1061  0.2798
 3784SOL    HW122811   2.535   0.542   3.170  1.7866  0.7539 -0.3754
 3784SOL    HW222812   2.467   0.648   3.090 -0.0074  0.1078  0.3722
 3785SOL     OW22813   4.678   3.954  14.027 -0.1336  0.5599  0.1510
 3785SOL    HW122814   4.710   3.936  13.938  0.8675  0.5921  0.5091
 3785SOL    HW222815   4.584   3.953  14.009 -0.1648  0.1337  0.3145
 3786SOL     OW22816   3.368   3.665  17.577 -0.4167  0.2210 -0.1090
 3786SOL    HW122817   3.324   3.704  17.501 -0.0495  0.6357 -0.1066
 3786SOL    HW222818   3.308   3.694  17.646  1.0386 -2.1513  2.1795
 3787SOL     OW22819   2.393   2.439   1.609  0.3958  0.5324  0.2933
 3787SOL    HW122820   2.428   2.396   1.531 -0.3233  2.2690 -0.9833
 3787SOL    HW222821   2.476   2.437   1.658  1.2025 -0.7304 -1.1279
 3788SOL     OW22822   1.789   2.157   8.651  0.0769  0.6045  0.4934
 3788SOL    HW122823   1.847   2.150   8.727  1.6106  1.8221 -0.5452
 3788SOL    HW222824   1.844   2.133   8.576 -1.4088  0.2466 -0.4855
 3789SOL     OW22825   4.271   4.286   7.470  0.0576  0.4328 -0.4204
 3789SOL    HW122826   4.319   4.203   7.473 -0.0612  0.3758 -0.0913
 3789SOL    HW222827   4.218   4.280   7.550 -1.6194  2.6521 -1.3961
 3790SOL     OW22828   4.162   4.209   9.277 -0.4190  0.2258 -0.3639
 3790SOL    HW122829   4.256   4.217   9.290 -0.5798 -0.4370  1.2052
 3790SOL    HW222830   4.140   4.136   9.335 -0.7153  0.1583 -0.5583
 3791SOL     OW22831   2.639   4.329   4.578  0.3291 -0.1035  0.3817
 3791SOL    HW122832   2.583   4.319   4.501 -0.9817 -0.6444  1.3933
 3791SOL    HW222833   2.656   4.422   4.566 -0.4191  0.0210  0.2330
 3792SOL     OW22834   2.993   1.738   1.917  0.3802 -0.3245 -0.1983
 3792SOL    HW122835   3.077   1.692   1.917  1.3016  1.3688 -1.8738
 3792SOL    HW222836   3.013   1.832   1.916 -3.8335  0.5351 -2.9288
 3793SOL     OW22837   0.140   3.316   5.067  0.8079 -0.1158  0.1214
 3793SOL    HW122838   0.055   3.361   5.072  1.1595  0.6284 -0.8082
 3793SOL    HW222839   0.113   3.235   5.023 -0.2947  0.2019  0.1929
 3794SOL     OW22840   4.299   1.846   8.198 -0.0123  0.4396 -0.1167
 3794SOL    HW122841   4.262   1.929   8.228  1.1719  2.7160 -4.8900
 3794SOL    HW222842   4.350   1.808   8.269  0.2000  1.8519  0.4792
 3795SOL     OW22843   1.957   3.111   4.315  0.1755 -0.1819  0.2060
 3795SOL    HW122844   1.996   3.135   4.231 -1.0991  0.0471 -0.3188
 3795SOL    HW222845   1.875   3.078   4.279 -0.2819  0.2808  0.8378
 3796SOL     OW22846   0.317   1.547   1.313  0.6992 -0.3992 -0.4521
 3796SOL    HW122847   0.320   1.534   1.407 -1.3353 -0.3268 -0.3855
 3796SOL    HW222848   0.377   1.621   1.300 -0.7504  0.8516 -0.1048
 3797SOL     OW22849   4.444   2.637   8.128 -0.5490 -0.4443  0.6316
 3797SOL    HW122850   4.406   2.676   8.050  0.3694 -1.6666 -0.4181
 3797SOL    HW222851   4.390   2.558   8.129 -1.3110  0.0675 -0.0094
 3798SOL     OW22852   3.356   4.003  15.599 -0.7604  0.0607 -0.5674
 3798SOL    HW122853   3.430   4.063  15.597 -0.2569 -0.5399  0.3188
 3798SOL    HW222854   3.358   3.987  15.504 -0.4938 -0.0548 -0.5406
 3799SOL     OW22855   3.771   4.235   7.978 -0.0927  0.3625  0.2175
 3799SOL    HW122856   3.680   4.220   7.952 -0.2416  0.6342  0.5876
 3799SOL    HW222857   3.815   4.150   7.976 -1.3955 -0.3052 -0.0817
 3800SOL     OW22858   3.353   3.234   8.468  0.2282 -0.2803  0.0418
 3800SOL    HW122859   3.335   3.299   8.536  0.8138  0.4037 -0.4503
 3800SOL    HW222860   3.308   3.162   8.512  0.2721  0.8988  2.0306
 3801SOL     OW22861   3.498   4.621   8.798  0.4715 -0.2082  0.1212
 3801SOL    HW122862   3.586   4.593   8.772  0.8463 -0.0440  1.2582
 3801SOL    HW222863   3.508   4.632   8.892  0.1489  1.1850 -0.0139
 3802SOL     OW22864   3.983   4.616  10.668 -0.5848  0.5054 -0.2891
 3802SOL    HW122865   4.030   4.584  10.591 -0.6937  2.2595 -1.0900
 3802SOL    HW222866   4.016   4.705  10.678 -3.8239  1.5335  0.9336
 3803SOL     OW22867   3.874   1.722   2.980  0.0171  0.1430  0.3015
 3803SOL    HW122868   3.907   1.789   2.920 -1.2866  0.1152 -0.4328
 3803SOL    HW222869   3.839   1.650   2.929  0.3318 -0.2340  0.6161
 3804SOL     OW22870   2.552   4.150  10.119  0.4033  0.2333 -0.1194
 3804SOL    HW122871   2.539   4.056  10.130  0.0546  0.1770 -0.9729
 3804SOL    HW222872   2.521   4.181  10.204  2.3758  0.7121  0.4141
 3805SOL     OW22873   2.988   3.097   2.868  0.0868  0.1769 -0.0590
 3805SOL    HW122874   3.071   3.075   2.827  0.0695 -0.0104  0.0044
 3805SOL    HW222875   2.994   3.044   2.948 -0.4259 -2.6897 -1.9410
 3806SOL     OW22876   2.184   4.000   1.802  0.8649 -0.1788  0.1199
 3806SOL    HW122877   2.103   4.048   1.819  0.1800 -0.8104 -1.3488
 3806SOL    HW222878   2.162   3.953   1.721 -1.4737 -1.2362  1.3430
 3807SOL     OW22879   1.920   1.188  16.012 -0.4016  0.1446 -0.8064
 3807SOL    HW122880   1.833   1.151  16.027 -0.9462  0.8184 -2.3136
 3807SOL    HW222881   1.904   1.280  16.033 -0.5875 -0.1559  0.3942
 3808SOL     OW22882   2.665   4.470   3.547 -0.0314  0.6254  0.2317
 3808SOL    HW122883   2.597   4.405   3.567 -0.4588  0.7346 -0.8787
 3808SOL    HW222884   2.687   4.440   3.459  2.4623 -1.2424  1.4634
 3809SOL     OW22885   4.101   3.701  15.421 -0.2225 -0.3884  0.5945
 3809SOL    HW122886   4.180   3.707  15.368  0.3546  0.3763  1.5458
 3809SOL    HW222887   4.125   3.620  15.467  2.2423 -0.3890 -0.6632
 3810SOL     OW22888   4.442   3.953  11.119 -0.3208  0.2640  0.1744
 3810SOL    HW122889   4.426   4.037  11.163  0.2635  0.8933 -0.8363
 3810SOL    HW222890   4.533   3.953  11.149 -0.4235 -0.1466  0.5008
 3811SOL     OW22891   2.323   3.236   7.350 -0.0279  0.1828  0.5709
 3811SOL    HW122892   2.286   3.163   7.400 -1.6413  0.7086  0.1419
 3811SOL    HW222893   2.244   3.286   7.331  0.4627  0.3718 -1.0062
 3812SOL     OW22894   3.908   1.020  14.234 -0.4745 -0.7905  0.2526
 3812SOL    HW122895   3.863   1.028  14.150  1.3682  0.0888 -0.6346
 3812SOL    HW222896   3.903   1.105  14.276 -1.7065  0.0193 -1.5421
 3813SOL     OW22897   1.202   3.179   8.075 -0.1768 -1.0107  0.4677
 3813SOL    HW122898   1.124   3.189   8.130 -1.1756 -2.7431 -0.6198
 3813SOL    HW222899   1.147   3.180   7.997  0.3199  3.1302  0.1632
 3814SOL     OW22900   3.682   4.653   1.859  0.4566  0.2983 -0.4785
 3814SOL    HW122901   3.713   4.589   1.922 -0.6825  0.6680  0.4737
 3814SOL    HW222902   3.706   4.616   1.774  3.2513  1.5960 -0.2595
 3815SOL     OW22903   3.588   3.417   4.902  0.3409 -0.4198  0.2199
 3815SOL    HW122904   3.559   3.331   4.935  0.9789 -0.6159  0.2733
 3815SOL    HW222905   3.676   3.431   4.936 -1.1142  2.0759  2.9589
 3816SOL     OW22906   0.011   1.109  15.459  0.7650 -0.5068 -0.6977
 3816SOL    HW122907   4.721   1.106  15.554  1.0714 -0.6632 -0.6533
 3816SOL    HW222908   0.096   1.067  15.452  1.0031 -0.0243 -0.7211
 3817SOL     OW22909   2.836   0.337  16.671  0.0484 -0.0203 -0.0841
 3817SOL    HW122910   2.915   0.291  16.642 -0.0786  0.2672 -0.8948
 3817SOL    HW222911   2.804   0.280  16.741 -0.3292 -0.0885 -0.3076
 3818SOL     OW22912   4.637   4.375   7.320 -0.2325 -0.0703 -0.1015
 3818SOL    HW122913   4.681   4.292   7.304 -0.0681  0.2502 -1.3080
 3818SOL    HW222914   4.645   4.409   7.231 -3.3717 -0.2572 -0.4483
 3819SOL     OW22915   1.739   2.417   9.660  0.0921  0.4747  0.4914
 3819SOL    HW122916   1.818   2.368   9.682  0.1199  0.8625  1.2757
 3819SOL    HW222917   1.741   2.485   9.727 -0.2677 -0.0042  0.9893
 3820SOL     OW22918   2.095   2.469   4.817 -0.4077  0.0066 -0.0634
 3820SOL    HW122919   2.135   2.550   4.849  0.7448  0.7077 -3.2398
 3820SOL    HW222920   2.152   2.449   4.742  0.5666  0.8395  0.4592
 3821SOL     OW22921   1.921   2.142   9.143  0.0991  0.0484  0.1068
 3821SOL    HW122922   2.006   2.142   9.186  0.6638  1.5679 -1.0055
 3821SOL    HW222923   1.920   2.204   9.070 -0.5672 -0.3575 -0.2341
 3822SOL     OW22924   1.085   4.681  15.274  0.4065  0.2198 -0.6629
 3822SOL    HW122925   1.044   0.023  15.327  1.9380 -0.2198  1.0890
 3822SOL    HW222926   1.011   4.663  15.215  0.7804  0.2216 -1.1357
 3823SOL     OW22927   2.623   2.832  16.572 -0.0533  0.3388 -0.6369
 3823SOL    HW122928   2.593   2.896  16.636 -2.1218 -1.1106 -0.1316
 3823SOL    HW222929   2.614   2.882  16.491  2.4570  1.3446 -0.2784
 3824SOL     OW22930   2.015   1.441   1.783 -0.1335 -0.4492  0.1908
 3824SOL    HW122931   1.968   1.390   1.849 -0.5403  1.3756  1.2834
 3824SOL    HW222932   1.935   1.483   1.750  0.4273 -0.3817 -1.1076
 3825SOL     OW22933   1.457   0.029   7.149 -0.0479  0.1363  0.6711
 3825SOL    HW122934   1.390   0.089   7.114 -0.0681 -1.2216 -1.6722
 3825SOL    HW222935   1.522   0.042   7.079 -0.8842  1.4696  0.1259
 3826SOL     OW22936   0.952   2.347   5.515  0.2146  0.4347  0.1849
 3826SOL    HW122937   0.897   2.415   5.476 -0.8328  0.1018  1.0900
 3826SOL    HW222938   0.931   2.352   5.608  3.3351  0.8650  0.8697
 3827SOL     OW22939   3.325   2.922  16.241  1.2858 -0.5163 -0.1514
 3827SOL    HW122940   3.362   2.834  16.240 -1.5427 -1.7191 -0.1274
 3827SOL    HW222941   3.402   2.972  16.217  0.7067  1.0406  1.2153
 3828SOL     OW22942   2.400   0.522   4.592  0.6650 -0.5125 -0.3120
 3828SOL    HW122943   2.354   0.555   4.669  2.3834  1.3023 -0.0545
 3828SOL    HW222944   2.364   0.434   4.584 -2.1674  0.4794  1.5334
 3829SOL     OW22945   0.706   0.442   7.954 -0.0995  0.0515 -0.2992
 3829SOL    HW122946   0.747   0.385   7.889 -0.1007 -0.9026  0.5297
 3829SOL    HW222947   0.649   0.380   8.001  0.4148  0.1584  0.4681
 3830SOL     OW22948   2.470   2.157   1.502  0.5760 -0.1885 -0.4142
 3830SOL    HW122949   2.526   2.173   1.578  1.1533 -1.2298 -0.6093
 3830SOL    HW222950   2.431   2.072   1.526 -1.2257  0.6802 -0.3128
 3831SOL     OW22951   2.437   1.662   3.646 -0.1193 -0.1984  0.0599
 3831SOL    HW122952   2.459   1.750   3.677  0.9837 -0.2140 -0.6893
 3831SOL    HW222953   2.369   1.631   3.707 -0.6059 -0.0666 -0.4165
 3832SOL     OW22954   3.690   0.885   7.028  0.1070 -0.3050 -0.2211
 3832SOL    HW122955   3.719   0.850   7.112  1.6615 -2.0248 -1.4638
 3832SOL    HW222956   3.725   0.830   6.958 -1.0376 -1.0528 -0.2067
 3833SOL     OW22957   3.125   1.237   0.911 -0.0158  0.0311 -0.7277
 3833SOL    HW122958   3.130   1.190   0.828  1.8222 -2.0869  0.5681
 3833SOL    HW222959   3.066   1.309   0.892 -0.8024 -0.3731  0.1793
 3834SOL     OW22960   2.394   3.749   6.153  0.6621 -0.0058 -0.0417
 3834SOL    HW122961   2.382   3.659   6.182  0.7522 -0.3639 -1.1260
 3834SOL    HW222962   2.456   3.738   6.081 -0.1594 -2.3603 -0.3654
 3835SOL     OW22963   2.003   4.643   7.894 -0.0980  0.1048 -0.4612
 3835SOL    HW122964   1.938   4.613   7.958 -0.7325  0.0274 -1.1388
 3835SOL    HW222965   2.050   4.709   7.945  0.4087 -0.5770 -0.0558
 3836SOL     OW22966   1.023   1.988  10.610  0.5398  0.1021 -0.2906
 3836SOL    HW122967   0.987   1.994  10.522 -0.7782 -0.6503  0.2053
 3836SOL    HW222968   1.042   1.895  10.608  0.8696  0.1681 -0.2766
 3837SOL     OW22969   1.471   2.465   7.277  0.5616 -0.1541 -0.4812
 3837SOL    HW122970   1.500   2.468   7.186  3.5078  0.7123  0.4674
 3837SOL    HW222971   1.377   2.471   7.265  0.3314 -2.3778  0.1799
 3838SOL     OW22972   4.533   3.629   2.569 -0.6207 -0.4758 -0.4365
 3838SOL    HW122973   4.487   3.671   2.497  2.5286  3.0259 -0.3833
 3838SOL    HW222974   4.594   3.570   2.524  0.6683  0.2389  0.3647
 3839SOL     OW22975   3.748   2.108  13.725  0.3387 -0.2113  0.4661
 3839SOL    HW122976   3.667   2.140  13.763  2.6516  2.1062  3.4448
 3839SOL    HW222977   3.735   2.117  13.630  0.0447 -0.9459  0.4352
 3840SOL     OW22978   3.735   1.104   4.985 -0.1439  0.0253 -0.1558
 3840SOL    HW122979   3.684   1.078   5.061  3.3217 -1.7016  1.5608
 3840SOL    HW222980   3.811   1.151   5.020  1.5862 -2.5445 -0.5002
 3841SOL     OW22981   0.105   0.973  16.573  0.1139 -0.4224  0.5950
 3841SOL    HW122982   0.020   0.931  16.586 -0.4447  0.6361  0.3964
 3841SOL    HW222983   0.142   0.972  16.661 -0.6187  1.0935  0.9227
 3842SOL     OW22984   4.321   0.902   6.872  0.0376  0.2556 -0.0400
 3842SOL    HW122985   4.364   0.893   6.957  0.7373  0.5348 -0.3626
 3842SOL    HW222986   4.228   0.895   6.893 -0.3473  2.9226 -0.8803
 3843SOL     OW22987   2.462   1.635  13.851  0.5425  0.0808  0.3857
 3843SOL    HW122988   2.467   1.706  13.914  0.5774 -0.2184  0.7144
 3843SOL    HW222989   2.405   1.681  13.788 -0.8609  0.7186  2.1297
 3844SOL     OW22990   4.703   3.061   6.555  0.2955  0.0876 -1.0603
 3844SOL    HW122991   4.683   3.086   6.645  1.3989  1.1666 -1.1206
 3844SOL    HW222992   0.061   3.016   6.562  0.7366  0.7405 -2.1034
 3845SOL     OW22993   4.719   2.126   9.565  0.3180  0.3598 -0.6989
 3845SOL    HW122994   0.075   2.168   9.587  2.6173 -3.7782 -1.4580
 3845SOL    HW222995   4.665   2.159   9.637  1.4974  2.1181 -0.6456
 3846SOL     OW22996   2.735   4.470   8.051 -0.5168  0.0279  0.4129
 3846SOL    HW122997   2.788   4.403   8.008 -0.2625  0.7916 -0.4299
 3846SOL    HW222998   2.766   4.470   8.142 -1.4657 -1.2868  0.7485
 3847SOL     OW22999   3.736   1.412   6.889 -0.1367 -0.1640 -0.3615
 3847SOL    HW123000   3.670   1.352   6.923  3.1163 -3.1550  0.6437
 3847SOL    HW223001   3.686   1.482   6.847 -0.9237 -1.6580 -1.8754
 3848SOL     OW23002   2.389   4.424   5.454 -0.0965  0.1318 -0.0400
 3848SOL    HW123003   2.439   4.343   5.441  0.4991  0.2957  1.1704
 3848SOL    HW223004   2.312   4.398   5.504 -0.0875 -0.2463 -0.2177
 3849SOL     OW23005   0.304   0.737   0.120  0.5490 -0.0550  0.0266
 3849SOL    HW123006   0.216   0.747   0.083  0.1621  0.9814  1.2131
 3849SOL    HW223007   0.355   0.762   0.043  1.5687 -0.7614  0.4809
 3850SOL     OW23008   0.095   4.665  10.366 -0.0280  0.3765  0.1915
 3850SOL    HW123009   0.105   0.002  10.438  1.2572  0.2873  0.1009
 3850SOL    HW223010   0.024   4.612  10.401 -0.0068 -0.9298 -1.7673
 3851SOL     OW23011   3.341   3.824   2.002  0.0057 -0.3666 -0.2500
 3851SOL    HW123012   3.263   3.878   2.011  1.2769  1.2315  1.0478
 3851SOL    HW223013   3.349   3.799   2.094  0.8388 -1.7545 -0.6918
 3852SOL     OW23014   4.142   1.471  11.264 -0.2833 -0.1744  0.5318
 3852SOL    HW123015   4.085   1.459  11.188  1.9690  1.7522 -1.4704
 3852SOL    HW223016   4.222   1.419  11.251  1.5642  2.8387 -0.0794
 3853SOL     OW23017   0.834   0.425   3.304 -0.1256  0.4624 -0.1219
 3853SOL    HW123018   0.884   0.445   3.383 -1.2299  0.4807  0.5754
 3853SOL    HW223019   0.837   0.330   3.309  0.4877  0.4364 -1.0827
 3854SOL     OW23020   4.348   2.461  15.778  0.0717 -0.1640  0.1595
 3854SOL    HW123021   4.370   2.368  15.769  1.5751  0.3627 -1.4721
 3854SOL    HW223022   4.417   2.492  15.836 -0.1743 -0.4050  0.5832
 3855SOL     OW23023   2.733   3.896   5.393  0.6113 -0.3442 -0.4190
 3855SOL    HW123024   2.781   3.979   5.398 -1.4073  0.6368  2.6791
 3855SOL    HW223025   2.651   3.941   5.372  2.7050  2.6877 -2.1015
 3856SOL     OW23026   4.289   4.559   3.353  0.0444  0.0713  0.1568
 3856SOL    HW123027   4.300   4.464   3.354 -1.3964 -0.0896 -0.0264
 3856SOL    HW223028   4.353   4.584   3.286 -0.2393 -0.0812 -0.1682
 3857SOL     OW23029   1.421   1.601  13.486  0.0730 -0.1778  0.8429
 3857SOL    HW123030   1.466   1.657  13.423 -2.1031  1.7632  1.0430
 3857SOL    HW223031   1.498   1.576  13.537  1.7833 -0.3059 -1.8065
 3858SOL     OW23032   1.813   0.789   7.039  0.1955  0.0913 -0.0320
 3858SOL    HW123033   1.824   0.696   7.060  0.9606 -0.1115 -1.2843
 3858SOL    HW223034   1.898   0.832   7.031 -0.3605  1.3533  0.8825
 3859SOL     OW23035   0.631   3.788   8.496 -0.0319 -0.2995  0.4044
 3859SOL    HW123036   0.541   3.779   8.525 -0.7208  1.7294 -1.0965
 3859SOL    HW223037   0.680   3.728   8.552  1.9178 -0.6286 -1.6700
 3860SOL     OW23038   3.184   0.209   4.714 -0.0401  0.5908  0.5888
 3860SOL    HW123039   3.256   0.233   4.656 -1.0555  0.2008 -0.8019
 3860SOL    HW223040   3.169   0.119   4.689 -1.2480  0.9595  0.0113
 3861SOL     OW23041   0.845   4.454   4.168  0.0123  0.2052  0.0400
 3861SOL    HW123042   0.870   4.445   4.260  2.9487 -0.9954 -0.8597
 3861SOL    HW223043   0.916   4.402   4.129 -0.7050 -1.6207  1.1811
 3862SOL     OW23044   4.617   0.850  11.784  0.4996 -0.1598  0.0267
 3862SOL    HW123045   4.643   0.794  11.710 -0.6643 -2.6336  1.4900
 3862SOL    HW223046   4.678   0.817  11.850  0.0525  1.5564  1.2883
 3863SOL     OW23047   1.552   3.763   9.860 -0.7825  0.7913  0.4872
 3863SOL    HW123048   1.617   3.789   9.925  0.0059  1.0179 -0.4093
 3863SOL    HW223049   1.510   3.848   9.843  0.0464  1.1206  0.1116
 3864SOL     OW23050   2.508   0.004   5.870  0.0682  0.0336 -0.2429
 3864SOL    HW123051   2.431   4.683   5.901 -0.0512  0.6850  0.4482
 3864SOL    HW223052   2.567   4.654   5.872 -1.2799 -1.0190 -0.7134
 3865SOL     OW23053   1.694   0.734   8.796  0.1751  0.1513  0.1948
 3865SOL    HW123054   1.788   0.731   8.809 -0.1005 -1.2824  1.8804
 3865SOL    HW223055   1.674   0.826   8.812 -0.9820 -0.7549  4.0651
 3866SOL     OW23056   2.839   0.774  11.911  0.1498  0.1894  0.3324
 3866SOL    HW123057   2.924   0.810  11.887  1.1048 -3.1725 -1.3662
 3866SOL    HW223058   2.787   0.839  11.958 -0.6146  0.7521 -1.2766
 3867SOL     OW23059   1.639   0.783   1.955 -0.2070  0.0570  0.3233
 3867SOL    HW123060   1.670   0.728   1.883 -0.4703 -1.8323  1.6455
 3867SOL    HW223061   1.562   0.829   1.922  0.9572  1.0820 -0.9243
 3868SOL     OW23062   4.467   3.417  15.250  0.3354 -0.2336  0.2967
 3868SOL    HW123063   4.414   3.372  15.315  0.8050 -0.1066  0.7753
 3868SOL    HW223064   4.448   3.505  15.282 -1.6740 -0.8404  0.7066
 3869SOL     OW23065   2.378   4.380   2.332 -0.4223 -0.1648 -0.1383
 3869SOL    HW123066   2.329   4.313   2.284 -0.5728  0.9607 -1.5367
 3869SOL    HW223067   2.336   4.458   2.297 -1.0125 -0.3131  0.2383
 3870SOL     OW23068   4.225   0.288   9.654 -0.1905 -0.1330 -0.3031
 3870SOL    HW123069   4.143   0.326   9.687 -0.3165  0.6329 -1.5182
 3870SOL    HW223070   4.197   0.199   9.636 -0.3228  0.2476 -1.9459
 3871SOL     OW23071   3.825   3.216   5.583  0.4098 -0.3974 -0.4278
 3871SOL    HW123072   3.883   3.286   5.611 -0.8000 -0.2467  1.6825
 3871SOL    HW223073   3.868   3.175   5.508  0.1131 -0.4517 -0.5707
 3872SOL     OW23074   2.017   0.641   6.345  0.1399  0.2160  0.5134
 3872SOL    HW123075   2.107   0.675   6.353  0.1929  0.9333 -3.1122
 3872SOL    HW223076   1.985   0.682   6.265 -0.5622  0.4765  0.9373
 3873SOL     OW23077   2.911   1.333   1.185  1.0293  0.0708  0.5843
 3873SOL    HW123078   2.953   1.387   1.251  0.6956 -1.1851  1.8286
 3873SOL    HW223079   2.960   1.251   1.181  0.0196 -0.5039  0.0140
 3874SOL     OW23080   3.025   2.061   4.829  0.0713 -0.4324  0.6575
 3874SOL    HW123081   3.072   2.143   4.846  0.7928 -0.9130  0.9903
 3874SOL    HW223082   3.088   1.993   4.853 -0.1440 -0.7220  0.4027
 3875SOL     OW23083   0.804   1.895   7.535 -0.3398 -0.3524 -0.3583
 3875SOL    HW123084   0.774   1.806   7.522 -1.0843 -0.7446  4.0097
 3875SOL    HW223085   0.850   1.879   7.618 -0.9462  0.9506  0.2334
 3876SOL     OW23086   3.303   0.753  14.438 -0.1681 -0.3311 -0.9134
 3876SOL    HW123087   3.307   0.658  14.442 -0.3586 -0.2407  1.2847
 3876SOL    HW223088   3.227   0.767  14.495  0.9857  1.8450  0.0828
 3877SOL     OW23089   4.434   0.814   3.390  0.2648 -0.4576 -0.2483
 3877SOL    HW123090   4.370   0.864   3.440 -0.0600 -0.1822 -0.9315
 3877SOL    HW223091   4.511   0.822   3.446  1.1101  0.5300 -1.5527
 3878SOL     OW23092   1.186   1.904   2.910  0.1416  0.0484 -0.4752
 3878SOL    HW123093   1.118   1.922   2.975 -0.9558  1.1069 -1.9050
 3878SOL    HW223094   1.255   1.880   2.971  0.3570 -1.1211 -1.1717
 3879SOL     OW23095   4.044   1.479  14.276  0.2638  0.5169  0.2172
 3879SOL    HW123096   4.101   1.414  14.235  0.8944  1.3932 -0.3093
 3879SOL    HW223097   3.979   1.421  14.315 -0.9368  1.5219 -0.3067
 3880SOL     OW23098   1.024   0.374   1.851 -0.1869 -1.0031 -0.4265
 3880SOL    HW123099   1.115   0.392   1.827 -0.6119  0.0532 -1.2362
 3880SOL    HW223100   0.982   0.459   1.835  2.2182 -0.2713 -2.6533
 3881SOL     OW23101   4.460   3.802   0.907  0.2707  0.0303  0.4357
 3881SOL    HW123102   4.386   3.741   0.909 -1.3301  2.0025  1.5250
 3881SOL    HW223103   4.416   3.870   0.958  0.2627  1.2887 -1.2634
 3882SOL     OW23104   1.858   4.582   5.813 -0.0817  0.2520 -0.4946
 3882SOL    HW123105   1.875   4.523   5.887 -1.6248  1.4937  0.8642
 3882SOL    HW223106   1.763   4.575   5.799 -0.3885  0.9893  1.1522
 3883SOL     OW23107   4.160   3.038   6.791  0.0601 -0.1278  0.1467
 3883SOL    HW123108   4.206   3.003   6.867  1.4217 -0.2165 -0.7314
 3883SOL    HW223109   4.120   2.955   6.764  1.5984 -0.7190 -0.3186
 3884SOL     OW23110   0.520   3.643  16.183 -0.2107  0.3583  0.2357
 3884SOL    HW123111   0.446   3.653  16.124  0.5498 -0.7504 -0.9020
 3884SOL    HW223112   0.507   3.550  16.202  0.3401  0.6147  1.8954
 3885SOL     OW23113   4.344   3.188  10.300 -0.6844  0.8226 -0.3814
 3885SOL    HW123114   4.280   3.259  10.306 -0.6805  0.7830  0.1517
 3885SOL    HW223115   4.306   3.124  10.240 -1.3227 -1.7297  2.7290
 3886SOL     OW23116   4.005   0.979  11.161  0.3923  0.5463  0.2470
 3886SOL    HW123117   4.038   1.069  11.159  0.4547  0.4322 -2.7948
 3886SOL    HW223118   4.060   0.956  11.236 -1.6031  0.4424  1.6916
 3887SOL     OW23119   0.691   0.706   3.664 -0.0337  0.8636  0.1243
 3887SOL    HW123120   0.597   0.701   3.682 -0.0726  1.1574  0.0025
 3887SOL    HW223121   0.711   0.796   3.688  1.0253  1.2077 -2.0686
 3888SOL     OW23122   3.268   1.953   2.838  0.4904  0.0044 -0.0295
 3888SOL    HW123123   3.184   1.937   2.794 -0.1524  1.4405  0.6906
 3888SOL    HW223124   3.309   2.012   2.775 -0.3727  1.1653  0.4927
 3889SOL     OW23125   0.129   3.902   6.967  0.1556 -0.9356 -0.6730
 3889SOL    HW123126   0.135   3.942   6.880  0.0389  1.4933  0.4374
 3889SOL    HW223127   0.221   3.911   6.992  0.5503 -1.3912 -1.9384
 3890SOL     OW23128   4.020   1.203  10.490 -0.4622 -0.3833 -1.0301
 3890SOL    HW123129   4.107   1.240  10.476 -0.8992  0.9527 -0.1406
 3890SOL    HW223130   3.989   1.203  10.399  1.8515  1.5557 -1.8169
 3891SOL     OW23131   1.811   2.569   9.904 -0.3535  0.0523  0.3348
 3891SOL    HW123132   1.840   2.486   9.941  1.7480  0.3272 -0.7213
 3891SOL    HW223133   1.732   2.587   9.955  0.5783 -0.3551  1.8919
 3892SOL     OW23134   2.805   0.752   8.442 -0.3356  0.4302  0.4816
 3892SOL    HW123135   2.853   0.777   8.521  1.5777 -0.7122 -0.3240
 3892SOL    HW223136   2.877   0.708   8.396  0.3578 -0.6950  2.6352
 3893SOL     OW23137   0.090   0.120   9.593  0.4027  0.1071 -0.0537
 3893SOL    HW123138   4.724   0.100   9.612 -0.2420  1.6197 -1.5445
 3893SOL    HW223139   0.138   0.059   9.649 -0.3420  1.0030  1.5550
 3894SOL     OW23140   3.265   1.162   5.504  0.0605 -0.1404 -0.0629
 3894SOL    HW123141   3.314   1.194   5.580  2.2091  1.3319 -2.0856
 3894SOL    HW223142   3.304   1.076   5.490 -1.5541 -0.8837  0.0508
 3895SOL     OW23143   2.200   3.306   5.976 -0.0781 -0.4306 -0.0479
 3895SOL    HW123144   2.176   3.364   5.904 -1.7368 -0.5219  0.4265
 3895SOL    HW223145   2.290   3.286   5.954 -0.4600  0.0264 -2.0051
 3896SOL     OW23146   2.865   0.571   4.071 -0.0732  0.5845  0.2596
 3896SOL    HW123147   2.793   0.631   4.086 -0.7244 -0.2204  0.3672
 3896SOL    HW223148   2.906   0.619   3.999  1.6501  0.0404  0.8668
 3897SOL     OW23149   1.226   4.532   8.564 -0.4036  0.1838  0.3031
 3897SOL    HW123150   1.148   4.587   8.562  0.5618  1.5599  0.5754
 3897SOL    HW223151   1.292   4.600   8.579 -0.7072  0.1867  1.6437
 3898SOL     OW23152   1.690   1.363   4.959 -0.1842  0.8611  0.3719
 3898SOL    HW123153   1.784   1.346   4.960 -0.2646  0.4148  2.0877
 3898SOL    HW223154   1.647   1.340   4.877  1.7011 -2.0043  0.1863
 3899SOL     OW23155   4.579   3.667   7.969  0.1746  0.2079 -0.0968
 3899SOL    HW123156   4.666   3.697   7.942 -0.5838  2.7148  0.2963
 3899SOL    HW223157   4.521   3.743   7.977  1.0753  1.0669 -1.6181
 3900SOL     OW23158   3.754   4.254   7.105  0.2280  0.7303  0.1546
 3900SOL    HW123159   3.741   4.322   7.040 -0.1133  1.0116  0.5215
 3900SOL    HW223160   3.821   4.203   7.058 -0.3353 -0.8596  1.0617
 3901SOL     OW23161   4.681   0.771  12.076  0.2781  0.3268 -0.4383
 3901SOL    HW123162   0.047   0.777  12.050  0.6151  3.7707  1.5148
 3901SOL    HW223163   4.674   0.860  12.112 -0.3664  0.5902 -1.2266
 3902SOL     OW23164   3.713   0.688   9.119  0.8744 -0.1760 -0.0391
 3902SOL    HW123165   3.702   0.749   9.192  1.4649  0.1391 -0.2116
 3902SOL    HW223166   3.762   0.621   9.166 -0.3398 -1.3501 -0.4352
 3903SOL     OW23167   3.621   0.836   8.609 -0.1153  0.2028  0.0371
 3903SOL    HW123168   3.650   0.908   8.666 -1.9220  0.6302  0.4148
 3903SOL    HW223169   3.558   0.801   8.672 -0.1328  2.2465  1.1541
 3904SOL     OW23170   0.509   1.701   6.682 -0.4082 -0.5126  0.3005
 3904SOL    HW123171   0.448   1.775   6.685  1.1489  0.8354 -1.1137
 3904SOL    HW223172   0.453   1.628   6.707  0.8044 -0.8909  1.9631
 3905SOL     OW23173   3.915   1.137  12.295  0.1783  0.1936  0.0475
 3905SOL    HW123174   3.889   1.066  12.353 -2.6581  1.2165  0.0416
 3905SOL    HW223175   3.911   1.092  12.211 -0.2037  1.0981 -0.4261
 3906SOL     OW23176   0.204   3.803   9.131  0.2234  0.3150  0.2596
 3906SOL    HW123177   0.138   3.733   9.133 -0.0553  0.6009  0.8167
 3906SOL    HW223178   0.253   3.807   9.213  0.0406 -1.4201  0.4526
 3907SOL     OW23179   4.692   2.873   7.470 -0.0719 -0.1836 -0.8338
 3907SOL    HW123180   4.685   2.968   7.484 -0.8659 -0.3480 -0.0877
 3907SOL    HW223181   0.043   2.873   7.413  0.4631 -1.1237 -0.1084
 3908SOL     OW23182   0.462   2.553   5.652  0.2756 -0.1592 -0.0888
 3908SOL    HW123183   0.479   2.480   5.592 -1.7185 -0.5306 -0.1953
 3908SOL    HW223184   0.450   2.615   5.580  1.9933  0.5580  0.2536
 3909SOL     OW23185   1.573   2.084   4.781  0.4730  0.4760 -0.5153
 3909SOL    HW123186   1.665   2.093   4.757  0.7743  0.7871  0.7621
 3909SOL    HW223187   1.551   2.022   4.712 -1.5575 -0.1239  0.6677
 3910SOL     OW23188   2.313   4.422  10.262 -0.4282  0.4457 -0.2265
 3910SOL    HW123189   2.273   4.383  10.340 -0.7637  0.8690 -0.1874
 3910SOL    HW223190   2.247   4.490  10.253 -0.3651  0.6556  0.8878
 3911SOL     OW23191   1.608   1.563   5.571  0.3647  0.0281  0.2033
 3911SOL    HW123192   1.673   1.507   5.529 -0.6154 -0.8193 -0.1657
 3911SOL    HW223193   1.609   1.533   5.661 -2.4924  1.6166  0.7525
 3912SOL     OW23194   3.705   3.390   6.063  0.2152  0.8687  0.4944
 3912SOL    HW123195   3.699   3.443   5.983  0.6377  0.9913  0.5393
 3912SOL    HW223196   3.794   3.359   6.079 -0.0665  0.3022  0.9276
 3913SOL     OW23197   4.653   2.902   9.503  0.2316  0.2976  0.0936
 3913SOL    HW123198   4.565   2.868   9.485 -1.0822  3.1832  0.9864
 3913SOL    HW223199   4.660   2.885   9.596 -1.8395 -0.7722  0.0657
 3914SOL     OW23200   2.680   0.501   5.182  0.5372 -0.2562  0.5310
 3914SOL    HW123201   2.677   0.509   5.277  1.5082 -0.3090  0.5705
 3914SOL    HW223202   2.757   0.552   5.155  0.9625 -1.2346 -0.1326
 3915SOL     OW23203   1.443   3.299  14.328 -0.1730  0.0381  0.5102
 3915SOL    HW123204   1.468   3.377  14.278 -2.1121  0.1216 -0.3355
 3915SOL    HW223205   1.439   3.229  14.263  1.2393 -0.9330  1.4794
 3916SOL     OW23206   2.506   2.847   5.483 -0.1608 -0.5127 -0.0705
 3916SOL    HW123207   2.429   2.887   5.442  1.7240  1.5744 -1.6364
 3916SOL    HW223208   2.549   2.834   5.398  1.7773  0.1434  0.8200
 3917SOL     OW23209   1.603   2.933   5.975  0.3272  0.4787  0.0061
 3917SOL    HW123210   1.625   2.850   6.017  1.7828  1.8702  2.0259
 3917SOL    HW223211   1.518   2.913   5.935  1.2438 -1.0377 -1.1920
 3918SOL     OW23212   0.757   0.665  12.686 -0.5768 -0.4132  0.2189
 3918SOL    HW123213   0.664   0.658  12.665 -0.7188  0.3344  0.6346
 3918SOL    HW223214   0.791   0.632  12.602 -1.0303  1.0376 -0.5253
 3919SOL     OW23215   3.103   4.491   1.325  0.3744 -0.1698  0.0600
 3919SOL    HW123216   3.101   4.423   1.392  0.5878 -2.1596 -1.9670
 3919SOL    HW223217   3.016   4.485   1.286  1.3396 -2.9127 -1.6507
 3920SOL     OW23218   0.744   1.910   2.080  0.0551 -0.3369 -0.2077
 3920SOL    HW123219   0.697   1.992   2.069 -0.9279 -0.7404  1.0092
 3920SOL    HW223220   0.721   1.865   1.999 -1.3235  0.4091 -0.2290
 3921SOL     OW23221   0.711   3.112   7.352 -0.2855 -0.0114 -0.7319
 3921SOL    HW123222   0.746   3.063   7.277 -0.5459  0.5716 -1.2409
 3921SOL    HW223223   0.618   3.090   7.343 -0.2862 -0.1347 -0.3951
 3922SOL     OW23224   1.366   2.752   6.659  0.3414 -0.2542  0.1077
 3922SOL    HW123225   1.325   2.755   6.746  0.3425 -2.1618  0.1767
 3922SOL    HW223226   1.337   2.835   6.621  0.0013 -0.3569  0.1374
 3923SOL     OW23227   0.224   2.587   6.750  0.4097 -0.1600 -0.2080
 3923SOL    HW123228   0.152   2.536   6.788  2.4201  0.7803  4.8321
 3923SOL    HW223229   0.202   2.672   6.788  0.2798 -0.7487  1.0417
 3924SOL     OW23230   0.103   0.228  13.223  0.3057 -0.5542  0.5558
 3924SOL    HW123231   0.175   0.192  13.170 -0.2994 -3.2178  1.5604
 3924SOL    HW223232   0.120   0.190  13.309  1.3945 -2.1010 -0.3339
 3925SOL     OW23233   0.451   3.333   3.535 -0.1803 -0.8413  0.2423
 3925SOL    HW123234   0.430   3.373   3.451  0.9219  1.0874  0.8833
 3925SOL    HW223235   0.545   3.315   3.533 -0.2484 -1.0259 -1.3411
 3926SOL     OW23236   0.781   0.958   2.986  0.0521  0.1484  0.0084
 3926SOL    HW123237   0.767   1.052   3.000  0.9457  0.1576  0.8481
 3926SOL    HW223238   0.725   0.930   2.913  1.2594  1.8723 -1.5706
 3927SOL     OW23239   3.303   3.962   3.020 -0.1032  0.2762  0.1276
 3927SOL    HW123240   3.353   3.997   3.094  1.2234 -3.0349  0.7900
 3927SOL    HW223241   3.331   4.012   2.943 -1.6453  1.3153  0.2362
 3928SOL     OW23242   2.171   0.546   2.048 -0.7917  0.3107 -0.0406
 3928SOL    HW123243   2.117   0.618   2.016 -1.1600  0.5695  1.1514
 3928SOL    HW223244   2.263   0.573   2.037 -0.1756 -1.3226  1.0995
 3929SOL     OW23245   2.181   0.553   7.508 -0.2856  0.0211 -0.3924
 3929SOL    HW123246   2.276   0.558   7.510 -0.2230 -1.0684 -1.0003
 3929SOL    HW223247   2.166   0.467   7.548 -0.7275  1.1822  1.9487
 3930SOL     OW23248   3.439   1.256   4.073 -0.1003  0.3246  0.3394
 3930SOL    HW123249   3.413   1.274   3.982 -4.0450 -1.0989  1.1844
 3930SOL    HW223250   3.523   1.214   4.052  0.5966  1.6194  0.5694
 3931SOL     OW23251   0.613   1.451  10.855  0.6061  0.7942  0.4365
 3931SOL    HW123252   0.639   1.415  10.770  0.5713  0.9677  0.3530
 3931SOL    HW223253   0.600   1.369  10.903  3.1374  1.0418  1.5507
 3932SOL     OW23254   3.148   0.697   6.794 -0.3189  0.1113 -0.0563
 3932SOL    HW123255   3.239   0.713   6.816 -0.6288 -0.7955  1.9589
 3932SOL    HW223256   3.143   0.606   6.826 -0.4665  0.1365 -0.0069
 3933SOL     OW23257   2.263   1.981   3.635  0.1414  0.7016 -0.2856
 3933SOL    HW123258   2.311   2.010   3.557 -0.9189 -0.1079 -1.2468
 3933SOL    HW223259   2.335   1.942   3.683 -1.6555  0.1004  1.9364
 3934SOL     OW23260   4.717   2.180   1.041  0.1977 -0.1049  0.6449
 3934SOL    HW123261   0.046   2.167   0.964 -0.1315 -0.4724  0.4746
 3934SOL    HW223262   4.713   2.275   1.048 -0.3963  0.0446 -2.0024
 3935SOL     OW23263   1.332   3.057   0.812  0.5240  0.1049 -0.0730
 3935SOL    HW123264   1.410   3.034   0.762 -0.5313 -0.6795 -1.3475
 3935SOL    HW223265   1.273   3.084   0.741 -1.1652 -0.2059  1.2052
 3936SOL     OW23266   4.635   0.479   7.402  0.1604 -0.0468 -0.6820
 3936SOL    HW123267   4.722   0.515   7.419  0.0313 -0.5144  0.9536
 3936SOL    HW223268   4.642   0.394   7.444 -1.6504  0.7333  1.1661
 3937SOL     OW23269   1.451   0.111   9.727  0.6237 -0.2086 -0.6906
 3937SOL    HW123270   1.401   0.039   9.691  0.7119 -0.4244 -0.3857
 3937SOL    HW223271   1.385   0.140   9.791  1.6748  0.5882  0.0470
 3938SOL     OW23272   0.688   0.896  15.130  0.7268  0.0541 -0.2312
 3938SOL    HW123273   0.733   0.815  15.105 -1.4786 -0.5436 -2.3473
 3938SOL    HW223274   0.745   0.924  15.201  0.5110 -2.5611  0.9772
 3939SOL     OW23275   2.530   4.137  16.556  0.5374 -0.2508  0.0885
 3939SOL    HW123276   2.625   4.144  16.567  0.8703  0.4004 -3.0850
 3939SOL    HW223277   2.513   4.053  16.598  0.7025 -0.9092 -1.1402
 3940SOL     OW23278   0.734   0.347   8.691  0.0755  0.1138  0.3697
 3940SOL    HW123279   0.715   0.441   8.687  1.5099  0.4335  0.8302
 3940SOL    HW223280   0.825   0.352   8.663 -0.1406  0.0014 -0.3423
 3941SOL     OW23281   4.657   4.698  10.150 -0.2357  0.3918  0.0744
 3941SOL    HW123282   4.713   4.713  10.226 -1.4321 -2.1881  1.4946
 3941SOL    HW223283   4.573   4.695  10.196  0.2097 -0.1102  0.8563
 3942SOL     OW23284   3.844   1.872   0.391  0.0819  0.0752 -0.1731
 3942SOL    HW123285   3.909   1.938   0.365  0.4166  0.5692  1.8564
 3942SOL    HW223286   3.871   1.861   0.482  0.7372  1.3221 -0.2038
 3943SOL     OW23287   3.439   1.039   3.464  0.2644 -0.3046  0.1051
 3943SOL    HW123288   3.524   1.056   3.422 -0.3049  0.2251 -0.8093
 3943SOL    HW223289   3.415   0.962   3.412 -0.8769 -0.4733  0.9006
 3944SOL     OW23290   2.380   3.812  13.253 -0.1672  0.0782  0.3130
 3944SOL    HW123291   2.347   3.731  13.214 -1.5389  1.3569 -1.2097
 3944SOL    HW223292   2.301   3.839  13.301  1.0425  0.9113  1.8130
 3945SOL     OW23293   0.376   1.086   6.858  0.2136 -0.2670 -0.6633
 3945SOL    HW123294   0.304   1.027   6.837 -1.2840  1.4641 -0.3862
 3945SOL    HW223295   0.357   1.142   6.933 -1.4888  0.1257 -1.3870
 3946SOL     OW23296   2.385   2.175   5.453  0.1420  0.3598 -0.1242
 3946SOL    HW123297   2.417   2.116   5.385 -2.3696  0.0386 -1.0328
 3946SOL    HW223298   2.329   2.231   5.400 -0.3268 -0.0439 -0.0636
 3947SOL     OW23299   1.809   3.104   8.171 -0.2023  0.3097  0.4086
 3947SOL    HW123300   1.771   3.023   8.138  0.5857 -0.0381  0.3439
 3947SOL    HW223301   1.840   3.067   8.253 -0.0445 -0.6661 -0.0941
 3948SOL     OW23302   4.315   2.478  10.866 -0.0077 -0.2367 -0.0884
 3948SOL    HW123303   4.397   2.523  10.850 -2.5821  4.5884  0.1915
 3948SOL    HW223304   4.346   2.393  10.898  1.2862  0.6729  1.0874
 3949SOL     OW23305   2.871   0.450   6.800  0.3766 -0.2547  0.2215
 3949SOL    HW123306   2.883   0.360   6.829 -0.8317 -0.2316  0.7714
 3949SOL    HW223307   2.876   0.451   6.704 -0.2660  1.7338  0.2066
 3950SOL     OW23308   3.238   2.233  10.091  0.0276  0.5870 -0.4238
 3950SOL    HW123309   3.175   2.229  10.163 -0.5484 -0.2131 -0.9588
 3950SOL    HW223310   3.253   2.141  10.068 -0.7334  0.6135 -1.0454
 3951SOL     OW23311   0.502   3.907   7.279 -0.3241  0.6685 -0.1694
 3951SOL    HW123312   0.477   3.842   7.345 -0.4823  1.9805  1.0492
 3951SOL    HW223313   0.596   3.914   7.292  0.3410 -2.9971 -3.1894
 3952SOL     OW23314   1.235   2.296   5.523  0.2646 -0.2943 -0.4509
 3952SOL    HW123315   1.141   2.312   5.528  0.3211 -0.5839  1.6311
 3952SOL    HW223316   1.245   2.287   5.429  0.4705 -0.9150 -0.3631
 3953SOL     OW23317   1.249   2.492   1.625  0.0505  0.0607 -0.8108
 3953SOL    HW123318   1.279   2.515   1.713 -0.9295  0.0301 -0.4609
 3953SOL    HW223319   1.328   2.448   1.595  1.0633  0.5009  1.2054
 3954SOL     OW23320   1.477   3.915   4.534  0.3309  0.0776 -0.0683
 3954SOL    HW123321   1.438   3.838   4.573 -2.1578  0.2026 -2.3524
 3954SOL    HW223322   1.572   3.905   4.547  0.8016  1.1241 -2.6307
 3955SOL     OW23323   3.212   4.084   8.345 -0.2807  0.3778  0.0056
 3955SOL    HW123324   3.271   4.049   8.411 -1.2865 -1.5750 -0.1392
 3955SOL    HW223325   3.194   4.173   8.375  1.5033  1.2904 -1.6104
 3956SOL     OW23326   4.562   4.464   5.673  0.4680  0.2141  0.0198
 3956SOL    HW123327   4.611   4.542   5.649  2.9583 -1.1129  0.8127
 3956SOL    HW223328   4.513   4.502   5.745 -0.5683  0.7805 -0.9861
 3957SOL     OW23329   4.648   3.757   3.337  0.3095 -0.0188 -0.5686
 3957SOL    HW123330   4.590   3.690   3.373  0.5052 -0.3395 -0.8504
 3957SOL    HW223331   4.666   3.706   3.257 -0.0774  0.4475 -0.9518
 3958SOL     OW23332   1.503   2.320   7.511  0.4323  0.6028 -0.5125
 3958SOL    HW123333   1.431   2.363   7.557 -0.0248 -0.1437 -0.5327
 3958SOL    HW223334   1.495   2.376   7.433  0.1880 -0.7396 -1.4584
 3959SOL     OW23335   2.483   1.709   4.094  0.1404 -0.4142  0.1153
 3959SOL    HW123336   2.566   1.661   4.095  0.0005 -0.6201  2.8784
 3959SOL    HW223337   2.427   1.634   4.077 -0.0604 -0.2939  0.2491
 3960SOL     OW23338   1.783   2.305   4.133 -0.3122 -0.7060 -0.2611
 3960SOL    HW123339   1.755   2.337   4.219 -0.0281 -1.9861  0.3047
 3960SOL    HW223340   1.830   2.384   4.106  0.3113  0.0514  3.0154
 3961SOL     OW23341   0.434   3.285  14.180  0.0635  0.2632  0.5134
 3961SOL    HW123342   0.422   3.348  14.252 -0.7909 -0.8771  1.3685
 3961SOL    HW223343   0.517   3.316  14.144  0.1488  1.5156  1.7835
 3962SOL     OW23344   2.615   2.376   7.955  0.4196  0.2795 -0.2589
 3962SOL    HW123345   2.554   2.385   7.882  0.4554  0.1875 -0.3007
 3962SOL    HW223346   2.643   2.285   7.945 -0.7167 -0.2248  1.1474
 3963SOL     OW23347   3.754   2.461   6.045  0.0679  0.0685 -0.2301
 3963SOL    HW123348   3.735   2.538   6.099  0.7411 -0.6306  1.0127
 3963SOL    HW223349   3.824   2.434   6.105 -1.3656  0.5747  1.6638
 3964SOL     OW23350   1.709   3.972   7.184 -0.0936  0.3343  0.1209
 3964SOL    HW123351   1.735   3.997   7.272  0.6118 -1.0052  0.2840
 3964SOL    HW223352   1.712   3.876   7.188  2.3569  0.3512 -1.2779
 3965SOL     OW23353   2.684   2.523   3.631 -0.6007  0.2848 -0.3842
 3965SOL    HW123354   2.699   2.601   3.578  1.1931 -0.1593 -0.5228
 3965SOL    HW223355   2.608   2.481   3.590 -0.2638 -0.1213 -0.5901
 3966SOL     OW23356   3.265   2.421  14.081  0.1001  0.4153  0.2096
 3966SOL    HW123357   3.207   2.484  14.124  0.7904  1.2551 -0.0801
 3966SOL    HW223358   3.254   2.457  13.993  0.4571 -1.2358 -0.5008
 3967SOL     OW23359   3.156   2.239   1.969 -0.1165 -0.0728  0.3239
 3967SOL    HW123360   3.100   2.257   2.044  0.3563 -0.4849  0.7784
 3967SOL    HW223361   3.151   2.326   1.929  2.0238 -1.3755 -2.8529
 3968SOL     OW23362   0.874   3.282   3.304 -0.2916  0.0147 -0.1089
 3968SOL    HW123363   0.825   3.279   3.221  0.4154  2.1925 -0.6184
 3968SOL    HW223364   0.957   3.316   3.270  0.4937 -2.7090 -0.8924
 3969SOL     OW23365   1.309   3.185   7.286 -0.0049 -0.2279  0.1299
 3969SOL    HW123366   1.315   3.240   7.208  0.4718  0.3423  0.5719
 3969SOL    HW223367   1.227   3.219   7.322 -0.9626 -1.5828 -0.7513
 3970SOL     OW23368   2.280   4.039   0.548 -0.6359  0.0201  0.0257
 3970SOL    HW123369   2.239   4.075   0.627  0.5630  1.7476 -0.1375
 3970SOL    HW223370   2.374   4.041   0.569 -0.4982  1.6671 -0.7587
 3971SOL     OW23371   1.157   3.792   8.423  0.4685  0.0173 -0.0870
 3971SOL    HW123372   1.193   3.708   8.393  0.2517 -0.1872  0.2215
 3971SOL    HW223373   1.080   3.798   8.367  1.3571  0.2474 -1.2812
 3972SOL     OW23374   3.635   4.087   0.967  0.0378 -0.2959 -0.0218
 3972SOL    HW123375   3.614   4.083   0.874 -3.5457 -0.0608  0.7701
 3972SOL    HW223376   3.596   4.167   1.001  0.5072 -0.0315 -0.1069
 3973SOL     OW23377   0.609   3.135   2.914 -1.0211  0.3821  0.4394
 3973SOL    HW123378   0.546   3.197   2.878  0.7328  1.4700 -0.7741
 3973SOL    HW223379   0.690   3.151   2.866 -2.1740 -0.1979 -1.6791
 3974SOL     OW23380   4.427   2.865   3.302 -0.2910  0.3543 -0.3900
 3974SOL    HW123381   4.484   2.931   3.341  1.6392 -1.4337 -0.1841
 3974SOL    HW223382   4.484   2.796   3.268 -1.8845 -1.2817  0.1987
 3975SOL     OW23383   3.752   0.102   1.154  0.3348 -0.4164 -0.4090
 3975SOL    HW123384   3.770   0.191   1.182 -0.7955 -0.4284  0.3264
 3975SOL    HW223385   3.837   0.081   1.115  1.3535  2.4418  0.3107
 3976SOL     OW23386   1.885   4.400  16.195 -0.1449 -0.2949 -0.0227
 3976SOL    HW123387   1.816   4.349  16.237 -1.2938 -0.8592 -2.5915
 3976SOL    HW223388   1.964   4.370  16.240 -0.2438 -1.5161 -0.6598
 3977SOL     OW23389   3.828   3.126   0.753 -0.6913  0.1885  0.3209
 3977SOL    HW123390   3.797   3.130   0.844 -0.2392 -2.7597  0.6099
 3977SOL    HW223391   3.753   3.120   0.694  0.0035 -0.8498 -0.4595
 3978SOL     OW23392   3.602   3.563   6.898 -0.0590 -0.5518 -0.0296
 3978SOL    HW123393   3.589   3.600   6.811  0.2438  0.7214  0.4745
 3978SOL    HW223394   3.514   3.565   6.937  0.9722 -0.1282  2.2646
 3979SOL     OW23395   0.866   3.766   4.294 -0.3104 -0.2631  0.0385
 3979SOL    HW123396   0.938   3.829   4.291  0.0197 -0.4760  3.2555
 3979SOL    HW223397   0.919   3.689   4.273 -2.0870 -1.0545 -1.5608
 3980SOL     OW23398   1.166   1.583   1.157  0.2552  0.4715 -0.0195
 3980SOL    HW123399   1.110   1.505   1.147 -1.5923  1.5998  1.3718
 3980SOL    HW223400   1.244   1.546   1.197  0.6054  1.1252 -0.1093
 3981SOL     OW23401   2.266   1.267   4.828  0.4779 -0.3781  0.2042
 3981SOL    HW123402   2.250   1.213   4.750 -1.1724  2.0484 -1.1560
 3981SOL    HW223403   2.311   1.209   4.888  0.2984 -0.9103 -0.1761
 3982SOL     OW23404   0.502   4.415  13.439 -0.1240  0.3626  0.2157
 3982SOL    HW123405   0.485   4.361  13.517 -2.1580 -0.7916 -1.0258
 3982SOL    HW223406   0.480   4.497  13.483 -1.2301  0.0792  0.2073
 3983SOL     OW23407   1.401   4.443   6.096 -0.6024 -0.2056  0.3427
 3983SOL    HW123408   1.372   4.355   6.071 -0.1908 -0.3211  0.2822
 3983SOL    HW223409   1.360   4.458   6.181  1.0076  0.6763  0.9677
 3984SOL     OW23410   0.551   4.396   4.433 -0.3174 -0.5647 -0.0462
 3984SOL    HW123411   0.544   4.354   4.347  1.8501  0.7846 -0.8876
 3984SOL    HW223412   0.490   4.350   4.490  0.7862 -2.1691 -0.1471
 3985SOL     OW23413   2.247   1.786   8.634 -0.4442  0.3251 -0.1264
 3985SOL    HW123414   2.307   1.860   8.630 -0.9016  0.7690  1.0022
 3985SOL    HW223415   2.238   1.772   8.540  0.2065 -1.1208  0.0289
 3986SOL     OW23416   4.024   3.863  15.007  0.7524  0.0860 -0.7066
 3986SOL    HW123417   3.940   3.845  14.965  0.7301  0.7276 -0.9412
 3986SOL    HW223418   4.010   3.807  15.083 -0.2602  0.4459 -0.6343
 3987SOL     OW23419   0.809   2.619   9.370  0.4338 -0.3457 -0.5419
 3987SOL    HW123420   0.839   2.645   9.457 -0.5929  0.5298 -0.4545
 3987SOL    HW223421   0.834   2.698   9.323 -0.9352  0.6135  0.3333
 3988SOL     OW23422   0.773   4.148   7.464  0.5224  0.3978  0.1473
 3988SOL    HW123423   0.859   4.116   7.494  0.6764 -0.1859 -0.9188
 3988SOL    HW223424   0.719   4.115   7.535  0.8583  0.7204  0.5553
 3989SOL     OW23425   0.018   3.076   5.071 -0.1039  0.9713 -0.1523
 3989SOL    HW123426   0.060   2.996   5.039 -0.7299  0.0576  1.2976
 3989SOL    HW223427   0.059   3.083   5.157  0.3194 -1.6427 -0.1214
 3990SOL     OW23428   2.637   2.305   1.663 -0.7057  0.0189  0.3508
 3990SOL    HW123429   2.690   2.384   1.673 -0.9149 -0.1183  2.5933
 3990SOL    HW223430   2.681   2.247   1.724  3.6870  1.1145 -1.7826
 3991SOL     OW23431   2.940   3.220  14.226 -0.3723  0.3225  0.3665
 3991SOL    HW123432   2.865   3.183  14.273  0.4713 -0.5218  1.0548
 3991SOL    HW223433   3.004   3.171  14.277  1.3511  2.3670  0.1797
 3992SOL     OW23434   1.653   3.788   3.834 -0.1054  0.1635 -0.2906
 3992SOL    HW123435   1.649   3.883   3.822 -0.0774  0.0139 -1.4401
 3992SOL    HW223436   1.598   3.774   3.912  2.3879 -0.5560  1.3533
 3993SOL     OW23437   4.073   2.285   4.705 -0.0245 -0.3077 -0.2543
 3993SOL    HW123438   4.144   2.236   4.663  0.6767  2.1180 -1.8990
 3993SOL    HW223439   4.073   2.241   4.790  0.1407  1.6502  0.7428
 3994SOL     OW23440   3.062   3.640   7.266 -0.2865  0.9137 -0.1088
 3994SOL    HW123441   3.064   3.593   7.349 -0.9219 -0.8069 -1.0503
 3994SOL    HW223442   3.051   3.733   7.284 -1.1068  0.9727 -0.9181
 3995SOL     OW23443   4.290   4.033  13.094 -0.6155 -0.3087  0.4561
 3995SOL    HW123444   4.268   3.970  13.026 -0.3220  1.1874 -1.0075
 3995SOL    HW223445   4.207   4.040  13.142 -1.6356  0.7287 -1.4393
 3996SOL     OW23446   2.778   2.938   3.747 -0.0626  0.1032 -0.6311
 3996SOL    HW123447   2.818   2.903   3.827 -0.2467  0.6882 -0.2813
 3996SOL    HW223448   2.705   2.990   3.779  0.3929  0.7536 -0.6597
 3997SOL     OW23449   0.111   3.361   3.403  0.1514  0.0472  0.6910
 3997SOL    HW123450   0.038   3.300   3.397 -2.7476  3.5149  0.4488
 3997SOL    HW223451   0.059   3.441   3.411  0.7446  0.3454  1.5385
 3998SOL     OW23452   3.365   3.638   5.425  0.0545  0.4925  0.2155
 3998SOL    HW123453   3.285   3.682   5.396  0.0095  0.5947  0.5003
 3998SOL    HW223454   3.382   3.684   5.507  0.5823 -1.5437  1.2627
 3999SOL     OW23455   1.477   2.773   6.953  0.3286  0.4994 -0.3774
 3999SOL    HW123456   1.454   2.848   6.898 -0.1834 -0.4746 -1.4915
 3999SOL    HW223457   1.492   2.823   7.033  1.6451  1.4567 -1.2424
 4000SOL     OW23458   0.776   2.971   9.527  0.1189  0.3850 -0.7152
 4000SOL    HW123459   0.688   2.935   9.539 -1.1574  2.8073 -2.6305
 4000SOL    HW223460   0.793   2.967   9.621 -1.8279  0.3311 -0.3593
 4001SOL     OW23461   3.725   0.019   4.623  0.0456  0.0337  0.1777
 4001SOL    HW123462   3.806   0.002   4.673 -0.9823 -1.1280  1.4538
 4001SOL    HW223463   3.669   0.070   4.682 -2.9558 -0.9699 -1.8338
 4002SOL     OW23464   0.830   1.627   0.364 -0.7497  0.4624  0.2216
 4002SOL    HW123465   0.821   1.566   0.437  0.0458 -0.8499 -0.7915
 4002SOL    HW223466   0.809   1.710   0.407 -0.1906  0.4569  0.5156
 4003SOL     OW23467   2.717   1.283   6.314  0.0365 -0.4843 -0.4338
 4003SOL    HW123468   2.789   1.301   6.254  0.0695 -1.1368 -0.5929
 4003SOL    HW223469   2.662   1.360   6.303 -1.0365 -1.2288 -0.2348
 4004SOL     OW23470   4.725   2.245   5.284 -0.1035  0.0646 -0.4798
 4004SOL    HW123471   0.012   2.244   5.189 -1.9201  1.2694 -0.7288
 4004SOL    HW223472   0.006   2.338   5.304  0.1747 -0.2855  1.0892
 4005SOL     OW23473   3.821   4.722   2.559  0.0946  0.5021 -0.4855
 4005SOL    HW123474   3.789   0.052   2.488 -0.2470  2.0963  0.9043
 4005SOL    HW223475   3.751   4.702   2.620  1.6551 -0.9212  0.8377
 4006SOL     OW23476   0.444   3.110   7.590  0.2247 -0.7035  0.3919
 4006SOL    HW123477   0.500   3.175   7.547  1.3439 -1.9132 -0.0004
 4006SOL    HW223478   0.363   3.159   7.580  0.3342 -0.3746  1.1087
 4007SOL     OW23479   1.397   1.510   2.505  0.0851 -0.2285 -0.5364
 4007SOL    HW123480   1.457   1.527   2.432 -1.4730  1.5511 -1.3904
 4007SOL    HW223481   1.342   1.435   2.482  0.5819  0.3355 -3.5034
 4008SOL     OW23482   2.336   2.664   6.314 -0.2527  0.7964 -0.1470
 4008SOL    HW123483   2.320   2.588   6.369 -0.8450  0.2582 -1.0590
 4008SOL    HW223484   2.247   2.700   6.316 -0.5008  0.3061 -1.9401
 4009SOL     OW23485   3.644   3.827   2.413 -0.1080  0.3507  0.4647
 4009SOL    HW123486   3.680   3.802   2.328  2.3360  0.5318  1.4434
 4009SOL    HW223487   3.705   3.894   2.443 -0.2705  1.3775 -1.5060
 4010SOL     OW23488   0.500   2.340   3.901  0.2471 -0.4439  0.3303
 4010SOL    HW123489   0.434   2.405   3.926 -0.8543 -1.4691  0.0661
 4010SOL    HW223490   0.530   2.360   3.812 -0.5872  0.3918  0.2343
 4011SOL     OW23491   1.152   0.525   3.948 -0.1317  0.5432  0.0105
 4011SOL    HW123492   1.129   0.585   4.019 -0.5423 -0.0669  0.3933
 4011SOL    HW223493   1.114   0.571   3.874  0.0203  0.3594 -0.1803
 4012SOL     OW23494   0.974   4.177   1.440 -0.0696  0.1258  0.2572
 4012SOL    HW123495   0.973   4.251   1.379  1.0193 -0.6652 -0.7156
 4012SOL    HW223496   1.023   4.107   1.398 -2.0797 -0.3889 -1.2436
 4013SOL     OW23497   3.313   4.635   7.079  0.2419 -0.5154  0.4963
 4013SOL    HW123498   3.395   4.675   7.049 -0.5139 -1.3545 -2.6872
 4013SOL    HW223499   3.273   4.592   7.004 -0.8800 -1.5788  1.7098
 4014SOL     OW23500   4.648   2.598  13.952 -0.0281 -0.2560 -0.0034
 4014SOL    HW123501   0.015   2.587  13.969  0.1968  0.8915 -0.5548
 4014SOL    HW223502   4.610   2.550  14.026  1.9507 -1.7282  0.0455
 4015SOL     OW23503   1.142   3.873  12.329 -0.1940 -0.3259 -0.1815
 4015SOL    HW123504   1.113   3.958  12.297 -3.7017 -2.1262 -1.7900
 4015SOL    HW223505   1.063   3.848  12.376  0.8061 -2.7663  0.1947
 4016SOL     OW23506   4.305   2.139   4.327 -0.6284  0.3576 -0.2521
 4016SOL    HW123507   4.240   2.114   4.262  0.5672 -4.1719  0.3024
 4016SOL    HW223508   4.383   2.164   4.277  1.6947 -1.3282  2.4771
 4017SOL     OW23509   3.916   1.108  14.781 -0.1871  0.1368  0.0189
 4017SOL    HW123510   3.888   1.182  14.834 -0.8917  0.5730 -0.9591
 4017SOL    HW223511   3.873   1.112  14.696 -0.5354 -0.7434  0.1615
 4018SOL     OW23512   4.714   3.771   2.026 -0.0745 -0.0774 -0.0217
 4018SOL    HW123513   4.667   3.740   2.103  0.5545 -0.8471  0.0633
 4018SOL    HW223514   4.722   3.692   1.972 -0.9751 -1.0353  1.2482
 4019SOL     OW23515   0.195   2.747   8.756  0.0019 -0.5530  0.1849
 4019SOL    HW123516   0.171   2.774   8.667 -1.9186  0.8830  1.1463
 4019SOL    HW223517   0.220   2.657   8.734  2.4017  0.0201  0.5725
 4020SOL     OW23518   3.158   2.029   3.857 -0.1852  0.0560 -0.2183
 4020SOL    HW123519   3.219   1.963   3.890 -0.6263 -0.8095 -1.1423
 4020SOL    HW223520   3.219   2.059   3.788  0.2338  0.6292  0.4047
 4021SOL     OW23521   3.873   4.469   7.830  0.2663  0.6344 -0.4896
 4021SOL    HW123522   3.839   4.405   7.892  0.9732  1.0847  0.3674
 4021SOL    HW223523   3.797   4.474   7.772 -0.5380 -0.6948  0.4429
 4022SOL     OW23524   0.778   1.175   2.332  0.4753  0.2186 -0.3036
 4022SOL    HW123525   0.792   1.226   2.412 -2.0227  1.0375 -0.3793
 4022SOL    HW223526   0.685   1.195   2.322  0.7686  0.4293 -2.5839
 4023SOL     OW23527   3.977   1.246   5.054 -0.0880  0.0612  0.7307
 4023SOL    HW123528   3.942   1.226   5.141  1.7100 -1.4332  1.1279
 4023SOL    HW223529   4.047   1.181   5.062 -0.4226 -0.5315 -1.1611
 4024SOL     OW23530   1.346   3.292   4.719 -0.2940  0.1163  1.1033
 4024SOL    HW123531   1.418   3.266   4.661 -0.4633 -2.9708  2.3166
 4024SOL    HW223532   1.398   3.324   4.793  2.9436 -2.4452 -0.0588
 4025SOL     OW23533   2.396   1.369   6.023 -1.5911 -0.0991  0.2022
 4025SOL    HW123534   2.391   1.290   5.969  1.9978 -2.0045  2.6115
 4025SOL    HW223535   2.435   1.431   5.962  1.9935 -1.5990  0.9352
 4026SOL     OW23536   2.575   2.535  13.954  0.4056 -0.2878  0.5215
 4026SOL    HW123537   2.508   2.539  13.886  0.1858  1.5982  0.8264
 4026SOL    HW223538   2.613   2.623  13.948 -0.2663 -0.0701 -0.5629
 4027SOL     OW23539   3.550   2.694   4.559 -0.2988  0.3294  0.1612
 4027SOL    HW123540   3.472   2.748   4.550  0.2737  1.2722  0.8390
 4027SOL    HW223541   3.543   2.636   4.484  2.4055 -0.1545  0.2721
 4028SOL     OW23542   2.891   3.638  13.022  0.1170  0.0123  0.3089
 4028SOL    HW123543   2.807   3.624  13.066  0.1649  0.4900  0.5565
 4028SOL    HW223544   2.951   3.656  13.095  1.6521  0.0568 -0.9490
 4029SOL     OW23545   4.690   1.389   1.738  0.1565 -0.4655  0.2823
 4029SOL    HW123546   4.626   1.318   1.731 -0.4695 -0.1731  2.8966
 4029SOL    HW223547   0.033   1.347   1.687 -1.0163 -0.3326 -1.3950
 4030SOL     OW23548   3.960   0.406  15.973 -0.3971 -0.4144  0.8363
 4030SOL    HW123549   3.866   0.415  15.983 -0.2818  1.5145  0.3192
 4030SOL    HW223550   3.954   0.346  15.899  1.5849 -1.8517  1.8313
 4031SOL     OW23551   2.639   1.386   1.476 -0.2168 -0.6058 -0.1143
 4031SOL    HW123552   2.605   1.305   1.438 -1.8938  0.7669 -1.5455
 4031SOL    HW223553   2.565   1.442   1.452 -0.1624 -1.1692 -1.5961
 4032SOL     OW23554   1.615   3.114   7.359  0.1050  0.0124  0.4463
 4032SOL    HW123555   1.528   3.127   7.320 -0.4955 -3.6780  0.5436
 4032SOL    HW223556   1.588   3.116   7.451  1.0184  0.3310  0.7095
 4033SOL     OW23557   4.703   1.353  15.021 -0.0310  0.2374  0.2984
 4033SOL    HW123558   4.701   1.374  15.114  2.6169  2.5437 -0.1579
 4033SOL    HW223559   0.053   1.407  15.000  1.3102 -2.1756 -1.1618
 4034SOL     OW23560   0.698   3.338   4.516 -0.2724 -0.3945  0.2523
 4034SOL    HW123561   0.767   3.322   4.581 -0.2564  0.9337  0.5732
 4034SOL    HW223562   0.712   3.262   4.460  0.7058 -1.2607  1.6547
 4035SOL     OW23563   4.443   3.314   4.534  0.0647 -0.7310  0.1597
 4035SOL    HW123564   4.436   3.309   4.439 -1.8853 -0.1276  0.2890
 4035SOL    HW223565   4.501   3.240   4.552  1.1038 -0.3323 -1.4480
 4036SOL     OW23566   4.367   0.984   7.664  0.5668 -0.1754  0.3866
 4036SOL    HW123567   4.420   0.923   7.612 -1.2444 -0.5056 -1.0661
 4036SOL    HW223568   4.318   1.028   7.595 -0.3065  0.0616  1.1633
 4037SOL     OW23569   3.515   2.962   6.179  0.3127 -0.5941  0.0038
 4037SOL    HW123570   3.541   3.035   6.235  0.2839 -1.7290  1.5048
 4037SOL    HW223571   3.496   3.013   6.100  1.4743  0.1607  0.2235
 4038SOL     OW23572   1.628   0.854   4.639 -0.0511  0.2247 -0.0182
 4038SOL    HW123573   1.614   0.917   4.569 -0.6578  0.6158  0.4506
 4038SOL    HW223574   1.656   0.776   4.592 -0.8399 -0.2452  0.2884
 4039SOL     OW23575   0.190   0.910   6.823 -0.4543 -0.2501  0.0658
 4039SOL    HW123576   0.227   0.822   6.829  1.0435  0.3358 -0.5670
 4039SOL    HW223577   0.138   0.905   6.743  0.5775 -0.5083 -0.5839
 4040SOL     OW23578   2.069   2.369   3.087  0.0001  0.1973  0.0388
 4040SOL    HW123579   2.106   2.354   3.174  2.6388  1.1934 -0.9137
 4040SOL    HW223580   2.078   2.463   3.077  0.3917 -0.0533 -2.0379
 4041SOL     OW23581   1.410   2.253   6.280 -0.0231  0.0715  0.3255
 4041SOL    HW123582   1.346   2.303   6.229 -0.5089  0.6009  1.4456
 4041SOL    HW223583   1.409   2.174   6.226  2.4592  0.1922  0.0898
 4042SOL     OW23584   3.739   2.156   6.952 -0.0437 -0.2410  0.1737
 4042SOL    HW123585   3.798   2.231   6.941  0.6365 -1.0767 -1.6774
 4042SOL    HW223586   3.794   2.090   6.994  0.1581  0.6117  1.2450
 4043SOL     OW23587   0.066   3.949   5.007 -0.0727 -0.1831 -0.1302
 4043SOL    HW123588   0.130   3.887   5.042 -0.7670 -0.4450  0.6652
 4043SOL    HW223589   0.065   4.004   5.085 -0.2067  0.6687 -0.7377
 4044SOL     OW23590   1.604   3.908   7.788  0.1030 -0.3980 -0.0549
 4044SOL    HW123591   1.590   3.816   7.810 -0.0775 -0.6649 -1.2690
 4044SOL    HW223592   1.644   3.908   7.701 -1.2276  0.9265 -0.6712
 4045SOL     OW23593   1.522   3.814   8.607 -0.3158  0.2386  0.3142
 4045SOL    HW123594   1.443   3.865   8.625  0.6040  1.2273  1.6119
 4045SOL    HW223595   1.498   3.792   8.517  0.7297  0.4542 -0.0138
 4046SOL     OW23596   2.848   1.463  11.707  0.3536  0.1084 -0.3780
 4046SOL    HW123597   2.762   1.495  11.680  0.9073  1.4279 -0.5797
 4046SOL    HW223598   2.898   1.522  11.650  2.0846  1.4926  2.6305
 4047SOL     OW23599   3.322   0.259   5.652 -0.0073  0.5451 -0.2231
 4047SOL    HW123600   3.377   0.181   5.655  0.4684  0.9362  1.0278
 4047SOL    HW223601   3.375   0.324   5.605 -0.2960  0.4494 -0.6813
 4048SOL     OW23602   1.111   3.195   3.189  0.0260  0.4047  0.1972
 4048SOL    HW123603   1.148   3.212   3.276 -3.8835 -1.9241  2.2926
 4048SOL    HW223604   1.191   3.173   3.140 -0.0305  0.9566 -0.1488
 4049SOL     OW23605   3.051   2.001   6.311  0.3684  0.1861  0.2846
 4049SOL    HW123606   2.982   2.048   6.359 -1.1184 -0.4244 -1.2695
 4049SOL    HW223607   3.009   1.994   6.225  1.4236 -0.0723 -0.2048
 4050SOL     OW23608   2.281   0.768   4.427  0.1039  0.7390 -0.0227
 4050SOL    HW123609   2.248   0.694   4.375 -1.0787  0.9216  0.4803
 4050SOL    HW223610   2.299   0.716   4.505  0.8491  1.2110  0.1195
 4051SOL     OW23611   1.319   2.983  11.007 -0.8157  0.2543  0.1242
 4051SOL    HW123612   1.395   3.039  10.992  0.5585 -2.1843 -2.0377
 4051SOL    HW223613   1.331   2.969  11.101  0.3186  0.5850  0.0311
 4052SOL     OW23614   3.098   1.579   6.476  0.0830 -0.1795 -0.0139
 4052SOL    HW123615   3.131   1.634   6.547  1.6030  1.4777 -1.9667
 4052SOL    HW223616   3.003   1.576   6.488 -0.0114  1.8643 -0.2965
 4053SOL     OW23617   1.837   4.315   5.963 -0.3899  0.6124  0.3341
 4053SOL    HW123618   1.915   4.313   6.019  0.3300  0.6388 -0.6634
 4053SOL    HW223619   1.813   4.223   5.954  0.0686  0.5305 -0.0470
 4054SOL     OW23620   0.869   3.277  10.510 -0.4673 -0.0801  0.0791
 4054SOL    HW123621   0.816   3.199  10.492  0.1148 -0.2772 -0.8037
 4054SOL    HW223622   0.814   3.345  10.470  0.8362  1.4866  0.9437
 4055SOL     OW23623   2.112   1.146   7.480 -0.2515 -0.1152  0.3294
 4055SOL    HW123624   2.054   1.218   7.502 -0.4870  0.1346 -1.1326
 4055SOL    HW223625   2.145   1.145   7.571  0.5454  0.8801  0.0540
 4056SOL     OW23626   4.520   2.222   5.789 -0.6977 -0.3007 -0.5419
 4056SOL    HW123627   4.544   2.148   5.734  0.0137 -0.1410 -0.4550
 4056SOL    HW223628   4.575   2.290   5.749 -1.5923 -0.0033 -1.2372
 4057SOL     OW23629   4.299   3.423   3.284  0.0117  0.2979 -0.0230
 4057SOL    HW123630   4.247   3.503   3.281 -1.1354 -0.3655  2.6025
 4057SOL    HW223631   4.236   3.351   3.285  0.9056 -0.5188 -1.2475
 4058SOL     OW23632   2.080   4.565  11.661 -0.0396 -0.7076  0.1791
 4058SOL    HW123633   2.169   4.537  11.639 -0.4766 -2.0434  0.0920
 4058SOL    HW223634   2.080   4.628  11.589 -0.2827  0.4621  1.2122
 4059SOL     OW23635   2.362   4.120  11.755 -0.3126  0.2438  0.1385
 4059SOL    HW123636   2.375   4.086  11.843 -0.3025  2.0715  0.8553
 4059SOL    HW223637   2.398   4.046  11.707 -2.2084 -0.4674 -0.1656
 4060SOL     OW23638   1.946   3.050  15.539  0.7732  0.0380  0.1744
 4060SOL    HW123639   2.003   3.050  15.462  0.8093 -2.3870  0.1911
 4060SOL    HW223640   1.988   3.116  15.593 -0.7685  1.0540  0.1265
 4061SOL     OW23641   2.658   2.777   0.861 -0.2156  0.2958 -0.3725
 4061SOL    HW123642   2.735   2.785   0.917 -1.2218  0.0276  1.0293
 4061SOL    HW223643   2.666   2.682   0.850 -0.7507  0.5285 -2.8558
 4062SOL     OW23644   2.633   0.491   4.385  0.5213 -0.0410  0.5653
 4062SOL    HW123645   2.598   0.465   4.300  0.8214  0.4440  0.2953
 4062SOL    HW223646   2.557   0.500   4.443  0.2317  1.0046  0.0139
 4063SOL     OW23647   0.934   3.325  13.809 -0.1745  0.0134  0.2255
 4063SOL    HW123648   1.002   3.382  13.844  1.2082 -1.6504  0.2664
 4063SOL    HW223649   0.856   3.381  13.799  0.4584  1.5612  3.9877
 4064SOL     OW23650   0.844   0.212   1.770  0.5745  0.1900 -0.1933
 4064SOL    HW123651   0.906   0.262   1.824  0.9890  1.4933 -1.8675
 4064SOL    HW223652   0.797   0.157   1.832  2.4672 -0.3155  0.8200
 4065SOL     OW23653   0.760   1.854  15.217  0.0890 -0.2992 -0.9131
 4065SOL    HW123654   0.835   1.849  15.276  0.0669  1.6644 -0.7007
 4065SOL    HW223655   0.742   1.763  15.193  1.1914  0.0047 -2.9476
 4066SOL     OW23656   2.285   0.759   5.019  0.4304 -0.3330 -0.3167
 4066SOL    HW123657   2.378   0.739   5.022  0.3237 -1.2765 -3.2359
 4066SOL    HW223658   2.269   0.747   4.926  0.0822  1.9980 -0.5493
 4067SOL     OW23659   1.004   0.819   2.159  0.5527 -0.3725 -0.0734
 4067SOL    HW123660   0.934   0.753   2.158 -0.6414  0.9434 -1.8126
 4067SOL    HW223661   1.049   0.791   2.079 -0.4604 -1.6894 -0.1974
 4068SOL     OW23662   3.842   0.422   2.467  0.4566  0.2701  0.3832
 4068SOL    HW123663   3.771   0.367   2.498 -0.5621  2.0645  1.2233
 4068SOL    HW223664   3.824   0.416   2.373 -2.1629 -0.7569  0.9598
 4069SOL     OW23665   0.347   4.011   7.067 -0.6606 -0.3495 -0.7751
 4069SOL    HW123666   0.420   4.006   7.005 -0.0989  0.3647 -0.1607
 4069SOL    HW223667   0.387   3.972   7.145 -2.3209  1.4315  0.9785
 4070SOL     OW23668   2.931   2.354   9.880 -0.3525 -0.1413 -0.1282
 4070SOL    HW123669   2.917   2.388   9.969 -1.0403 -0.1116 -0.2497
 4070SOL    HW223670   2.900   2.431   9.833 -2.4480 -2.5290 -2.6205
 4071SOL     OW23671   3.985   0.133   0.999  0.1959  0.4073 -0.1615
 4071SOL    HW123672   4.069   0.141   1.044 -0.8533 -0.2401  1.8996
 4071SOL    HW223673   3.965   0.226   0.987 -0.2105  0.7757  3.2286
 4072SOL     OW23674   1.782   1.309   2.663  0.1090 -0.2680  0.6767
 4072SOL    HW123675   1.855   1.251   2.680  0.5601 -0.2965 -1.3337
 4072SOL    HW223676   1.765   1.354   2.745  0.9376  0.1679  0.5990
 4073SOL     OW23677   2.615   3.050  14.025 -0.3936  0.3734  0.0189
 4073SOL    HW123678   2.637   2.973  14.077 -3.1480 -0.8540 -0.6106
 4073SOL    HW223679   2.657   3.037  13.940  0.2465  0.5506  0.3153
 4074SOL     OW23680   0.661   0.038   2.249  0.6313 -0.1763 -0.0276
 4074SOL    HW123681   0.640   4.682   2.293 -1.5078  1.4025  1.8809
 4074SOL    HW223682   0.578   0.069   2.214  0.9029  0.3845 -0.1717
 4075SOL     OW23683   1.687   0.712   4.047 -0.1530  0.0185 -0.4438
 4075SOL    HW123684   1.652   0.728   4.135  1.6056 -0.4655  0.3495
 4075SOL    HW223685   1.618   0.665   4.002 -1.4483  1.6439 -0.1333
 4076SOL     OW23686   3.721   2.120   8.371 -0.2772  0.1185  0.3892
 4076SOL    HW123687   3.677   2.051   8.421 -0.4848  0.3910  0.5898
 4076SOL    HW223688   3.646   2.148   8.318  0.6932  0.8391 -0.5878
 4077SOL     OW23689   2.961   1.836   7.014  0.4144 -0.2539 -0.3252
 4077SOL    HW123690   3.056   1.833   7.024  0.4236 -2.3775 -0.9075
 4077SOL    HW223691   2.932   1.750   7.045  0.7300 -1.1053 -2.3404
 4078SOL     OW23692   1.520   1.700   1.889  0.3535 -0.0849 -0.1005
 4078SOL    HW123693   1.544   1.793   1.891 -0.5224  0.1629 -0.9689
 4078SOL    HW223694   1.425   1.710   1.880  0.0986 -1.0940  1.5118
 4079SOL     OW23695   2.713   3.487   6.713 -0.2336  0.6416 -0.2888
 4079SOL    HW123696   2.629   3.516   6.749  0.7305  2.2813  0.6694
 4079SOL    HW223697   2.759   3.451   6.789  1.7109  0.1270 -1.7048
 4080SOL     OW23698   4.090   2.809  13.226  0.4910 -0.1933  0.0123
 4080SOL    HW123699   4.026   2.762  13.174 -1.1547 -0.0980  1.9339
 4080SOL    HW223700   4.100   2.768  13.312  1.3719 -2.1575 -1.0436
 4081SOL     OW23701   4.198   4.375   0.776  0.1326 -0.1740 -0.2312
 4081SOL    HW123702   4.290   4.403   0.770  0.4357 -0.9323  0.8402
 4081SOL    HW223703   4.172   4.374   0.684 -5.5900  0.7501  1.4045
 4082SOL     OW23704   2.605   3.830   9.389 -0.5211 -0.3021  0.1547
 4082SOL    HW123705   2.699   3.844   9.393 -0.3247 -1.1804 -1.0665
 4082SOL    HW223706   2.584   3.807   9.480 -1.2850  0.8225  0.2566
 4083SOL     OW23707   0.325   3.620  14.635  0.2267 -0.4526  0.4965
 4083SOL    HW123708   0.291   3.707  14.652 -2.2193 -1.4054  0.4517
 4083SOL    HW223709   0.372   3.597  14.715  0.7263 -1.4419 -0.0737
 4084SOL     OW23710   2.205   1.807   6.248  0.9536  0.5290  0.4203
 4084SOL    HW123711   2.121   1.783   6.209  0.4904 -0.0544  1.7538
 4084SOL    HW223712   2.261   1.783   6.174  0.6154 -0.7601  0.5813
 4085SOL     OW23713   1.902   3.311  16.613 -0.1592 -0.3488  0.4562
 4085SOL    HW123714   1.835   3.244  16.598  1.8438 -2.3671  0.6437
 4085SOL    HW223715   1.916   3.339  16.523 -1.0601  1.3861  0.8536
 4086SOL     OW23716   0.690   1.929   3.210  0.2430  0.1748 -0.6336
 4086SOL    HW123717   0.596   1.934   3.226  0.4114 -1.2902  0.8102
 4086SOL    HW223718   0.699   1.941   3.116 -0.9221  0.9080 -0.6545
 4087SOL     OW23719   4.498   0.054   7.077 -0.3859 -0.6419 -0.6485
 4087SOL    HW123720   4.542   4.722   7.138 -0.9619 -2.3362 -1.8351
 4087SOL    HW223721   4.577   0.097   7.044  0.8346 -1.9602  0.5456
 4088SOL     OW23722   3.689   0.678   1.398  0.8297 -0.3459 -0.2349
 4088SOL    HW123723   3.770   0.650   1.355  1.1376 -0.2066  0.2607
 4088SOL    HW223724   3.676   0.599   1.450  0.5899  0.6644  1.2386
 4089SOL     OW23725   1.032   4.091  12.178  0.1256  0.7204 -0.6644
 4089SOL    HW123726   1.066   4.178  12.157 -1.7547  1.1916 -1.7101
 4089SOL    HW223727   0.940   4.095  12.203 -0.0505 -1.2904 -1.0647
 4090SOL     OW23728   4.477   1.531   2.294  0.4208 -0.2560  0.4935
 4090SOL    HW123729   4.494   1.439   2.271 -0.6290 -0.6433  1.2645
 4090SOL    HW223730   4.382   1.528   2.307 -0.0146  0.5430 -2.4952
 4091SOL     OW23731   0.415   1.754   3.484  0.5987 -0.0921  0.1853
 4091SOL    HW123732   0.495   1.799   3.455  0.4891 -0.0418 -0.0315
 4091SOL    HW223733   0.464   1.683   3.526  0.6363  0.4211  1.0149
 4092SOL     OW23734   3.545   4.717   6.984  0.2771  0.1405  0.2528
 4092SOL    HW123735   3.530   0.007   6.890 -0.2250 -0.6752  0.1927
 4092SOL    HW223736   3.616   0.053   6.997  0.4089 -0.0706  0.5278
 4093SOL     OW23737   0.297   0.180   5.578 -0.0027  0.3860  0.2349
 4093SOL    HW123738   0.328   0.209   5.664  0.1123  1.9903 -0.3471
 4093SOL    HW223739   0.363   0.115   5.554 -1.3608 -0.8156 -0.3058
 4094SOL     OW23740   1.566   1.011  13.685 -0.2089  0.0197 -0.3190
 4094SOL    HW123741   1.512   0.934  13.701 -0.2650 -0.1054 -1.0921
 4094SOL    HW223742   1.572   0.996  13.590  0.0422  2.9662 -0.7753
 4095SOL     OW23743   3.030   1.587   8.516 -0.3078 -0.3288  0.0798
 4095SOL    HW123744   2.952   1.624   8.557  0.3951  1.9154 -0.5540
 4095SOL    HW223745   3.046   1.510   8.571  0.1214 -0.6603 -0.5102
 4096SOL     OW23746   3.654   2.408   2.297 -0.1620  0.5036 -0.0328
 4096SOL    HW123747   3.730   2.448   2.255  0.3432 -1.3655 -0.8664
 4096SOL    HW223748   3.693   2.323   2.318 -0.6395  0.4068  0.4700
 4097SOL     OW23749   1.481   4.060   8.905 -0.1421 -0.2330  0.4092
 4097SOL    HW123750   1.389   4.043   8.924  0.1382 -1.0523  1.0484
 4097SOL    HW223751   1.516   4.080   8.992  0.1302 -0.6893  0.3992
 4098SOL     OW23752   0.717   3.530  10.444  0.3955  0.2908 -0.9113
 4098SOL    HW123753   0.657   3.551  10.373  3.1036  3.2298 -2.3498
 4098SOL    HW223754   0.730   3.617  10.483  1.3980  0.0021 -0.5869
 4099SOL     OW23755   2.053   0.947  16.074 -0.7019 -0.4717  0.4713
 4099SOL    HW123756   1.970   0.972  16.115  0.7174  2.7190  1.4163
 4099SOL    HW223757   2.059   0.854  16.094  0.2578 -0.9974 -2.2383
 4100SOL     OW23758   4.304   1.576   5.754  0.3497  0.0143  0.5423
 4100SOL    HW123759   4.378   1.632   5.729 -0.6054  1.4720  1.0334
 4100SOL    HW223760   4.250   1.580   5.675  2.4134  0.1940 -0.8649
 4101SOL     OW23761   2.395   4.051   1.529  0.5810  0.1558  0.3988
 4101SOL    HW123762   2.322   4.020   1.584 -0.0977  0.0559 -0.5610
 4101SOL    HW223763   2.459   3.981   1.543  2.0672  1.1822 -1.3500
 4102SOL     OW23764   0.763   4.245   7.824  0.0882 -0.2561  0.4300
 4102SOL    HW123765   0.809   4.192   7.890  0.4987  0.9335  1.0935
 4102SOL    HW223766   0.711   4.172   7.790  0.6363 -0.9565  1.0795
 4103SOL     OW23767   3.087   3.590   0.813  0.2223 -0.2517 -0.5347
 4103SOL    HW123768   3.127   3.647   0.747  1.8894  2.3037  2.6980
 4103SOL    HW223769   3.032   3.654   0.859 -0.8366 -2.3697  1.1223
 4104SOL     OW23770   1.185   0.940   4.453  0.3563  0.3079 -0.1093
 4104SOL    HW123771   1.242   1.016   4.450  2.0886 -1.0423 -1.3311
 4104SOL    HW223772   1.223   0.877   4.514 -0.3758  1.4523  1.5444
 4105SOL     OW23773   3.582   0.842   6.227  0.2308 -0.0589 -0.6903
 4105SOL    HW123774   3.506   0.784   6.221  1.0820 -1.2405  0.1322
 4105SOL    HW223775   3.559   0.887   6.308  0.1525  1.0308 -1.3107
 4106SOL     OW23776   2.099   4.370   3.976 -0.8405  0.3665 -0.2313
 4106SOL    HW123777   2.055   4.305   4.031 -0.6930 -0.0650 -0.6305
 4106SOL    HW223778   2.078   4.451   4.023  0.3492  0.9255 -0.6575
 4107SOL     OW23779   2.614   2.592   7.363  0.0752 -0.2213 -0.5900
 4107SOL    HW123780   2.528   2.603   7.404  0.5723  0.5328  0.2508
 4107SOL    HW223781   2.623   2.497   7.354  1.4103 -0.1456 -0.1881
 4108SOL     OW23782   3.021   2.194   5.485  0.3266  0.6641 -0.7270
 4108SOL    HW123783   2.992   2.272   5.533 -0.4555  1.0868 -1.8775
 4108SOL    HW223784   3.076   2.239   5.421  0.1618  0.0925 -1.2611
 4109SOL     OW23785   1.639   1.006   3.273 -0.1034  0.0574 -0.6757
 4109SOL    HW123786   1.725   1.050   3.270 -1.3140  2.5577  1.3577
 4109SOL    HW223787   1.619   1.028   3.182 -0.0162 -1.8667 -1.1495
 4110SOL     OW23788   2.390   0.737   2.920  0.3335  0.5702 -0.4894
 4110SOL    HW123789   2.423   0.816   2.876  1.5623 -0.2639 -1.0565
 4110SOL    HW223790   2.418   0.665   2.863  2.7446  2.9807 -2.3297
 4111SOL     OW23791   0.121   1.099   3.374  0.6403 -0.1245 -0.1451
 4111SOL    HW123792   0.167   1.138   3.448  1.2429  0.7238 -0.9750
 4111SOL    HW223793   0.183   1.113   3.303 -0.7225  1.0241 -1.0851
 4112SOL     OW23794   1.598   4.211   8.417  0.2368 -0.1380 -0.0398
 4112SOL    HW123795   1.532   4.281   8.414  0.3123 -0.0893 -0.5718
 4112SOL    HW223796   1.576   4.182   8.505 -0.3971 -0.3530 -0.2686
 4113SOL     OW23797   1.957   4.616  16.399  0.5990 -0.0274  0.3982
 4113SOL    HW123798   1.933   4.702  16.363  0.3562 -0.3745 -0.2691
 4113SOL    HW223799   1.918   4.550  16.342 -0.1060  0.0833  0.7456
 4114SOL     OW23800   4.676   2.645   9.072 -0.3054 -0.2415 -0.0157
 4114SOL    HW123801   4.713   2.727   9.038 -1.0817  0.6215  1.2099
 4114SOL    HW223802   4.611   2.623   9.006  0.5634  1.2651 -1.3692
 4115SOL     OW23803   0.576   4.678   3.008  0.1099  0.6954  0.3483
 4115SOL    HW123804   0.593   0.018   2.941  1.9617 -1.8147 -1.6587
 4115SOL    HW223805   0.481   4.663   3.007  0.4467 -1.4376  0.0988
 4116SOL     OW23806   2.238   4.407  15.978 -0.5991  0.6066  0.3408
 4116SOL    HW123807   2.152   4.445  15.994 -1.7219 -0.5191 -2.9549
 4116SOL    HW223808   2.282   4.415  16.062  2.6945  1.4359 -1.4678
 4117SOL     OW23809   1.570   2.913   0.710 -0.2137  0.1043  1.0601
 4117SOL    HW123810   1.519   2.858   0.768 -0.3687 -0.3179  0.5272
 4117SOL    HW223811   1.584   2.872   0.624  1.1959 -0.1135  1.4052
 4118SOL     OW23812   4.633   0.821  10.952  0.3602  0.1903  0.2796
 4118SOL    HW123813   4.705   0.778  10.905 -0.0315  0.6733 -0.7567
 4118SOL    HW223814   4.568   0.753  10.933  2.1912 -0.9697 -1.7990
 4119SOL     OW23815   1.450   3.081  15.225 -0.5268 -0.1986 -0.0377
 4119SOL    HW123816   1.440   3.164  15.178 -0.2807  0.3285  0.8430
 4119SOL    HW223817   1.363   3.043  15.234  0.6825 -2.5726  1.5249
 4120SOL     OW23818   4.485   4.681  15.790  0.0780 -0.0470 -0.0289
 4120SOL    HW123819   4.509   4.724  15.708 -0.6331  4.6181  2.2071
 4120SOL    HW223820   4.519   0.022  15.849  0.9309 -1.5996  1.2291
 4121SOL     OW23821   3.828   4.357   0.896  0.5727  0.3154  0.0318
 4121SOL    HW123822   3.741   4.347   0.934  0.3139  0.5487 -0.4946
 4121SOL    HW223823   3.859   4.443   0.923 -1.3756  0.9836  0.1201
 4122SOL     OW23824   1.436   1.371   6.626 -1.4972  0.4535 -0.0947
 4122SOL    HW123825   1.508   1.432   6.646 -0.9992 -0.0160 -0.4706
 4122SOL    HW223826   1.488   1.291   6.630 -1.3770  0.4183 -2.1456
 4123SOL     OW23827   0.974   1.954  17.017 -0.4445 -0.0395  0.2476
 4123SOL    HW123828   0.996   1.911  16.935  0.0444 -0.5402  0.6451
 4123SOL    HW223829   1.057   1.958  17.063  0.2134 -2.0247 -0.7817
 4124SOL     OW23830   1.611   2.739   8.392 -0.6854 -0.1966  0.6160
 4124SOL    HW123831   1.553   2.758   8.466 -2.8419  0.4489 -1.2422
 4124SOL    HW223832   1.554   2.762   8.319 -0.1531 -2.0947 -0.3884
 4125SOL     OW23833   0.366   2.662  11.274 -0.0615  0.5837  0.7064
 4125SOL    HW123834   0.453   2.660  11.315  0.7516  1.0994 -1.0043
 4125SOL    HW223835   0.355   2.568  11.255  2.5228  0.7493 -1.5407
 4126SOL     OW23836   2.546   3.376   2.418  0.5111  0.2133  0.0486
 4126SOL    HW123837   2.469   3.431   2.406  1.9481  2.0212 -0.9154
 4126SOL    HW223838   2.540   3.360   2.512 -1.7760  2.1884  0.2126
 4127SOL     OW23839   3.178   0.575  16.532 -0.4634 -0.1662 -0.1461
 4127SOL    HW123840   3.097   0.561  16.580 -0.8505  2.5449  0.0025
 4127SOL    HW223841   3.191   0.500  16.474 -0.5260 -1.0236  0.9540
 4128SOL     OW23842   2.482   2.858   7.444 -0.1893  0.3511 -0.0122
 4128SOL    HW123843   2.461   2.924   7.510 -2.0066 -0.7310  0.4873
 4128SOL    HW223844   2.570   2.893   7.431 -0.4269  1.4048  1.1354
 4129SOL     OW23845   4.537   2.460   4.555  0.0953 -0.2809  0.5315
 4129SOL    HW123846   4.450   2.494   4.571  0.4914  1.3161 -0.7768
 4129SOL    HW223847   4.563   2.533   4.500 -0.0193 -0.0458  0.7891
 4130SOL     OW23848   0.435   1.140   4.453 -0.4942  0.0032 -0.6974
 4130SOL    HW123849   0.354   1.088   4.459 -1.3821  1.6693  1.5259
 4130SOL    HW223850   0.406   1.206   4.515  3.2036 -0.3309  1.3572
 4131SOL     OW23851   0.528   3.815  12.757  0.9131 -0.0103  0.3990
 4131SOL    HW123852   0.594   3.746  12.767  1.9542  1.1092  1.1266
 4131SOL    HW223853   0.450   3.759  12.745  0.6554  0.7290 -1.3285
 4132SOL     OW23854   4.072   0.693   8.465  0.0482 -0.3523 -0.6529
 4132SOL    HW123855   4.099   0.604   8.486 -0.7880 -0.8986 -1.9100
 4132SOL    HW223856   3.977   0.697   8.462  0.0276 -0.1759  0.2244
 4133SOL     OW23857   1.293   2.213   4.750 -0.4294  0.1587 -0.0818
 4133SOL    HW123858   1.387   2.235   4.750 -0.7055  1.3702 -0.3827
 4133SOL    HW223859   1.275   2.238   4.659  2.8627  0.4828 -0.6658
 4134SOL     OW23860   2.249   0.184  16.365  0.0808 -0.1634 -0.4293
 4134SOL    HW123861   2.312   0.197  16.436  0.3045 -0.0218 -0.6533
 4134SOL    HW223862   2.318   0.143  16.313 -0.2927  2.0326 -2.6005
 4135SOL     OW23863   4.341   0.460   2.422  0.0899  0.3574 -0.1603
 4135SOL    HW123864   4.338   0.492   2.332  0.4873 -2.8603 -1.3170
 4135SOL    HW223865   4.280   0.522   2.462  0.7174  0.8429  0.0563
 4136SOL     OW23866   0.041   3.389   4.410  0.3382 -0.1929  0.7113
 4136SOL    HW123867   0.009   3.309   4.370  1.1431  0.5226 -1.3802
 4136SOL    HW223868   4.722   3.462   4.367 -1.7886 -2.4544 -0.8396
 4137SOL     OW23869   1.834   2.694   4.975  0.3867 -0.5236 -0.2455
 4137SOL    HW123870   1.786   2.612   4.988 -2.2249  1.2859  1.4692
 4137SOL    HW223871   1.879   2.689   5.059 -0.8587  1.8576  0.5732
 4138SOL     OW23872   0.857   1.215   5.685  0.2278  0.1997  0.2583
 4138SOL    HW123873   0.820   1.265   5.758 -2.3151 -0.1508 -0.8063
 4138SOL    HW223874   0.940   1.176   5.712 -1.1566 -2.6424  0.4113
 4139SOL     OW23875   0.143   2.424   1.968  0.1881 -0.2291  0.4955
 4139SOL    HW123876   0.186   2.444   1.885  0.1109  0.1198  0.5412
 4139SOL    HW223877   0.062   2.389   1.930  0.2391 -0.2344  0.3928
 4140SOL     OW23878   2.459   1.514   7.994 -0.0767  0.0466 -0.3385
 4140SOL    HW123879   2.401   1.487   7.922 -0.9124  2.0877 -0.4301
 4140SOL    HW223880   2.423   1.460   8.063  2.3323  0.4551  1.2427
 4141SOL     OW23881   2.064   0.201   4.035  0.3072  0.4009  0.1254
 4141SOL    HW123882   2.068   0.207   3.940  1.5602 -0.5421  0.1144
 4141SOL    HW223883   1.970   0.219   4.040  0.2855  0.3556 -0.1235
 4142SOL     OW23884   1.181   0.669   8.710  0.4023 -0.1686 -0.2888
 4142SOL    HW123885   1.269   0.690   8.742 -0.3721  0.3130  1.5184
 4142SOL    HW223886   1.114   0.672   8.778  0.0822  1.5169 -0.6831
 4143SOL     OW23887   0.236   1.488  15.021 -0.2181 -0.3159  0.5850
 4143SOL    HW123888   0.301   1.442  14.968  0.6803  0.0678  1.3557
 4143SOL    HW223889   0.231   1.435  15.101  1.4592  0.3483  1.1292
 4144SOL     OW23890   0.856   3.438  11.126  0.1645  0.1289 -0.1108
 4144SOL    HW123891   0.840   3.505  11.060 -0.3928 -0.2641 -0.3752
 4144SOL    HW223892   0.928   3.470  11.180 -0.6140  2.1051 -0.2252
 4145SOL     OW23893   3.984   1.538   3.418 -0.2171 -0.2353  0.1040
 4145SOL    HW123894   4.034   1.478   3.363 -1.4431 -1.3228  0.1677
 4145SOL    HW223895   4.053   1.596   3.449  0.0599 -1.3582  1.6137
 4146SOL     OW23896   4.361   0.579   0.082 -0.7204 -0.1355  0.3003
 4146SOL    HW123897   4.389   0.520   0.012 -3.5032 -1.1056 -0.0051
 4146SOL    HW223898   4.281   0.541   0.120 -0.3975 -1.2274 -0.1240
 4147SOL     OW23899   0.208   3.030   0.806 -0.3374 -0.2219  0.0711
 4147SOL    HW123900   0.219   3.088   0.731 -1.5057  0.8113  0.7159
 4147SOL    HW223901   0.137   3.074   0.853 -0.0490 -0.3673  0.6465
 4148SOL     OW23902   3.955   1.552   5.135 -0.2653 -0.2750 -0.1951
 4148SOL    HW123903   3.965   1.620   5.202 -0.3934  0.6105 -1.0590
 4148SOL    HW223904   3.890   1.491   5.169  0.5381 -0.2000  1.4625
 4149SOL     OW23905   4.720   4.705   3.810  0.5879 -0.4965 -0.0637
 4149SOL    HW123906   4.663   4.680   3.738 -1.0872 -1.0172  1.4437
 4149SOL    HW223907   4.697   0.070   3.826 -1.3305 -1.0475  0.2982
 4150SOL     OW23908   0.238   0.067   2.305 -0.6717 -0.3342  0.4090
 4150SOL    HW123909   0.277   0.021   2.379  1.2612  0.9198  0.1678
 4150SOL    HW223910   0.179   0.000   2.269 -0.0733 -0.8329  0.3385
 4151SOL     OW23911   0.150   0.119  17.659 -0.3581  0.0236 -0.2536
 4151SOL    HW123912   0.227   0.160  17.698 -0.7540  1.6202 -1.1480
 4151SOL    HW223913   0.141   0.063   0.031 -1.7493 -1.5047 -1.5153
 4152SOL     OW23914   3.995   3.386   0.802 -0.4077 -0.2541  0.4354
 4152SOL    HW123915   3.931   3.453   0.827  0.1288  1.0670 -1.6733
 4152SOL    HW223916   3.944   3.312   0.768  0.4588 -0.2693 -0.8341
 4153SOL     OW23917   2.870   0.605   4.359 -0.5459  0.1902 -0.6092
 4153SOL    HW123918   2.898   0.582   4.271  1.9753  0.1669  0.2066
 4153SOL    HW223919   2.789   0.556   4.371 -0.3389 -0.0100 -0.0194
 4154SOL     OW23920   3.373   4.195   6.559 -0.1378  0.1279  0.5729
 4154SOL    HW123921   3.297   4.138   6.565  0.2351 -0.4105  0.2015
 4154SOL    HW223922   3.385   4.224   6.649 -3.3149 -1.0192  1.3516
 4155SOL     OW23923   1.903   3.659   9.790 -0.1931 -0.2720  0.2277
 4155SOL    HW123924   1.949   3.580   9.819  4.0897  2.3545  0.5787
 4155SOL    HW223925   1.930   3.728   9.851  0.0412 -0.1546 -0.0058
 4156SOL     OW23926   0.395   1.768   0.035 -0.2497 -0.2413 -0.3340
 4156SOL    HW123927   0.462   1.836   0.030 -1.6164  1.1278  0.0149
 4156SOL    HW223928   0.443   1.685   0.031 -0.2735 -0.2243 -1.0514
 4157SOL     OW23929   0.175   0.372   7.343  0.0185 -0.3221  0.4432
 4157SOL    HW123930   0.193   0.464   7.362  0.5436 -0.6837  1.6179
 4157SOL    HW223931   0.189   0.367   7.248  0.3013 -2.5222  0.6005
 4158SOL     OW23932   1.007   2.029   4.471 -0.5510  0.3707 -0.1353
 4158SOL    HW123933   0.985   2.113   4.429 -1.1425 -0.1885 -0.9359
 4158SOL    HW223934   0.928   1.994   4.512  0.0946 -2.5599 -1.3952
 4159SOL     OW23935   4.352   2.920   3.013  0.6005  0.2384  0.2991
 4159SOL    HW123936   4.403   2.890   2.938 -0.0458 -1.0874  0.4042
 4159SOL    HW223937   4.424   2.922   3.076  0.9227 -1.0907 -0.0332
 4160SOL     OW23938   1.449   0.046   7.410 -0.2708  0.1429  0.2292
 4160SOL    HW123939   1.519   4.707   7.418  0.8221  0.8358 -3.3364
 4160SOL    HW223940   1.435   0.042   7.315  0.3787 -2.0981  0.2239
 4161SOL     OW23941   0.790   2.792   5.608 -0.7164  0.0929  0.2852
 4161SOL    HW123942   0.854   2.851   5.647  0.7497  0.7177 -3.0151
 4161SOL    HW223943   0.764   2.842   5.530  0.5207 -0.5060 -0.5030
 4162SOL     OW23944   3.541   1.312  11.499  0.4191  0.8126  0.4206
 4162SOL    HW123945   3.631   1.343  11.497  0.6227  0.2784  1.4815
 4162SOL    HW223946   3.556   1.228  11.544  3.2611 -0.1531 -2.3406
 4163SOL     OW23947   2.798   4.212   7.859  0.3542  0.0863  0.3183
 4163SOL    HW123948   2.708   4.214   7.827  1.1292  1.7732 -1.7971
 4163SOL    HW223949   2.787   4.151   7.932 -1.1597 -0.9620 -0.7921
 4164SOL     OW23950   3.293   3.399   8.693  0.1035 -0.4400  0.0623
 4164SOL    HW123951   3.356   3.469   8.712 -0.1060 -0.8611  2.2678
 4164SOL    HW223952   3.322   3.336   8.759  0.8781 -0.4738 -0.3123
 4165SOL     OW23953   2.234   0.168   9.442  0.6516  0.7481  0.2554
 4165SOL    HW123954   2.320   0.135   9.417 -0.2369 -1.9259  0.7097
 4165SOL    HW223955   2.204   0.095   9.495  3.2524 -1.6418 -1.6166
 4166SOL     OW23956   2.382   3.170  15.646 -0.3016 -0.6497 -0.4750
 4166SOL    HW123957   2.449   3.102  15.639  0.2246 -0.1767 -0.0862
 4166SOL    HW223958   2.431   3.236  15.695 -1.4224  0.1985 -0.5006
 4167SOL     OW23959   4.266   3.171   0.046 -0.5202 -0.8308  0.7345
 4167SOL    HW123960   4.331   3.185   0.115 -0.1448 -0.6078  0.3355
 4167SOL    HW223961   4.233   3.085   0.072 -1.8078 -0.4740  0.2883
 4168SOL     OW23962   0.922   1.987   1.027 -0.0988  0.1357 -0.4174
 4168SOL    HW123963   0.945   1.999   1.119  0.0728  0.0050 -0.4425
 4168SOL    HW223964   0.994   1.931   0.998  1.0486  1.7450 -0.6327
 4169SOL     OW23965   1.449   2.058   9.446 -0.3441  0.2194  0.1748
 4169SOL    HW123966   1.493   2.143   9.435 -0.9827  0.5282  0.0266
 4169SOL    HW223967   1.512   1.994   9.413  0.0810 -0.5191  2.4244
 4170SOL     OW23968   3.013   2.656   0.890 -0.3262  0.4113  0.5762
 4170SOL    HW123969   2.979   2.708   0.963 -1.2785 -0.0096  0.4410
 4170SOL    HW223970   2.929   2.636   0.847 -0.7072 -1.2082  2.1096
 4171SOL     OW23971   3.483   0.184   2.272  0.1313 -0.0947 -0.1015
 4171SOL    HW123972   3.539   0.107   2.260  0.7019  0.2227  0.5521
 4171SOL    HW223973   3.536   0.236   2.212  0.7474 -0.8464 -0.2101
 4172SOL     OW23974   1.390   0.882   1.836  0.8182 -0.5548 -0.5217
 4172SOL    HW123975   1.447   0.953   1.806 -0.1267  0.5040  0.2009
 4172SOL    HW223976   1.306   0.917   1.809 -0.4782 -1.3940  2.4582
 4173SOL     OW23977   1.399   3.945  11.802  0.0259 -0.4664 -0.6703
 4173SOL    HW123978   1.364   3.937  11.891 -0.8449  5.0474 -0.4671
 4173SOL    HW223979   1.476   3.888  11.802  0.5694  0.2404  1.0851
 4174SOL     OW23980   2.298   1.847   5.027  0.0029  0.1141 -0.1708
 4174SOL    HW123981   2.292   1.833   4.933  1.4949 -0.7342 -0.1250
 4174SOL    HW223982   2.355   1.776   5.057 -0.0341  0.5004  0.8359
 4175SOL     OW23983   1.616   1.149   6.693  0.4236  0.0542  0.1323
 4175SOL    HW123984   1.618   1.058   6.663  1.2823  0.4356 -0.9826
 4175SOL    HW223985   1.706   1.151   6.726  0.2178 -0.2410  0.7275
 4176SOL     OW23986   3.951   2.915   2.166  0.4390  0.1504  0.1324
 4176SOL    HW123987   3.902   2.997   2.154  0.6372  0.3394  0.6036
 4176SOL    HW223988   3.926   2.881   2.252  0.3636 -1.0328 -0.3676
 4177SOL     OW23989   2.486   3.341   6.239 -0.2759 -0.2579 -0.1827
 4177SOL    HW123990   2.553   3.350   6.307  0.5025 -0.4896 -0.9237
 4177SOL    HW223991   2.536   3.283   6.182  0.6158 -1.0450  1.3941
 4178SOL     OW23992   3.931   1.723   5.353 -0.2874 -0.4444  0.2185
 4178SOL    HW123993   3.905   1.813   5.371  0.1969  0.0540 -1.6018
 4178SOL    HW223994   3.869   1.677   5.410 -0.0413  0.4419  1.1975
 4179SOL     OW23995   0.051   2.769  11.544 -0.3304  0.2158 -0.1618
 4179SOL    HW123996   4.725   2.831  11.595  1.0061  0.9518  0.2944
 4179SOL    HW223997   0.107   2.836  11.506 -0.9010  1.3926  1.0660
 4180SOL     OW23998   3.322   3.236   0.557  0.0637 -0.4125 -0.6164
 4180SOL    HW123999   3.231   3.262   0.545  0.5788  1.3778 -0.5976
 4180SOL    HW224000   3.355   3.303   0.616 -2.5073  1.4557 -1.3235
 4181SOL     OW24001   4.312   3.127  10.751  0.0950 -0.1719 -0.1146
 4181SOL    HW124002   4.241   3.160  10.805  0.1266  0.0273 -0.1958
 4181SOL    HW224003   4.377   3.188  10.784 -0.0737 -0.8399  1.4580
 4182SOL     OW24004   0.072   3.016   4.505  0.6467 -0.3571 -0.0364
 4182SOL    HW124005   0.062   2.925   4.532 -0.1475  0.2616  1.7559
 4182SOL    HW224006   0.113   3.054   4.584 -0.9183  0.0855  0.5521
 4183SOL     OW24007   2.955   2.658   8.000  0.2501  0.5973  0.0187
 4183SOL    HW124008   3.024   2.669   7.935 -2.4013 -0.8785 -3.0944
 4183SOL    HW224009   2.936   2.566   7.981 -0.4883  0.9582 -1.0125
 4184SOL     OW24010   2.266   3.775   6.808 -0.4230  0.4779 -0.9079
 4184SOL    HW124011   2.176   3.761   6.778 -0.5050  1.8248 -1.2991
 4184SOL    HW224012   2.247   3.849   6.866 -2.3017  1.3580 -2.6434
 4185SOL     OW24013   0.184   1.857   5.507  0.2089 -0.8169  0.2800
 4185SOL    HW124014   0.222   1.773   5.535  0.1243 -1.3384 -1.1945
 4185SOL    HW224015   0.092   1.838   5.523  0.1181  1.5972  2.6583
 4186SOL     OW24016   3.031   3.571  10.874 -0.2080  0.3912 -0.0780
 4186SOL    HW124017   3.098   3.623  10.829 -0.5050 -0.3397 -1.3931
 4186SOL    HW224018   2.968   3.563  10.802 -1.0911  1.5094  0.5821
 4187SOL     OW24019   2.030   2.103   8.796 -0.3569 -0.0669  0.1464
 4187SOL    HW124020   2.017   2.108   8.702 -0.3889  0.2314  0.1666
 4187SOL    HW224021   2.038   2.009   8.813 -0.5708 -0.2766 -0.9255
 4188SOL     OW24022   3.304   1.611   6.029 -0.2547 -0.8989  0.2404
 4188SOL    HW124023   3.230   1.612   5.967  0.0827  1.1176 -0.1269
 4188SOL    HW224024   3.340   1.523   6.018  3.0411  0.6200 -1.0250
 4189SOL     OW24025   1.374   3.634   7.205  0.9110  0.0971 -0.1893
 4189SOL    HW124026   1.412   3.654   7.291 -0.3065 -1.7496  0.7676
 4189SOL    HW224027   1.363   3.723   7.172  3.0733 -0.5295 -2.6079
 4190SOL     OW24028   2.192   3.780   9.858  0.2042 -0.4055  0.2056
 4190SOL    HW124029   2.224   3.692   9.878  1.2347  0.3242  1.7504
 4190SOL    HW224030   2.135   3.801   9.931 -0.6127 -0.2596 -0.4774
 4191SOL     OW24031   4.447   4.444   8.781 -0.1006 -0.1032  0.7749
 4191SOL    HW124032   4.488   4.404   8.858  1.3983  0.6750  0.3725
 4191SOL    HW224033   4.499   4.395   8.717  0.0976  1.9448 -0.6193
 4192SOL     OW24034   3.378   0.629  11.332  0.1774  0.3254  0.5618
 4192SOL    HW124035   3.315   0.618  11.260  0.2235  0.3778  0.5132
 4192SOL    HW224036   3.458   0.621  11.280 -0.1442  2.6410 -0.3013
 4193SOL     OW24037   2.501   4.515   8.624  0.3675 -0.3037 -0.2233
 4193SOL    HW124038   2.433   4.471   8.675  1.0512 -0.2363  0.7371
 4193SOL    HW224039   2.510   4.597   8.673  0.1417 -0.1711 -0.3992
 4194SOL     OW24040   2.275   1.189  14.077  0.6021  0.5139 -0.5042
 4194SOL    HW124041   2.330   1.218  14.150 -0.1179 -1.9685  1.0347
 4194SOL    HW224042   2.260   1.272  14.032  1.1750  1.8790  1.8115
 4195SOL     OW24043   0.009   2.971  16.408  0.0208  0.4960  0.1682
 4195SOL    HW124044   4.710   3.005  16.494  2.8358 -0.5377  1.4182
 4195SOL    HW224045   4.654   2.982  16.360 -0.0517  0.1496  0.2142
 4196SOL     OW24046   4.286   2.465  14.622 -0.7558  0.0079  0.1661
 4196SOL    HW124047   4.287   2.445  14.716 -0.5943 -1.1808 -0.0987
 4196SOL    HW224048   4.215   2.414  14.584 -0.5913 -0.3879  0.3879
 4197SOL     OW24049   1.082   3.007   0.636 -0.5353  0.4904 -0.4903
 4197SOL    HW124050   1.013   3.072   0.620 -2.2005 -1.8457 -3.0039
 4197SOL    HW224051   1.047   2.922   0.607 -0.7967 -0.3307  2.2331
 4198SOL     OW24052   0.293   3.218   6.000 -0.7395  0.0371 -0.2913
 4198SOL    HW124053   0.335   3.134   6.018  0.6529  1.0047  1.0028
 4198SOL    HW224054   0.239   3.212   5.921 -2.4932  0.5287  0.8623
 4199SOL     OW24055   3.009   2.246   8.041  0.5528  0.2519 -0.0906
 4199SOL    HW124056   3.020   2.318   7.979  0.7327  2.2849  2.3309
 4199SOL    HW224057   3.030   2.296   8.120  0.4215  1.0969 -0.6007
 4200SOL     OW24058   2.058   1.806   4.483  0.4835 -0.3726  0.3969
 4200SOL    HW124059   2.043   1.813   4.389  2.3983  0.6872  0.1875
 4200SOL    HW224060   2.112   1.882   4.504  0.7792 -1.0496  2.1584
 4201SOL     OW24061   2.975   4.004   5.903 -0.1418  0.1105 -0.4927
 4201SOL    HW124062   2.900   3.987   5.846  0.9884  0.4633 -2.0941
 4201SOL    HW224063   2.974   3.926   5.957  1.5379  0.5805  0.2020
 4202SOL     OW24064   3.253   1.594  11.259  0.2671  0.5468 -0.4365
 4202SOL    HW124065   3.215   1.565  11.176 -2.7153 -1.5350  1.6958
 4202SOL    HW224066   3.293   1.517  11.299  0.3855  0.0691 -1.4832
 4203SOL     OW24067   2.903   3.795   0.848  0.3534 -0.0669  0.1006
 4203SOL    HW124068   2.881   3.830   0.934  2.7354  1.2343  0.1947
 4203SOL    HW224069   2.878   3.875   0.801 -1.3868 -1.2420 -0.9564
 4204SOL     OW24070   1.137   0.902   6.258  0.3444  0.0249  0.2219
 4204SOL    HW124071   1.073   0.973   6.262  0.3090  0.1021 -1.6998
 4204SOL    HW224072   1.125   0.882   6.351  0.3806 -0.9398  0.0183
 4205SOL     OW24073   1.649   4.583  14.367 -0.4474 -0.7003  0.3201
 4205SOL    HW124074   1.725   4.640  14.351 -0.4298 -1.4102 -2.1261
 4205SOL    HW224075   1.670   4.500  14.326 -1.1374 -0.1143 -1.2417
 4206SOL     OW24076   3.821   3.680  14.816 -0.4844  0.1994  0.2449
 4206SOL    HW124077   3.907   3.722  14.805 -0.1639 -0.4971  0.1105
 4206SOL    HW224078   3.849   3.589  14.820  3.2810  1.3321 -0.4086
 4207SOL     OW24079   4.315   1.388   2.023  0.2598  0.7936 -0.5883
 4207SOL    HW124080   4.338   1.476   2.051 -4.0038  1.8052 -0.2960
 4207SOL    HW224081   4.377   1.345   2.083  0.6465  0.8680 -0.9368
 4208SOL     OW24082   3.828   3.895   5.405 -0.8154 -0.1930 -0.0541
 4208SOL    HW124083   3.827   3.833   5.333 -2.7832  0.5566 -0.6635
 4208SOL    HW224084   3.741   3.875   5.439 -1.5930  1.6285 -0.9409
 4209SOL     OW24085   3.832   3.347   7.769 -0.4302 -0.3019  0.1054
 4209SOL    HW124086   3.862   3.256   7.768  0.8315  0.1513 -2.1422
 4209SOL    HW224087   3.894   3.371   7.838 -1.0216 -0.5046  0.7143
 4210SOL     OW24088   0.068   0.199  17.144 -0.5493 -0.2411  0.2729
 4210SOL    HW124089   0.079   0.151  17.062  2.0831 -1.3846  1.2922
 4210SOL    HW224090   0.096   0.287  17.119  2.8014 -1.1183  1.0100
 4211SOL     OW24091   1.628   1.167   5.169 -0.0037 -0.1924 -0.0917
 4211SOL    HW124092   1.622   1.230   5.098 -0.9738  0.5885  0.6849
 4211SOL    HW224093   1.661   1.087   5.128 -0.6711 -0.5263  0.0226
 4212SOL     OW24094   0.809   0.424  14.331  0.4394  0.1746 -0.1256
 4212SOL    HW124095   0.816   0.339  14.288  0.9994  0.1495  0.0244
 4212SOL    HW224096   0.715   0.440  14.324  0.5674  0.4266 -1.1784
 4213SOL     OW24097   0.642   3.882   5.017 -0.4162  0.1189 -0.5396
 4213SOL    HW124098   0.604   3.832   5.090  1.0016  0.6976  0.6156
 4213SOL    HW224099   0.695   3.941   5.071 -0.8083  1.8133 -2.0408
 4214SOL     OW24100   2.322   1.144   1.881 -0.1385 -0.3123  0.3249
 4214SOL    HW124101   2.305   1.216   1.820 -1.7304 -0.6322  0.3782
 4214SOL    HW224102   2.265   1.075   1.846 -0.3093  0.2367 -0.4513
 4215SOL     OW24103   4.138   2.513  10.561 -0.4154 -0.2819 -0.3074
 4215SOL    HW124104   4.050   2.478  10.573  0.1393 -2.1793 -1.8516
 4215SOL    HW224105   4.135   2.571  10.637  1.5278 -0.6989  0.0669
 4216SOL     OW24106   3.488   1.398   5.947 -0.6261 -0.1362  0.0374
 4216SOL    HW124107   3.535   1.332   5.999 -0.6308 -1.8041 -2.0564
 4216SOL    HW224108   3.543   1.475   5.961  0.3782 -0.4420 -2.2133
 4217SOL     OW24109   3.056   2.730   4.906 -0.0488 -0.2993  0.1897
 4217SOL    HW124110   3.049   2.679   4.986 -0.3371 -3.4358 -1.8515
 4217SOL    HW224111   3.149   2.719   4.885  0.3812  1.2011  1.3603
 4218SOL     OW24112   3.671   0.358   5.463 -0.3491  0.6186  0.4025
 4218SOL    HW124113   3.645   0.266   5.453 -2.2976  0.9064  2.8764
 4218SOL    HW224114   3.583   0.395   5.475 -0.8834 -0.6939  0.6371
 4219SOL     OW24115   4.698   4.552   5.121  0.2050 -0.8085 -0.3508
 4219SOL    HW124116   0.061   4.585   5.115 -0.4541  0.7839 -1.5156
 4219SOL    HW224117   4.687   4.495   5.045 -2.2328  1.5604 -1.7702
 4220SOL     OW24118   2.812   2.218  17.596 -0.2002 -0.0398  0.2140
 4220SOL    HW124119   2.834   2.224  17.503 -1.4509 -0.6241 -0.1206
 4220SOL    HW224120   2.894   2.256  17.628 -0.0506 -0.3827  0.2367
 4221SOL     OW24121   0.435   1.705   1.711 -0.2657 -0.0834 -0.3936
 4221SOL    HW124122   0.503   1.714   1.778 -0.0085 -1.8939 -0.4173
 4221SOL    HW224123   0.478   1.670   1.633  1.7927 -0.7660  1.0477
 4222SOL     OW24124   2.918   4.646   0.966 -0.3994 -0.1642  0.0564
 4222SOL    HW124125   2.901   0.013   0.953 -2.1121 -0.6108 -1.0162
 4222SOL    HW224126   2.837   4.624   1.012  1.0821 -2.6528  1.4428
 4223SOL     OW24127   1.248   2.839   9.235 -0.2612  0.0049  0.1207
 4223SOL    HW124128   1.328   2.888   9.216 -0.3808  0.9921  2.1350
 4223SOL    HW224129   1.284   2.760   9.275  0.9725  0.7526  0.4742
 4224SOL     OW24130   1.664   0.556   4.603 -0.0967 -0.1321  0.1975
 4224SOL    HW124131   1.712   0.488   4.651  1.1168 -1.1081 -2.4236
 4224SOL    HW224132   1.627   0.505   4.531 -0.1140  0.2150 -0.0391
 4225SOL     OW24133   1.833   1.587   3.191 -0.0784  0.1935  0.4059
 4225SOL    HW124134   1.760   1.592   3.253 -1.5212  1.6990 -1.3691
 4225SOL    HW224135   1.892   1.651   3.231 -1.5941  1.4204  0.6921
 4226SOL     OW24136   0.408   4.484   2.866  0.7291  0.0877 -0.5418
 4226SOL    HW124137   0.493   4.440   2.869  1.3020  1.4737  3.2492
 4226SOL    HW224138   0.367   4.456   2.947  2.3901 -0.6678  0.0346
 4227SOL     OW24139   1.320   2.964   7.124 -0.1782 -0.2227  0.0692
 4227SOL    HW124140   1.283   3.042   7.166  3.7474  0.0840  2.9450
 4227SOL    HW224141   1.316   2.900   7.194  0.2683  0.4162  0.6769
 4228SOL     OW24142   1.387   1.696   4.414 -0.0786 -0.2618 -0.2738
 4228SOL    HW124143   1.379   1.702   4.319  1.4601 -0.0965 -0.3839
 4228SOL    HW224144   1.353   1.780   4.446  0.4012 -0.1272 -0.1178
 4229SOL     OW24145   1.193   1.010   1.695  0.3968  0.4226  0.2900
 4229SOL    HW124146   1.150   0.963   1.625 -0.8993 -0.5695  1.7641
 4229SOL    HW224147   1.216   1.095   1.657 -0.6301  0.1259 -0.9737
 4230SOL     OW24148   4.624   2.161   6.510  0.4859  0.5116 -0.3501
 4230SOL    HW124149   4.531   2.160   6.491  0.8454 -0.1338 -2.0803
 4230SOL    HW224150   4.669   2.181   6.428  3.1204  0.8039  1.1357
 4231SOL     OW24151   2.946   1.454  14.428 -0.4139  0.3174  0.1775
 4231SOL    HW124152   2.902   1.505  14.360 -0.3617 -0.6245 -0.5712
 4231SOL    HW224153   3.018   1.511  14.454 -0.7645  0.2011  1.3947
 4232SOL     OW24154   1.769   3.005   5.460  0.3563 -0.4672  0.4201
 4232SOL    HW124155   1.720   3.052   5.392 -0.6424 -1.1480  0.6576
 4232SOL    HW224156   1.696   2.979   5.516 -1.1912 -0.0923 -1.3957
 4233SOL     OW24157   4.349   2.302   0.631  0.2790 -0.3790 -1.1353
 4233SOL    HW124158   4.333   2.244   0.557 -0.8131  0.0091 -1.2143
 4233SOL    HW224159   4.280   2.366   0.610  1.2449  1.1882  0.4316
 4234SOL     OW24160   0.812   2.166  10.188  0.1897  0.0509  0.1504
 4234SOL    HW124161   0.743   2.125  10.240 -0.9935  0.8964 -0.7452
 4234SOL    HW224162   0.763   2.209  10.117 -0.5939 -0.5035  0.3553
 4235SOL     OW24163   0.836   2.572  10.444  0.0098  0.1851  0.2106
 4235SOL    HW124164   0.840   2.529  10.529 -0.4180 -1.0175 -0.3813
 4235SOL    HW224165   0.882   2.655  10.457  2.0302 -0.7904 -0.6369
 4236SOL     OW24166   0.545   0.645   2.658  0.4939 -0.2818 -0.1133
 4236SOL    HW124167   0.521   0.558   2.689 -0.7037  0.7048  1.6894
 4236SOL    HW224168   0.455   0.677   2.661  0.0247 -1.5063 -1.4109
 4237SOL     OW24169   3.484   2.692   3.027  0.4470  0.0979 -0.2202
 4237SOL    HW124170   3.482   2.751   2.952 -0.0747 -1.9221 -1.8042
 4237SOL    HW224171   3.478   2.748   3.105  1.2362  0.9256 -0.7634
 4238SOL     OW24172   2.099   0.546   8.058 -0.2538  0.6944 -0.0272
 4238SOL    HW124173   2.188   0.580   8.054  0.0469 -0.3071 -1.7507
 4238SOL    HW224174   2.107   0.521   8.150 -1.2081 -3.4885 -1.1176
 4239SOL     OW24175   2.631   4.150   1.382  0.2021 -0.4519  0.4198
 4239SOL    HW124176   2.696   4.169   1.450  0.4827 -0.6592  0.2108
 4239SOL    HW224177   2.556   4.129   1.437 -1.9349  0.0012 -2.3150
 4240SOL     OW24178   4.022   1.213   4.396 -0.4086  0.6029  0.5153
 4240SOL    HW124179   3.994   1.240   4.484 -0.4278 -0.2985  0.7836
 4240SOL    HW224180   4.014   1.119   4.410  3.1097  0.4325  1.5264
 4241SOL     OW24181   2.314   2.987   1.133  0.3458 -0.4490  0.4898
 4241SOL    HW124182   2.276   3.075   1.131  1.0339 -0.1333  1.0305
 4241SOL    HW224183   2.349   2.967   1.047  0.5761  1.4278  0.1655
 4242SOL     OW24184   1.911   0.704   5.652  0.6523  0.9072  0.1450
 4242SOL    HW124185   1.959   0.787   5.660  1.9798  0.0756  0.7651
 4242SOL    HW224186   1.930   0.683   5.561 -0.4351  0.4438  0.0263
 4243SOL     OW24187   4.391   0.600   1.183  0.3155  0.1777 -0.7627
 4243SOL    HW124188   4.485   0.617   1.177  0.4960 -0.3722  0.3611
 4243SOL    HW224189   4.389   0.528   1.120 -1.4285 -1.8756  1.6158
 4244SOL     OW24190   1.676   3.001  10.558 -0.5629  0.0363 -0.2078
 4244SOL    HW124191   1.743   2.992  10.491  0.6279 -0.1513  1.0147
 4244SOL    HW224192   1.601   2.991  10.499 -4.0722  1.6655  3.9535
 4245SOL     OW24193   3.913   0.083   5.268  0.5369 -0.4295 -0.2016
 4245SOL    HW124194   4.004   0.111   5.259  0.3286  0.5600  0.8169
 4245SOL    HW224195   3.867   0.167   5.265  1.6892  0.1520 -1.0751
 4246SOL     OW24196   2.467   0.476   4.138 -0.6334  0.1320 -0.5411
 4246SOL    HW124197   2.382   0.480   4.183  0.3680 -1.5580  1.5310
 4246SOL    HW224198   2.459   0.382   4.119 -0.7206 -0.0849  0.5211
 4247SOL     OW24199   4.224   4.112   9.846  0.0982 -0.1696  0.7278
 4247SOL    HW124200   4.273   4.188   9.816 -0.4386 -0.2700 -0.4074
 4247SOL    HW224201   4.143   4.128   9.796  0.4494  0.2671  0.2964
 4248SOL     OW24202   3.236   1.142   6.553  0.6766 -0.0020 -0.4088
 4248SOL    HW124203   3.170   1.197   6.595  0.4763 -0.8650  0.3870
 4248SOL    HW224204   3.318   1.181   6.584  0.5541  0.3900 -0.5845
 4249SOL     OW24205   0.187   4.624  13.408 -0.0119 -0.1454  0.3520
 4249SOL    HW124206   0.151   4.707  13.438  0.8805 -0.0053  1.0360
 4249SOL    HW224207   0.280   4.644  13.405  0.1936 -0.5957  3.1132
 4250SOL     OW24208   1.026   0.721   6.093  0.1450 -0.4766  0.3771
 4250SOL    HW124209   1.089   0.771   6.145  0.8978 -2.8661  1.7699
 4250SOL    HW224210   1.082   0.647   6.071  0.5937 -1.0539  3.4104
 4251SOL     OW24211   4.407   4.073   2.593  0.4778 -0.1663  0.4426
 4251SOL    HW124212   4.347   4.047   2.664 -0.4156  2.1838  0.5676
 4251SOL    HW224213   4.384   4.166   2.585  0.6827 -0.2184 -0.6575
 4252SOL     OW24214   3.226   2.501   3.434 -0.3495  0.1361 -0.0051
 4252SOL    HW124215   3.304   2.553   3.415 -1.0926  0.9808 -0.7421
 4252SOL    HW224216   3.172   2.530   3.360 -1.6957 -1.6988  0.2392
 4253SOL     OW24217   4.118   2.940   1.949  0.1811  0.2581  0.3022
 4253SOL    HW124218   4.064   2.933   2.028 -0.4055 -1.1493 -0.2278
 4253SOL    HW224219   4.192   2.880   1.964 -1.4863 -1.9103 -0.1418
 4254SOL     OW24220   3.539   0.205   8.118 -0.5344  0.0791  0.1095
 4254SOL    HW124221   3.632   0.195   8.139  0.0775  0.4760 -2.3955
 4254SOL    HW224222   3.524   0.120   8.078  0.8088  0.4713 -1.2349
 4255SOL     OW24223   0.498   2.146  15.487 -0.2217 -0.4125 -0.3959
 4255SOL    HW124224   0.581   2.104  15.504 -0.6301 -1.4015 -0.8771
 4255SOL    HW224225   0.497   2.212  15.557  0.5834 -0.4949 -0.3092
 4256SOL     OW24226   2.793   4.109   4.855 -0.2531  0.1729 -0.1365
 4256SOL    HW124227   2.845   4.185   4.828 -1.3045  1.8025  2.3987
 4256SOL    HW224228   2.835   4.044   4.799  0.0699  0.3160 -0.0616
 4257SOL     OW24229   2.290   2.920   3.790 -0.2548  0.9068 -0.5905
 4257SOL    HW124230   2.256   3.009   3.782 -1.7184  0.3266 -0.8898
 4257SOL    HW224231   2.384   2.933   3.783 -0.6184  3.9660  0.0813
 4258SOL     OW24232   2.688   3.589   4.718  0.0514  0.4119  0.3381
 4258SOL    HW124233   2.746   3.536   4.663  1.0217  1.2372  0.5766
 4258SOL    HW224234   2.617   3.526   4.736  0.2821  0.3680  1.0953
 4259SOL     OW24235   0.811   1.495   7.032 -0.1276 -0.0621 -0.0815
 4259SOL    HW124236   0.880   1.523   6.972  1.0975  0.7151  1.7059
 4259SOL    HW224237   0.731   1.518   6.984  0.1610  0.7833 -0.1505
 4260SOL     OW24238   0.355   1.340  15.892  0.1113  0.0412  0.4551
 4260SOL    HW124239   0.372   1.416  15.836 -0.1082 -0.8033 -0.7550
 4260SOL    HW224240   0.260   1.338  15.900  0.0785 -0.0437  0.0629
 4261SOL     OW24241   1.697   0.330   6.544  0.0977 -0.7231 -0.0085
 4261SOL    HW124242   1.758   0.329   6.470  0.0718 -0.0418 -0.0359
 4261SOL    HW224243   1.717   0.242   6.577 -1.4466 -0.8555  0.5851
 4262SOL     OW24244   1.300   2.690   0.457 -0.1697  0.6429  0.3570
 4262SOL    HW124245   1.382   2.672   0.502 -0.6744  1.3345  1.5715
 4262SOL    HW224246   1.308   2.605   0.415  0.1492  0.6174  0.4688
 4263SOL     OW24247   1.012   1.562   4.149  0.0012  0.3672  0.3711
 4263SOL    HW124248   1.029   1.643   4.197  0.5925 -0.7179  1.9958
 4263SOL    HW224249   0.922   1.546   4.177  0.4400 -1.9437  0.4945
 4264SOL     OW24250   0.203   0.916   7.397 -0.5227 -0.5989  0.8708
 4264SOL    HW124251   0.184   1.006   7.423  2.5229 -0.1151  1.4641
 4264SOL    HW224252   0.282   0.893   7.446 -0.4012 -1.5938  0.2130
 4265SOL     OW24253   3.149   0.308   4.350  0.0425 -0.2399 -0.1200
 4265SOL    HW124254   3.093   0.342   4.420 -0.3185  0.0497 -0.5546
 4265SOL    HW224255   3.105   0.227   4.324  0.4291  0.1729 -2.0035
 4266SOL     OW24256   2.978   4.718   0.681  0.1011 -0.0974  0.3668
 4266SOL    HW124257   3.025   0.075   0.685  1.3882 -0.8105  0.0326
 4266SOL    HW224258   2.970   4.705   0.775 -0.7273 -1.7750  0.0650
 4267SOL     OW24259   2.155   1.444   2.941 -0.2085  0.1742  0.1372
 4267SOL    HW124260   2.181   1.528   2.978  1.3356 -0.5229  0.6726
 4267SOL    HW224261   2.224   1.438   2.875 -0.3039 -0.2358  0.0736
 4268SOL     OW24262   0.672   0.111  15.461  0.0133 -0.0938  0.3604
 4268SOL    HW124263   0.759   0.080  15.484 -0.3638  0.3464  2.4136
 4268SOL    HW224264   0.663   0.069  15.376  4.8942 -0.5945  0.1214
 4269SOL     OW24265   1.281   3.191   5.718  0.0758  0.1601  0.6883
 4269SOL    HW124266   1.320   3.212   5.803  0.5159  0.3275  0.4448
 4269SOL    HW224267   1.297   3.271   5.667  0.8458  0.1251  0.8648
 4270SOL     OW24268   3.606   0.937   7.787 -0.6391  0.3488  0.0628
 4270SOL    HW124269   3.595   0.842   7.781  0.5896  0.0933  1.8390
 4270SOL    HW224270   3.644   0.945   7.875 -2.2547 -1.8356  0.9631
 4271SOL     OW24271   4.006   3.108   5.399 -0.0107  0.4947  0.3540
 4271SOL    HW124272   4.060   3.068   5.331 -1.1945  2.2054 -1.5852
 4271SOL    HW224273   4.073   3.149   5.455  0.9856 -1.1392  0.3705
 4272SOL     OW24274   1.322   4.658   1.804  0.0287  0.0380 -0.1732
 4272SOL    HW124275   1.382   4.713   1.854  1.4928 -1.1150 -0.6890
 4272SOL    HW224276   1.241   4.698   1.838  0.7124  0.8363  0.5132
 4273SOL     OW24277   3.446   0.315   1.262  0.5100  0.0643  0.5539
 4273SOL    HW124278   3.362   0.302   1.306 -0.3139 -1.8244 -1.5461
 4273SOL    HW224279   3.505   0.256   1.309  1.4110  0.0991 -0.5196
 4274SOL     OW24280   2.564   3.791   7.980  0.3938 -0.0113 -0.0905
 4274SOL    HW124281   2.580   3.699   8.001  0.0462  0.1436  0.8195
 4274SOL    HW224282   2.473   3.794   8.007  0.1217 -0.6040 -0.9443
 4275SOL     OW24283   2.705   4.676   5.100 -0.0383 -0.0097  0.4977
 4275SOL    HW124284   2.649   0.024   5.076  0.1229 -0.2527 -0.6122
 4275SOL    HW224285   2.737   4.688   5.189 -1.4452  2.1316  0.7127
 4276SOL     OW24286   3.387   4.512   7.590 -0.3270 -0.5472 -0.0039
 4276SOL    HW124287   3.329   4.436   7.585  1.8830 -2.3314  1.1331
 4276SOL    HW224288   3.380   4.550   7.503 -1.9046 -0.7955  0.0223
 4277SOL     OW24289   3.272   1.189   1.133  0.1200 -0.0135  0.2953
 4277SOL    HW124290   3.220   1.190   1.053  0.4282 -2.0879  0.0679
 4277SOL    HW224291   3.274   1.096   1.156  1.8774  0.1529  0.8515
 4278SOL     OW24292   4.445   3.094   6.444 -0.0010  0.4509  0.5589
 4278SOL    HW124293   4.427   3.155   6.517 -1.9824 -0.8457  1.1655
 4278SOL    HW224294   4.539   3.085   6.460 -0.2920  0.1826  2.1244
 4279SOL     OW24295   0.193   1.243   7.975 -0.1227  0.2020  0.4029
 4279SOL    HW124296   0.219   1.275   7.888 -1.5821  0.4140  0.0441
 4279SOL    HW224297   0.134   1.312   8.005 -1.7385 -0.3071 -1.5695
 4280SOL     OW24298   4.412   3.637  14.000 -0.6201 -0.5373  0.0154
 4280SOL    HW124299   4.392   3.624  14.092 -0.0226  0.6155  0.3162
 4280SOL    HW224300   4.421   3.545  13.975 -0.6985 -0.2303 -1.1541
 4281SOL     OW24301   2.529   1.303   1.746  0.1476  0.3866 -0.4196
 4281SOL    HW124302   2.575   1.341   1.671  1.0740 -0.6567 -0.3820
 4281SOL    HW224303   2.438   1.321   1.723 -0.0018  0.4248  0.1962
 4282SOL     OW24304   0.253   2.372   7.556 -0.2318 -0.0456  0.2202
 4282SOL    HW124305   0.306   2.429   7.500 -0.4092  0.3599  0.4617
 4282SOL    HW224306   0.167   2.384   7.516 -1.4804 -2.2535  2.2202
 4283SOL     OW24307   3.845   0.332   5.247  0.3382 -0.4308 -0.1965
 4283SOL    HW124308   3.774   0.355   5.187 -1.2366 -0.4171  1.6910
 4283SOL    HW224309   3.808   0.364   5.329 -0.5793 -2.8706  0.3421
 4284SOL     OW24310   4.239   4.140   2.321  0.6222  0.4767 -0.4893
 4284SOL    HW124311   4.242   4.221   2.370 -2.8412  0.5881 -0.4480
 4284SOL    HW224312   4.263   4.172   2.234  0.8393  1.6721  0.0261
 4285SOL     OW24313   4.169   3.150   2.999 -0.3739  0.2914  0.7447
 4285SOL    HW124314   4.230   3.076   2.991 -0.8450  0.0354 -0.5703
 4285SOL    HW224315   4.124   3.133   2.916  0.3034 -0.6212  0.5606
 4286SOL     OW24316   4.076   4.000   0.630 -0.4278  0.0229  0.4163
 4286SOL    HW124317   4.099   4.007   0.537 -0.3588 -1.3231  0.3285
 4286SOL    HW224318   4.008   4.066   0.631  1.4259  1.8877  2.0515
 4287SOL     OW24319   3.878   2.432  15.815 -0.3174 -0.2088  0.3800
 4287SOL    HW124320   3.786   2.420  15.841 -1.0162  2.0468 -1.0642
 4287SOL    HW224321   3.933   2.451  15.891 -0.5695 -1.1593  0.7918
 4288SOL     OW24322   0.106   4.623   4.039 -0.2729  0.3400  0.0678
 4288SOL    HW124323   0.048   4.669   3.978  1.8081  0.9658 -1.4502
 4288SOL    HW224324   0.162   4.558   3.999  1.3681  1.1242  1.0911
 4289SOL     OW24325   4.657   1.558   3.792  0.3800  0.0039 -0.0023
 4289SOL    HW124326   4.591   1.547   3.724  1.4769 -1.3536 -0.8586
 4289SOL    HW224327   4.630   1.643   3.827 -2.2395 -1.8667  2.4862
 4290SOL     OW24328   0.132   1.057   8.924 -0.0163  0.1764 -0.2066
 4290SOL    HW124329   0.036   1.060   8.920 -0.0521 -2.0483 -1.2987
 4290SOL    HW224330   0.153   1.142   8.884  2.5228  0.3589  1.5557
 4291SOL     OW24331   0.367   0.552   1.910 -0.2344  0.3455  0.0727
 4291SOL    HW124332   0.411   0.620   1.858  0.7416 -0.9007 -0.7453
 4291SOL    HW224333   0.438   0.542   1.973  0.3515  1.3011 -0.4473
 4292SOL     OW24334   3.246   3.652   3.364  0.2450 -0.3105  0.2827
 4292SOL    HW124335   3.226   3.558   3.365  0.7507 -0.4009  2.4384
 4292SOL    HW224336   3.289   3.655   3.278 -1.4476 -1.8755 -0.6190
 4293SOL     OW24337   1.873   2.087   2.532 -0.4271 -0.2224 -0.2531
 4293SOL    HW124338   1.837   2.167   2.569 -0.8007  0.3984 -1.9337
 4293SOL    HW224339   1.921   2.061   2.610 -0.7863 -3.5566 -1.1458
 4294SOL     OW24340   0.401   1.467   8.658  0.2013  0.3321 -0.1817
 4294SOL    HW124341   0.425   1.472   8.566  1.5868  1.7628  0.2535
 4294SOL    HW224342   0.351   1.548   8.673 -0.0558 -0.4597  3.3361
 4295SOL     OW24343   1.473   3.576   0.229 -0.0233 -0.1758  0.2993
 4295SOL    HW124344   1.564   3.599   0.248  0.6310 -1.3127 -1.4621
 4295SOL    HW224345   1.427   3.651   0.267  1.2969 -0.5028  2.5322
 4296SOL     OW24346   1.241   2.348   4.977 -0.3248  0.1918  0.0345
 4296SOL    HW124347   1.237   2.303   4.893 -2.2681 -1.3103  0.9272
 4296SOL    HW224348   1.308   2.303   5.029 -1.3327  0.7724  1.8699
 4297SOL     OW24349   0.058   4.459  17.635 -0.0334  0.2166 -0.5158
 4297SOL    HW124350   4.702   4.505  17.620 -0.9783 -0.9882  1.0719
 4297SOL    HW224351   0.121   4.531  17.626 -1.1391  1.0305 -1.7064
 4298SOL     OW24352   3.510   0.128   1.022 -0.3308  0.1950 -0.0611
 4298SOL    HW124353   3.601   0.158   1.018  0.0028 -1.1641 -2.4939
 4298SOL    HW224354   3.469   0.197   1.074  0.5163 -0.2674  1.2281
 4299SOL     OW24355   0.258   2.440  15.494  0.0166 -0.5949  0.2466
 4299SOL    HW124356   0.171   2.481  15.494  0.2699 -0.0641  0.8316
 4299SOL    HW224357   0.248   2.360  15.442  1.4411 -1.1120  0.7776
 4300SOL     OW24358   3.597   2.219   9.356 -0.1601 -0.2094 -0.4528
 4300SOL    HW124359   3.679   2.200   9.401 -0.6733 -1.1086  0.0927
 4300SOL    HW224360   3.535   2.209   9.428 -1.0528 -3.1896 -1.6634
 4301SOL     OW24361   3.533   1.077  13.054 -0.2553 -0.1568 -0.1926
 4301SOL    HW124362   3.453   1.034  13.084 -0.4479  1.0755  1.0483
 4301SOL    HW224363   3.597   1.062  13.124  0.4569 -0.3902 -0.8914
 4302SOL     OW24364   3.297   3.146  10.705 -0.1737 -0.6446  0.5485
 4302SOL    HW124365   3.263   3.218  10.651 -1.1958 -2.0466 -0.6772
 4302SOL    HW224366   3.392   3.138  10.692 -0.1185 -1.6658  1.5614
 4303SOL     OW24367   4.165   4.001  15.210  0.2123  0.7483  0.4341
 4303SOL    HW124368   4.134   3.960  15.129  1.9348 -1.6907  0.9843
 4303SOL    HW224369   4.098   3.975  15.274 -0.5334 -0.2898 -0.7773
 4304SOL     OW24370   0.345   2.939   9.715 -0.5366  0.1321  0.3779
 4304SOL    HW124371   0.364   2.970   9.804  0.0297 -3.6723  1.5887
 4304SOL    HW224372   0.254   2.908   9.713  0.2570 -2.0886 -0.4315
 4305SOL     OW24373   0.280   1.904   1.385 -0.1686  0.3609  0.3108
 4305SOL    HW124374   0.184   1.904   1.392 -0.1656 -0.2115  0.3548
 4305SOL    HW224375   0.289   1.969   1.314  0.7421 -0.7970 -0.6299
 4306SOL     OW24376   3.915   3.475   5.466  0.0731 -0.0687 -0.3612
 4306SOL    HW124377   3.900   3.501   5.557  2.3110 -0.3952  0.0735
 4306SOL    HW224378   3.834   3.492   5.418 -0.4239 -2.8915 -0.5217
 4307SOL     OW24379   0.072   2.583  16.037  0.0657 -0.5431  0.4326
 4307SOL    HW124380   0.083   2.511  16.099 -0.0666  1.0875  2.3150
 4307SOL    HW224381   0.128   2.648  16.080  0.8807 -0.1972 -1.1493
 4308SOL     OW24382   3.186   4.498  15.682  0.1386  0.1870 -0.1951
 4308SOL    HW124383   3.094   4.525  15.672  0.2479 -0.2717 -2.5153
 4308SOL    HW224384   3.168   4.408  15.709 -2.2969  1.2470  1.7153
 4309SOL     OW24385   2.833   1.854   1.585  0.2418  0.0106  0.0305
 4309SOL    HW124386   2.892   1.836   1.511 -0.5222  1.1223 -0.8418
 4309SOL    HW224387   2.895   1.909   1.633 -0.1645 -0.8176  1.5131
 4310SOL     OW24388   0.617   0.798  11.533 -0.0733  0.2366 -0.1046
 4310SOL    HW124389   0.654   0.882  11.560 -1.8531  1.1921 -0.5863
 4310SOL    HW224390   0.529   0.795  11.571 -0.9574 -0.0700 -2.1897
 4311SOL     OW24391   3.126   4.382   7.579  0.0543 -0.5051  0.0316
 4311SOL    HW124392   3.081   4.452   7.626 -1.5175 -1.1497 -0.5290
 4311SOL    HW224393   3.129   4.312   7.643  1.1086 -1.4465 -1.0408
 4312SOL     OW24394   4.463   3.126   5.591 -0.1463 -0.7051 -0.1106
 4312SOL    HW124395   4.386   3.070   5.599  0.5693 -1.9286 -1.7241
 4312SOL    HW224396   4.431   3.209   5.626  1.2834 -0.6676  1.0983
 4313SOL     OW24397   1.033   0.395   6.131  0.0608 -0.0129 -0.0376
 4313SOL    HW124398   0.992   0.411   6.046 -3.6157 -2.4392  1.2191
 4313SOL    HW224399   0.981   0.458   6.181 -0.4306 -0.6962  0.3119
 4314SOL     OW24400   4.143   1.220   1.694  0.1600 -0.2237  0.1230
 4314SOL    HW124401   4.138   1.275   1.616 -0.7312  1.8233  1.6199
 4314SOL    HW224402   4.073   1.155   1.686 -0.0999 -0.3161  2.9683
 4315SOL     OW24403   4.445   2.501   7.597 -0.3894  0.1391  0.0441
 4315SOL    HW124404   4.444   2.581   7.544  0.4874 -0.8297 -1.4099
 4315SOL    HW224405   4.353   2.481   7.616 -0.6054  1.8336  0.7821
 4316SOL     OW24406   4.100   1.089   5.457 -0.0953  0.5961 -0.4563
 4316SOL    HW124407   4.190   1.103   5.487 -0.5336  0.0136  1.1724
 4316SOL    HW224408   4.088   1.000   5.492 -2.2593 -0.0883 -3.0227
 4317SOL     OW24409   2.193   0.597  13.669  0.3335  0.0347  0.6169
 4317SOL    HW124410   2.144   0.593  13.751  0.3668  1.8400  0.7360
 4317SOL    HW224411   2.138   0.668  13.634  0.9755 -0.2399 -0.9358
 4318SOL     OW24412   4.021   0.029   7.293  0.2879 -0.2023 -0.2435
 4318SOL    HW124413   4.019   4.692   7.364  2.5407  0.8055  0.7250
 4318SOL    HW224414   4.064   4.713   7.219  1.1806  1.8204 -0.8947
 4319SOL     OW24415   0.403   0.011   4.771  0.3081  0.1127 -0.4814
 4319SOL    HW124416   0.357   0.076   4.825  1.5388  0.6736 -0.1067
 4319SOL    HW224417   0.441   0.081   4.717 -0.9381  0.8349 -0.4284
 4320SOL     OW24418   0.014   0.978  12.875  0.2482 -0.5009  0.0115
 4320SOL    HW124419   0.089   0.963  12.817  0.6960  2.0994 -0.0819
 4320SOL    HW224420   0.063   0.991  12.956  1.1435 -3.6006 -0.0660
 4321SOL     OW24421   3.891   1.937   7.145 -0.3819 -0.4300 -0.0066
 4321SOL    HW124422   3.814   1.964   7.195 -1.7007  0.4383 -2.4889
 4321SOL    HW224423   3.961   1.964   7.204  0.7112 -1.3170 -0.8788
 4322SOL     OW24424   1.089   1.008  10.115  0.1786 -0.0239  0.6982
 4322SOL    HW124425   1.104   0.997  10.021 -0.2594  2.4603  0.3584
 4322SOL    HW224426   1.041   1.090  10.110  2.3198  1.2142  0.8246
 4323SOL     OW24427   3.821   3.166   4.038 -0.2836  0.1294  0.0165
 4323SOL    HW124428   3.844   3.093   3.981 -1.0446  0.0128 -0.1401
 4323SOL    HW224429   3.834   3.240   3.978 -1.3826 -1.7413 -2.5261
 4324SOL     OW24430   2.813   1.082   6.650 -0.2940  0.0681 -0.2068
 4324SOL    HW124431   2.793   1.019   6.582  0.1590 -0.1549 -0.1288
 4324SOL    HW224432   2.864   1.026   6.708 -1.5878 -1.0557 -0.1599
 4325SOL     OW24433   1.140   1.996   5.594  0.1889 -0.5165 -0.5980
 4325SOL    HW124434   1.185   2.007   5.678  0.4627 -0.7734 -0.7083
 4325SOL    HW224435   1.201   2.045   5.539 -0.0303  1.0176  0.5341
 4326SOL     OW24436   3.550   0.026   2.696 -0.2452 -0.2828 -0.0598
 4326SOL    HW124437   3.468   4.717   2.660  0.4400 -1.1585 -0.7613
 4326SOL    HW224438   3.569   4.697   2.771 -2.5857 -1.4838 -0.3618
 4327SOL     OW24439   1.085   1.651   1.469 -0.1055 -0.2213  0.4803
 4327SOL    HW124440   1.103   1.677   1.378 -2.3735  0.7144  0.3142
 4327SOL    HW224441   1.107   1.558   1.466  1.5440  0.1776  0.1226
 4328SOL     OW24442   3.880   0.349   1.689  0.1754  0.2449 -0.2848
 4328SOL    HW124443   3.946   0.357   1.757  0.7886 -1.3737 -0.6820
 4328SOL    HW224444   3.936   0.340   1.612  2.0034  4.2477  0.5817
 4329SOL     OW24445   1.850   4.097   7.380  0.0414  0.1282  0.7837
 4329SOL    HW124446   1.780   4.156   7.408 -0.4335 -0.9194  1.8079
 4329SOL    HW224447   1.877   4.151   7.306 -0.5469 -0.3874  0.1956
 4330SOL     OW24448   0.276   0.561   8.849  0.8740 -0.1418 -0.0157
 4330SOL    HW124449   0.334   0.500   8.803 -0.3948 -2.1652  1.0791
 4330SOL    HW224450   0.200   0.503   8.857 -0.5787  1.8594  0.7139
 4331SOL     OW24451   4.444   4.579   4.630  0.4379 -0.7616 -1.0438
 4331SOL    HW124452   4.413   4.534   4.709  3.1218 -1.9221 -0.6710
 4331SOL    HW224453   4.538   4.564   4.628  0.3251 -1.4901 -0.5366
 4332SOL     OW24454   2.281   3.640   7.675  0.5370 -0.4032  0.2889
 4332SOL    HW124455   2.252   3.731   7.675  0.9136 -0.2874 -0.5485
 4332SOL    HW224456   2.288   3.619   7.768  1.5758  0.5180  0.4092
 4333SOL     OW24457   3.400   2.638   6.544  0.0302  0.1741  0.4480
 4333SOL    HW124458   3.391   2.710   6.482  0.0886 -2.1626 -2.3257
 4333SOL    HW224459   3.329   2.658   6.605 -1.1580  1.6847 -1.4285
 4334SOL     OW24460   1.271   4.572  11.159  0.1252  0.4784 -0.5150
 4334SOL    HW124461   1.270   4.666  11.141  0.3081  0.8658  1.4163
 4334SOL    HW224462   1.366   4.565  11.160  0.0343 -0.8034 -2.3815
 4335SOL     OW24463   3.899   2.452   4.547  0.1812  0.3041 -0.7751
 4335SOL    HW124464   3.946   2.391   4.603  1.8805  1.2335 -1.2060
 4335SOL    HW224465   3.903   2.408   4.462  0.4907 -0.1041 -0.5509
 4336SOL     OW24466   3.958   0.456  13.482  0.0747  0.4700 -0.2313
 4336SOL    HW124467   3.926   0.449  13.392  0.2560  0.6004 -0.3051
 4336SOL    HW224468   3.997   0.543  13.488  0.1221  0.4239  0.1687
 4337SOL     OW24469   3.786   0.084   7.123 -0.1129  0.0941  0.7070
 4337SOL    HW124470   3.825   0.036   7.050 -1.9681  0.8936 -0.8058
 4337SOL    HW224471   3.845   0.068   7.196  2.3848 -0.4828 -1.4681
 4338SOL     OW24472   1.187   3.904   9.393  0.1263  0.2568  0.0992
 4338SOL    HW124473   1.127   3.830   9.393  1.7551 -1.0623  2.1495
 4338SOL    HW224474   1.144   3.974   9.344 -1.6522 -1.9606 -1.5209
 4339SOL     OW24475   3.966   1.662   3.700 -0.1192 -0.1464 -0.2486
 4339SOL    HW124476   4.041   1.682   3.644  0.8531 -0.1509  1.0397
 4339SOL    HW224477   3.890   1.683   3.646 -0.5059  2.4083  1.2419
 4340SOL     OW24478   1.163   1.334   7.744 -0.8974 -0.0376 -0.3995
 4340SOL    HW124479   1.183   1.241   7.737 -2.7352 -0.6504  2.5615
 4340SOL    HW224480   1.074   1.325   7.709 -1.2882 -2.6502  1.2792
 4341SOL     OW24481   3.150   1.429   3.014 -0.1103  0.3046 -0.3086
 4341SOL    HW124482   3.160   1.359   2.949  1.4627 -0.3304  0.6306
 4341SOL    HW224483   3.240   1.448   3.039  0.5707 -1.9636 -1.0237
 4342SOL     OW24484   3.621   0.221   1.474 -0.5003  0.2500 -0.3226
 4342SOL    HW124485   3.687   0.151   1.471 -0.4165  0.2924  0.3903
 4342SOL    HW224486   3.541   0.170   1.487  0.3316 -1.2772 -1.2245
 4343SOL     OW24487   0.205   4.137   5.507  0.1417 -0.2771  0.1348
 4343SOL    HW124488   0.259   4.108   5.580  2.9032  0.7402 -1.5177
 4343SOL    HW224489   0.157   4.208   5.551  0.2926  0.0321 -0.1968
 4344SOL     OW24490   2.156   1.428  14.951 -0.0453 -0.3213 -0.6463
 4344SOL    HW124491   2.134   1.480  15.028 -0.6263  0.7341 -1.5200
 4344SOL    HW224492   2.125   1.341  14.977 -0.7579  0.1578  0.0895
 4345SOL     OW24493   2.498   2.487   9.767 -0.4274 -0.2374  0.6006
 4345SOL    HW124494   2.539   2.477   9.854 -2.4561  0.7894  1.6612
 4345SOL    HW224495   2.572   2.529   9.724  0.9742  0.3315  3.5473
 4346SOL     OW24496   2.058   2.481  10.758  0.2581  0.5468  0.1145
 4346SOL    HW124497   2.139   2.452  10.800  1.4015 -1.8680 -3.7183
 4346SOL    HW224498   2.055   2.441  10.671 -1.0152  0.5363  0.1673
 4347SOL     OW24499   0.654   2.129   2.920 -0.7918 -0.0266 -0.2425
 4347SOL    HW124500   0.650   2.206   2.976 -1.2695  0.1766 -0.5551
 4347SOL    HW224501   0.709   2.152   2.845 -1.6531  1.9998 -0.2513
 4348SOL     OW24502   0.668   3.810  13.379 -1.0421 -0.9522  0.1042
 4348SOL    HW124503   0.689   3.723  13.414  1.2573 -0.1614  0.6663
 4348SOL    HW224504   0.717   3.869  13.436 -0.7297 -0.6525 -0.4786
 4349SOL     OW24505   4.707   2.473   9.315  0.2917 -0.1290  0.3361
 4349SOL    HW124506   4.678   2.524   9.240 -0.0048 -0.3449  0.3045
 4349SOL    HW224507   4.630   2.442   9.362  0.1876  1.2611  1.0798
 4350SOL     OW24508   0.422   1.311   5.120 -0.3848  0.6830 -0.9638
 4350SOL    HW124509   0.372   1.384   5.157  0.8478  0.6805  0.7038
 4350SOL    HW224510   0.442   1.346   5.033 -0.3709 -1.0328 -1.6540
 4351SOL     OW24511   0.133   1.366   0.950 -0.3327  0.0755  0.1430
 4351SOL    HW124512   0.044   1.376   0.915 -0.8563 -2.4576  0.7901
 4351SOL    HW224513   0.108   1.347   1.040 -1.7345  0.5610 -0.1350
 4352SOL     OW24514   3.820   4.472   4.934  0.5651  0.3917  0.3919
 4352SOL    HW124515   3.802   4.380   4.954 -1.6877  0.6102 -0.7171
 4352SOL    HW224516   3.793   4.481   4.843  0.1679 -1.8209  0.2970
 4353SOL     OW24517   0.620   2.324   3.107  0.3176  0.1658  0.7230
 4353SOL    HW124518   0.698   2.371   3.135 -0.6056  0.9810  1.8966
 4353SOL    HW224519   0.573   2.398   3.070  0.3712 -0.5491 -0.7659
 4354SOL     OW24520   2.645   0.841   0.717 -0.3184  0.0334 -0.3381
 4354SOL    HW124521   2.553   0.867   0.708  0.0227  0.9854 -0.9637
 4354SOL    HW224522   2.677   0.930   0.730  0.9212 -0.0044 -3.2750
 4355SOL     OW24523   4.420   0.409   3.789  0.2575  0.0856 -0.1710
 4355SOL    HW124524   4.418   0.401   3.694  0.9495 -1.8232 -0.0407
 4355SOL    HW224525   4.399   0.318   3.810  0.4159  0.2788  0.8478
 4356SOL     OW24526   0.405   4.710  16.626  0.0461  0.4960 -0.3659
 4356SOL    HW124527   0.376   4.653  16.555  3.3932  0.6124 -1.8443
 4356SOL    HW224528   0.334   0.048  16.623  0.9689  1.5242 -0.1021
 4357SOL     OW24529   0.495   1.706  14.969  0.3234  0.0517  0.6707
 4357SOL    HW124530   0.458   1.643  14.907  0.0696  0.5471  0.3222
 4357SOL    HW224531   0.582   1.667  14.979  0.1225 -0.4445  0.4642
 4358SOL     OW24532   3.134   0.749   2.190 -1.0090 -0.2375 -0.0637
 4358SOL    HW124533   3.077   0.707   2.254 -0.4176 -0.9846 -0.0174
 4358SOL    HW224534   3.160   0.674   2.136 -0.1873 -1.0910  1.5192
 4359SOL     OW24535   3.552   3.487   7.515  0.2944  0.4763 -0.4373
 4359SOL    HW124536   3.592   3.503   7.601 -1.1189  0.5829  0.1936
 4359SOL    HW224537   3.592   3.561   7.470 -1.5491  1.5451 -0.3181
 4360SOL     OW24538   3.348   0.951   0.893  0.0215 -0.5978  0.0569
 4360SOL    HW124539   3.397   0.946   0.975 -0.3168 -0.6893  0.2540
 4360SOL    HW224540   3.395   0.887   0.841 -2.8936 -0.6679 -2.5025
 4361SOL     OW24541   4.407   4.047   6.524 -0.2627  0.1849  0.3814
 4361SOL    HW124542   4.364   4.112   6.581  0.2946  1.2617 -0.4301
 4361SOL    HW224543   4.496   4.078   6.543 -0.5156  0.6913  0.7655
 4362SOL     OW24544   1.001   3.262   7.857 -0.2740  0.0079  0.2588
 4362SOL    HW124545   0.921   3.210   7.843 -0.8617  1.1475 -0.6414
 4362SOL    HW224546   0.967   3.338   7.905 -0.2539 -1.2789  2.3410
 4363SOL     OW24547   1.984   1.422   1.404  0.0514 -0.5287 -0.3392
 4363SOL    HW124548   2.012   1.340   1.363 -2.0722 -1.0533 -0.7365
 4363SOL    HW224549   1.979   1.395   1.496 -0.1938 -0.4683 -0.3340
 4364SOL     OW24550   0.644   1.725   4.467 -0.0480  0.0015 -0.5553
 4364SOL    HW124551   0.600   1.659   4.521 -0.3062  0.2913 -0.4100
 4364SOL    HW224552   0.590   1.729   4.388 -0.5344 -1.4358 -0.3087
 4365SOL     OW24553   3.764   0.862   2.072 -0.3526  0.1481  0.1960
 4365SOL    HW124554   3.733   0.804   2.003 -0.8769  0.4969  0.1425
 4365SOL    HW224555   3.681   0.892   2.109 -0.5591  0.4150 -0.4924
 4366SOL     OW24556   4.282   3.382   7.163 -0.2331 -0.1058  0.2100
 4366SOL    HW124557   4.255   3.448   7.227  0.5823 -0.0497  0.5007
 4366SOL    HW224558   4.198   3.350   7.129  0.8533 -2.6117 -0.1354
 4367SOL     OW24559   1.015   3.882   9.048  0.1265  0.0402  0.4052
 4367SOL    HW124560   1.042   3.947   9.113  0.8260  0.8840 -0.7312
 4367SOL    HW224561   0.963   3.932   8.985 -1.0092 -1.5317  0.1005
 4368SOL     OW24562   1.049   0.831   6.508  0.1280 -0.0995  0.5197
 4368SOL    HW124563   0.982   0.867   6.566  0.2614  1.0595 -0.0362
 4368SOL    HW224564   1.130   0.833   6.559 -1.0284 -0.6770  2.3954
 4369SOL     OW24565   1.295   4.223   5.313  1.2508 -0.1938  0.2806
 4369SOL    HW124566   1.337   4.184   5.389 -1.3839  0.0966  1.8798
 4369SOL    HW224567   1.290   4.155   5.246  0.2097  0.1035  0.0527
 4370SOL     OW24568   2.700   2.307  16.122 -0.1673 -0.1910  0.4687
 4370SOL    HW124569   2.728   2.247  16.053  1.6956  0.7724  0.3745
 4370SOL    HW224570   2.717   2.256  16.201 -0.2822 -1.5179 -0.3518
 4371SOL     OW24571   1.557   0.592   7.798 -0.3565 -0.4381 -0.2559
 4371SOL    HW124572   1.557   0.600   7.703  0.3164 -1.0695 -0.3129
 4371SOL    HW224573   1.509   0.509   7.802  1.2067 -1.1901  2.6603
 4372SOL     OW24574   2.021   4.584  16.012  0.5463  0.4706  0.2697
 4372SOL    HW124575   1.972   4.667  16.008 -3.2487 -1.8060 -0.5208
 4372SOL    HW224576   1.964   4.543  16.078  0.6903 -0.8200 -0.4066
 4373SOL     OW24577   4.044   0.166  10.344  0.8905  0.1108  0.0879
 4373SOL    HW124578   3.967   0.209  10.380 -1.1877 -4.2442  0.8232
 4373SOL    HW224579   4.103   0.241  10.332  2.1780 -0.8431  0.5113
 4374SOL     OW24580   3.431   1.092   6.076 -0.2631 -0.1261 -0.2959
 4374SOL    HW124581   3.413   0.999   6.088 -0.6043 -0.0618 -0.3059
 4374SOL    HW224582   3.498   1.091   6.008  0.9056  0.8153  0.8349
 4375SOL     OW24583   4.383   0.948  17.529 -0.0008 -0.0598  0.2939
 4375SOL    HW124584   4.295   0.929  17.496 -0.3642  1.5359  0.3623
 4375SOL    HW224585   4.409   1.005  17.456 -1.9379  1.2645  0.6364
 4376SOL     OW24586   4.102   0.737  10.207  0.0001 -0.3968 -0.2259
 4376SOL    HW124587   4.150   0.813  10.173 -0.5372  0.1251  0.1914
 4376SOL    HW224588   4.165   0.725  10.278 -0.4330 -1.5336 -0.0377
 4377SOL     OW24589   3.727   1.394   8.130  0.4274  0.4946  0.0881
 4377SOL    HW124590   3.707   1.313   8.178  0.5104 -0.4287 -1.4524
 4377SOL    HW224591   3.794   1.435   8.185  0.9408  0.9074 -0.8509
 4378SOL     OW24592   1.586   1.737   9.526 -0.9201 -0.1775  0.7055
 4378SOL    HW124593   1.618   1.798   9.459 -1.6182  1.7017  2.0991
 4378SOL    HW224594   1.507   1.701   9.484 -0.2810 -1.0984  0.2956
 4379SOL     OW24595   1.609   1.803   2.693 -0.2867  0.2612 -0.0719
 4379SOL    HW124596   1.549   1.838   2.628 -1.1008 -1.1394 -0.0695
 4379SOL    HW224597   1.629   1.884   2.739  2.2069 -1.5241  1.9765
 4380SOL     OW24598   0.518   2.797   8.681  0.2453 -0.2157 -0.0635
 4380SOL    HW124599   0.497   2.722   8.737  1.3694  0.0400  0.7180
 4380SOL    HW224600   0.613   2.811   8.687  0.1464 -0.0486  1.1430
 4381SOL     OW24601   2.443   4.336   8.830 -0.5752 -0.0349  0.6081
 4381SOL    HW124602   2.525   4.368   8.869  0.9077 -0.6486 -2.0043
 4381SOL    HW224603   2.410   4.273   8.893  0.9484 -2.1104 -0.6783
 4382SOL     OW24604   4.595   4.249   4.555 -0.5641  0.0766  0.2565
 4382SOL    HW124605   4.619   4.219   4.643  3.0797 -0.4899 -0.9057
 4382SOL    HW224606   4.527   4.193   4.518  0.2770 -0.6928 -0.1411
 4383SOL     OW24607   3.479   1.715  11.302  0.1537 -0.0373 -0.7138
 4383SOL    HW124608   3.533   1.651  11.349 -0.4363  0.3061  0.4406
 4383SOL    HW224609   3.392   1.677  11.286  0.2100 -1.3763  2.1474
 4384SOL     OW24610   1.701   2.011   4.996  0.0684  0.4505 -0.1301
 4384SOL    HW124611   1.786   2.053   4.979  0.8255 -1.3482 -0.7928
 4384SOL    HW224612   1.657   2.034   4.914 -0.3335  1.1426  0.2830
 4385SOL     OW24613   3.942   4.439  12.434  0.1354 -0.2270 -0.5757
 4385SOL    HW124614   4.026   4.441  12.479 -0.1458 -1.6139  0.0001
 4385SOL    HW224615   3.915   4.349  12.453 -0.6027  0.0425 -0.3366
 4386SOL     OW24616   0.221   0.572   3.493 -0.4021 -0.2599  0.0208
 4386SOL    HW124617   0.297   0.518   3.473 -0.5058 -0.6824  0.7488
 4386SOL    HW224618   0.148   0.538   3.442 -1.4812 -0.7492  1.8962
 4387SOL     OW24619   3.520   0.850   4.746  0.2651 -0.3681 -0.0687
 4387SOL    HW124620   3.613   0.875   4.746  0.3250 -0.6022  1.9479
 4387SOL    HW224621   3.484   0.882   4.664  0.3363  0.9606  0.4104
 4388SOL     OW24622   0.854   4.695  11.669  0.5446 -0.1991 -0.5047
 4388SOL    HW124623   0.872   0.048  11.618 -1.5716 -0.8832 -2.3327
 4388SOL    HW224624   0.759   4.692  11.682  0.2571 -0.9114 -2.8586
 4389SOL     OW24625   4.117   3.998   9.442  0.1843 -0.2084 -0.3255
 4389SOL    HW124626   4.025   3.990   9.466 -0.1991 -0.7535 -1.9897
 4389SOL    HW224627   4.153   3.937   9.507 -3.3093 -2.0891 -0.1476
 4390SOL     OW24628   3.455   1.955   6.312  0.4496  0.2271  0.2034
 4390SOL    HW124629   3.362   1.938   6.295  0.5862  0.5382 -0.8085
 4390SOL    HW224630   3.489   1.890   6.250  1.8671 -0.5903  1.8257
 4391SOL     OW24631   2.635   1.050   5.828  0.2244  0.3570 -0.3001
 4391SOL    HW124632   2.673   1.093   5.751  0.9350  0.1303 -0.0800
 4391SOL    HW224633   2.628   0.959   5.799  2.6517 -0.1521  0.7183
 4392SOL     OW24634   0.803   4.227  12.315 -0.2725 -0.3740  0.1163
 4392SOL    HW124635   0.748   4.263  12.384 -0.5525 -0.9074  0.1677
 4392SOL    HW224636   0.848   4.307  12.288  0.6835 -1.1502 -0.6245
 4393SOL     OW24637   2.915   2.445   5.674 -0.4522 -0.6391  0.0588
 4393SOL    HW124638   2.922   2.538   5.651  1.0258 -0.1379  2.5126
 4393SOL    HW224639   2.825   2.421   5.650 -0.5659 -0.7052  0.5544
 4394SOL     OW24640   2.912   1.022   0.646 -0.0386 -0.0028 -0.4608
 4394SOL    HW124641   3.006   1.039   0.645 -0.3405  1.7024  0.4267
 4394SOL    HW224642   2.877   1.111   0.640  0.8235  0.5288  2.5186
 4395SOL     OW24643   1.149   1.915   6.609  0.0013 -0.2577  0.0163
 4395SOL    HW124644   1.200   1.982   6.563 -2.0962  1.4149  0.1348
 4395SOL    HW224645   1.187   1.839   6.566  1.6139 -0.1816  1.2714
 4396SOL     OW24646   2.765   3.715   8.387 -0.1355  0.7542 -0.2601
 4396SOL    HW124647   2.849   3.758   8.367 -0.9948  2.1376 -0.8834
 4396SOL    HW224648   2.796   3.625   8.402  0.5040  1.2353  1.3651
 4397SOL     OW24649   0.952   0.174   8.828 -0.1974 -0.3266  0.2186
 4397SOL    HW124650   0.998   0.205   8.750  1.3511 -0.3590  1.1336
 4397SOL    HW224651   1.005   0.213   8.897  0.8934  2.0696 -1.9609
 4398SOL     OW24652   0.318   0.963   8.714 -0.0754 -0.0198  0.3038
 4398SOL    HW124653   0.291   1.048   8.679  2.2878  0.0125 -1.3941
 4398SOL    HW224654   0.281   0.970   8.802 -2.8566  0.0709 -0.8748
 4399SOL     OW24655   4.388   2.485   7.202 -0.5993 -0.0019  0.2450
 4399SOL    HW124656   4.372   2.411   7.144 -1.0288  0.9316 -0.8375
 4399SOL    HW224657   4.302   2.488   7.244 -0.8830 -1.4289 -0.2215
 4400SOL     OW24658   0.531   1.235   3.574 -0.2209 -0.0013 -0.3155
 4400SOL    HW124659   0.448   1.188   3.567 -0.4265  0.2198  0.7608
 4400SOL    HW224660   0.578   1.179   3.635  0.4518  2.2150  1.1995
 4401SOL     OW24661   0.640   2.713   5.807 -0.2327 -0.2140  0.6555
 4401SOL    HW124662   0.599   2.654   5.744 -2.0840  0.0622  1.6104
 4401SOL    HW224663   0.691   2.773   5.752  1.1358 -2.9100 -0.9802
 4402SOL     OW24664   4.556   0.010   8.558  0.3536  0.2166  0.1844
 4402SOL    HW124665   4.532   0.071   8.487  1.3160  0.3718  0.0030
 4402SOL    HW224666   4.525   0.065   8.629 -0.8865 -0.8706  0.4885
 4403SOL     OW24667   3.295   3.867   8.546 -0.1031 -0.4521  0.3800
 4403SOL    HW124668   3.345   3.926   8.603 -0.1596 -0.5913  0.5725
 4403SOL    HW224669   3.352   3.793   8.566  0.1981 -0.2306  0.3582
 4404SOL     OW24670   3.585   0.463  11.190  0.4087 -0.5060  0.4243
 4404SOL    HW124671   3.654   0.417  11.142  0.9278 -0.9743  1.6049
 4404SOL    HW224672   3.545   0.385  11.230  1.0064 -1.2465 -0.4112
 4405SOL     OW24673   1.485   1.435   5.365 -0.3063 -0.3326 -0.1519
 4405SOL    HW124674   1.541   1.378   5.418  0.6058 -0.4623 -1.2523
 4405SOL    HW224675   1.499   1.515   5.415 -0.4392 -0.6394  0.3795
 4406SOL     OW24676   0.389   0.455   5.014  0.6931  0.1184 -1.0728
 4406SOL    HW124677   0.304   0.499   5.005 -0.0983 -1.0632  0.7569
 4406SOL    HW224678   0.397   0.467   5.109  0.0807  1.2768 -1.1679
 4407SOL     OW24679   1.532   1.491  13.233 -0.5004 -0.5495  0.5411
 4407SOL    HW124680   1.445   1.499  13.270 -0.3744 -0.2031  0.7674
 4407SOL    HW224681   1.579   1.572  13.257 -0.0378 -0.2568 -1.3143
 4408SOL     OW24682   0.314   4.261   6.365  0.4909  0.2553  0.5366
 4408SOL    HW124683   0.379   4.331   6.364  0.1811  0.5248 -1.3213
 4408SOL    HW224684   0.356   4.189   6.412  0.8645 -0.8825 -1.5402
 4409SOL     OW24685   1.489   0.807   7.933  0.4995 -0.2642  0.3129
 4409SOL    HW124686   1.502   0.722   7.891  1.7978 -0.4249  1.0583
 4409SOL    HW224687   1.423   0.798   8.002  1.1952 -2.1238  0.7396
 4410SOL     OW24688   1.773   3.155  16.117 -0.2364  0.1451  0.1608
 4410SOL    HW124689   1.777   3.061  16.135 -0.2153  0.1722  0.3002
 4410SOL    HW224690   1.834   3.172  16.045 -1.0969 -0.7404 -0.7622
 4411SOL     OW24691   0.655   0.485   3.068 -0.0087  0.1109  0.1788
 4411SOL    HW124692   0.566   0.466   3.098 -0.1436  0.9128  0.2873
 4411SOL    HW224693   0.711   0.451   3.137 -1.4146 -1.1463  0.7123
 4412SOL     OW24694   3.306   4.023   6.130  0.5116 -1.0539  0.0509
 4412SOL    HW124695   3.352   4.025   6.214  1.8230  0.2178 -0.6942
 4412SOL    HW224696   3.260   3.940   6.145  0.8490 -1.2886 -0.2217
 4413SOL     OW24697   4.362   2.134   6.771 -0.5001  0.5483 -0.0283
 4413SOL    HW124698   4.453   2.162   6.783 -0.3188  0.7306 -1.9073
 4413SOL    HW224699   4.366   2.041   6.796 -1.2234  0.6551  0.4837
 4414SOL     OW24700   0.528   3.136   4.038 -0.3693  0.1730  0.6418
 4414SOL    HW124701   0.613   3.171   4.066 -0.2205 -1.0987  1.7754
 4414SOL    HW224702   0.487   3.204   3.984  1.1423 -0.1594 -0.8782
 4415SOL     OW24703   0.611   3.655   6.653  0.1176  0.0941  0.0625
 4415SOL    HW124704   0.607   3.748   6.675 -2.5634  0.3309 -1.4166
 4415SOL    HW224705   0.523   3.629   6.624 -0.0231  1.5997 -0.8222
 4416SOL     OW24706   4.401   1.725  17.566 -0.2430 -0.1760 -0.4558
 4416SOL    HW124707   4.362   1.810  17.550 -0.3137 -0.4724 -1.8513
 4416SOL    HW224708   4.436   1.731  17.655  1.6264 -2.2516 -1.0194
 4417SOL     OW24709   1.072   0.577  15.906 -0.0398 -0.0667 -0.1064
 4417SOL    HW124710   0.982   0.570  15.874  0.3805 -0.5099 -1.2096
 4417SOL    HW224711   1.059   0.590  16.000  2.3294 -0.6380  0.2963
 4418SOL     OW24712   2.748   1.367   3.965 -0.2094 -0.2755 -0.5318
 4418SOL    HW124713   2.790   1.387   3.882 -2.6946 -2.9329 -2.4337
 4418SOL    HW224714   2.773   1.446   4.013 -1.1590  0.7920 -1.8177
 4419SOL     OW24715   2.130   3.465   7.536  0.1895 -0.0700 -0.1319
 4419SOL    HW124716   2.195   3.527   7.571 -0.0258  0.2450 -0.2947
 4419SOL    HW224717   2.052   3.480   7.589  0.1356 -2.1227  0.3679
 4420SOL     OW24718   3.484   3.442   3.739  0.6405  0.4033 -0.5741
 4420SOL    HW124719   3.422   3.494   3.688  2.0565  0.5486 -2.1359
 4420SOL    HW224720   3.567   3.443   3.692  0.5853  3.3969 -0.6301
 4421SOL     OW24721   0.972   0.573  16.170 -0.5478  0.6986 -0.1036
 4421SOL    HW124722   0.901   0.517  16.200  0.8370 -2.6341 -3.0257
 4421SOL    HW224723   0.935   0.658  16.195 -2.1569  0.1231 -0.5221
 4422SOL     OW24724   4.174   1.726   6.293 -0.5739  0.3234 -0.4003
 4422SOL    HW124725   4.188   1.770   6.377  4.1920  1.9192 -2.0413
 4422SOL    HW224726   4.224   1.645   6.301 -1.5990 -0.1634  1.0084
 4423SOL     OW24727   3.703   2.689   1.288 -0.0036 -0.4643  0.1292
 4423SOL    HW124728   3.616   2.651   1.279  0.1407 -0.9838  0.8717
 4423SOL    HW224729   3.748   2.639   1.220 -0.7718  1.2245 -1.6095
 4424SOL     OW24730   4.719   4.468   7.665 -0.6616 -0.0198 -0.1596
 4424SOL    HW124731   4.631   4.481   7.628 -0.2769  2.1370 -0.2877
 4424SOL    HW224732   4.691   4.423   7.744 -0.3511 -1.0779 -0.6432
 4425SOL     OW24733   0.113   3.125   0.339  0.1183  0.6586  0.2331
 4425SOL    HW124734   0.040   3.100   0.283 -1.0058  0.1568  1.9211
 4425SOL    HW224735   0.128   3.213   0.303 -1.9795  0.8483 -0.1556
 4426SOL     OW24736   1.595   3.764   1.082 -0.1069  0.1406 -0.0815
 4426SOL    HW124737   1.634   3.835   1.031  1.5254 -2.0278 -1.8678
 4426SOL    HW224738   1.586   3.815   1.163  2.2757 -0.1733  0.3840
 4427SOL     OW24739   2.523   1.062   8.555  0.0410 -0.7563  0.3707
 4427SOL    HW124740   2.598   1.071   8.614 -2.2547  0.6455  3.0881
 4427SOL    HW224741   2.482   1.142   8.589  0.7945 -1.7252  3.5110
 4428SOL     OW24742   1.278   3.820   6.715  0.0948 -0.6249 -0.6964
 4428SOL    HW124743   1.255   3.873   6.791  1.6688  2.7574 -2.5659
 4428SOL    HW224744   1.222   3.867   6.653  0.5166  0.3839 -0.3069
 4429SOL     OW24745   0.599   2.772   4.625  0.5946  0.3365  0.1115
 4429SOL    HW124746   0.505   2.767   4.640  0.8746 -0.6635  1.5480
 4429SOL    HW224747   0.611   2.677   4.618 -1.9018 -0.0321  0.9212
 4430SOL     OW24748   4.129   1.660  14.024  0.4466  0.4977 -0.1815
 4430SOL    HW124749   4.132   1.659  14.120  1.3590  2.7440 -0.1673
 4430SOL    HW224750   4.223   1.641  14.015 -0.0946 -1.0777 -2.3950
 4431SOL     OW24751   0.216   0.053   4.235 -0.0242  0.5025  0.0367
 4431SOL    HW124752   0.270   4.712   4.275  1.5077  2.3042  0.9906
 4431SOL    HW224753   0.185   4.724   4.163 -0.8117  1.3724 -0.2921
 4432SOL     OW24754   0.053   0.764   6.043 -0.0006  0.1574 -0.1071
 4432SOL    HW124755   4.706   0.823   6.023  1.3060  1.0339 -2.2501
 4432SOL    HW224756   0.068   0.713   5.964  0.5972  1.2550 -0.6968
 4433SOL     OW24757   0.465   0.154   2.808 -0.1180  0.4308  0.1596
 4433SOL    HW124758   0.482   0.117   2.721 -1.2837  0.2760  0.0016
 4433SOL    HW224759   0.370   0.159   2.813 -0.2036 -1.7200  0.4405
 4434SOL     OW24760   0.371   0.017  13.998  0.0749  0.5645 -0.5706
 4434SOL    HW124761   0.459   0.035  14.031 -0.7399 -0.0739  1.9369
 4434SOL    HW224762   0.391   4.714  13.909  1.7140  1.5624 -0.5395
 4435SOL     OW24763   1.785   2.284  12.676  0.1044 -0.0453  0.2611
 4435SOL    HW124764   1.769   2.201  12.632  1.1694  0.6504 -1.4404
 4435SOL    HW224765   1.702   2.330  12.664  0.2064 -0.6857 -2.6379
 4436SOL     OW24766   1.037   0.564  12.391 -0.4902  0.1871  0.1573
 4436SOL    HW124767   1.010   0.656  12.397  0.8130  0.6676 -1.1616
 4436SOL    HW224768   0.970   0.522  12.444 -0.2416  1.8137  1.7657
 4437SOL     OW24769   4.531   3.964   5.945  0.2326 -0.2347  0.2368
 4437SOL    HW124770   4.475   3.972   5.867  1.6341  1.8665 -0.5383
 4437SOL    HW224771   4.613   4.002   5.913  0.3651  0.1357  1.0376
 4438SOL     OW24772   0.779   1.347   7.722 -0.4750  0.1966  0.5203
 4438SOL    HW124773   0.843   1.351   7.651 -1.6907 -1.4089 -0.6709
 4438SOL    HW224774   0.781   1.438   7.751 -1.9069  0.8013 -1.2077
 4439SOL     OW24775   0.963   0.101   5.166  0.2969 -0.0290  0.2228
 4439SOL    HW124776   0.949   0.182   5.215  1.4766 -0.1572  0.7757
 4439SOL    HW224777   0.954   0.038   5.238  3.3801  0.9618  1.4718
 4440SOL     OW24778   0.711   1.027   5.893 -0.0905 -0.5477 -0.3047
 4440SOL    HW124779   0.800   0.992   5.891  0.1816  0.1111  0.3561
 4440SOL    HW224780   0.723   1.102   5.951 -1.5794  0.8453 -1.8197
 4441SOL     OW24781   2.941   2.452   2.556 -0.2793  0.3624 -0.2785
 4441SOL    HW124782   3.010   2.474   2.494 -0.7663 -0.8898 -1.2751
 4441SOL    HW224783   2.926   2.541   2.587  3.1036  0.8696 -0.1461
 4442SOL     OW24784   1.487   3.673   2.673  0.2763  0.7074  0.2921
 4442SOL    HW124785   1.455   3.761   2.692 -2.5734 -0.2456  0.0276
 4442SOL    HW224786   1.536   3.683   2.591 -2.0543 -0.5060 -1.2587
 4443SOL     OW24787   2.917   3.698  11.870 -0.0167  0.1540  0.2163
 4443SOL    HW124788   2.836   3.709  11.819  0.0061  0.9775  0.3521
 4443SOL    HW224789   2.891   3.727  11.957  0.9022 -0.5725  0.7306
 4444SOL     OW24790   0.336   4.180   9.292  0.0704 -0.1168 -0.1419
 4444SOL    HW124791   0.307   4.188   9.383  1.3780 -0.5729  0.3063
 4444SOL    HW224792   0.252   4.161   9.249  0.0616  0.2821 -0.3053
 4445SOL     OW24793   1.795   4.512  10.362 -0.5789 -0.3770 -0.4679
 4445SOL    HW124794   1.727   4.522  10.428  0.3871 -0.4384  0.5403
 4445SOL    HW224795   1.758   4.581  10.307  0.9719 -1.2233 -2.5913
 4446SOL     OW24796   4.026   1.555  14.572 -0.2596 -0.3874  0.6972
 4446SOL    HW124797   4.104   1.554  14.628 -0.6684 -0.9147  1.2621
 4446SOL    HW224798   4.011   1.648  14.555  1.3925 -0.7955 -2.9915
 4447SOL     OW24799   3.106   0.975   7.417  0.0796  0.3077  0.0853
 4447SOL    HW124800   3.154   0.927   7.485  1.3662 -0.6741 -1.5406
 4447SOL    HW224801   3.150   1.059   7.418  1.4118 -0.3916 -1.2205
 4448SOL     OW24802   1.969   4.315   8.320 -0.3047 -0.4380  0.1481
 4448SOL    HW124803   1.943   4.319   8.411 -0.4601  0.3417  0.0671
 4448SOL    HW224804   1.985   4.223   8.296  0.8767 -0.3630  0.6408
 4449SOL     OW24805   1.917   2.878   7.047 -0.0564 -0.2207 -0.2499
 4449SOL    HW124806   1.910   2.967   7.012  0.6805  0.0982  0.4140
 4449SOL    HW224807   1.972   2.896   7.123 -0.9977 -1.3578  0.7082
 4450SOL     OW24808   1.792   2.815   6.793 -1.0355  0.3608 -0.2316
 4450SOL    HW124809   1.824   2.848   6.877 -0.9999  0.4736 -0.2895
 4450SOL    HW224810   1.815   2.888   6.736 -1.0814  0.2005 -0.4527
 4451SOL     OW24811   2.675   3.197   7.552 -0.1084  0.5254 -0.4199
 4451SOL    HW124812   2.674   3.263   7.621 -1.7515 -0.3825  0.4089
 4451SOL    HW224813   2.660   3.257   7.479 -2.1079 -0.2074 -0.6079
 4452SOL     OW24814   1.534   3.627   4.718  0.4221  0.2816  0.0552
 4452SOL    HW124815   1.512   3.559   4.655  2.4842 -0.2149 -0.1548
 4452SOL    HW224816   1.630   3.621   4.713  0.3494 -1.3019  0.5131
 4453SOL     OW24817   0.025   3.888   7.698 -0.5748 -0.0160 -0.0919
 4453SOL    HW124818   0.049   3.973   7.735 -0.5360  0.0791 -0.3312
 4453SOL    HW224819   4.657   3.898   7.683 -0.4240  1.1043 -0.2657
 4454SOL     OW24820   2.990   1.949  15.143 -0.1382  0.2921  1.3917
 4454SOL    HW124821   3.048   1.890  15.096  0.5306  1.9694  0.0830
 4454SOL    HW224822   2.903   1.913  15.128 -0.1105  1.0268 -0.6002
 4455SOL     OW24823   0.710   0.766   6.946  0.2750 -0.1509 -0.2580
 4455SOL    HW124824   0.733   0.833   7.011 -0.4191 -1.3013  1.1860
 4455SOL    HW224825   0.642   0.717   6.994 -0.4297  1.2891  0.2128
 4456SOL     OW24826   0.832   3.165   8.472  0.1932  0.3208 -0.3408
 4456SOL    HW124827   0.748   3.203   8.499 -1.5063 -3.0762 -0.8059
 4456SOL    HW224828   0.816   3.077   8.507  0.9952  0.4870  0.4224
 4457SOL     OW24829   0.896   4.596   6.931  0.3013 -0.2899 -0.0043
 4457SOL    HW124830   0.965   4.663   6.925 -1.2349  1.0821 -2.1788
 4457SOL    HW224831   0.888   4.563   6.842 -0.5086 -0.1372  0.0144
 4458SOL     OW24832   3.305   0.957   8.274  0.6633 -0.2404 -0.0256
 4458SOL    HW124833   3.284   0.919   8.360  2.2486  1.7088  1.2268
 4458SOL    HW224834   3.276   1.047   8.288 -0.5172 -0.7347  0.6986
 4459SOL     OW24835   0.283   0.484   7.972 -0.2285  0.7511 -0.1288
 4459SOL    HW124836   0.247   0.560   8.018  0.9447  0.0959  1.8505
 4459SOL    HW224837   0.311   0.429   8.044  0.2558  0.5175 -0.5005
 4460SOL     OW24838   0.699   3.589   5.387 -0.2078  0.0947 -0.3589
 4460SOL    HW124839   0.730   3.567   5.299  1.8688 -0.5282  0.5085
 4460SOL    HW224840   0.786   3.593   5.427  0.1106 -1.3394 -0.8985
 4461SOL     OW24841   0.392   0.930   9.826 -0.0744  0.5590  0.2672
 4461SOL    HW124842   0.432   0.941   9.912  2.9381 -1.1706 -0.9242
 4461SOL    HW224843   0.316   0.988   9.830 -0.9104 -0.5390  0.5988
 4462SOL     OW24844   3.426   0.679   0.837 -0.4197  0.2409 -0.1166
 4462SOL    HW124845   3.378   0.596   0.842  0.1362 -0.0446  0.5404
 4462SOL    HW224846   3.391   0.713   0.755  0.3858 -1.8005 -1.3062
 4463SOL     OW24847   2.991   3.061  11.429 -0.2741  0.2156 -0.0102
 4463SOL    HW124848   2.918   3.061  11.367  0.2367 -1.2870 -0.6126
 4463SOL    HW224849   3.066   3.053  11.370 -0.6854  0.0310 -0.5035
 4464SOL     OW24850   3.650   0.705   7.487 -0.2304  0.3336  0.2039
 4464SOL    HW124851   3.623   0.677   7.574  0.4092 -2.3638 -0.4724
 4464SOL    HW224852   3.696   0.786   7.509  2.5457 -1.0707 -0.5307
 4465SOL     OW24853   2.009   4.050   0.747  0.2736  0.0331  0.2247
 4465SOL    HW124854   1.945   4.091   0.805  0.2510 -0.8197  0.8063
 4465SOL    HW224855   2.078   4.114   0.766  0.0148  0.5377 -0.5125
 4466SOL     OW24856   2.864   1.318   1.605 -0.1029  0.3616  0.0302
 4466SOL    HW124857   2.782   1.343   1.562 -0.1109  1.0211  0.4316
 4466SOL    HW224858   2.905   1.405   1.607  0.9084 -0.1501  1.1873
 4467SOL     OW24859   4.463   1.402  10.502  0.0451 -0.4395 -0.5082
 4467SOL    HW124860   4.552   1.372  10.520  0.6541  2.4515  1.3831
 4467SOL    HW224861   4.457   1.476  10.563  1.7057 -0.9219  0.2189
 4468SOL     OW24862   3.167   2.867   3.950 -0.0414 -0.4814 -0.3239
 4468SOL    HW124863   3.190   2.834   4.036  2.6532  0.0276 -0.8428
 4468SOL    HW224864   3.197   2.957   3.957  3.8032 -1.7749  0.3898
 4469SOL     OW24865   2.270   4.620   2.904 -0.3928  0.4331 -0.0807
 4469SOL    HW124866   2.219   4.589   2.829  0.6246 -0.5101 -0.3764
 4469SOL    HW224867   2.271   4.715   2.889 -2.0631  0.6202  1.0361
 4470SOL     OW24868   2.001   2.713   7.495 -0.0332  0.0238  0.0908
 4470SOL    HW124869   1.912   2.721   7.529  0.1430 -0.6194  0.7269
 4470SOL    HW224870   2.008   2.618   7.486  2.6489  0.2904 -0.7506
 4471SOL     OW24871   4.628   4.100  17.362 -0.1417 -0.2249 -0.2315
 4471SOL    HW124872   4.607   4.189  17.391 -2.5210 -1.2677  1.2179
 4471SOL    HW224873   4.669   4.064  17.441 -0.5774  0.9395  0.5300
 4472SOL     OW24874   3.771   2.455   3.698 -0.3448  0.1764 -0.1417
 4472SOL    HW124875   3.846   2.449   3.757  0.7098  1.6345 -1.3399
 4472SOL    HW224876   3.778   2.544   3.664  1.4372 -0.3713 -1.1827
 4473SOL     OW24877   1.838   4.139   4.262 -0.6924  0.1960  0.2791
 4473SOL    HW124878   1.918   4.136   4.209 -1.2773  1.4070 -0.6828
 4473SOL    HW224879   1.783   4.107   4.191 -0.1655  3.2808 -1.5388
 4474SOL     OW24880   3.937   3.865   8.364  0.1931  0.3771  0.4410
 4474SOL    HW124881   4.005   3.921   8.326  1.4344 -0.0112  2.1011
 4474SOL    HW224882   3.960   3.782   8.321 -1.4593  1.6570 -2.9345
 4475SOL     OW24883   2.289   1.855   8.120 -0.2564  0.0758  0.0497
 4475SOL    HW124884   2.354   1.859   8.050 -0.8104 -0.2137 -0.4833
 4475SOL    HW224885   2.252   1.767   8.117 -0.6638  0.2328  0.5002
 4476SOL     OW24886   4.519   0.534   4.625  0.4784 -0.1840 -0.2329
 4476SOL    HW124887   4.442   0.553   4.572 -0.4690  1.6657  1.7716
 4476SOL    HW224888   4.599   0.541   4.574  0.8758  0.8161  0.5134
 4477SOL     OW24889   0.074   4.216  10.593  0.5259  0.1541  0.0940
 4477SOL    HW124890   4.715   4.259  10.582  1.7843  2.3958 -0.9181
 4477SOL    HW224891   0.065   4.134  10.544 -1.9832  1.1195 -1.0417
 4478SOL     OW24892   3.438   1.244  10.085  0.5867 -0.6348 -1.2050
 4478SOL    HW124893   3.464   1.153  10.097 -0.8462 -0.8775  0.2182
 4478SOL    HW224894   3.519   1.279  10.122 -0.0582 -2.3635  1.8629
 4479SOL     OW24895   2.822   0.513   6.463 -0.0295 -0.4728 -0.4594
 4479SOL    HW124896   2.753   0.447   6.457  1.7008 -2.1557 -1.8725
 4479SOL    HW224897   2.761   0.583   6.486  0.3465 -0.3789  0.2362
 4480SOL     OW24898   1.512   3.246   2.009 -0.7716  0.2522 -0.2543
 4480SOL    HW124899   1.427   3.204   1.992 -1.4234  0.8772  1.5062
 4480SOL    HW224900   1.563   3.200   1.942 -1.5366  0.4600 -0.9716
 4481SOL     OW24901   3.314   1.613   8.717  0.1386 -0.2371  0.0892
 4481SOL    HW124902   3.307   1.564   8.799  0.2202 -0.3270  0.0422
 4481SOL    HW224903   3.303   1.537   8.660  1.2317  0.8846 -1.6380
 4482SOL     OW24904   0.944   3.139   2.993 -0.0251 -0.0573  0.4423
 4482SOL    HW124905   0.999   3.164   3.067  2.3304 -1.9333 -0.7153
 4482SOL    HW224906   0.979   3.053   2.972 -3.0131 -1.1427 -0.2195
 4483SOL     OW24907   3.175   4.469   4.442  0.5434  0.9412  0.0434
 4483SOL    HW124908   3.149   4.440   4.355 -0.8674  0.1934  0.6951
 4483SOL    HW224909   3.211   4.385   4.472  0.2259 -0.1196 -2.5994
 4484SOL     OW24910   2.471   3.449  16.315  0.1033  0.6695 -0.0945
 4484SOL    HW124911   2.481   3.543  16.301  1.6533  0.1304 -2.5931
 4484SOL    HW224912   2.387   3.444  16.362  0.0107 -2.6049 -0.5886
 4485SOL     OW24913   1.040   2.888   7.703  0.0368 -0.0868 -0.4873
 4485SOL    HW124914   1.071   2.912   7.616 -0.6108 -0.1022 -0.7209
 4485SOL    HW224915   1.046   2.793   7.711  0.1346 -0.0768 -0.4427
 4486SOL     OW24916   3.676   4.073  10.302 -0.0571 -0.1471 -0.3914
 4486SOL    HW124917   3.713   4.121  10.376 -0.6179 -0.5927  0.1694
 4486SOL    HW224918   3.635   4.138  10.245 -2.0293 -2.1620 -1.2736
 4487SOL     OW24919   1.360   2.272   2.604  0.0896  0.0585  0.2763
 4487SOL    HW124920   1.405   2.238   2.681  2.2124 -0.0945 -1.0603
 4487SOL    HW224921   1.352   2.191   2.554 -0.2970  0.6008 -0.5351
 4488SOL     OW24922   3.846   3.827   0.688  0.0545  0.3108 -0.3666
 4488SOL    HW124923   3.842   3.828   0.592 -2.5470 -2.9241 -0.2709
 4488SOL    HW224924   3.922   3.883   0.704  1.4164 -1.7131  0.2231
 4489SOL     OW24925   0.163   1.042   2.594  0.1926 -0.7116  0.1767
 4489SOL    HW124926   0.139   1.124   2.550 -0.5304 -0.1047  1.6966
 4489SOL    HW224927   0.253   1.029   2.564  0.5238  3.2018 -0.4598
 4490SOL     OW24928   0.849   3.023  17.293 -0.1351  0.1447  0.1534
 4490SOL    HW124929   0.764   3.017  17.338  1.5829 -1.4408  3.2066
 4490SOL    HW224930   0.895   2.960  17.349 -0.6882 -0.5309 -0.1543
 4491SOL     OW24931   0.855   3.818   4.594  0.5006  0.2737 -0.2699
 4491SOL    HW124932   0.878   3.810   4.502 -0.5597  0.0609 -0.5207
 4491SOL    HW224933   0.858   3.912   4.613  2.0996  0.1265  0.1802
 4492SOL     OW24934   0.603   2.023  12.309 -0.1692 -0.1320  0.1365
 4492SOL    HW124935   0.671   2.090  12.313 -0.0599 -0.2767  0.8262
 4492SOL    HW224936   0.656   1.953  12.348 -1.1468 -1.3089 -0.6447
 4493SOL     OW24937   0.264   1.350   4.577 -0.3805  0.1314 -0.1514
 4493SOL    HW124938   0.239   1.304   4.657 -0.2109  1.5242  0.7165
 4493SOL    HW224939   0.234   1.440   4.594 -1.5498  0.0259 -1.7394
 4494SOL     OW24940   1.748   1.384  13.987  0.4135 -0.0493 -0.2445
 4494SOL    HW124941   1.758   1.357  14.079  1.6665 -1.1093 -0.6924
 4494SOL    HW224942   1.684   1.319  13.958 -1.2399  2.4039 -2.0802
 4495SOL     OW24943   4.045   1.141   9.932  0.1462  0.4002  0.4445
 4495SOL    HW124944   3.992   1.205   9.885  1.5944  3.4080  2.9106
 4495SOL    HW224945   4.018   1.064   9.880  0.0195 -0.2871  1.5239
 4496SOL     OW24946   1.165   3.820   3.713  0.2132 -0.1240  0.0601
 4496SOL    HW124947   1.146   3.847   3.623 -0.5387  0.3679  0.3716
 4496SOL    HW224948   1.187   3.729   3.694  1.8185  0.1836  0.4450
 4497SOL     OW24949   4.232   3.988   8.931 -0.1065  0.4906 -0.4426
 4497SOL    HW124950   4.246   3.957   9.020  0.2850  0.8454 -0.3772
 4497SOL    HW224951   4.202   4.079   8.940 -0.3373  0.4408 -0.6943
 4498SOL     OW24952   4.078   2.015  13.653  0.4665  0.1357 -0.4421
 4498SOL    HW124953   4.094   1.924  13.675 -2.4776 -0.7583 -1.9612
 4498SOL    HW224954   4.142   2.036  13.585  0.1674 -2.2883 -1.4540
 4499SOL     OW24955   1.529   4.118  17.692 -0.0109  0.3036  0.2566
 4499SOL    HW124956   1.445   4.116  17.647 -0.0619 -0.5160  0.3922
 4499SOL    HW224957   1.580   4.132  17.613 -1.8417  0.9354 -0.8202
 4500SOL     OW24958   1.992   0.066   9.130 -0.2500 -0.2730 -0.4831
 4500SOL    HW124959   2.067   0.028   9.085 -0.4000 -0.2985 -0.7154
 4500SOL    HW224960   1.976   0.140   9.071  0.5571 -0.9882 -1.5897
 4501SOL     OW24961   1.836   1.289  14.950 -0.3465 -0.3969 -0.2737
 4501SOL    HW124962   1.919   1.244  14.963  0.1010  0.5117 -0.0115
 4501SOL    HW224963   1.872   1.378  14.955 -1.5120  0.0413  0.2547
 4502SOL     OW24964   1.649   4.290   7.397  0.4095  0.0478  0.3323
 4502SOL    HW124965   1.565   4.269   7.357 -0.4694  0.9942  1.7188
 4502SOL    HW224966   1.638   4.384   7.412  0.0364 -0.2910  2.1433
 4503SOL     OW24967   1.992   0.492   5.056 -0.0345 -0.8639 -0.0717
 4503SOL    HW124968   2.060   0.441   5.011  1.1963  0.3076  0.4729
 4503SOL    HW224969   1.910   0.442   5.058 -1.6687  1.7752 -1.1704
 4504SOL     OW24970   1.060   3.813   0.300 -0.0448 -0.0769  0.6292
 4504SOL    HW124971   1.025   3.758   0.370  1.2037 -0.0982  1.2395
 4504SOL    HW224972   1.155   3.817   0.316  0.4259  0.3014 -2.1666
 4505SOL     OW24973   4.689   2.774   8.139 -0.2522  0.1434  0.4121
 4505SOL    HW124974   4.626   2.713   8.101 -1.0587 -0.0638  2.0734
 4505SOL    HW224975   4.715   2.722   8.215  0.1541 -0.1457  0.0762
 4506SOL     OW24976   0.988   0.260   9.170 -0.1808 -0.2859  0.6324
 4506SOL    HW124977   0.923   0.314   9.125  0.5265 -0.7282 -0.8970
 4506SOL    HW224978   0.944   0.240   9.253 -0.9544 -0.3671  0.1975
 4507SOL     OW24979   0.598   1.523   5.999 -0.0316  0.1728 -0.4444
 4507SOL    HW124980   0.511   1.561   6.008 -0.5123 -1.5462  2.1185
 4507SOL    HW224981   0.617   1.468   6.075 -1.8821  0.2228  0.0529
 4508SOL     OW24982   3.130   1.349   8.605 -0.0776  0.1289 -0.2540
 4508SOL    HW124983   3.120   1.269   8.552  0.4323  1.1700 -1.9335
 4508SOL    HW224984   3.119   1.313   8.693 -0.4690  1.9332  0.4377
 4509SOL     OW24985   0.647   1.522   1.233 -0.3281 -0.5578 -0.7908
 4509SOL    HW124986   0.677   1.613   1.229  0.2163 -0.7439 -0.9001
 4509SOL    HW224987   0.607   1.524   1.321 -1.0010  1.6831 -1.1317
 4510SOL     OW24988   4.001   2.548   8.765  0.2788 -0.5840  0.5767
 4510SOL    HW124989   3.919   2.596   8.778 -0.6655 -1.8545 -0.6892
 4510SOL    HW224990   4.032   2.586   8.683  0.7831 -2.4450 -0.0950
 4511SOL     OW24991   2.635   0.937  11.951  0.3343 -0.5061 -0.4575
 4511SOL    HW124992   2.548   0.907  11.928 -0.6885  1.6340  0.5600
 4511SOL    HW224993   2.638   1.028  11.921  1.0728 -1.8285 -4.2876
 4512SOL     OW24994   0.179   0.819  13.751  0.0219  0.6394 -0.1753
 4512SOL    HW124995   0.272   0.836  13.766 -0.5086  1.5793  2.0277
 4512SOL    HW224996   0.174   0.817  13.656  0.4180 -0.0629 -0.1877
 4513SOL     OW24997   4.292   4.389  13.160  0.1082  0.0876 -0.2109
 4513SOL    HW124998   4.198   4.406  13.164  0.3733  1.8464 -1.4827
 4513SOL    HW224999   4.331   4.476  13.156  0.3560  0.0369  1.2689
 4514SOL     OW25000   3.905   1.146   3.832 -0.4362 -0.4949  0.4270
 4514SOL    HW125001   3.864   1.128   3.747 -0.1915  1.2818 -0.0596
 4514SOL    HW225002   3.982   1.198   3.811  0.4245 -2.4141 -1.2500
 4515SOL     OW25003   3.703   0.376   8.354 -0.1375  0.2725 -0.5273
 4515SOL    HW125004   3.643   0.322   8.407  1.3043 -0.1436  0.6815
 4515SOL    HW225005   3.771   0.312   8.334 -0.6984 -0.8701  1.1494
 4516SOL     OW25006   3.131   0.825   4.299  0.6525  0.5247  0.0797
 4516SOL    HW125007   3.093   0.817   4.386  1.6166 -0.6238  0.3954
 4516SOL    HW225008   3.050   0.818   4.249  0.1767 -0.1652  0.9363
 4517SOL     OW25009   0.873   1.293  15.423  0.6203  0.1417 -0.0110
 4517SOL    HW125010   0.872   1.310  15.329 -0.5105  1.0062  0.1574
 4517SOL    HW225011   0.927   1.361  15.464 -0.9075 -1.5466  4.8501
 4518SOL     OW25012   4.067   3.219   8.740  0.1115  0.4251  0.0936
 4518SOL    HW125013   4.109   3.252   8.819  1.3206 -1.1225  0.1024
 4518SOL    HW225014   3.982   3.259   8.754 -0.5832 -1.1888  0.4018
 4519SOL     OW25015   2.499   2.790   6.130  0.0986  0.1235  0.3038
 4519SOL    HW125016   2.442   2.734   6.183  0.8655 -3.0608 -2.2295
 4519SOL    HW225017   2.563   2.812   6.198 -0.7388  1.3795  0.6837
 4520SOL     OW25018   3.324   0.578   3.794 -0.0192  0.2273 -0.1084
 4520SOL    HW125019   3.266   0.650   3.769  0.9128  0.4970 -1.4513
 4520SOL    HW225020   3.367   0.607   3.874  1.3839 -0.0634 -0.7554
 4521SOL     OW25021   2.710   1.712  10.032  0.1039 -0.2402  0.4881
 4521SOL    HW125022   2.784   1.718  10.092 -0.2095  0.2926  0.8220
 4521SOL    HW225023   2.631   1.734  10.082 -0.6394 -0.7899 -0.4365
 4522SOL     OW25024   4.628   1.672   0.851  0.5890  0.0885 -0.1478
 4522SOL    HW125025   4.647   1.578   0.850  1.3796  0.2370  2.3251
 4522SOL    HW225026   4.672   1.693   0.933  0.6756  0.8824 -0.3928
 4523SOL     OW25027   4.418   0.946  14.855 -0.2392  0.2832  0.2142
 4523SOL    HW125028   4.484   1.007  14.888  1.2371 -1.0230 -0.3115
 4523SOL    HW225029   4.352   1.011  14.832 -1.0218 -0.4021  0.5150
 4524SOL     OW25030   2.255   3.487   5.421 -0.1771  0.2995 -0.3984
 4524SOL    HW125031   2.289   3.404   5.454 -1.6831  0.1022  0.6600
 4524SOL    HW225032   2.182   3.450   5.371 -0.6165 -0.1798  0.6052
 4525SOL     OW25033   4.184   3.699   5.615 -0.3801  0.1696 -0.2231
 4525SOL    HW125034   4.229   3.619   5.641 -0.1318  0.3298 -0.1578
 4525SOL    HW225035   4.131   3.680   5.538 -1.1132  2.6146 -0.3420
 4526SOL     OW25036   3.591   2.700  11.698 -0.2876  0.3602  0.1116
 4526SOL    HW125037   3.616   2.651  11.776 -0.6140  0.4804  0.2929
 4526SOL    HW225038   3.589   2.633  11.629 -1.5060 -1.4575  1.9330
 4527SOL     OW25039   3.106   0.017   3.352  0.3220 -0.0151 -0.5983
 4527SOL    HW125040   3.101   4.671   3.289  0.2102 -0.4612 -0.0794
 4527SOL    HW225041   3.164   0.075   3.303 -1.3729  1.6883 -0.5924
 4528SOL     OW25042   3.674   0.289   3.889 -0.3632 -0.3789 -0.3136
 4528SOL    HW125043   3.592   0.331   3.915 -0.8798 -0.8643 -1.1864
 4528SOL    HW225044   3.632   0.223   3.834  1.6955 -1.9087 -0.0545
 4529SOL     OW25045   3.318   3.330   7.414 -0.2342 -0.2534 -0.0706
 4529SOL    HW125046   3.368   3.248   7.409  0.3251  0.1621 -1.2840
 4529SOL    HW225047   3.389   3.386   7.448 -0.3617 -0.6387  0.8405
 4530SOL     OW25048   3.633   2.172   5.633 -0.0936 -0.4410 -0.3385
 4530SOL    HW125049   3.551   2.172   5.584 -0.0076 -1.7417 -0.4942
 4530SOL    HW225050   3.650   2.080   5.655  0.0991 -0.5371 -0.8763
 4531SOL     OW25051   4.339   3.254   7.464 -0.2514  0.6541  0.6319
 4531SOL    HW125052   4.303   3.165   7.457  0.1171  0.4181  1.6435
 4531SOL    HW225053   4.283   3.273   7.540 -2.0055  0.9153 -0.7361
 4532SOL     OW25054   0.170   0.825   9.180 -0.5699 -0.9832 -0.2515
 4532SOL    HW125055   0.203   0.910   9.209 -0.7384 -0.4318 -1.6680
 4532SOL    HW225056   0.074   0.826   9.180 -0.5920 -2.7743 -0.5323
 4533SOL     OW25057   1.148   2.516   0.695  0.0635  0.0989  0.2084
 4533SOL    HW125058   1.063   2.483   0.725  0.0589 -1.2744 -1.2942
 4533SOL    HW225059   1.209   2.442   0.700 -0.3670 -0.2695  0.0407
 4534SOL     OW25060   0.063   4.308   5.711 -0.0596  0.5619  0.3257
 4534SOL    HW125061   0.098   4.354   5.788  1.0183 -1.9959  1.3753
 4534SOL    HW225062   4.707   4.355   5.697  0.0115  0.3717 -0.6924
 4535SOL     OW25063   2.688   3.137   2.323 -0.1471  0.2683 -0.1821
 4535SOL    HW125064   2.642   3.109   2.244 -0.2468 -1.6554  0.5747
 4535SOL    HW225065   2.643   3.220   2.338  0.5050  0.6849 -0.5243
 4536SOL     OW25066   2.324   0.771   7.858  0.2621 -0.7315 -0.2840
 4536SOL    HW125067   2.273   0.848   7.835  0.5205  0.4477  3.0966
 4536SOL    HW225068   2.389   0.777   7.789 -0.3060  1.3625 -0.6124
 4537SOL     OW25069   2.927   2.399   7.380  0.1279 -0.3689 -0.0688
 4537SOL    HW125070   2.990   2.430   7.315 -0.8661 -0.4698 -1.0892
 4537SOL    HW225071   2.846   2.394   7.328 -0.4672  0.9767  0.7325
 4538SOL     OW25072   2.327   2.215   4.226 -0.1030  0.4579 -0.1159
 4538SOL    HW125073   2.397   2.251   4.172 -0.4493  0.4352 -0.5830
 4538SOL    HW225074   2.262   2.285   4.230 -1.2915 -0.6541  0.0620
 4539SOL     OW25075   2.922   0.602  11.564 -0.4737  0.2622  0.2297
 4539SOL    HW125076   3.016   0.615  11.551 -0.2311 -2.6546 -0.8949
 4539SOL    HW225077   2.889   0.692  11.565  1.7260  1.1099 -2.1464
 4540SOL     OW25078   4.587   1.077   8.931  0.6093 -0.0056  0.2937
 4540SOL    HW125079   4.563   0.986   8.947 -1.3413  0.5682  0.6111
 4540SOL    HW225080   4.501   1.118   8.940  0.9161  0.4595  1.0877
 4541SOL     OW25081   1.242   2.442  10.418 -0.1857  0.2523 -0.4374
 4541SOL    HW125082   1.254   2.360  10.466  0.3839  0.9754  0.6742
 4541SOL    HW225083   1.152   2.440  10.387  0.5016  0.0166 -2.4049
 4542SOL     OW25084   4.141   4.493   7.794  0.0314  0.6709 -0.0887
 4542SOL    HW125085   4.146   4.586   7.772 -1.5793  0.9407  0.6753
 4542SOL    HW225086   4.049   4.485   7.769 -0.5441  2.0232  1.5880
 4543SOL     OW25087   3.193   0.003  15.910 -0.1331  0.4250 -0.5777
 4543SOL    HW125088   3.211   4.671  15.836 -0.5236  2.7135 -2.5179
 4543SOL    HW225089   3.283   0.028  15.932 -1.2100  1.1949  2.8828
 4544SOL     OW25090   0.878   1.114  14.940 -0.7952 -0.1908  0.3569
 4544SOL    HW125091   0.951   1.065  14.903 -0.8147  1.1872 -1.5156
 4544SOL    HW225092   0.858   1.064  15.019 -0.2182 -3.0336 -1.2694
 4545SOL     OW25093   2.883   2.489  13.960 -0.2457  0.1927  0.3854
 4545SOL    HW125094   2.799   2.532  13.943 -0.1389 -0.0286 -0.6464
 4545SOL    HW225095   2.861   2.397  13.978 -1.4065  0.9194  2.7019
 4546SOL     OW25096   3.362   0.368   1.562 -0.4135  0.9804  0.4352
 4546SOL    HW125097   3.360   0.461   1.539 -1.8405 -0.0652 -3.6378
 4546SOL    HW225098   3.323   0.346   1.477  1.8054 -1.7112  0.1009
 4547SOL     OW25099   0.475   2.648   6.996  0.2114 -0.7914 -0.0291
 4547SOL    HW125100   0.383   2.623   6.992  0.6539 -2.4519  0.1524
 4547SOL    HW225101   0.505   2.657   6.906  1.3932  0.7312  0.5195
 4548SOL     OW25102   4.339   1.425  14.096 -0.5798 -0.3004  0.5421
 4548SOL    HW125103   4.429   1.417  14.063 -1.6224  0.2561 -2.4069
 4548SOL    HW225104   4.351   1.496  14.160 -0.7238 -0.4027  0.6817
 4549SOL     OW25105   0.636   1.345   6.243 -0.0920 -0.5725 -0.3229
 4549SOL    HW125106   0.694   1.314   6.312 -0.2526  1.5734  0.7698
 4549SOL    HW225107   0.564   1.283   6.259 -0.5075 -0.4715 -1.7601
 4550SOL     OW25108   4.060   2.431   7.901  0.8127  0.2932 -0.2972
 4550SOL    HW125109   4.036   2.347   7.941  1.9758  0.1381  0.0565
 4550SOL    HW225110   3.981   2.477   7.931  0.1035 -0.1913 -1.4284
 4551SOL     OW25111   0.272   2.399  12.470 -0.1338  0.1421 -0.3073
 4551SOL    HW125112   0.311   2.463  12.410  0.8304 -0.1800 -0.0148
 4551SOL    HW225113   0.229   2.461  12.530  1.6581 -0.3021  1.4283
 4552SOL     OW25114   2.293   2.755   7.204 -0.8630 -0.7531 -0.1834
 4552SOL    HW125115   2.232   2.813   7.249  1.6217 -0.2163  2.5414
 4552SOL    HW225116   2.369   2.779   7.257 -0.6431  1.5095 -1.5164
 4553SOL     OW25117   1.391   4.284   4.508 -0.4352  0.1040  0.0720
 4553SOL    HW125118   1.348   4.354   4.557 -0.0219  0.8435 -0.6208
 4553SOL    HW225119   1.440   4.233   4.572  1.3127  0.3079 -1.1075
 4554SOL     OW25120   1.679   3.140  11.965 -0.2658 -0.2081  0.2876
 4554SOL    HW125121   1.670   3.226  12.006  0.8162 -0.3101  0.7288
 4554SOL    HW225122   1.598   3.148  11.915  0.9485  1.9559 -1.3234
 4555SOL     OW25123   0.252   1.423  17.653  0.4386  0.4548  0.4321
 4555SOL    HW125124   0.348   1.423  17.658  0.5900 -2.0981 -2.1861
 4555SOL    HW225125   0.240   1.442  17.560 -3.2552  0.0483  0.8505
 4556SOL     OW25126   3.265   1.064   2.629  0.4128  0.0960  0.2287
 4556SOL    HW125127   3.280   0.970   2.642  3.0763  0.9517  3.4859
 4556SOL    HW225128   3.223   1.055   2.543 -0.0774  1.2529  0.3523
 4557SOL     OW25129   3.095   3.344   2.685  0.4204 -0.4524 -0.7552
 4557SOL    HW125130   3.107   3.367   2.593 -3.3737  0.5182 -1.0032
 4557SOL    HW225131   3.036   3.272   2.666 -0.4442  0.2052 -0.5841
 4558SOL     OW25132   3.730   3.729   5.190  0.1542  0.4334  0.2281
 4558SOL    HW125133   3.671   3.733   5.114  0.4329 -0.8562 -0.0476
 4558SOL    HW225134   3.701   3.650   5.235  1.1977 -0.9836 -1.5578
 4559SOL     OW25135   3.661   2.136  12.969 -0.0871  0.2391  0.1544
 4559SOL    HW125136   3.647   2.060  12.913  0.5223  1.3060 -1.4526
 4559SOL    HW225137   3.577   2.180  12.961 -0.2805 -0.0783  0.4579
 4560SOL     OW25138   4.706   1.753  11.688 -0.6566 -0.0278  0.3177
 4560SOL    HW125139   4.723   1.802  11.608 -1.8820 -0.4648 -0.2147
 4560SOL    HW225140   4.637   1.812  11.717 -1.2193 -0.5832  0.1188
 4561SOL     OW25141   2.745   4.134   9.311  0.3558  0.5801 -0.0713
 4561SOL    HW125142   2.754   4.182   9.394 -0.0127  2.3409 -1.0643
 4561SOL    HW225143   2.830   4.149   9.271 -0.3737 -2.6400 -2.8756
 4562SOL     OW25144   2.891   4.610   5.828 -0.8968  0.1120  0.5868
 4562SOL    HW125145   2.896   4.611   5.732 -1.6473  1.4358  0.5670
 4562SOL    HW225146   2.863   4.699   5.850 -0.5230  0.2400  0.5441
 4563SOL     OW25147   2.603   0.036   8.353  0.2579 -0.5095 -0.6276
 4563SOL    HW125148   2.559   4.680   8.373  0.6077 -0.3444  0.8118
 4563SOL    HW225149   2.573   0.068   8.268 -0.8889 -2.2898 -0.8854
 4564SOL     OW25150   1.928   0.712   6.069  0.2129  0.6231 -0.3733
 4564SOL    HW125151   2.001   0.762   6.033 -1.2739  0.9916 -2.8318
 4564SOL    HW225152   1.930   0.642   6.004  0.9091  0.9754 -0.7348
 4565SOL     OW25153   3.341   0.900   5.449  0.1216  0.0179 -0.4038
 4565SOL    HW125154   3.350   0.843   5.525  0.7487  0.5655 -0.0587
 4565SOL    HW225155   3.328   0.839   5.377 -1.6206 -1.2235  0.9935
 4566SOL     OW25156   2.473   4.362  11.834 -0.5226  0.4320 -0.1016
 4566SOL    HW125157   2.426   4.280  11.816 -2.1892  0.9083  2.1489
 4566SOL    HW225158   2.525   4.382  11.756 -0.1193  1.5271  0.4512
 4567SOL     OW25159   0.691   0.375   4.050 -0.5707  0.1605  0.4719
 4567SOL    HW125160   0.664   0.325   3.973  2.4026  0.6925 -0.9080
 4567SOL    HW225161   0.759   0.432   4.013  0.6158 -1.6549 -0.1142
 4568SOL     OW25162   0.133   1.572  13.517 -0.7370  0.0202  0.1809
 4568SOL    HW125163   0.108   1.516  13.444 -0.4649  0.7871 -0.5010
 4568SOL    HW225164   0.123   1.509  13.588  1.4551 -1.0590 -0.4794
 4569SOL     OW25165   2.048   1.106   1.473  0.4351 -0.0822 -0.0659
 4569SOL    HW125166   2.056   1.072   1.562  1.8185  0.4852  0.0270
 4569SOL    HW225167   1.955   1.124   1.460 -0.1220 -0.5632  3.2605
 4570SOL     OW25168   4.446   3.892   5.042 -0.6072 -0.3009  0.4088
 4570SOL    HW125169   4.529   3.908   4.998 -0.5123 -1.3043  0.2214
 4570SOL    HW225170   4.395   3.851   4.972 -0.3895 -1.3248  0.8518
 4571SOL     OW25171   4.392   3.132  12.294 -0.1708 -0.2561  0.0466
 4571SOL    HW125172   4.360   3.136  12.384  1.0286 -0.9251  0.5008
 4571SOL    HW225173   4.395   3.227  12.283  2.0086 -0.4397 -0.9314
 4572SOL     OW25174   2.988   0.538   5.949 -0.7299 -0.4721  0.2530
 4572SOL    HW125175   3.003   0.474   5.880 -0.7705 -0.3551  0.1356
 4572SOL    HW225176   3.073   0.581   5.963  0.6012 -3.2862  0.7683
 4573SOL     OW25177   1.430   3.554   5.781 -0.1623 -0.2976 -0.1484
 4573SOL    HW125178   1.461   3.644   5.795  3.3050 -1.4407 -0.6227
 4573SOL    HW225179   1.499   3.507   5.828  0.9614  0.5676 -0.9458
 4574SOL     OW25180   2.486   4.298   4.325  0.2715  0.3174 -0.0074
 4574SOL    HW125181   2.398   4.326   4.300  1.1970  2.6085 -0.6621
 4574SOL    HW225182   2.460   4.206   4.326 -1.5649  0.8308 -0.4924
 4575SOL     OW25183   2.173   2.523   6.069 -0.1437  0.5517 -0.3774
 4575SOL    HW125184   2.149   2.431   6.081  0.6420  0.3216 -0.5711
 4575SOL    HW225185   2.267   2.516   6.055 -0.3190  0.1497 -1.3062
 4576SOL     OW25186   2.688   0.855   2.440  0.4380  0.6312  0.9657
 4576SOL    HW125187   2.625   0.905   2.492 -1.5083 -1.0296  0.2235
 4576SOL    HW225188   2.769   0.894   2.473  0.5056 -0.6801  2.3586
 4577SOL     OW25189   0.745   1.854   6.395 -0.3240  0.1373 -0.3161
 4577SOL    HW125190   0.745   1.887   6.485 -1.1907 -2.0379  0.4732
 4577SOL    HW225191   0.683   1.910   6.350 -0.6656  0.3538  0.4264
 4578SOL     OW25192   1.442   3.895   9.246  0.6493 -0.4563 -0.4905
 4578SOL    HW125193   1.364   3.891   9.302  0.3828 -1.4135 -0.9487
 4578SOL    HW225194   1.451   3.986   9.215  0.4462  0.2602  1.5358
 4579SOL     OW25195   1.953   0.737   7.924  0.1858 -0.2896 -0.2572
 4579SOL    HW125196   2.019   0.680   7.964 -1.3899 -1.4257  0.7334
 4579SOL    HW225197   1.878   0.711   7.977  0.3452  0.6032  0.4059
 4580SOL     OW25198   2.977   2.265   3.518  0.1363  0.4537 -0.2440
 4580SOL    HW125199   2.917   2.283   3.446 -1.1506  1.2386  1.0286
 4580SOL    HW225200   2.938   2.303   3.596 -1.1480 -1.4703  0.0244
 4581SOL     OW25201   4.658   0.588   4.157  0.1875  0.6779  0.6596
 4581SOL    HW125202   4.676   0.681   4.175  0.9913  1.1735 -2.6680
 4581SOL    HW225203   4.577   0.601   4.106  1.8580  1.7431 -1.7028
 4582SOL     OW25204   4.485   3.915   9.119  0.0678 -0.5799 -0.1439
 4582SOL    HW125205   4.487   4.001   9.076 -0.3793 -1.1136 -1.2133
 4582SOL    HW225206   4.523   3.936   9.205  1.0609 -2.7466 -0.0623
 4583SOL     OW25207   2.751   3.871   6.413 -0.5382  0.3773  0.4641
 4583SOL    HW125208   2.838   3.832   6.417 -1.0297 -0.5543  2.2995
 4583SOL    HW225209   2.695   3.794   6.408  1.7963 -1.3049  0.4507
 4584SOL     OW25210   1.235   0.227   8.542 -0.4767 -0.0752 -0.0838
 4584SOL    HW125211   1.247   0.134   8.562  0.8617 -0.0020 -0.5537
 4584SOL    HW225212   1.319   0.273   8.549 -0.9063  0.9296 -1.7509
 4585SOL     OW25213   4.720   3.422   3.913  0.7280 -0.5331 -0.0582
 4585SOL    HW125214   4.691   3.331   3.910 -0.7753 -0.0620  0.2746
 4585SOL    HW225215   4.651   3.470   3.959  0.0588 -0.5512 -1.0454
 4586SOL     OW25216   1.998   2.399   8.463  0.3653  0.0930  0.2630
 4586SOL    HW125217   1.911   2.416   8.427 -0.1770 -0.1232  1.4836
 4586SOL    HW225218   2.054   2.414   8.387  1.2631  1.0453  1.1139
 4587SOL     OW25219   1.390   0.241   3.645 -0.4331 -0.1158  0.1576
 4587SOL    HW125220   1.307   0.287   3.631  0.4111  2.0580  2.3085
 4587SOL    HW225221   1.371   0.164   3.591 -0.8657  0.3256 -0.3339
 4588SOL     OW25222   0.302   2.156   3.388 -0.2501  0.2909  0.3829
 4588SOL    HW125223   0.336   2.093   3.451  0.4603  1.0348  0.7446
 4588SOL    HW225224   0.362   2.139   3.316  0.5416  0.5544  0.9855
 4589SOL     OW25225   1.007   1.732   2.772  0.4601 -0.0340 -0.2834
 4589SOL    HW125226   1.084   1.765   2.819  0.8857 -0.3758 -0.7506
 4589SOL    HW225227   1.050   1.663   2.722  0.0874 -1.3795  1.2209
 4590SOL     OW25228   4.707   2.564   9.647  0.2585  0.4696  0.0380
 4590SOL    HW125229   4.627   2.512   9.647  1.8910 -2.0478 -2.0350
 4590SOL    HW225230   4.672   2.653   9.657  0.6938  0.8391 -1.7384
 4591SOL     OW25231   3.570   0.851  10.750  0.3468 -0.5175  0.1326
 4591SOL    HW125232   3.479   0.823  10.752  0.2020 -0.1760 -1.4418
 4591SOL    HW225233   3.595   0.812  10.834 -0.5582 -0.7971  0.2701
 4592SOL     OW25234   4.200   3.334   6.068  0.0628  0.4172  0.6035
 4592SOL    HW125235   4.190   3.269   6.137 -0.4743 -0.9160 -0.7358
 4592SOL    HW225236   4.120   3.313   6.019 -0.3733  0.3525  1.3375
 4593SOL     OW25237   0.971   3.170   6.278  0.5227 -0.8580 -0.0457
 4593SOL    HW125238   1.043   3.112   6.303  0.6431 -0.6016  0.2019
 4593SOL    HW225239   0.998   3.260   6.259  1.9254 -0.6915  2.8855
 4594SOL     OW25240   4.193   1.631   7.412  0.1584  0.0188  0.3350
 4594SOL    HW125241   4.174   1.576   7.335  3.0463  2.2339 -1.9387
 4594SOL    HW225242   4.288   1.621   7.406  0.3827  3.0828 -1.2078
 4595SOL     OW25243   1.944   1.786  16.952  0.1793 -0.1294  0.4997
 4595SOL    HW125244   1.994   1.710  16.921 -0.6994 -0.1616 -0.8571
 4595SOL    HW225245   1.857   1.753  16.933  0.2568  0.1414 -0.3362
 4596SOL     OW25246   3.171   4.644   5.115 -0.1830 -0.7223  0.1862
 4596SOL    HW125247   3.265   4.636   5.129 -0.6290 -0.7704  3.2006
 4596SOL    HW225248   3.160   4.725   5.166 -0.2355  0.4296 -1.6459
 4597SOL     OW25249   0.767   1.007   4.265 -0.5786  0.4935 -0.6299
 4597SOL    HW125250   0.697   0.943   4.278  0.1523 -0.1975 -0.1430
 4597SOL    HW225251   0.838   0.963   4.312 -1.6502 -0.8516 -0.2804
 4598SOL     OW25252   0.999   1.471   6.556 -0.6846 -0.0379 -0.0865
 4598SOL    HW125253   0.928   1.512   6.605  1.9973  0.7771  3.0529
 4598SOL    HW225254   1.064   1.473   6.626 -0.4670  0.5984 -0.3038
 4599SOL     OW25255   0.238   0.835   3.517 -0.2833 -0.1861 -0.0512
 4599SOL    HW125256   0.215   0.880   3.436 -2.4029 -2.6963 -0.8435
 4599SOL    HW225257   0.232   0.741   3.498  1.2263 -0.0100 -1.4668
 4600SOL     OW25258   4.404   4.033   6.195 -0.5266 -0.8859 -0.2258
 4600SOL    HW125259   4.458   4.010   6.119 -1.2817  0.9848 -1.3312
 4600SOL    HW225260   4.455   4.039   6.276 -0.6186 -1.7908 -0.1058
 4601SOL     OW25261   4.592   0.181  13.640  0.2777 -0.8883 -0.7199
 4601SOL    HW125262   4.529   0.170  13.569 -0.9732  0.9393  0.0970
 4601SOL    HW225263   4.574   0.264  13.684 -0.9120 -1.4177 -0.1988
 4602SOL     OW25264   2.276   1.380   1.708 -1.0185  0.9133 -1.2433
 4602SOL    HW125265   2.182   1.400   1.710 -1.0828  0.5402 -0.3667
 4602SOL    HW225266   2.303   1.437   1.637 -1.1528  3.5942  0.8835
 4603SOL     OW25267   0.071   3.112   2.842  0.2542  0.2753 -0.1366
 4603SOL    HW125268   0.065   3.199   2.804 -1.8437 -0.1800 -0.8573
 4603SOL    HW225269   0.058   3.066   2.759 -1.8550  0.1493  0.2544
 4604SOL     OW25270   3.689   3.110   6.576 -0.4568 -0.1795 -0.2338
 4604SOL    HW125271   3.676   3.201   6.605  3.0677 -0.1270  1.2172
 4604SOL    HW225272   3.601   3.076   6.559 -1.4465  0.8264  2.8248
 4605SOL     OW25273   2.084   0.978  14.103 -0.5018 -0.3214 -0.2443
 4605SOL    HW125274   2.036   1.010  14.179 -0.5039 -1.4235  0.2188
 4605SOL    HW225275   2.159   1.037  14.097 -0.7955  0.2328  1.6120
 4606SOL     OW25276   4.324   2.623   8.842 -0.0795  0.5536  0.1005
 4606SOL    HW125277   4.315   2.558   8.772  0.6685 -0.4509  0.9481
 4606SOL    HW225278   4.404   2.586   8.879 -1.8678  1.2901  4.7153
 4607SOL     OW25279   1.150   2.142   4.003 -0.4403  0.4036 -0.4331
 4607SOL    HW125280   1.064   2.180   4.017 -1.2769 -2.5240  2.4815
 4607SOL    HW225281   1.134   2.109   3.915  1.4999 -0.9054 -0.2931
 4608SOL     OW25282   4.632   4.287   5.361  0.0205  0.3238 -0.4878
 4608SOL    HW125283   4.633   4.238   5.279  0.8597 -0.7468  0.1364
 4608SOL    HW225284   4.713   4.337   5.375 -1.1804  1.9492  0.6111
 4609SOL     OW25285   4.015   2.791   6.745  0.2843  0.0589  0.2192
 4609SOL    HW125286   4.034   2.729   6.816 -0.3777 -1.2160 -0.7181
 4609SOL    HW225287   4.022   2.736   6.667  0.8673  0.2935  0.1120
 4610SOL     OW25288   3.315   1.779   5.451 -0.3427  0.3538  0.3691
 4610SOL    HW125289   3.333   1.691   5.418  2.0418  1.1811 -0.5261
 4610SOL    HW225290   3.341   1.774   5.543 -0.7281 -1.7203  0.3517
 4611SOL     OW25291   4.280   2.724   6.991  0.0008  0.2070 -0.0669
 4611SOL    HW125292   4.307   2.814   7.005 -0.5339  0.2755  0.4928
 4611SOL    HW225293   4.242   2.710   7.077 -0.8525  1.0555 -0.3121
 4612SOL     OW25294   4.165   1.783   4.209 -0.2768  0.4814 -0.3386
 4612SOL    HW125295   4.113   1.741   4.278  0.6103 -0.9611 -0.5429
 4612SOL    HW225296   4.232   1.829   4.258  0.6876 -0.5201 -0.7027
 4613SOL     OW25297   2.269   4.310   1.493  0.0006 -0.4378  0.1729
 4613SOL    HW125298   2.343   4.369   1.477 -0.5052  0.1563  0.0282
 4613SOL    HW225299   2.306   4.226   1.517  0.5880  0.0309  0.9166
 4614SOL     OW25300   1.517   3.597   9.310  0.2109 -0.1834 -0.5508
 4614SOL    HW125301   1.446   3.609   9.247 -2.1367 -1.1588  1.8988
 4614SOL    HW225302   1.461   3.557   9.376 -0.7089 -1.9299 -2.3790
 4615SOL     OW25303   1.120   2.990  14.577  0.1747 -0.4208 -0.4005
 4615SOL    HW125304   1.158   3.027  14.498 -0.1588  0.5371 -0.1090
 4615SOL    HW225305   1.144   2.897  14.572  0.2518 -0.4300  0.0895
 4616SOL     OW25306   0.972   0.492   2.354 -0.2102 -0.4508 -0.0405
 4616SOL    HW125307   1.021   0.571   2.378 -0.9973  0.0242  0.0240
 4616SOL    HW225308   0.971   0.437   2.432  1.2428 -2.8720 -1.7229
 4617SOL     OW25309   2.599   1.737   8.815  0.7350 -0.3085 -0.2911
 4617SOL    HW125310   2.522   1.794   8.825 -0.0688 -0.9007 -3.1075
 4617SOL    HW225311   2.666   1.802   8.834  2.2473 -2.1833  0.7825
 4618SOL     OW25312   2.209   2.579  11.042  0.0459  0.0749 -0.7269
 4618SOL    HW125313   2.235   2.634  11.116  0.2035  0.2654 -0.9205
 4618SOL    HW225314   2.291   2.591  10.995  0.8410 -0.7899  0.4454
 4619SOL     OW25315   2.715   2.638   7.627  0.3746 -0.5273  0.2550
 4619SOL    HW125316   2.641   2.696   7.639 -0.9042 -2.0254 -0.3666
 4619SOL    HW225317   2.710   2.623   7.532  1.0964  0.1868  0.0975
 4620SOL     OW25318   1.043   3.423  17.050  0.1457 -0.2288  0.8438
 4620SOL    HW125319   0.995   3.344  17.076 -0.3419 -0.2776 -0.1943
 4620SOL    HW225320   1.001   3.484  17.110 -0.7290 -0.4324  0.4407
 4621SOL     OW25321   3.137   1.698   3.947 -0.1572  0.3965 -0.2248
 4621SOL    HW125322   3.145   1.630   3.880 -3.2783 -0.6834  0.4748
 4621SOL    HW225323   3.193   1.666   4.017 -1.1413  1.3986  1.0115
 4622SOL     OW25324   2.051   4.314   5.741 -0.5109 -0.5274  0.4296
 4622SOL    HW125325   2.069   4.220   5.734 -1.1784 -0.6640  0.5582
 4622SOL    HW225326   1.961   4.319   5.774 -1.0607 -2.2095 -0.8452
 4623SOL     OW25327   4.453   2.454  10.280 -0.0210  0.4143 -0.3758
 4623SOL    HW125328   4.371   2.411  10.305 -0.6660  2.0471  0.2849
 4623SOL    HW225329   4.504   2.377  10.252  0.4434 -0.2601  2.3481
 4624SOL     OW25330   4.481   1.304   7.393 -0.3191  0.2835 -0.1211
 4624SOL    HW125331   4.399   1.276   7.433 -0.2149  1.3741  0.8589
 4624SOL    HW225332   4.546   1.247   7.434 -0.0886 -0.7731 -1.9247
 4625SOL     OW25333   0.594   3.781   2.740 -0.6265 -0.2536  0.2515
 4625SOL    HW125334   0.552   3.710   2.789 -1.1581 -0.0553  0.0898
 4625SOL    HW225335   0.512   3.828   2.722  0.3331  0.8196 -1.2813
 4626SOL     OW25336   1.065   1.430   3.439  0.1642  0.5422 -0.3505
 4626SOL    HW125337   1.156   1.408   3.423 -0.3960 -1.5031 -0.8522
 4626SOL    HW225338   1.084   1.479   3.519 -0.6963 -1.2229  0.9608
 4627SOL     OW25339   4.270   0.966   3.831 -0.4177 -0.0519  0.4369
 4627SOL    HW125340   4.216   1.018   3.891  0.2572  0.2664  0.7628
 4627SOL    HW225341   4.347   0.981   3.887 -0.5358  0.9120  0.3499
 4628SOL     OW25342   1.761   0.324   4.717 -0.1055  0.4374  0.2284
 4628SOL    HW125343   1.736   0.238   4.683 -1.0276 -0.0616  2.1847
 4628SOL    HW225344   1.765   0.303   4.810  3.9222  1.2340  0.2405
 4629SOL     OW25345   3.972   3.322  15.365  0.0090 -0.8990  0.5114
 4629SOL    HW125346   3.890   3.371  15.372 -0.4679 -1.4490 -1.1491
 4629SOL    HW225347   3.970   3.256  15.435  0.4005  0.2485  1.5973
 4630SOL     OW25348   4.129   2.724   5.021  0.0159  0.3725  0.5597
 4630SOL    HW125349   4.169   2.722   4.934 -1.2369 -1.6174  0.0292
 4630SOL    HW225350   4.038   2.738   4.998  0.1327 -0.5224 -0.4452
 4631SOL     OW25351   0.894   1.854   6.016  0.1447  0.1570 -0.5045
 4631SOL    HW125352   0.958   1.814   5.957  0.9508  1.3357 -0.4189
 4631SOL    HW225353   0.918   1.812   6.099 -1.1256  0.5766  0.0782
 4632SOL     OW25354   3.639   2.831  15.042 -0.0877 -0.2725  0.1048
 4632SOL    HW125355   3.727   2.862  15.018  1.2264 -1.8518  2.7568
 4632SOL    HW225356   3.594   2.901  14.996  0.1673  0.0619  0.3541
 4633SOL     OW25357   4.625   0.547   8.637  0.1803 -0.5833 -0.0150
 4633SOL    HW125358   4.607   0.506   8.552 -0.8009  1.0175 -0.5723
 4633SOL    HW225359   4.655   0.632   8.605  0.4615  0.0997  2.1186
 4634SOL     OW25360   1.267   1.657   3.292 -0.1246 -0.2854  0.8551
 4634SOL    HW125361   1.298   1.569   3.312  0.4093 -0.2470  0.2076
 4634SOL    HW225362   1.172   1.645   3.296  0.0307 -1.7786  0.0703
 4635SOL     OW25363   1.476   3.629  12.496 -0.0159  0.1215  0.2481
 4635SOL    HW125364   1.426   3.710  12.508 -0.1919 -0.0028  0.3722
 4635SOL    HW225365   1.439   3.589  12.417  2.8963 -1.6453 -0.1926
 4636SOL     OW25366   2.695   1.701   6.349 -0.0173  0.3988  0.7176
 4636SOL    HW125367   2.728   1.637   6.286 -1.1815  0.3881  0.1086
 4636SOL    HW225368   2.652   1.654   6.421  3.0510 -0.3223  2.1023
 4637SOL     OW25369   1.557   4.662   5.558  0.2300 -0.9794  0.5150
 4637SOL    HW125370   1.525   4.653   5.468 -0.0491 -0.6704  0.5815
 4637SOL    HW225371   1.598   0.022   5.556  0.6072 -1.1722 -0.3766
 4638SOL     OW25372   3.178   3.749  11.307 -0.1571 -0.1123 -0.1261
 4638SOL    HW125373   3.127   3.720  11.231  0.3115 -0.7954 -0.1741
 4638SOL    HW225374   3.235   3.818  11.273  2.0051 -1.2019  1.2971
 4639SOL     OW25375   4.007   0.982   2.049 -0.0525  0.0897  0.0128
 4639SOL    HW125376   3.992   1.075   2.031  2.5630  0.0867 -2.1859
 4639SOL    HW225377   3.920   0.945   2.066  0.6389 -1.1278  0.8661
 4640SOL     OW25378   0.779   2.484   1.623  0.1896  0.4755 -0.5152
 4640SOL    HW125379   0.864   2.479   1.666 -0.5120  0.1664  0.8548
 4640SOL    HW225380   0.781   2.409   1.563 -0.2749 -0.5614  0.7537
 4641SOL     OW25381   1.800   1.540   3.618  0.1552  0.1196 -0.4898
 4641SOL    HW125382   1.868   1.508   3.558  0.1395 -1.3074  0.2591
 4641SOL    HW225383   1.726   1.498   3.574  1.2005  0.4614 -2.5795
 4642SOL     OW25384   3.352   3.727   4.710  0.0585 -0.5701  0.2242
 4642SOL    HW125385   3.317   3.777   4.636 -0.4315  1.2409  1.6916
 4642SOL    HW225386   3.331   3.790   4.779 -0.4718 -0.3168 -0.1717
 4643SOL     OW25387   3.269   3.469   6.046  0.3455  0.0048 -0.3154
 4643SOL    HW125388   3.216   3.411   6.100 -1.3061  1.4776 -0.3640
 4643SOL    HW225389   3.338   3.487   6.110 -0.8978 -0.7410  1.2337
 4644SOL     OW25390   3.035   1.360   4.405 -0.6484 -0.5592  0.5566
 4644SOL    HW125391   3.023   1.270   4.376 -1.0739 -0.6795  1.1129
 4644SOL    HW225392   3.005   1.397   4.322 -0.1583  2.0406  1.5343
 4645SOL     OW25393   2.473   3.642   8.639  0.4737 -0.6888 -0.3711
 4645SOL    HW125394   2.472   3.611   8.729  0.3114  0.3269 -0.0170
 4645SOL    HW225395   2.565   3.640   8.611 -0.2311  0.7137 -2.8539
 4646SOL     OW25396   1.235   1.649  17.591  0.1426 -0.1308 -0.4321
 4646SOL    HW125397   1.158   1.593  17.582 -0.6593  1.2061 -1.7464
 4646SOL    HW225398   1.225   1.695  17.508 -2.3787  0.4954  0.2167
 4647SOL     OW25399   4.185   0.458   8.441  0.0686  0.0913  0.0110
 4647SOL    HW125400   4.277   0.435   8.437 -0.1508 -0.8168  0.1744
 4647SOL    HW225401   4.149   0.421   8.360  1.1886  0.7990 -0.8015
 4648SOL     OW25402   3.000   2.078  16.966 -0.5003  0.1113  0.0997
 4648SOL    HW125403   3.061   2.031  17.022 -1.3524  0.9707  1.7430
 4648SOL    HW225404   2.978   2.009  16.904 -1.2266  0.6740 -0.2594
 4649SOL     OW25405   2.725   0.348   7.291 -0.0380  0.1842 -0.3083
 4649SOL    HW125406   2.715   0.413   7.221  1.9466 -0.9707 -1.6923
 4649SOL    HW225407   2.696   0.277   7.233  1.9112 -0.8280 -0.0376
 4650SOL     OW25408   4.079   3.975   2.846  0.2198 -0.0872  0.0546
 4650SOL    HW125409   4.174   3.976   2.857  0.1471  1.7347  0.5173
 4650SOL    HW225410   4.072   3.931   2.761 -0.6007  3.4310 -1.6843
 4651SOL     OW25411   3.187   4.334   2.255 -0.6197 -0.4921 -0.4475
 4651SOL    HW125412   3.270   4.383   2.259 -0.8843 -0.2907  2.7385
 4651SOL    HW225413   3.177   4.319   2.162 -1.3989  1.1914 -0.6293
 4652SOL     OW25414   2.253   0.153  15.737  0.3440  0.3409 -0.1479
 4652SOL    HW125415   2.261   0.058  15.745 -0.5091  0.4456  1.9029
 4652SOL    HW225416   2.159   0.165  15.748  0.0539  0.0414 -2.3549
 4653SOL     OW25417   3.271   0.270  11.606  0.2760  0.0209  0.1298
 4653SOL    HW125418   3.330   0.305  11.540 -0.0376  0.7603  0.2502
 4653SOL    HW225419   3.249   0.185  11.568 -0.1990  1.4996 -2.8665
 4654SOL     OW25420   4.656   4.604  16.931 -0.3917  0.0967 -0.0443
 4654SOL    HW125421   4.652   4.594  17.026  0.1498 -2.1815 -0.2787
 4654SOL    HW225422   4.643   4.513  16.904 -0.6834  0.8470 -2.4057
 4655SOL     OW25423   3.637   4.680   2.271  0.1455  0.1033 -0.3733
 4655SOL    HW125424   3.719   0.003   2.265 -0.5663  1.1557 -1.3176
 4655SOL    HW225425   3.676   4.604   2.315  1.8828  1.0286 -0.2955
 4656SOL     OW25426   1.449   2.860   3.132  0.4151  0.3148  0.0401
 4656SOL    HW125427   1.518   2.880   3.195 -0.3610 -1.0148  1.3165
 4656SOL    HW225428   1.490   2.797   3.073  2.6194 -0.4768  2.4360
 4657SOL     OW25429   1.959   3.586   3.039  0.6379 -0.2798  0.7090
 4657SOL    HW125430   1.977   3.513   2.981  2.5463  1.4329 -0.8444
 4657SOL    HW225431   1.868   3.575   3.065  0.1371  1.5285 -0.2777
 4658SOL     OW25432   4.315   3.800   3.079 -0.8521 -0.6280  0.7126
 4658SOL    HW125433   4.405   3.834   3.076 -1.4582  0.9955  1.2345
 4658SOL    HW225434   4.313   3.744   3.001 -1.3944  2.1180 -1.2292
 4659SOL     OW25435   1.916   1.192  10.162 -0.4746 -0.0200  0.4006
 4659SOL    HW125436   1.840   1.154  10.117  0.0160 -0.7726  0.1991
 4659SOL    HW225437   1.895   1.285  10.174  1.0368  0.2400  0.9812
 4660SOL     OW25438   1.425   0.960   3.542  0.2826 -0.3312 -0.2818
 4660SOL    HW125439   1.471   0.882   3.574 -0.8630 -0.3759  1.2182
 4660SOL    HW225440   1.403   0.948   3.449  0.7347 -0.2926 -0.3966
 4661SOL     OW25441   2.164   2.535   5.535 -0.3875 -0.2248  0.3062
 4661SOL    HW125442   2.158   2.451   5.580 -2.9736 -1.1429 -1.7725
 4661SOL    HW225443   2.259   2.545   5.539 -0.7181  2.1192  1.9688
 4662SOL     OW25444   0.059   2.892   2.088  0.0145  0.0625  0.6869
 4662SOL    HW125445   0.028   2.841   2.163  2.7200 -0.9450  1.1087
 4662SOL    HW225446   0.099   2.968   2.131 -0.3676  0.0591  1.0573
 4663SOL     OW25447   3.012   2.436   4.025 -0.2950 -0.1264  0.1349
 4663SOL    HW125448   3.020   2.342   4.042 -3.4279 -0.6426 -1.2525
 4663SOL    HW225449   2.926   2.457   4.062  0.8726  2.4227  1.3755
 4664SOL     OW25450   1.556   4.179  17.217 -0.3340 -0.3542 -0.5473
 4664SOL    HW125451   1.529   4.088  17.205 -2.3647  0.8070 -4.8452
 4664SOL    HW225452   1.596   4.197  17.132  3.4686 -0.0529  1.3296
 4665SOL     OW25453   0.276   3.588   7.691 -0.1326 -0.3801 -0.0061
 4665SOL    HW125454   0.312   3.535   7.762  2.8648  2.4342  0.5463
 4665SOL    HW225455   0.218   3.521   7.654 -1.9522  0.1929  1.7908
 4666SOL     OW25456   3.837   2.573  17.147  0.5511  0.2853 -0.3778
 4666SOL    HW125457   3.772   2.510  17.117 -2.2566  1.7682  2.6021
 4666SOL    HW225458   3.786   2.653  17.131  2.2909  1.3166 -0.8231
 4667SOL     OW25459   0.496   4.115   2.849 -0.1771  0.0903  0.3974
 4667SOL    HW125460   0.437   4.151   2.783 -1.8614 -0.8153  1.3832
 4667SOL    HW225461   0.449   4.034   2.868 -0.5803  0.2378  0.0221
 4668SOL     OW25462   1.874   0.068   3.416  0.1781 -0.4692  0.1889
 4668SOL    HW125463   1.852   0.128   3.345  1.1559 -1.9338 -1.3231
 4668SOL    HW225464   1.792   0.020   3.429  0.1675 -0.3083  0.7549
 4669SOL     OW25465   0.416   2.237  12.278  0.4016 -0.0353 -0.0139
 4669SOL    HW125466   0.364   2.251  12.356  0.9041 -0.1798  0.3457
 4669SOL    HW225467   0.489   2.189  12.317  1.9790  1.2784 -1.3454
 4670SOL     OW25468   4.543   1.983   7.785  0.3067 -0.2219  0.2958
 4670SOL    HW125469   4.536   2.025   7.871 -0.1827 -0.3630  0.3206
 4670SOL    HW225470   4.498   1.900   7.800  1.9493 -1.5845 -2.2046
 4671SOL     OW25471   2.691   3.534   1.167 -0.2689 -0.4580  0.2349
 4671SOL    HW125472   2.741   3.463   1.126  0.6998 -0.6870  1.8157
 4671SOL    HW225473   2.645   3.571   1.092  1.0089 -0.9783 -0.8105
 4672SOL     OW25474   3.012   2.396  11.138  0.4921 -0.0951 -0.2265
 4672SOL    HW125475   2.964   2.324  11.179 -1.4995  1.9982  1.1449
 4672SOL    HW225476   2.990   2.392  11.045  0.3536 -0.1023 -0.1935
 4673SOL     OW25477   2.572   2.498   2.274  0.6152 -0.2248  0.1036
 4673SOL    HW125478   2.497   2.558   2.269  0.1530 -0.8003  0.1501
 4673SOL    HW225479   2.528   2.413   2.273  1.4065 -0.6188 -3.2531
 4674SOL     OW25480   4.418   0.694   5.172  0.0618 -0.1506  0.7575
 4674SOL    HW125481   4.429   0.643   5.253 -1.4787 -1.6872 -0.0105
 4674SOL    HW225482   4.419   0.628   5.103 -1.0220 -0.8291  1.3970
 4675SOL     OW25483   3.238   3.830   9.147 -0.6823  0.1977  0.4041
 4675SOL    HW125484   3.247   3.805   9.239  0.3440  2.8638  1.0219
 4675SOL    HW225485   3.292   3.909   9.142 -1.4847  0.8292  1.5888
 4676SOL     OW25486   0.601   0.798  10.851 -0.0411 -0.8925 -0.1425
 4676SOL    HW125487   0.687   0.782  10.890 -0.7202  2.1267  2.6212
 4676SOL    HW225488   0.619   0.890  10.832 -0.8833 -0.5480  0.6957
 4677SOL     OW25489   2.642   2.567   6.835 -0.0287 -0.1005 -0.2160
 4677SOL    HW125490   2.574   2.556   6.901  1.1411 -0.0568  0.9901
 4677SOL    HW225491   2.600   2.643   6.794 -0.3909 -0.8670 -1.2750
 4678SOL     OW25492   3.537   2.509   3.997 -0.6052  0.1228 -0.0827
 4678SOL    HW125493   3.447   2.479   3.985 -1.3419  2.4863 -0.4637
 4678SOL    HW225494   3.531   2.595   3.954 -0.2900 -2.4500 -5.1514
 4679SOL     OW25495   0.079   2.990   3.219 -0.4211  0.2537 -0.3246
 4679SOL    HW125496   0.166   3.031   3.219  0.6819 -2.0794 -1.3465
 4679SOL    HW225497   0.025   3.063   3.249 -1.4939 -0.0578 -1.5014
 4680SOL     OW25498   2.849   3.875   0.492  0.2822 -0.1779 -0.5035
 4680SOL    HW125499   2.942   3.900   0.491  0.7028 -1.7295 -0.0226
 4680SOL    HW225500   2.804   3.953   0.459  2.2412  0.2498 -2.2028
 4681SOL     OW25501   4.433   1.575   7.353  0.1634  0.0533  0.4483
 4681SOL    HW125502   4.491   1.639   7.393  0.8513 -0.8509  0.9008
 4681SOL    HW225503   4.477   1.493   7.376 -1.4990 -0.6030  1.2935
 4682SOL     OW25504   1.080   2.506   5.317 -0.0698  0.0233 -0.0450
 4682SOL    HW125505   0.997   2.498   5.363 -1.2795  1.7822 -1.8938
 4682SOL    HW225506   1.053   2.450   5.244 -1.4037 -1.3624  1.5321
 4683SOL     OW25507   1.363   4.681   0.601 -0.0436 -0.1335  0.0892
 4683SOL    HW125508   1.377   4.628   0.523  1.9787  0.6689 -0.0896
 4683SOL    HW225509   1.447   0.001   0.607 -0.8796  1.3095  0.9135
 4684SOL     OW25510   3.187   0.290   1.366  0.0081 -0.1708 -0.0970
 4684SOL    HW125511   3.111   0.348   1.359 -1.3337 -1.7220  1.7115
 4684SOL    HW225512   3.139   0.216   1.404  0.2391 -0.7020 -0.8287
 4685SOL     OW25513   2.435   1.776   7.831 -0.8806 -0.0800  0.8584
 4685SOL    HW125514   2.420   1.707   7.896 -1.5082 -0.1229  0.6608
 4685SOL    HW225515   2.491   1.837   7.880 -0.3244 -0.7056  1.0129
 4686SOL     OW25516   3.122   1.196  12.018 -0.2453 -0.6380  0.1539
 4686SOL    HW125517   3.078   1.177  11.935  0.5710 -0.7780 -0.2535
 4686SOL    HW225518   3.128   1.292  12.015 -1.7778 -0.5317  0.6626
 4687SOL     OW25519   2.597   2.554   0.078 -0.1733  0.0293 -0.4361
 4687SOL    HW125520   2.634   2.607   0.148 -0.0882  0.1261 -0.5524
 4687SOL    HW225521   2.600   2.611   0.001  1.0995  0.6942  0.1076
 4688SOL     OW25522   1.605   1.431   5.809  0.2652 -0.4328 -0.3275
 4688SOL    HW125523   1.561   1.427   5.894  1.4340  0.6526  0.3286
 4688SOL    HW225524   1.639   1.341   5.805 -0.0799 -0.6793  2.4462
 4689SOL     OW25525   1.803   2.207   0.630 -0.0615  0.0487 -0.5204
 4689SOL    HW125526   1.840   2.199   0.542  1.0692  3.5568 -0.3558
 4689SOL    HW225527   1.871   2.156   0.674  1.0023  1.2909 -0.7522
 4690SOL     OW25528   2.993   2.649  12.924 -0.1345 -0.0904 -0.0769
 4690SOL    HW125529   3.029   2.619  13.007  1.0141 -0.3274 -0.6549
 4690SOL    HW225530   3.040   2.602  12.854 -1.8920 -0.2198 -1.1824
 4691SOL     OW25531   4.076   0.349   5.870  0.2835 -0.4160 -0.8067
 4691SOL    HW125532   4.057   0.422   5.929 -1.6797 -0.6302 -1.1899
 4691SOL    HW225533   3.984   0.325   5.859  0.0495  0.0738  0.0819
 4692SOL     OW25534   1.251   0.763   7.675 -1.1270  0.0385 -0.5748
 4692SOL    HW125535   1.328   0.790   7.625 -1.1106 -0.4186 -0.7979
 4692SOL    HW225536   1.237   0.837   7.735 -1.7349 -1.1792  0.7946
 4693SOL     OW25537   0.000   3.927   5.509  0.3283 -0.3256  0.4446
 4693SOL    HW125538   4.679   3.962   5.433  1.9814 -0.3499 -0.6057
 4693SOL    HW225539   0.035   4.002   5.557  1.6244 -1.1032  0.7200
 4694SOL     OW25540   2.418   3.040   6.044 -0.0421  0.7014  0.6352
 4694SOL    HW125541   2.428   2.950   6.075  4.7933  0.7641 -0.7133
 4694SOL    HW225542   2.339   3.071   6.088 -0.2584  0.7176  0.2377
 4695SOL     OW25543   2.234   0.661   4.768 -0.1368 -0.1980  0.4638
 4695SOL    HW125544   2.166   0.598   4.744  2.1731 -2.4215 -0.3776
 4695SOL    HW225545   2.178   0.737   4.779  2.3541  1.7447 -0.2089
 4696SOL     OW25546   4.517   3.964   5.331 -0.2459  0.4784 -0.4487
 4696SOL    HW125547   4.459   3.889   5.349 -2.3557  1.8807 -1.3639
 4696SOL    HW225548   4.518   3.958   5.235  1.6413  0.1076 -0.3985
 4697SOL     OW25549   0.635   2.880   1.942 -0.8985  0.0060 -0.0932
 4697SOL    HW125550   0.564   2.879   2.005 -0.6242  1.8777  0.2488
 4697SOL    HW225551   0.609   2.807   1.886  1.6987 -1.5074  0.6876
 4698SOL     OW25552   1.944   1.323   8.420  0.1224  0.4178  0.1107
 4698SOL    HW125553   1.916   1.298   8.508  0.5531  0.4007  0.2390
 4698SOL    HW225554   2.025   1.371   8.437  0.6887 -0.1679 -0.9215
 4699SOL     OW25555   3.549   1.911   8.117  0.4936  0.3238  0.0694
 4699SOL    HW125556   3.479   1.936   8.178  1.1571  0.8987  0.5966
 4699SOL    HW225557   3.588   1.844   8.173 -4.4933 -1.6993  1.1419
 4700SOL     OW25558   0.585   1.819  17.463 -0.7146 -0.2832 -0.4934
 4700SOL    HW125559   0.669   1.777  17.482 -1.3499 -0.0910  2.7560
 4700SOL    HW225560   0.620   1.903  17.433 -1.5830  0.0847 -0.4993
 4701SOL     OW25561   0.603   0.145   0.572  0.1582 -0.0768  0.6892
 4701SOL    HW125562   0.688   0.104   0.589  0.2828  0.1824  0.6984
 4701SOL    HW225563   0.531   0.093   0.608  1.0049 -0.6073  1.6400
 4702SOL     OW25564   2.251   4.582  14.134 -0.7068  0.3772  0.0793
 4702SOL    HW125565   2.301   4.619  14.062 -1.1272  1.0490  0.1374
 4702SOL    HW225566   2.298   4.616  14.210 -3.5381 -0.4557  2.1922
 4703SOL     OW25567   0.443   3.753   4.282 -0.3026 -0.4776 -0.0175
 4703SOL    HW125568   0.388   3.796   4.217  0.2338  0.1552 -0.0544
 4703SOL    HW225569   0.374   3.713   4.335  0.1968 -0.8566  0.3412
 4704SOL     OW25570   3.695   1.437   4.075 -0.3870 -0.4137  0.1802
 4704SOL    HW125571   3.777   1.453   4.121 -0.0195 -1.6998 -0.0086
 4704SOL    HW225572   3.696   1.341   4.074 -0.2014 -0.3654 -2.6082
 4705SOL     OW25573   1.437   4.272   3.881  0.4178  0.4502  0.4157
 4705SOL    HW125574   1.394   4.192   3.850 -0.5821  0.4509  1.7668
 4705SOL    HW225575   1.507   4.279   3.817  0.6838 -0.9782  0.5400
 4706SOL     OW25576   2.481   1.315   4.276 -0.4111  0.1373 -0.0883
 4706SOL    HW125577   2.460   1.395   4.226  0.7154 -0.1275 -0.9833
 4706SOL    HW225578   2.553   1.285   4.221 -0.4185 -2.3207  1.2625
 4707SOL     OW25579   0.048   0.483   9.799  0.2991 -0.2472  0.4070
 4707SOL    HW125580   0.108   0.416   9.767  2.9469  1.4929  1.7072
 4707SOL    HW225581   0.061   0.481   9.894  1.1218  0.4614  0.3132
 4708SOL     OW25582   4.445   1.571   0.178 -0.4692 -0.3010 -0.4670
 4708SOL    HW125583   4.362   1.569   0.227 -0.8009  1.5913 -0.9654
 4708SOL    HW225584   4.439   1.486   0.134  0.6972 -0.3271 -0.5703
 4709SOL     OW25585   2.020   2.731   4.335 -0.1169  0.4942  0.7347
 4709SOL    HW125586   2.036   2.791   4.262 -1.2132 -1.6796 -1.2953
 4709SOL    HW225587   1.967   2.670   4.284  1.1824  2.6105 -3.0906
 4710SOL     OW25588   3.050   4.560   9.714 -0.0935  0.3335 -0.2337
 4710SOL    HW125589   3.067   4.628   9.780  1.3696 -0.8875  0.6619
 4710SOL    HW225590   3.028   4.483   9.767 -1.0070 -0.4262 -1.7229
 4711SOL     OW25591   4.125   2.662  10.817  0.1929  0.2446  1.2558
 4711SOL    HW125592   4.153   2.721  10.886  1.0595  0.4705  0.7144
 4711SOL    HW225593   4.179   2.592  10.855 -1.7512 -1.2549  1.2840
 4712SOL     OW25594   0.929   3.497   7.107 -0.5772  0.3793 -0.2684
 4712SOL    HW125595   0.955   3.436   7.037  0.0669  1.1766 -0.7269
 4712SOL    HW225596   0.861   3.548   7.063  0.4826  0.6122 -1.6711
 4713SOL     OW25597   4.185   2.944   3.579 -0.3391 -0.2757 -0.5572
 4713SOL    HW125598   4.237   2.986   3.648  0.1958  1.1368 -1.8298
 4713SOL    HW225599   4.104   2.953   3.629 -0.4231 -0.9038 -0.5829
 4714SOL     OW25600   1.355   2.039   5.388  0.2211 -0.6993  0.0676
 4714SOL    HW125601   1.417   2.103   5.421  0.6873 -0.9869 -0.2547
 4714SOL    HW225602   1.411   1.961   5.384  2.3419  0.8462  0.0520
 4715SOL     OW25603   4.396   0.876   2.579 -0.5152 -0.6755 -0.4652
 4715SOL    HW125604   4.300   0.874   2.590 -0.5433 -0.2494 -0.6545
 4715SOL    HW225605   4.397   0.955   2.526 -0.2023 -0.3228  0.0704
 4716SOL     OW25606   1.607   0.186  12.455 -0.3830 -0.7630 -0.4664
 4716SOL    HW125607   1.580   0.261  12.402 -1.3579 -3.2763 -3.4757
 4716SOL    HW225608   1.543   0.119  12.433 -1.1986 -0.2811  0.4323
 4717SOL     OW25609   0.521   3.157   0.546 -0.0485 -0.3122  0.1833
 4717SOL    HW125610   0.568   3.074   0.538  1.7871  1.0126 -2.9893
 4717SOL    HW225611   0.529   3.184   0.637  3.0077  0.1136 -0.2168
 4718SOL     OW25612   1.336   3.013   8.811  0.3116 -0.3149 -0.1286
 4718SOL    HW125613   1.279   3.088   8.790 -2.9099 -1.5223  4.2663
 4718SOL    HW225614   1.263   2.956   8.836  2.2014 -1.4951  2.5448
 4719SOL     OW25615   3.776   2.342   3.206  0.3031 -0.1924  0.4275
 4719SOL    HW125616   3.693   2.390   3.201 -0.0987 -1.0952 -1.4650
 4719SOL    HW225617   3.747   2.278   3.271  1.2358 -1.3447 -0.2891
 4720SOL     OW25618   3.779   4.105  16.742  0.3155 -0.0149  0.6946
 4720SOL    HW125619   3.782   4.200  16.732 -0.6159  0.2127  2.5768
 4720SOL    HW225620   3.700   4.084  16.692  0.6186 -2.0791  1.0617
 4721SOL     OW25621   1.923   2.370   1.552  0.3798  0.1023 -0.5146
 4721SOL    HW125622   1.870   2.292   1.567 -0.6890  0.7699 -0.7967
 4721SOL    HW225623   1.853   2.434   1.541  1.1640  0.8033 -1.4277
 4722SOL     OW25624   0.318   0.276   6.628 -0.2210 -0.2081  0.0975
 4722SOL    HW125625   0.388   0.337   6.606  0.5065 -0.6053  1.3069
 4722SOL    HW225626   0.241   0.321   6.595  0.2660  0.8915  0.4734
 4723SOL     OW25627   1.303   0.725  15.587 -0.4860  0.5480  0.4145
 4723SOL    HW125628   1.369   0.788  15.614 -2.1813  1.2063  3.0082
 4723SOL    HW225629   1.224   0.765  15.624 -0.3906 -0.0682  1.2757
 4724SOL     OW25630   4.059   1.816  16.898  0.3357 -0.6582 -0.6956
 4724SOL    HW125631   4.085   1.884  16.836 -0.3681 -0.7527 -1.0826
 4724SOL    HW225632   4.142   1.783  16.934 -0.4239 -0.9215  0.8195
 4725SOL     OW25633   4.329   4.554  10.656  0.2233 -0.8029  0.2448
 4725SOL    HW125634   4.342   4.470  10.701  0.7840 -1.1864 -0.6341
 4725SOL    HW225635   4.390   4.616  10.695 -2.3013  2.1195 -0.4599
 4726SOL     OW25636   3.508   2.495   0.738  0.3667 -0.0128 -0.0921
 4726SOL    HW125637   3.476   2.585   0.745  1.6502  0.3981  0.4766
 4726SOL    HW225638   3.452   2.452   0.673  1.2648  0.3704 -1.1107
 4727SOL     OW25639   1.415   1.071   5.864  0.0759 -0.2962 -0.1461
 4727SOL    HW125640   1.392   0.979   5.877  0.4650 -0.1137  1.9614
 4727SOL    HW225641   1.350   1.118   5.917 -0.5559 -0.1262 -1.0783
 4728SOL     OW25642   1.513   0.437   5.613 -0.1715  0.3726  0.1461
 4728SOL    HW125643   1.553   0.450   5.527 -0.1906  0.5496  0.1638
 4728SOL    HW225644   1.544   0.515   5.659 -0.1296 -0.3907  1.4055
 4729SOL     OW25645   4.386   4.638  16.800  0.6108 -0.2068 -0.2631
 4729SOL    HW125646   4.437   4.561  16.776  0.4302 -0.6985  0.9538
 4729SOL    HW225647   4.459   4.698  16.817  0.8677 -0.4755 -0.4217
 4730SOL     OW25648   1.500   2.240   6.973  0.0463  0.3895  0.3512
 4730SOL    HW125649   1.466   2.157   7.005 -0.7141 -0.1404 -1.8325
 4730SOL    HW225650   1.436   2.302   7.009  0.2278  1.0928 -0.5477
 4731SOL     OW25651   1.900   3.395  10.739  0.0246  0.5674 -0.8098
 4731SOL    HW125652   1.819   3.345  10.732 -0.4528  1.3754 -0.9935
 4731SOL    HW225653   1.866   3.478  10.771  0.4252 -0.7432  3.1024
 4732SOL     OW25654   3.908   1.418   4.221 -0.1165  0.2736  0.3506
 4732SOL    HW125655   3.932   1.362   4.295 -0.8115 -0.0006  0.3713
 4732SOL    HW225656   3.982   1.414   4.160 -0.1993 -3.6034  0.4985
 4733SOL     OW25657   3.176   0.796   8.117  0.4813 -0.0338  0.4051
 4733SOL    HW125658   3.217   0.870   8.161  1.3230 -0.2870  0.0387
 4733SOL    HW225659   3.151   0.733   8.184  0.7189 -0.4853  0.0737
 4734SOL     OW25660   0.083   0.738  17.612 -0.1702  0.1509 -0.6479
 4734SOL    HW125661   0.090   0.828  17.643 -2.1244 -0.1428  0.6187
 4734SOL    HW225662   4.718   0.726  17.639  0.2819 -1.7453  0.0577
 4735SOL     OW25663   2.842   1.081  17.247 -0.2241 -0.7854  0.1962
 4735SOL    HW125664   2.915   1.065  17.307 -0.3842 -1.1139  0.3030
 4735SOL    HW225665   2.891   1.111  17.170 -1.9299  0.9361 -0.2033
 4736SOL     OW25666   0.265   4.455   0.911  0.0225  0.8150 -0.6476
 4736SOL    HW125667   0.340   4.466   0.970 -0.4003  0.7095 -0.0923
 4736SOL    HW225668   0.247   4.545   0.883 -1.5201  0.6309 -0.2582
 4737SOL     OW25669   4.291   1.189  10.447  0.4843 -0.4253 -0.9426
 4737SOL    HW125670   4.355   1.140  10.499 -0.4623 -0.4446  0.2130
 4737SOL    HW225671   4.338   1.272  10.445  0.4957 -0.3648  1.6837
 4738SOL     OW25672   4.451   0.373  12.157  0.3417 -1.1439  0.1844
 4738SOL    HW125673   4.497   0.420  12.226  0.2772 -0.0801 -0.4972
 4738SOL    HW225674   4.449   0.448  12.096  1.0542 -2.2017 -1.1478
 4739SOL     OW25675   2.430   0.637   2.039  0.4068  0.5482  0.0999
 4739SOL    HW125676   2.423   0.661   1.946 -2.3558  0.3299  0.2474
 4739SOL    HW225677   2.434   0.728   2.066 -0.9413  0.2536  1.2927
 4740SOL     OW25678   2.248   4.347  11.545  0.1767 -0.3235  0.0185
 4740SOL    HW125679   2.274   4.321  11.457  1.9719 -0.4688  0.5885
 4740SOL    HW225680   2.260   4.261  11.586 -2.1661 -0.2544  0.8625
 4741SOL     OW25681   1.791   1.994   3.877 -0.0108  0.0283  0.1086
 4741SOL    HW125682   1.776   2.055   3.805 -0.2867  0.3167  0.4040
 4741SOL    HW225683   1.789   1.909   3.834  0.4816 -0.1530  0.4426
 4742SOL     OW25684   2.407   2.474   2.802 -0.0949 -0.0177 -1.0789
 4742SOL    HW125685   2.442   2.492   2.715  0.5230  2.4486 -0.3170
 4742SOL    HW225686   2.426   2.555   2.851 -0.1737 -0.8199  0.2928
 4743SOL     OW25687   3.148   0.718   8.873 -0.1784 -0.1584  0.2173
 4743SOL    HW125688   3.108   0.694   8.957 -2.1633 -0.3176 -0.7679
 4743SOL    HW225689   3.182   0.635   8.841 -2.1289 -1.0270  0.4074
 4744SOL     OW25690   2.530   4.561   7.878 -0.9359  0.1466  0.8672
 4744SOL    HW125691   2.458   4.511   7.915  0.4172 -3.1509 -0.9278
 4744SOL    HW225692   2.603   4.532   7.934  0.8002 -0.9066 -1.9084
 4745SOL     OW25693   0.719   2.370   8.191  0.0998 -0.2342 -0.1646
 4745SOL    HW125694   0.805   2.327   8.182  1.1743  2.2670 -1.8921
 4745SOL    HW225695   0.682   2.316   8.121  2.1469  0.6912 -1.9928
 4746SOL     OW25696   1.220   1.505   0.292 -0.0264  0.1236  0.2801
 4746SOL    HW125697   1.285   1.569   0.263 -0.9489  0.2360 -1.5916
 4746SOL    HW225698   1.245   1.424   0.247 -0.6503 -1.1407  2.1834
 4747SOL     OW25699   3.260   1.151   4.762  0.1131  0.1034 -0.3583
 4747SOL    HW125700   3.325   1.170   4.695 -1.1724  2.6439 -0.9084
 4747SOL    HW225701   3.198   1.094   4.715 -1.6644  2.1888 -0.5846
 4748SOL     OW25702   2.066   2.723   8.947 -0.9577 -0.4155 -0.2880
 4748SOL    HW125703   2.054   2.817   8.954 -3.6418 -0.5403 -3.1422
 4748SOL    HW225704   1.989   2.694   8.898 -1.5237 -0.4754  0.6250
 4749SOL     OW25705   4.216   3.012   5.234 -0.3198 -0.2496  0.0895
 4749SOL    HW125706   4.256   3.030   5.149 -1.6391  0.6100 -0.3547
 4749SOL    HW225707   4.273   2.941   5.262  0.0516  0.0149  0.0085
 4750SOL     OW25708   4.602   1.795   0.182  0.2231  0.4614  0.3596
 4750SOL    HW125709   4.673   1.736   0.158 -0.4966 -0.4013  0.3694
 4750SOL    HW225710   4.533   1.733   0.203 -2.0661  2.8990  0.1458
 4751SOL     OW25711   2.980   2.074   8.566  0.3772 -0.1377 -0.0646
 4751SOL    HW125712   2.900   2.039   8.528  0.6076 -1.1899  0.4269
 4751SOL    HW225713   2.949   2.117   8.646 -0.1529 -0.0316 -0.3304
 4752SOL     OW25714   2.815   3.668   4.274 -0.2858  0.5881  0.7702
 4752SOL    HW125715   2.899   3.647   4.316 -0.1541 -1.0656 -0.3319
 4752SOL    HW225716   2.850   3.701   4.192 -2.1947 -1.9530 -1.0538
 4753SOL     OW25717   3.387   0.202   9.111 -1.1366 -0.3797 -0.2863
 4753SOL    HW125718   3.420   0.290   9.092  0.4668 -0.7016  0.9603
 4753SOL    HW225719   3.471   0.158   9.122 -1.4299 -1.2662 -1.6068
 4754SOL     OW25720   4.413   1.458   1.737  0.4801 -0.0218 -0.5653
 4754SOL    HW125721   4.504   1.483   1.721  0.9917 -1.1436  0.6409
 4754SOL    HW225722   4.374   1.538   1.773  0.9894  0.7894 -1.7816
 4755SOL     OW25723   0.827   2.252   6.576  0.0936 -0.3139 -0.9948
 4755SOL    HW125724   0.910   2.279   6.616 -0.8825 -0.3652  1.1011
 4755SOL    HW225725   0.824   2.172   6.628  0.7632  1.3140  1.6012
 4756SOL     OW25726   4.221   1.345   6.907 -0.5537  0.0647 -0.3364
 4756SOL    HW125727   4.138   1.302   6.885 -0.4785 -0.2954  0.0905
 4756SOL    HW225728   4.193   1.414   6.967  0.0531 -2.1156  2.4328
 4757SOL     OW25729   1.330   3.597  13.097 -0.1323 -0.0789 -0.0051
 4757SOL    HW125730   1.399   3.652  13.061 -0.2123 -1.6548 -2.6008
 4757SOL    HW225731   1.331   3.630  13.186 -1.8130  1.2861 -0.4954
 4758SOL     OW25732   3.601   3.195   5.342 -0.0561 -0.1388  0.0927
 4758SOL    HW125733   3.664   3.210   5.271 -1.2393  1.5466 -0.6010
 4758SOL    HW225734   3.658   3.219   5.415 -2.3512  0.6423  1.6252
 4759SOL     OW25735   2.427   0.628  13.025 -0.5394  0.4895 -0.2034
 4759SOL    HW125736   2.374   0.707  13.032 -0.5784  0.2451  2.3635
 4759SOL    HW225737   2.371   0.572  12.972 -2.4074  1.3120  0.9076
 4760SOL     OW25738   1.237   1.367   5.290 -1.0408 -0.2155  0.0061
 4760SOL    HW125739   1.269   1.325   5.210 -1.4727 -2.1262  0.8291
 4760SOL    HW225740   1.316   1.412   5.318 -2.1967 -0.5591  3.8001
 4761SOL     OW25741   1.596   0.800   5.272 -0.1381  0.3732  0.2307
 4761SOL    HW125742   1.524   0.776   5.213  0.5608 -0.8478 -0.1119
 4761SOL    HW225743   1.650   0.847   5.209 -1.9778  1.8857 -0.2503
 4762SOL     OW25744   0.571   1.613  11.894  0.4006 -0.0807 -1.1210
 4762SOL    HW125745   0.570   1.709  11.904 -1.0713 -0.5277  2.6743
 4762SOL    HW225746   0.642   1.590  11.954  0.1673  1.4898 -0.2179
 4763SOL     OW25747   3.594   3.517   5.295 -0.2092 -0.4550  0.1785
 4763SOL    HW125748   3.569   3.426   5.280  0.6213 -0.4551 -1.1269
 4763SOL    HW225749   3.515   3.550   5.337 -0.1991 -0.9698  0.6135
 4764SOL     OW25750   2.034   1.449   4.256 -0.2297  0.1144  0.3435
 4764SOL    HW125751   1.968   1.502   4.301  0.1478  1.5500 -0.8206
 4764SOL    HW225752   1.993   1.403   4.182 -0.0167  0.6521 -0.1059
 4765SOL     OW25753   0.949   2.276   0.665 -0.1724 -0.4547  0.3670
 4765SOL    HW125754   0.915   2.261   0.577  1.3645 -0.9500 -0.1492
 4765SOL    HW225755   0.925   2.367   0.681  2.4362  0.3387 -0.2800
 4766SOL     OW25756   0.660   1.414   0.987  0.3963  0.5853  0.3202
 4766SOL    HW125757   0.643   1.320   0.991  0.9633  0.3975 -1.6544
 4766SOL    HW225758   0.641   1.440   1.077 -0.6321  3.0911 -0.6136
 4767SOL     OW25759   2.371   2.463  10.470  0.8116 -0.3031 -0.7237
 4767SOL    HW125760   2.408   2.530  10.412 -0.8382  2.8932  1.9408
 4767SOL    HW225761   2.449   2.412  10.490  1.7233  0.8690 -1.2869
 4768SOL     OW25762   3.066   4.576  12.521  0.7391 -0.3751  0.6330
 4768SOL    HW125763   3.117   4.555  12.443  0.6703  1.1305  0.1949
 4768SOL    HW225764   3.123   4.533  12.586  1.9094 -2.7177 -1.9205
 4769SOL     OW25765   2.694   1.980   3.446  0.4021  0.3855 -0.1473
 4769SOL    HW125766   2.686   2.068   3.411  1.4308  0.1074 -1.0723
 4769SOL    HW225767   2.771   1.989   3.503  0.5870 -0.6105 -0.2282
 4770SOL     OW25768   3.283   0.433   2.122 -0.1095 -0.3919  0.3325
 4770SOL    HW125769   3.263   0.482   2.043  1.2845  1.3633  1.0632
 4770SOL    HW225770   3.245   0.348   2.101  1.4198 -0.7979 -0.7206
 4771SOL     OW25771   4.449   0.858   7.126 -0.1999  0.4357 -0.6288
 4771SOL    HW125772   4.431   0.949   7.150  2.9273  0.7097  0.6661
 4771SOL    HW225773   4.445   0.813   7.210  0.1672  0.6227 -0.5093
 4772SOL     OW25774   4.103   2.028   8.623 -0.4891 -0.3108 -0.6966
 4772SOL    HW125775   4.133   2.072   8.702  1.1837  0.9118 -1.9913
 4772SOL    HW225776   4.019   2.075   8.630 -1.5955 -2.0852 -2.0773
 4773SOL     OW25777   0.442   3.691   8.028 -0.6582  0.2441  0.3040
 4773SOL    HW125778   0.405   3.622   8.083 -1.9380 -0.1053 -0.9792
 4773SOL    HW225779   0.373   3.719   7.968 -0.7245  1.8097  1.1147
 4774SOL     OW25780   0.406   2.841   0.838  0.0763 -0.1232  0.3483
 4774SOL    HW125781   0.341   2.892   0.789  0.6304  0.6555  0.4242
 4774SOL    HW225782   0.486   2.857   0.789 -0.2522  0.6779  0.0692
 4775SOL     OW25783   4.345   4.103   2.895 -0.2996  0.2735  0.2775
 4775SOL    HW125784   4.350   4.066   2.983  4.1325  4.8660  1.9287
 4775SOL    HW225785   4.344   4.194   2.924 -4.8873  0.5592 -0.7468
 4776SOL     OW25786   1.269   2.595   4.464 -0.4929  0.1756  0.7933
 4776SOL    HW125787   1.347   2.548   4.436 -0.4262 -0.2367  1.6743
 4776SOL    HW225788   1.213   2.585   4.386  0.7172  1.4294 -0.2208
 4777SOL     OW25789   4.245   1.427   3.391 -0.5067 -0.2365  0.5043
 4777SOL    HW125790   4.309   1.497   3.383 -1.6731  0.7558 -0.1151
 4777SOL    HW225791   4.290   1.360   3.443  0.1095 -0.4135 -0.2670
 4778SOL     OW25792   0.408   1.314   5.850  0.4346 -0.7630  1.0213
 4778SOL    HW125793   0.323   1.357   5.847  1.0522  0.4801  1.3445
 4778SOL    HW225794   0.447   1.340   5.934 -0.8225  1.8068  0.7982
 4779SOL     OW25795   3.670   3.366   6.651  0.1356  0.0109  0.2079
 4779SOL    HW125796   3.764   3.384   6.651  0.0964  0.2273 -0.0195
 4779SOL    HW225797   3.642   3.456   6.667  2.1521  0.9502 -1.4958
 4780SOL     OW25798   3.468   3.417   0.748  0.8555  0.3437 -0.0082
 4780SOL    HW125799   3.400   3.438   0.811  1.5545  1.3037  0.4241
 4780SOL    HW225800   3.547   3.403   0.800  1.0610  4.2026  0.7054
 4781SOL     OW25801   2.940   3.634   7.771  0.5557  0.3155  0.6866
 4781SOL    HW125802   3.030   3.667   7.781 -0.0571  1.2961  2.8763
 4781SOL    HW225803   2.903   3.653   7.857  1.0198 -1.2129  1.2155
 4782SOL     OW25804   4.247   0.546   9.513  0.1361  0.5384 -0.4522
 4782SOL    HW125805   4.249   0.451   9.517  2.4847  0.5244 -2.3636
 4782SOL    HW225806   4.268   0.569   9.604 -0.0732  0.8876 -0.4898
 4783SOL     OW25807   3.399   0.660   7.981 -0.3072 -0.0362 -0.7989
 4783SOL    HW125808   3.325   0.698   8.029 -1.7605 -2.5094 -1.0278
 4783SOL    HW225809   3.407   0.573   8.021 -1.6265  0.1328 -0.1657
 4784SOL     OW25810   2.061   2.136   6.883  0.1024 -0.0065 -0.0272
 4784SOL    HW125811   1.989   2.121   6.822 -0.5627 -0.2438  0.8040
 4784SOL    HW225812   2.119   2.194   6.834 -0.9067  0.1463 -1.0384
 4785SOL     OW25813   1.754   2.874  14.551 -0.2419 -0.5337  0.1357
 4785SOL    HW125814   1.694   2.904  14.483 -0.1904  1.1225  0.8106
 4785SOL    HW225815   1.708   2.878  14.635 -1.9168  1.2679 -0.8562
 4786SOL     OW25816   0.816   4.222   3.267  0.2345  0.0977 -0.4376
 4786SOL    HW125817   0.852   4.139   3.298  0.5397  0.0784 -0.8351
 4786SOL    HW225818   0.768   4.256   3.342 -0.3201 -0.4114 -0.5683
 4787SOL     OW25819   3.858   4.254   9.901  0.5988 -0.4748  0.5471
 4787SOL    HW125820   3.895   4.305   9.973  1.1023  1.8500 -1.3464
 4787SOL    HW225821   3.840   4.174   9.949  0.0133 -0.6744  0.0007
 4788SOL     OW25822   0.315   3.317   3.876  0.8251 -0.4863 -0.3389
 4788SOL    HW125823   0.247   3.381   3.897  0.7162 -0.3342 -1.1521
 4788SOL    HW225824   0.312   3.304   3.781 -1.7919 -0.3923 -0.2677
 4789SOL     OW25825   3.857   2.096   6.078  0.0831  0.3835 -0.2760
 4789SOL    HW125826   3.930   2.113   6.019  0.0409 -1.6757 -0.8940
 4789SOL    HW225827   3.807   2.178   6.081  0.1689  0.4590 -0.8386
 4790SOL     OW25828   2.687   1.827   7.510 -0.4727 -0.7423  0.5671
 4790SOL    HW125829   2.728   1.772   7.443 -0.0720  0.5354 -0.2363
 4790SOL    HW225830   2.597   1.826   7.478 -1.0916 -3.1504  2.4405
 4791SOL     OW25831   2.391   4.163   8.047 -0.8003 -0.0173  0.5820
 4791SOL    HW125832   2.413   4.124   8.132 -0.2135  0.7562  0.7871
 4791SOL    HW225833   2.316   4.109   8.023 -2.0231  0.6445  2.9378
 4792SOL     OW25834   1.545   1.808   8.294  0.4147 -1.0916  0.4912
 4792SOL    HW125835   1.616   1.835   8.351  0.3674 -0.2854  0.1765
 4792SOL    HW225836   1.474   1.861   8.330  1.2543  1.6959 -1.9417
 4793SOL     OW25837   1.005   0.501   7.212 -0.2904 -0.2095  0.4064
 4793SOL    HW125838   1.097   0.487   7.233 -0.2790  0.0802  0.5455
 4793SOL    HW225839   0.999   0.594   7.231 -1.7109 -0.0921 -0.5553
 4794SOL     OW25840   3.518   1.902   0.444  0.1868  0.3029  0.3905
 4794SOL    HW125841   3.480   1.874   0.361 -0.3204 -0.7067  0.9518
 4794SOL    HW225842   3.612   1.887   0.433  0.2361  1.9536 -1.2198
 4795SOL     OW25843   3.467   2.767   9.422 -0.3626 -0.0301 -0.7758
 4795SOL    HW125844   3.434   2.752   9.334 -2.6436  1.0668 -0.1216
 4795SOL    HW225845   3.407   2.836   9.451  0.1213 -0.1925  0.6482
 4796SOL     OW25846   0.867   2.151   7.778  0.4201  0.0462  0.4897
 4796SOL    HW125847   0.810   2.173   7.704 -0.5460  1.0600  1.5330
 4796SOL    HW225848   0.868   2.239   7.816  0.4012  0.3341 -0.1794
 4797SOL     OW25849   4.211   0.211   7.330  0.4524 -0.7042 -0.4159
 4797SOL    HW125850   4.156   0.132   7.337 -0.1203 -0.4487 -1.9458
 4797SOL    HW225851   4.142   0.276   7.315  0.2210 -0.5858  1.1628
 4798SOL     OW25852   1.260   2.868  16.024  0.2280  0.2749 -0.2943
 4798SOL    HW125853   1.206   2.895  15.950 -0.9852  0.3176  0.6141
 4798SOL    HW225854   1.279   2.951  16.068 -1.0747  0.1624  0.4884
 4799SOL     OW25855   0.429   4.625   1.968  0.4367  0.1008 -0.3733
 4799SOL    HW125856   0.453   4.561   2.035 -1.2463 -2.1215 -1.8905
 4799SOL    HW225857   0.342   4.595   1.941 -0.5221  1.9533  0.6562
 4800SOL     OW25858   3.604   1.488   4.992 -0.1286  0.1323  0.0967
 4800SOL    HW125859   3.653   1.460   5.069  0.7142 -0.4708 -0.6647
 4800SOL    HW225860   3.585   1.411   4.940  0.2169  0.8844 -1.1379
 4801SOL     OW25861   0.806   1.317  14.567 -0.1346  0.0874  0.0473
 4801SOL    HW125862   0.860   1.273  14.501 -0.5463 -0.3350 -0.0119
 4801SOL    HW225863   0.811   1.410  14.545 -2.7907  0.5440  1.3970
 4802SOL     OW25864   2.343   0.368   8.850  0.6108 -0.0346  0.3155
 4802SOL    HW125865   2.391   0.427   8.792  0.4515 -0.0431  0.1730
 4802SOL    HW225866   2.267   0.423   8.871  0.0972 -0.7289  0.2552
 4803SOL     OW25867   0.932   2.759   3.908 -0.2248  0.2581 -0.5959
 4803SOL    HW125868   0.888   2.728   3.829 -0.5252  1.2338 -0.8184
 4803SOL    HW225869   0.856   2.795   3.954  0.3316  0.8189 -0.1132
 4804SOL     OW25870   3.303   3.141   5.815  0.0814  0.1585 -0.1922
 4804SOL    HW125871   3.369   3.137   5.884  0.3226  0.6531 -0.3958
 4804SOL    HW225872   3.359   3.108   5.745  1.7145 -0.3019  1.3184
 4805SOL     OW25873   1.487   2.982   4.766 -0.3222  0.4266 -0.0136
 4805SOL    HW125874   1.542   3.000   4.843  0.8947 -0.1942 -0.7442
 4805SOL    HW225875   1.427   2.915   4.800  0.0073  0.4118  0.5469
 4806SOL     OW25876   3.804   3.689   8.000 -0.4052  0.0457  0.6915
 4806SOL    HW125877   3.840   3.613   8.046 -0.8013 -1.1402 -0.9714
 4806SOL    HW225878   3.871   3.684   7.932 -2.4136 -0.1372 -1.2480
 4807SOL     OW25879   1.128   0.553   8.055 -0.0457 -0.8071 -0.4200
 4807SOL    HW125880   1.033   0.564   8.063  0.3165  1.8220  0.3142
 4807SOL    HW225881   1.140   0.517   8.143  0.4180  0.0561 -0.1274
 4808SOL     OW25882   2.770   0.549   3.510 -0.8473  0.6423 -0.3268
 4808SOL    HW125883   2.832   0.533   3.582 -0.4427 -1.6542 -1.1989
 4808SOL    HW225884   2.813   0.627   3.474  0.5768  0.5259  1.1209
 4809SOL     OW25885   0.510   3.101   1.687 -0.3134 -0.0162  0.0029
 4809SOL    HW125886   0.455   3.096   1.766  0.3996  1.9173  0.6037
 4809SOL    HW225887   0.519   3.008   1.667 -1.1393  0.3862 -2.2905
 4810SOL     OW25888   1.287   3.676   7.710  0.3396 -0.2446 -0.3418
 4810SOL    HW125889   1.346   3.610   7.746 -0.5705 -1.2930 -0.8055
 4810SOL    HW225890   1.198   3.659   7.742 -0.4197  2.7978 -0.8450
 4811SOL     OW25891   1.830   2.024  16.938  0.6754 -0.7359 -0.1300
 4811SOL    HW125892   1.748   2.014  16.987  1.9395  0.7385  2.3341
 4811SOL    HW225893   1.878   1.944  16.957  0.6239 -1.0224 -1.2418
 4812SOL     OW25894   0.720   0.173   2.857 -0.6569  0.0804 -0.3154
 4812SOL    HW125895   0.736   0.266   2.870  1.9209 -0.4274  0.2105
 4812SOL    HW225896   0.628   0.169   2.833 -1.5349  0.2506  3.0211
 4813SOL     OW25897   1.576   4.471  10.516  0.0293 -0.1371  0.3291
 4813SOL    HW125898   1.517   4.436  10.450  1.8241 -2.5112 -0.0006
 4813SOL    HW225899   1.516   4.508  10.580  1.9752  1.2927  1.3504
 4814SOL     OW25900   2.852   1.046   3.939  0.1853  0.6109  0.0642
 4814SOL    HW125901   2.820   1.136   3.932  1.8995  1.1544 -0.6344
 4814SOL    HW225902   2.870   1.039   3.845 -0.2099  1.0529 -0.0446
 4815SOL     OW25903   1.926   2.802   9.805  0.1666  0.5615  0.0844
 4815SOL    HW125904   1.852   2.839   9.851  1.1644  0.4537  1.7675
 4815SOL    HW225905   1.895   2.712   9.805  0.9032  0.3050  0.3919
 4816SOL     OW25906   4.418   3.936  13.982  0.6416  0.1252 -0.2823
 4816SOL    HW125907   4.415   3.844  13.956  0.6447  0.2281 -0.6538
 4816SOL    HW225908   4.330   3.965  14.006  0.6680  1.5758 -1.9340
 4817SOL     OW25909   1.973   3.785   0.456 -0.0891  0.1744  0.0881
 4817SOL    HW125910   1.995   3.792   0.363 -0.1097  1.3211  0.1603
 4817SOL    HW225911   1.879   3.798   0.443 -0.4156 -0.5393  1.7915
 4818SOL     OW25912   1.351   3.542   1.569 -0.4837 -1.1425 -0.0450
 4818SOL    HW125913   1.404   3.496   1.504 -2.8555 -0.9168 -2.1395
 4818SOL    HW225914   1.393   3.498   1.643 -2.4624 -0.4221  1.5143
 4819SOL     OW25915   3.099   3.122   5.061 -0.1801  0.3828 -0.3944
 4819SOL    HW125916   3.035   3.164   5.118  0.3732  0.4356  0.1874
 4819SOL    HW225917   3.085   3.178   4.984  1.7404 -1.4958 -2.1162
 4820SOL     OW25918   0.428   3.792  15.940 -0.6563  0.3621 -0.2288
 4820SOL    HW125919   0.436   3.717  15.880  0.4954  1.3029 -1.2570
 4820SOL    HW225920   0.361   3.843  15.894 -1.5016  1.7414  2.5872
 4821SOL     OW25921   4.545   0.185   1.711 -0.2199  0.1308  0.6184
 4821SOL    HW125922   4.483   0.214   1.778  1.3122 -1.2600  2.6483
 4821SOL    HW225923   4.571   0.095   1.730 -0.7333  0.0082  0.7600
 4822SOL     OW25924   2.278   1.091   4.603  0.2617  0.1427 -0.6714
 4822SOL    HW125925   2.216   1.030   4.563 -0.0989 -0.1675  0.3657
 4822SOL    HW225926   2.359   1.089   4.551  0.3735 -0.4659 -0.4693
 4823SOL     OW25927   2.256   3.907   8.641  0.2693 -0.1029 -0.0215
 4823SOL    HW125928   2.252   4.002   8.655  1.4837 -0.0889  0.2162
 4823SOL    HW225929   2.309   3.874   8.713 -1.6603 -1.3587  0.8104
 4824SOL     OW25930   1.860   2.089   9.426  0.6317 -0.5816 -0.4385
 4824SOL    HW125931   1.946   2.054   9.446  0.5018 -1.2818 -1.1032
 4824SOL    HW225932   1.887   2.129   9.343  1.0681  0.4398  0.2136
 4825SOL     OW25933   2.826   2.266  16.890  0.1281  0.1364 -0.4171
 4825SOL    HW125934   2.782   2.203  16.833  0.3374  0.9426 -1.4751
 4825SOL    HW225935   2.881   2.203  16.937  1.2785  1.9059  0.6218
 4826SOL     OW25936   4.116   3.963   7.918 -0.0497 -0.5917  0.0099
 4826SOL    HW125937   4.175   3.933   7.987  1.2523 -1.4248 -1.4337
 4826SOL    HW225938   4.158   3.912   7.848 -0.3357  1.0966 -1.4113
 4827SOL     OW25939   2.360   0.906   5.798 -0.3194 -0.7208  0.2613
 4827SOL    HW125940   2.397   0.922   5.712 -1.2903  0.5954  0.0759
 4827SOL    HW225941   2.431   0.848   5.826  0.1004 -1.1080 -1.6522
 4828SOL     OW25942   2.848   0.820   0.169 -0.7335  0.9997  0.2001
 4828SOL    HW125943   2.853   0.911   0.199  0.0887  2.2415 -3.7833
 4828SOL    HW225944   2.793   0.832   0.092 -2.5546 -2.4908  0.9446
 4829SOL     OW25945   4.722   1.775   1.450  0.3226  0.0382 -0.6403
 4829SOL    HW125946   4.723   1.701   1.390  1.0115  0.4492 -1.1336
 4829SOL    HW225947   0.051   1.738   1.519  0.3800  1.2436 -0.0408
 4830SOL     OW25948   2.441   3.619  15.251 -0.1717 -1.0158  0.0627
 4830SOL    HW125949   2.498   3.688  15.217 -1.2560  0.3961  1.1124
 4830SOL    HW225950   2.397   3.602  15.168  0.9127  1.0101 -0.9180
 4831SOL     OW25951   1.930   4.143   5.084 -0.0913  0.3188 -0.4872
 4831SOL    HW125952   1.837   4.126   5.068  0.2586 -0.7721 -1.3142
 4831SOL    HW225953   1.961   4.053   5.082  0.1527  0.4310 -2.1155
 4832SOL     OW25954   3.787   0.212  16.703 -0.3275  0.4838 -0.7804
 4832SOL    HW125955   3.727   0.243  16.771  1.7720  1.0262  0.8429
 4832SOL    HW225956   3.863   0.263  16.729 -0.9318  1.9433 -1.9285
 4833SOL     OW25957   3.291   2.185   8.208 -0.2826  0.3927  0.7198
 4833SOL    HW125958   3.207   2.176   8.252 -2.0178 -0.8855 -2.8447
 4833SOL    HW225959   3.349   2.147   8.274  2.3854 -0.9510 -2.3847
 4834SOL     OW25960   0.627   4.341  15.064 -0.1394  0.0134 -0.1001
 4834SOL    HW125961   0.629   4.395  14.985  0.4354 -0.2107 -0.2404
 4834SOL    HW225962   0.564   4.387  15.119 -1.2943  0.6902 -1.9900
 4835SOL     OW25963   1.322   0.593   3.394 -0.1502  0.1192 -0.1624
 4835SOL    HW125964   1.385   0.531   3.431  0.8443 -0.2096 -2.4258
 4835SOL    HW225965   1.367   0.636   3.322 -0.9506  1.0072 -0.1302
 4836SOL     OW25966   2.534   1.483   6.235 -0.0288 -0.7442  0.1869
 4836SOL    HW125967   2.528   1.573   6.204 -2.7778 -0.6926  0.9354
 4836SOL    HW225968   2.474   1.435   6.178 -1.9284  1.1994  0.5605
 4837SOL     OW25969   0.556   3.108   2.555 -0.1062  0.0286 -0.5103
 4837SOL    HW125970   0.647   3.132   2.539 -0.8929  2.4846 -1.2169
 4837SOL    HW225971   0.528   3.183   2.607 -1.0823 -1.1689  0.7221
 4838SOL     OW25972   0.998   0.305   7.482 -0.3057  0.1679 -0.2720
 4838SOL    HW125973   1.060   0.368   7.518 -0.5525 -0.6993  1.6627
 4838SOL    HW225974   0.939   0.362   7.432 -1.0296 -0.4441 -0.1162
 4839SOL     OW25975   2.112   1.761   2.577 -0.4975 -0.0156 -0.4406
 4839SOL    HW125976   2.017   1.762   2.592 -0.2141 -1.8505  1.5764
 4839SOL    HW225977   2.121   1.778   2.483 -0.0998 -0.5843 -0.5049
 4840SOL     OW25978   4.637   1.143   3.657 -0.1056 -0.0708 -0.1902
 4840SOL    HW125979   4.623   1.059   3.613 -1.1537  0.4586 -0.8665
 4840SOL    HW225980   4.557   1.194   3.644 -2.2702 -2.8370  2.3263
 4841SOL     OW25981   4.721   0.041  12.800  0.3274  0.1395  0.2209
 4841SOL    HW125982   0.070   0.053  12.742  0.3530 -1.3050 -0.0435
 4841SOL    HW225983   4.688   0.130  12.812  0.2338  0.0182  0.8552
 4842SOL     OW25984   3.372   2.755   3.455 -0.1221  0.1032 -0.3322
 4842SOL    HW125985   3.397   2.804   3.376 -0.6571  0.3162 -0.3701
 4842SOL    HW225986   3.346   2.824   3.515 -0.8933  0.0099 -0.5602
 4843SOL     OW25987   4.453   4.498   6.660  0.5368  0.4870 -0.3166
 4843SOL    HW125988   4.514   4.568   6.681 -0.7988  1.6782 -0.4579
 4843SOL    HW225989   4.495   4.431   6.714 -1.4767 -0.9118 -0.4509
 4844SOL     OW25990   3.423   4.664   1.952 -0.2835 -0.6856  0.0460
 4844SOL    HW125991   3.508   4.677   1.910 -0.7776  1.3321 -0.3136
 4844SOL    HW225992   3.420   4.573   1.981 -0.1980 -0.5370  0.5296
 4845SOL     OW25993   3.977   3.662   7.778 -0.5324 -0.3049  0.5567
 4845SOL    HW125994   3.943   3.638   7.692 -0.8666 -1.4054  1.0030
 4845SOL    HW225995   4.054   3.700   7.735 -0.3372 -0.6391  0.6152
 4846SOL     OW25996   3.236   4.195  10.349 -0.2804 -0.6109  0.0777
 4846SOL    HW125997   3.260   4.258  10.417 -1.9315 -1.6853  1.6823
 4846SOL    HW225998   3.313   4.209  10.295 -1.5977  1.8033 -1.1813
 4847SOL     OW25999   2.918   2.283   7.641 -0.3874 -0.0265  0.0491
 4847SOL    HW126000   2.914   2.334   7.560  0.7458 -1.4285 -0.8854
 4847SOL    HW226001   2.836   2.234   7.629 -1.3574  1.6551 -0.1450
 4848SOL     OW26002   1.859   0.581   7.324 -0.5336 -0.3363  0.2756
 4848SOL    HW126003   1.922   0.637   7.371 -0.1599 -0.4163 -0.1336
 4848SOL    HW226004   1.904   0.575   7.240 -0.0064 -2.2077  0.6932
 4849SOL     OW26005   0.981   2.030   3.041 -0.2387 -0.1402 -0.1331
 4849SOL    HW126006   0.929   2.110   3.053  0.2564 -0.0392  1.3154
 4849SOL    HW226007   0.903   1.975   3.038 -0.8629  0.6689  1.4390
 4850SOL     OW26008   0.274   0.279  12.897 -0.3615  0.7010  0.0113
 4850SOL    HW126009   0.299   0.199  12.944  0.4131  1.7749  1.4067
 4850SOL    HW226010   0.360   0.310  12.870  0.7822 -1.9374  0.5646
 4851SOL     OW26011   0.157   0.002   5.040 -0.4102 -0.4162 -0.4716
 4851SOL    HW126012   0.117   0.089   5.049 -2.5400 -1.3761 -0.7222
 4851SOL    HW226013   0.220   0.018   4.970  0.8830 -1.7119  0.4149
 4852SOL     OW26014   1.319   1.757   6.184  0.4864 -0.0520 -0.1405
 4852SOL    HW126015   1.240   1.711   6.213 -0.5366  1.2446 -0.8721
 4852SOL    HW226016   1.326   1.730   6.092 -1.3633  1.5118 -0.7542
 4853SOL     OW26017   2.819   3.074  12.145 -0.1023 -0.0721 -0.3899
 4853SOL    HW126018   2.896   3.070  12.202 -0.6259  1.4226  0.4218
 4853SOL    HW226019   2.754   3.042  12.208 -0.8778  2.1278 -0.0452
 4854SOL     OW26020   4.447   2.753   7.495 -0.2063  0.3114  0.0258
 4854SOL    HW126021   4.420   2.829   7.546  0.2146  2.1212 -2.4619
 4854SOL    HW226022   4.537   2.784   7.483 -0.6886  1.4346 -0.5781
 4855SOL     OW26023   3.642   2.399   5.349  0.8946  0.1637  0.6249
 4855SOL    HW126024   3.697   2.353   5.285 -0.6354 -4.3840  2.6197
 4855SOL    HW226025   3.710   2.419   5.414  1.3533 -0.5344  0.3609
 4856SOL     OW26026   2.249   2.442  17.154  0.5892 -0.2724  0.0041
 4856SOL    HW126027   2.245   2.471  17.063 -2.3755 -0.7900 -0.0430
 4856SOL    HW226028   2.341   2.428  17.175  0.6464 -0.0070 -0.0757
 4857SOL     OW26029   2.399   1.467   6.795  0.3974  0.3963 -0.4289
 4857SOL    HW126030   2.416   1.373   6.788 -0.2959  0.1034  1.9045
 4857SOL    HW226031   2.486   1.506   6.795  1.8296 -2.7535 -1.2026
 4858SOL     OW26032   0.122   2.118  10.802  0.8897 -0.2747 -0.8655
 4858SOL    HW126033   0.039   2.149  10.838  1.0825  2.0156 -2.4127
 4858SOL    HW226034   0.090   2.100  10.714 -0.3924 -0.7277 -0.3027
 4859SOL     OW26035   4.437   0.982   0.107  0.3319  0.3648 -0.1819
 4859SOL    HW126036   4.436   0.892   0.140  0.4010  0.2235 -0.5640
 4859SOL    HW226037   4.429   0.971   0.013  2.8172 -0.1768 -0.3311
 4860SOL     OW26038   0.053   0.849   2.740  0.5122 -0.3493 -0.2723
 4860SOL    HW126039   0.069   0.927   2.687  0.1849 -0.0675  0.0504
 4860SOL    HW226040   4.691   0.821   2.713 -0.6752  2.1566  1.0280
 4861SOL     OW26041   3.715   1.408   5.269 -0.0855  0.1628 -0.2609
 4861SOL    HW126042   3.760   1.458   5.337  0.5238  0.4933 -0.9007
 4861SOL    HW226043   3.683   1.334   5.321  0.9368  1.5939  2.3886
 4862SOL     OW26044   1.095   0.037   1.908  0.1119  0.3105 -0.4327
 4862SOL    HW126045   1.015   0.038   1.960 -0.5490 -0.5115 -1.4429
 4862SOL    HW226046   1.134   0.118   1.941  0.1610 -0.3554  1.1964
 4863SOL     OW26047   2.645   0.937  15.762  0.2191 -0.0982  0.5174
 4863SOL    HW126048   2.610   0.993  15.693 -0.2224  1.5904  2.1102
 4863SOL    HW226049   2.616   0.979  15.843  0.1821  1.5744 -0.3685
 4864SOL     OW26050   3.528   0.002  15.270  0.2505  0.3257 -0.1262
 4864SOL    HW126051   3.597   4.692  15.214 -0.3550 -2.8058  1.1601
 4864SOL    HW226052   3.469   4.654  15.278  1.2722 -0.3964  0.6326
 4865SOL     OW26053   1.313   4.032   5.109 -0.5157 -0.4188  0.1637
 4865SOL    HW126054   1.375   3.960   5.096 -0.5413 -0.6447  1.2994
 4865SOL    HW226055   1.231   3.988   5.133 -0.9954  0.8178  0.7807
 4866SOL     OW26056   2.427   1.376  13.829  0.1774 -0.2678  0.1461
 4866SOL    HW126057   2.445   1.466  13.855  2.9607 -1.1812  1.3828
 4866SOL    HW226058   2.332   1.373  13.842  0.3079 -1.6369  0.8525
 4867SOL     OW26059   0.374   0.319   8.672 -0.6038 -0.3705  0.2035
 4867SOL    HW126060   0.358   0.267   8.751  0.1110  2.5742  2.3035
 4867SOL    HW226061   0.464   0.288   8.662 -0.4363  0.9115 -2.1909
 4868SOL     OW26062   1.147   2.882   3.098  0.0339  0.0751 -0.0116
 4868SOL    HW126063   1.132   2.887   3.004 -1.5501 -1.8767  0.1337
 4868SOL    HW226064   1.231   2.927   3.097 -0.3943  0.9598  2.4817
 4869SOL     OW26065   3.378   4.553   2.241 -0.3190  0.2201 -0.3727
 4869SOL    HW126066   3.433   4.622   2.204 -1.7700  2.1192  1.0314
 4869SOL    HW226067   3.434   4.502   2.299  0.6758  2.1527  0.3144
 4870SOL     OW26068   0.128   2.055   2.742 -0.0196  0.5878 -0.4106
 4870SOL    HW126069   0.040   2.019   2.734  0.8885 -1.5641 -0.6890
 4870SOL    HW226070   0.120   2.140   2.697 -0.3359  0.4315 -0.6501
 4871SOL     OW26071   0.433   1.003   4.790  0.0157 -0.5520 -0.3180
 4871SOL    HW126072   0.407   0.925   4.839  2.3252 -1.1308 -0.0245
 4871SOL    HW226073   0.487   0.963   4.721  1.2081  0.2554  0.1438
 4872SOL     OW26074   3.711   1.608  16.221  0.3776  0.0556  0.0790
 4872SOL    HW126075   3.787   1.582  16.169  0.3410  0.8249 -0.3638
 4872SOL    HW226076   3.635   1.601  16.163  0.9084 -3.9103 -0.1372
 4873SOL     OW26077   3.539   2.571  12.013  0.1106  0.1699 -0.3310
 4873SOL    HW126078   3.575   2.502  12.069  0.2255 -0.6560 -1.4142
 4873SOL    HW226079   3.445   2.550  12.017 -0.3615  2.8069  1.9603
 4874SOL     OW26080   4.319   0.674   5.853  0.5424 -0.1560 -0.0649
 4874SOL    HW126081   4.406   0.694   5.817 -0.4605  1.0891 -1.7967
 4874SOL    HW226082   4.299   0.606   5.788 -1.5407 -1.3768  1.8604
 4875SOL     OW26083   1.465   2.129   7.935 -0.0464  0.3925 -0.7283
 4875SOL    HW126084   1.519   2.054   7.960 -0.1319  0.6416  0.1782
 4875SOL    HW226085   1.515   2.205   7.965 -0.5096  0.9605 -1.3934
 4876SOL     OW26086   3.507   0.975   3.722  0.8349 -0.7180 -0.3897
 4876SOL    HW126087   3.467   1.050   3.767  0.9264 -0.6776 -0.3762
 4876SOL    HW226088   3.485   0.991   3.630 -0.8759 -2.0014 -0.2063
 4877SOL     OW26089   3.867   2.312   5.596  0.6149  0.4418 -0.6315
 4877SOL    HW126090   3.790   2.275   5.641 -1.0821  2.2186 -2.0724
 4877SOL    HW226091   3.919   2.234   5.574  2.2023  1.4273 -0.3539
 4878SOL     OW26092   4.213   2.468   3.771  0.0517 -0.3288  0.2505
 4878SOL    HW126093   4.242   2.559   3.766  0.0055 -0.3529 -0.4005
 4878SOL    HW226094   4.207   2.439   3.681 -0.1521  2.3145 -0.5902
 4879SOL     OW26095   4.517   2.452   1.453  0.4092 -0.0265  0.7267
 4879SOL    HW126096   4.444   2.513   1.440 -1.1556 -2.4130 -1.4915
 4879SOL    HW226097   4.530   2.422   1.364 -0.6038 -0.5961  0.7678
 4880SOL     OW26098   0.401   3.644  16.459 -0.0861  0.0819 -0.4231
 4880SOL    HW126099   0.456   3.681  16.391 -0.5147 -0.5838 -1.1276
 4880SOL    HW226100   0.317   3.657  16.416 -0.6434 -1.7300  0.1153
 4881SOL     OW26101   3.024   3.361   3.044  0.0322 -0.4352 -0.7163
 4881SOL    HW126102   3.000   3.283   2.994  0.1932  0.9170 -2.9107
 4881SOL    HW226103   3.052   3.427   2.981 -0.9310 -0.5323 -1.2376
 4882SOL     OW26104   3.777   2.173  15.008  0.2666  0.0184 -0.0263
 4882SOL    HW126105   3.694   2.220  14.998 -0.1730 -1.3300 -2.7408
 4882SOL    HW226106   3.743   2.086  14.988  1.2827 -0.8382  1.9722
 4883SOL     OW26107   4.620   1.748   7.407 -0.1088 -0.6178  0.1295
 4883SOL    HW126108   4.558   1.820   7.413 -1.5274 -1.6851 -1.7906
 4883SOL    HW226109   4.689   1.770   7.345 -0.1455 -1.3180 -0.1610
 4884SOL     OW26110   4.588   0.881   1.393 -0.0363 -0.3746  0.0708
 4884SOL    HW126111   4.594   0.787   1.379 -0.8821 -0.8597  2.8222
 4884SOL    HW226112   4.564   0.876   1.486  1.4857  4.4617  0.7343
 4885SOL     OW26113   3.398   0.939   4.004 -0.3873 -0.3276 -0.1691
 4885SOL    HW126114   3.485   0.963   4.035 -0.5470  0.1519 -0.0933
 4885SOL    HW226115   3.404   0.844   4.018  1.3084 -0.2320 -0.2317
 4886SOL     OW26116   4.082   3.563   3.532 -0.4976 -0.1445  0.6785
 4886SOL    HW126117   4.025   3.495   3.496  0.9517  0.0246 -1.9910
 4886SOL    HW226118   4.129   3.585   3.451  1.6281  0.8888  2.2100
 4887SOL     OW26119   2.271   1.242   8.408 -0.0081  0.4853  0.1763
 4887SOL    HW126120   2.307   1.268   8.493  2.6735  1.1867 -1.1933
 4887SOL    HW226121   2.231   1.326   8.384 -0.6918  0.1552  0.1650
 4888SOL     OW26122   1.024   1.781   5.793 -0.1335 -0.2904  0.1221
 4888SOL    HW126123   1.108   1.822   5.814 -1.0238  1.7326 -0.2344
 4888SOL    HW226124   1.012   1.811   5.703  0.3460  1.0690  0.5175
 4889SOL     OW26125   3.574   3.740  13.908  0.3147  0.0377  0.3962
 4889SOL    HW126126   3.512   3.725  13.836 -0.1819  1.0568  0.6223
 4889SOL    HW226127   3.615   3.823  13.885 -1.4429  1.2445  1.6146
 4890SOL     OW26128   0.245   3.235   6.665  0.3185  0.1736 -0.2862
 4890SOL    HW126129   0.240   3.239   6.570  1.3244 -0.3847 -0.3660
 4890SOL    HW226130   0.338   3.247   6.684 -0.0248 -0.0292  1.5628
 4891SOL     OW26131   2.217   0.502   4.212 -0.4621 -0.1980 -0.1930
 4891SOL    HW126132   2.133   0.548   4.209 -1.4753 -1.9773  1.0049
 4891SOL    HW226133   2.185   0.414   4.191  0.2720 -0.2273 -1.1462
 4892SOL     OW26134   3.182   3.699   9.497  0.4592  0.3232 -0.3462
 4892SOL    HW126135   3.177   3.790   9.527  1.3776  0.6749 -1.2729
 4892SOL    HW226136   3.095   3.673   9.466  0.2477  0.8506 -0.2017
 4893SOL     OW26137   4.449   2.806   5.353  0.0995 -0.0469  0.1579
 4893SOL    HW126138   4.401   2.738   5.400  2.3485 -0.6954  1.4545
 4893SOL    HW226139   4.443   2.875   5.419  0.8761 -2.2605  2.5406
 4894SOL     OW26140   3.790   2.433  15.175 -0.7330  0.0728 -0.2474
 4894SOL    HW126141   3.812   2.399  15.262  1.5967  1.0741 -0.4438
 4894SOL    HW226142   3.811   2.524  15.196  1.0975 -0.3567 -0.2980
 4895SOL     OW26143   3.667   3.310   7.018 -0.1837 -0.1601  0.0925
 4895SOL    HW126144   3.608   3.306   6.943 -2.1191 -3.3735  1.7984
 4895SOL    HW226145   3.663   3.401   7.048  0.2174  0.3836 -1.4810
 4896SOL     OW26146   2.381   0.202   5.678 -0.2489  0.1666  0.5827
 4896SOL    HW126147   2.435   0.142   5.729 -1.2740 -1.8396 -0.6709
 4896SOL    HW226148   2.369   0.275   5.739 -0.6210  1.0113 -0.4980
 4897SOL     OW26149   0.448   2.511  13.129  0.2056 -0.2230  0.2932
 4897SOL    HW126150   0.481   2.527  13.217  0.0496  0.7818  0.1631
 4897SOL    HW226151   0.511   2.446  13.096 -0.1916 -1.7889  2.6339
 4898SOL     OW26152   3.378   3.301   6.849 -0.0365  0.2828 -0.0140
 4898SOL    HW126153   3.357   3.324   6.759 -2.5599  1.6250  0.9177
 4898SOL    HW226154   3.328   3.373   6.887  2.3718  2.5536 -1.1886
 4899SOL     OW26155   1.832   3.429   7.199  0.2816  0.9213 -0.1255
 4899SOL    HW126156   1.755   3.375   7.179  0.9659 -0.2204  0.3107
 4899SOL    HW226157   1.818   3.435   7.293 -0.0669 -1.1303 -0.0487
 4900SOL     OW26158   2.034   1.822   8.835 -0.2354  0.1530  0.5349
 4900SOL    HW126159   2.078   1.760   8.777  0.8755  0.5288  0.9726
 4900SOL    HW226160   1.945   1.799   8.810  0.1031 -2.0105  1.3768
 4901SOL     OW26161   1.967   0.200  16.057  0.2342  0.7331  0.4424
 4901SOL    HW126162   1.933   0.186  16.146  0.3260 -1.6707  0.0977
 4901SOL    HW226163   2.055   0.232  16.076 -0.1896  2.1735  0.0117
 4902SOL     OW26164   1.959   4.548  17.085  0.1470  0.2217  0.4550
 4902SOL    HW126165   1.873   4.544  17.045 -1.3132 -0.9050  3.6740
 4902SOL    HW226166   1.985   4.629  17.040 -1.5695 -0.0534 -1.0119
 4903SOL     OW26167   0.529   1.470   7.007 -0.2678 -0.5131  0.7472
 4903SOL    HW126168   0.481   1.392   7.033  2.2222 -1.7935  1.4835
 4903SOL    HW226169   0.452   1.506   6.962  0.5366 -0.7938 -0.8311
 4904SOL     OW26170   4.648   0.461   1.821  0.1104  0.5456  0.4253
 4904SOL    HW126171   4.678   0.513   1.746 -1.2508 -0.8745 -1.0880
 4904SOL    HW226172   4.717   0.397   1.838  0.4152  0.9509  0.7279
 4905SOL     OW26173   4.492   3.370  13.983 -0.4167 -0.2877  0.2415
 4905SOL    HW126174   4.447   3.346  13.902  1.0296  2.2407 -1.2742
 4905SOL    HW226175   4.584   3.368  13.958  0.4617  2.3521  3.2591
 4906SOL     OW26176   2.461   4.662   1.969  0.4917  0.2320  0.1911
 4906SOL    HW126177   2.485   4.592   1.908  2.0468  0.8218  0.0980
 4906SOL    HW226178   2.463   0.008   1.905  1.0814  0.1547  0.1170
 4907SOL     OW26179   1.955   0.733   9.490 -0.1702 -0.4520 -0.3795
 4907SOL    HW126180   2.049   0.720   9.479 -0.3281 -0.5361 -1.6478
 4907SOL    HW226181   1.928   0.757   9.401  0.0835  1.2026 -0.0258
 4908SOL     OW26182   2.392   3.535   2.988 -0.8780 -0.5364  0.1797
 4908SOL    HW126183   2.429   3.448   3.001  1.1847  0.0800 -1.6278
 4908SOL    HW226184   2.427   3.566   2.905 -0.7573 -0.9671  0.0691
 4909SOL     OW26185   3.266   3.945   4.831 -0.2341 -0.0097  1.0486
 4909SOL    HW126186   3.252   4.025   4.881  1.3176  0.0206  1.4318
 4909SOL    HW226187   3.177   3.914   4.815 -0.3333  0.9707 -0.3695
 4910SOL     OW26188   1.448   0.301   2.977 -0.2701  0.3305 -0.5692
 4910SOL    HW126189   1.372   0.243   2.977  0.1702 -0.2745 -2.9703
 4910SOL    HW226190   1.428   0.389   2.942 -1.6504 -0.6257 -2.1779
 4911SOL     OW26191   0.431   2.701   1.857 -0.1545  0.8291 -0.3085
 4911SOL    HW126192   0.357   2.732   1.910  0.3721 -0.2640  1.0638
 4911SOL    HW226193   0.390   2.653   1.785 -0.3935  0.6023 -0.0176
 4912SOL     OW26194   0.741   4.721  13.957  0.7311 -0.0092  0.0623
 4912SOL    HW126195   0.813   0.058  13.962  0.1142  0.5755  1.4085
 4912SOL    HW226196   0.790   4.642  13.933  0.9672  0.1004  0.1879
 4913SOL     OW26197   1.359   3.028   4.242 -0.0161 -0.8481 -0.4624
 4913SOL    HW126198   1.398   3.111   4.266 -0.4556 -1.2142  1.5424
 4913SOL    HW226199   1.382   2.975   4.318 -0.5844 -2.7601 -1.5983
 4914SOL     OW26200   3.810   3.597   1.748  0.1630 -0.1416 -0.2030
 4914SOL    HW126201   3.771   3.667   1.801 -3.4714 -1.4015 -1.1978
 4914SOL    HW226202   3.766   3.601   1.663  0.3308  0.4010 -0.2669
 4915SOL     OW26203   2.583   1.292   7.733 -0.2569 -0.1536 -0.0777
 4915SOL    HW126204   2.570   1.267   7.642 -2.5609 -0.5895  0.3690
 4915SOL    HW226205   2.495   1.325   7.751  1.2378  2.0192  3.3936
 4916SOL     OW26206   4.614   1.402   0.838  0.2134  0.0300  0.0525
 4916SOL    HW126207   4.526   1.388   0.872 -0.0200  1.1068 -0.1125
 4916SOL    HW226208   4.590   1.397   0.745  0.7087 -0.8261 -0.0278
 4917SOL     OW26209   0.032   3.902   4.400  0.5453 -0.0796  0.6700
 4917SOL    HW126210   0.079   3.893   4.483 -1.1529 -3.5901  1.2419
 4917SOL    HW226211   0.045   3.996   4.387  0.4793 -0.1265  0.2811
 4918SOL     OW26212   2.258   0.930  13.863  0.2572  0.4692 -0.1406
 4918SOL    HW126213   2.312   0.852  13.850  1.8253  1.6127 -0.3944
 4918SOL    HW226214   2.318   1.003  13.850  2.4065 -1.4176 -0.7761
 4919SOL     OW26215   1.372   1.067   8.015 -0.9132  0.5736 -0.2631
 4919SOL    HW126216   1.430   1.083   8.090 -1.7281 -1.0893  0.6969
 4919SOL    HW226217   1.437   1.040   7.951 -0.0083  2.0827  0.0193
 4920SOL     OW26218   1.790   4.227   4.535  0.2538  0.3338 -0.1634
 4920SOL    HW126219   1.826   4.175   4.463  1.3148  2.7393 -1.3692
 4920SOL    HW226220   1.702   4.192   4.547 -0.1916  0.8791 -1.8839
 4921SOL     OW26221   0.666   1.950   3.836 -0.3269  0.1719 -0.0964
 4921SOL    HW126222   0.581   1.985   3.812  0.1489 -0.1453 -2.2177
 4921SOL    HW226223   0.646   1.868   3.881  0.3776  0.6319  1.0604
 4922SOL     OW26224   3.342   2.969  14.282 -0.2242 -0.5085  0.8794
 4922SOL    HW126225   3.341   2.879  14.252 -0.1217  0.2470 -1.4158
 4922SOL    HW226226   3.412   2.965  14.347 -0.4796  0.8094  1.2498
 4923SOL     OW26227   0.774   2.323  17.338 -0.2212 -0.0628 -0.0230
 4923SOL    HW126228   0.818   2.401  17.304 -1.5810  0.7923  0.1665
 4923SOL    HW226229   0.760   2.367  17.422  2.7024  0.9117 -0.0709
 4924SOL     OW26230   2.297   2.239  10.899  0.5000  0.1826 -0.3372
 4924SOL    HW126231   2.391   2.223  10.907  0.6007  0.7793 -0.3008
 4924SOL    HW226232   2.261   2.160  10.939 -0.7074  0.9151  0.0484
 4925SOL     OW26233   0.494   4.403   8.330  0.1276 -0.6546 -0.8553
 4925SOL    HW126234   0.460   4.445   8.251 -1.3320  1.5417  0.9392
 4925SOL    HW226235   0.429   4.430   8.395  0.6651 -0.6208 -0.3356
 4926SOL     OW26236   1.644   2.913   9.700  0.7519 -0.6216 -0.0421
 4926SOL    HW126237   1.616   2.994   9.656  1.7447  0.3586  1.1360
 4926SOL    HW226238   1.588   2.893   9.775  1.0294 -0.4048  0.2220
 4927SOL     OW26239   1.098   0.395   8.694  0.4574 -0.4000 -0.8113
 4927SOL    HW126240   1.156   0.375   8.621 -0.2006  2.3898 -2.0917
 4927SOL    HW226241   1.131   0.484   8.708 -0.2516 -0.1955 -0.4093
 4928SOL     OW26242   4.391   3.713   1.584  0.0890 -0.0980  0.0939
 4928SOL    HW126243   4.301   3.742   1.596  0.3337  1.1697 -1.2484
 4928SOL    HW226244   4.424   3.773   1.517 -1.3390  0.9375  0.3294
 4929SOL     OW26245   2.432   0.001   4.171 -0.0247 -0.0402  0.0133
 4929SOL    HW126246   2.434   4.714   4.077  1.1215  0.9108 -0.1000
 4929SOL    HW226247   2.361   4.668   4.195  1.6244 -2.5290 -1.1886
 4930SOL     OW26248   0.980   1.842   7.254  0.7071  0.1870 -0.0019
 4930SOL    HW126249   1.055   1.875   7.305  1.2839 -0.1006 -0.6652
 4930SOL    HW226250   0.982   1.752   7.286 -0.5559 -0.1360 -0.8260
 4931SOL     OW26251   1.360   4.722   0.870 -0.1718 -0.0601 -0.2616
 4931SOL    HW126252   1.356   4.707   0.775  0.9040  3.2750 -0.8229
 4931SOL    HW226253   1.311   4.643   0.894  2.4061 -1.2559  0.9759
 4932SOL     OW26254   2.560   4.219   5.337  0.3030  0.3236  0.0648
 4932SOL    HW126255   2.527   4.292   5.284 -0.1790  1.6039  2.1205
 4932SOL    HW226256   2.587   4.165   5.263 -0.1465 -0.4673  0.4772
 4933SOL     OW26257   2.813   1.204  15.750 -0.0025  0.3665  0.0871
 4933SOL    HW126258   2.902   1.239  15.746  0.0389  0.6571  2.9976
 4933SOL    HW226259   2.817   1.153  15.831 -2.9596  1.0709  0.6795
 4934SOL     OW26260   4.651   1.800   3.544 -0.6321 -0.2429  0.2660
 4934SOL    HW126261   4.664   1.747   3.622  2.5178 -0.9428 -0.7547
 4934SOL    HW226262   0.012   1.832   3.522 -0.2345 -1.7180 -0.3149
 4935SOL     OW26263   3.293   0.409   0.862 -0.4107 -0.3684 -0.3047
 4935SOL    HW126264   3.259   0.331   0.905 -1.1819  0.1406  0.0215
 4935SOL    HW226265   3.210   0.455   0.850 -0.1348  0.7748  2.1560
 4936SOL     OW26266   4.182   1.739  14.308 -0.2506 -0.0402 -0.0721
 4936SOL    HW126267   4.269   1.713  14.278 -0.2315 -1.1274  0.8959
 4936SOL    HW226268   4.139   1.656  14.329  1.2063 -1.0234 -0.9790
 4937SOL     OW26269   0.684   2.734   1.332  0.0902 -0.2481 -0.0553
 4937SOL    HW126270   0.772   2.700   1.314 -0.1746 -1.8540  1.7221
 4937SOL    HW226271   0.688   2.823   1.295  1.2772 -0.2715  0.0310
 4938SOL     OW26272   4.602   0.434   6.748  0.1643 -0.6002  0.1775
 4938SOL    HW126273   4.589   0.501   6.816 -1.8376 -1.5568  0.7252
 4938SOL    HW226274   4.518   0.389   6.742 -0.7357  1.2184 -1.0001
 4939SOL     OW26275   0.277   2.697   3.727  0.5780  1.0248  0.1879
 4939SOL    HW126276   0.244   2.787   3.725 -0.2548  0.7339  0.6596
 4939SOL    HW226277   0.360   2.704   3.679  0.1207 -0.4300 -0.8145
 4940SOL     OW26278   2.688   3.305   3.602 -0.3919  0.3412  0.3903
 4940SOL    HW126279   2.639   3.327   3.681 -0.7579 -0.4693  0.3893
 4940SOL    HW226280   2.776   3.330   3.632  0.9662 -1.5078 -2.0222
 4941SOL     OW26281   1.712   3.727   0.082  0.3299  0.4156  0.2835
 4941SOL    HW126282   1.720   3.677   0.001  4.8805  1.3874  0.1383
 4941SOL    HW226283   1.754   3.670   0.146  0.0825  2.0726  1.9122
 4942SOL     OW26284   1.032   3.632   0.501 -0.2102 -0.0675  0.3012
 4942SOL    HW126285   1.108   3.576   0.514 -0.5859 -0.1592  2.0773
 4942SOL    HW226286   1.020   3.652   0.594 -1.2390  0.2418  0.1051
 4943SOL     OW26287   2.509   1.444   3.022  0.1773 -0.6688  0.0708
 4943SOL    HW126288   2.595   1.482   3.038 -0.0906 -0.5994  1.3064
 4943SOL    HW226289   2.480   1.427   3.111  0.3561  1.0202  0.4437
 4944SOL     OW26290   1.380   1.126   5.281 -0.2259  0.2623 -0.1680
 4944SOL    HW126291   1.457   1.182   5.274  0.0399 -0.3399 -2.0776
 4944SOL    HW226292   1.360   1.089   5.194 -0.7161 -0.6221  0.3215
 4945SOL     OW26293   3.112   2.635   6.117 -0.3112 -0.0745 -0.1634
 4945SOL    HW126294   3.048   2.643   6.188 -1.0895 -1.6274 -0.6709
 4945SOL    HW226295   3.066   2.687   6.051 -0.1026 -0.7784 -0.8567
 4946SOL     OW26296   3.590   0.723   5.025 -0.0403 -0.4053  0.4372
 4946SOL    HW126297   3.585   0.731   4.930  0.5181 -2.5307  0.2210
 4946SOL    HW226298   3.562   0.632   5.039  1.3923 -0.1981  4.5319
 4947SOL     OW26299   0.174   3.112   2.173 -0.2520  0.3540  0.4790
 4947SOL    HW126300   0.251   3.143   2.221  0.8712  0.5897 -1.4827
 4947SOL    HW226301   0.217   3.112   2.087 -0.1208 -4.5429  0.5584
 4948SOL     OW26302   2.264   2.557  16.001  0.0668  0.2049 -1.2570
 4948SOL    HW126303   2.356   2.532  15.993  0.1249 -0.0682  0.3222
 4948SOL    HW226304   2.268   2.586  16.092  1.1896 -0.1650 -1.1916
 4949SOL     OW26305   3.819   3.581   4.600 -0.6438  0.3187 -0.0045
 4949SOL    HW126306   3.809   3.622   4.514  1.1678 -0.9650 -0.8081
 4949SOL    HW226307   3.799   3.652   4.662 -0.6793  0.3923 -0.1000
 4950SOL     OW26308   3.348   0.100  12.825 -0.2022  0.1643 -0.2249
 4950SOL    HW126309   3.425   0.156  12.809  0.6187 -0.8867  0.0842
 4950SOL    HW226310   3.292   0.135  12.756  1.3493  3.4855  0.1824
 4951SOL     OW26311   4.450   4.138  16.632  0.3257  0.4598 -0.4179
 4951SOL    HW126312   4.472   4.046  16.614 -0.5177  0.0544  0.5842
 4951SOL    HW226313   4.355   4.131  16.623 -0.0023 -0.8017  3.7832
 4952SOL     OW26314   0.272   3.283  14.839  0.1637 -0.1592 -0.7458
 4952SOL    HW126315   0.200   3.247  14.892  1.1912 -1.0913  0.0019
 4952SOL    HW226316   0.338   3.221  14.868  0.3175  0.0494 -0.6571
 4953SOL     OW26317   1.914   1.143   9.258  0.4409 -0.8604  0.6638
 4953SOL    HW126318   1.976   1.198   9.307 -2.2424  0.4967  2.5197
 4953SOL    HW226319   1.958   1.131   9.174 -1.2741 -2.6625  0.0348
 4954SOL     OW26320   2.468   0.098   9.353 -0.2995  0.6480  0.1750
 4954SOL    HW126321   2.543   0.079   9.410  0.4616 -0.5931 -1.2394
 4954SOL    HW226322   2.502   0.174   9.306  1.8226  0.2052  0.9735
 4955SOL     OW26323   2.249   2.304  15.183  0.5778 -0.3856 -0.1581
 4955SOL    HW126324   2.221   2.329  15.095 -0.8446 -1.9496 -0.1590
 4955SOL    HW226325   2.196   2.225  15.195  3.0107 -1.5033  3.2549
 4956SOL     OW26326   0.782   0.020   6.090 -0.2778 -0.7284 -0.6797
 4956SOL    HW126327   0.836   4.667   6.088 -0.7820 -1.0677 -0.7458
 4956SOL    HW226328   0.695   4.708   6.079 -0.9880  0.7323 -0.1031
 4957SOL     OW26329   0.476   2.912   2.380  0.1207 -0.3131 -0.5281
 4957SOL    HW126330   0.498   2.993   2.426  2.5061 -1.4433  0.3139
 4957SOL    HW226331   0.547   2.857   2.413  0.7970  1.3698  0.8704
 4958SOL     OW26332   1.240   4.440   4.686 -0.4292  0.0827  0.1462
 4958SOL    HW126333   1.198   4.525   4.700 -0.1816  0.3701 -0.8756
 4958SOL    HW226334   1.298   4.445   4.762  0.0496  1.4393 -0.3117
 4959SOL     OW26335   4.260   3.056  15.631 -0.1830 -0.3991  0.2947
 4959SOL    HW126336   4.307   2.976  15.606 -0.0424 -0.7580  1.7326
 4959SOL    HW226337   4.327   3.098  15.685  1.6769 -0.9572 -1.5808
 4960SOL     OW26338   0.742   4.436  11.994 -0.3703 -0.2015 -0.6036
 4960SOL    HW126339   0.780   4.462  12.077  1.5463  0.5390 -1.7246
 4960SOL    HW226340   0.786   4.504  11.944 -0.7258  0.9946  0.7344
 4961SOL     OW26341   1.981   4.552   6.352 -0.2917 -0.0636 -0.1058
 4961SOL    HW126342   2.009   4.602   6.276  0.4553  1.1131  0.9313
 4961SOL    HW226343   2.015   4.467   6.326 -0.0806  1.0033 -3.2798
 4962SOL     OW26344   0.162   2.113   1.860  0.0508  0.6062  0.0177
 4962SOL    HW126345   0.174   2.153   1.774 -0.4858 -1.8364 -1.2062
 4962SOL    HW226346   0.067   2.097   1.866  0.2805 -0.2162  1.3930
 4963SOL     OW26347   4.421   1.814  14.067 -0.3802  0.1358  0.2204
 4963SOL    HW126348   4.507   1.785  14.037  0.0721  0.9839  0.7077
 4963SOL    HW226349   4.412   1.752  14.139 -1.9024 -1.3300 -1.2468
 4964SOL     OW26350   1.190   1.446  13.217 -0.3423 -0.0873 -0.1366
 4964SOL    HW126351   1.105   1.489  13.231  0.8652  2.2551  0.0651
 4964SOL    HW226352   1.173   1.415  13.128 -0.5718 -0.4134  0.0194
 4965SOL     OW26353   3.470   2.444   5.939  0.1499  0.1068  0.4662
 4965SOL    HW126354   3.532   2.471   6.007 -0.8193  0.9939  0.9917
 4965SOL    HW226355   3.531   2.447   5.865  2.8905  0.4932  2.7119
 4966SOL     OW26356   0.118   2.222   8.098  0.5656  0.3213  0.1750
 4966SOL    HW126357   0.162   2.266   8.025 -0.8727  0.6021 -0.5173
 4966SOL    HW226358   0.044   2.279   8.118 -1.0840 -0.8065 -2.7654
 4967SOL     OW26359   0.339   1.505   6.813 -0.1756 -0.1149  0.1309
 4967SOL    HW126360   0.245   1.518   6.827  0.2382  1.9918  1.1060
 4967SOL    HW226361   0.340   1.426   6.760  0.5428 -0.0452  0.0413
 4968SOL     OW26362   2.357   4.009   4.285  0.5386  0.1713 -0.6001
 4968SOL    HW126363   2.431   3.963   4.325 -1.3421 -1.7689  0.6018
 4968SOL    HW226364   2.345   3.949   4.211  0.0826 -1.9923  1.2319
 4969SOL     OW26365   4.043   2.048   0.362  0.5288 -0.3138 -0.5633
 4969SOL    HW126366   4.083   2.114   0.306 -1.5323  1.7790  0.4721
 4969SOL    HW226367   4.095   2.052   0.442  0.3697 -1.9478 -0.3715
 4970SOL     OW26368   4.105   0.956  14.404  0.5359 -0.0144  0.3087
 4970SOL    HW126369   4.167   0.941  14.332  0.0856 -2.6493  0.4464
 4970SOL    HW226370   4.034   0.976  14.343 -0.7318 -0.1586  1.7369
 4971SOL     OW26371   0.942   3.795  11.128  0.2135 -0.0432  0.7086
 4971SOL    HW126372   0.859   3.791  11.175 -0.3568  0.1392 -0.2961
 4971SOL    HW226373   0.987   3.712  11.139 -0.4209 -0.4490  0.2267
 4972SOL     OW26374   4.200   4.565  10.404 -0.0155  0.1893  0.1156
 4972SOL    HW126375   4.245   4.563  10.488 -2.1794 -1.1766  1.2345
 4972SOL    HW226376   4.166   4.476  10.398 -0.1755  0.2060  0.7385
 4973SOL     OW26377   4.721   4.367   3.703  0.0402 -0.2147 -0.5343
 4973SOL    HW126378   4.641   4.365   3.651 -0.3747  0.6933  0.0684
 4973SOL    HW226379   0.051   4.295   3.675  0.2851 -0.2420  0.0187
 4974SOL     OW26380   0.822   0.038  16.025  0.2317  0.0081 -0.5210
 4974SOL    HW126381   0.840   4.673  16.047 -0.5195  0.4181  1.7680
 4974SOL    HW226382   0.727   0.046  16.021  0.2510  0.7156  0.3136
 4975SOL     OW26383   0.580   4.275  13.231 -0.0986  0.0322  0.4815
 4975SOL    HW126384   0.549   4.312  13.314 -1.8006  1.8505 -0.9620
 4975SOL    HW226385   0.570   4.183  13.253  0.2484 -0.0062  0.4698
 4976SOL     OW26386   3.275   2.356   6.152  0.6438 -0.1654  0.5364
 4976SOL    HW126387   3.190   2.314   6.167  0.5727 -0.1106  0.2930
 4976SOL    HW226388   3.333   2.283   6.174  0.7959  0.1838  1.2682
 4977SOL     OW26389   2.703   1.384   7.330 -0.1980 -0.5930 -0.2746
 4977SOL    HW126390   2.764   1.341   7.391 -0.6929 -3.2963 -1.7090
 4977SOL    HW226391   2.742   1.350   7.250  2.0675  1.0761  0.0935
 4978SOL     OW26392   2.341   3.098  14.101 -0.2696  0.7129  0.0832
 4978SOL    HW126393   2.428   3.082  14.064 -0.1449  1.0449  0.2347
 4978SOL    HW226394   2.290   3.020  14.081  1.8422 -0.6969  0.1329
 4979SOL     OW26395   0.285   1.175   7.112 -0.2207  0.3818 -0.6767
 4979SOL    HW126396   0.338   1.173   7.192  3.4223  1.9230 -3.0084
 4979SOL    HW226397   0.194   1.169   7.139 -0.2396  0.0957 -0.8038
 4980SOL     OW26398   1.628   0.358   4.421  0.1485  0.3604  0.1719
 4980SOL    HW126399   1.625   0.269   4.454  0.2818  1.1730  2.3972
 4980SOL    HW226400   1.563   0.352   4.352  2.5350 -0.7990 -1.9781
 4981SOL     OW26401   1.837   1.649   4.291 -0.4641 -0.2828  0.7932
 4981SOL    HW126402   1.894   1.725   4.278 -2.6610  1.0819 -0.9704
 4981SOL    HW226403   1.755   1.697   4.303 -1.3864 -1.7663  0.4159
 4982SOL     OW26404   2.869   3.693   0.023  0.2242 -0.5469  0.3350
 4982SOL    HW126405   2.801   3.757   0.001  2.9940  1.9066 -1.1689
 4982SOL    HW226406   2.805   3.624   0.038  0.0006 -0.4499 -0.1727
 4983SOL     OW26407   1.658   3.581   6.792 -0.2619  0.5193 -0.4400
 4983SOL    HW126408   1.634   3.672   6.813 -0.1361  0.4416  0.0549
 4983SOL    HW226409   1.698   3.597   6.707  0.1725 -0.5860 -0.4393
 4984SOL     OW26410   3.914   2.635   3.520  0.1552  0.1051  0.3346
 4984SOL    HW126411   3.833   2.637   3.469  1.5206 -0.9561 -1.8746
 4984SOL    HW226412   3.951   2.553   3.487  3.4075  1.6108  0.2036
 4985SOL     OW26413   2.040   0.377   6.523  0.5056  0.2119  0.1312
 4985SOL    HW126414   2.028   0.433   6.447  0.7121 -0.1786 -0.1843
 4985SOL    HW226415   2.107   0.316   6.493  0.2525 -0.2643  0.5228
 4986SOL     OW26416   0.119   0.171   8.258  0.0330  0.6579  0.4237
 4986SOL    HW126417   0.191   0.199   8.201 -0.7844 -0.2493 -1.0555
 4986SOL    HW226418   0.049   0.229   8.229  0.5368  1.1305  0.1504
 4987SOL     OW26419   0.302   3.200   8.896  0.2673 -0.6632 -0.2031
 4987SOL    HW126420   0.262   3.123   8.937 -3.5019  0.4709 -1.7814
 4987SOL    HW226421   0.318   3.258   8.971  1.5706 -1.6221  0.2649
 4988SOL     OW26422   3.663   3.512   9.609  0.0842  0.3620 -0.8311
 4988SOL    HW126423   3.632   3.462   9.534 -0.3455 -0.6569  0.0352
 4988SOL    HW226424   3.581   3.557   9.631 -0.2681  0.5905 -2.6118
 4989SOL     OW26425   0.625   3.557   2.282 -0.3656  0.3303 -0.0793
 4989SOL    HW126426   0.564   3.620   2.320 -1.0800  0.2244 -1.0279
 4989SOL    HW226427   0.641   3.596   2.196 -0.8263 -0.7376 -0.6554
 4990SOL     OW26428   3.060   2.811   5.665  0.3866  0.6716 -0.3595
 4990SOL    HW126429   3.125   2.872   5.631  0.4552  0.4068 -0.6950
 4990SOL    HW226430   2.986   2.828   5.606 -0.2522  2.0262  0.8006
 4991SOL     OW26431   2.031   2.838  15.185  0.6475 -0.0911  0.0126
 4991SOL    HW126432   1.985   2.770  15.136  1.2399 -1.4943  1.4113
 4991SOL    HW226433   1.982   2.912  15.150 -0.0447 -0.1749  0.8104
 4992SOL     OW26434   4.527   4.562  17.192  0.1711 -0.5849 -1.0892
 4992SOL    HW126435   4.565   4.562  17.280 -1.7565 -2.2174 -0.2629
 4992SOL    HW226436   4.484   4.647  17.203  2.4220  0.5283 -0.6952
 4993SOL     OW26437   0.199   4.594   7.780 -0.2500  0.2487 -0.3333
 4993SOL    HW126438   0.170   4.663   7.839  1.7452 -0.8432  1.8893
 4993SOL    HW226439   0.122   4.559   7.736  2.1633 -1.7481 -3.0058
 4994SOL     OW26440   2.613   1.090   0.464  0.2862 -0.0880  0.1240
 4994SOL    HW126441   2.665   1.159   0.504  2.0336 -0.6491 -1.1652
 4994SOL    HW226442   2.563   1.044   0.531 -0.1743  0.2453  0.0042
 4995SOL     OW26443   1.070   2.744   0.587 -0.0134  0.0823  0.5031
 4995SOL    HW126444   1.132   2.737   0.514 -2.5099 -0.5778 -1.5716
 4995SOL    HW226445   1.099   2.666   0.634  1.0242  0.5120  0.5561
 4996SOL     OW26446   4.262   1.789  11.851  0.8346  0.3301 -0.1730
 4996SOL    HW126447   4.285   1.783  11.758  1.5304  0.3444 -0.0001
 4996SOL    HW226448   4.309   1.711  11.880 -0.9036 -0.5026  0.4249
 4997SOL     OW26449   4.348   3.372   2.707 -0.4555 -0.5960  0.0542
 4997SOL    HW126450   4.257   3.398   2.689 -0.2302 -0.2346 -0.5587
 4997SOL    HW226451   4.346   3.277   2.710 -0.7738 -0.6142 -0.7275
 4998SOL     OW26452   4.008   1.941   7.806  0.4245  0.1596 -0.3932
 4998SOL    HW126453   3.920   1.923   7.841  0.9264  0.4078  1.0306
 4998SOL    HW226454   4.066   1.928   7.882 -1.1185  0.5755  0.8558
 4999SOL     OW26455   2.607   3.650   6.435 -0.4298 -0.0073 -0.3922
 4999SOL    HW126456   2.513   3.647   6.450 -0.1870 -1.6299  0.8094
 4999SOL    HW226457   2.629   3.558   6.420 -0.5448  0.1138 -1.3367
 5000SOL     OW26458   4.609   3.444   2.769  0.0705 -0.0528  0.2772
 5000SOL    HW126459   4.597   3.521   2.713  1.5014 -1.6487 -2.1578
 5000SOL    HW226460   4.520   3.408   2.770 -0.4460  1.2008  0.6877
 5001SOL     OW26461   1.657   4.033   3.753  0.1700 -0.5585 -0.1794
 5001SOL    HW126462   1.591   4.014   3.687 -0.6486 -1.3862  0.8762
 5001SOL    HW226463   1.677   4.125   3.735 -0.3292 -0.1454  1.3812
 5002SOL     OW26464   3.644   0.365   5.071 -0.3438 -0.1141  0.0698
 5002SOL    HW126465   3.572   0.428   5.081 -0.5112  0.1988 -2.9334
 5002SOL    HW226466   3.595   0.297   5.025 -1.1088  0.8707 -0.5859
 5003SOL     OW26467   2.648   1.130   3.640 -0.0652  0.1261 -0.0717
 5003SOL    HW126468   2.654   1.053   3.583  0.5914 -1.8186  2.6226
 5003SOL    HW226469   2.563   1.129   3.684 -1.6702  0.1853 -3.1326
 5004SOL     OW26470   4.547   1.224   9.355 -0.1026 -1.0231 -0.2951
 5004SOL    HW126471   4.570   1.250   9.266  0.4754  0.6049  0.3358
 5004SOL    HW226472   4.501   1.305   9.375  1.9378  0.3194 -1.0579
 5005SOL     OW26473   2.014   2.498  14.339  0.3347  0.2495 -0.0762
 5005SOL    HW126474   2.058   2.583  14.334  1.5373 -0.3305  0.6174
 5005SOL    HW226475   1.994   2.482  14.247 -1.1690 -0.5673  0.3994
 5006SOL     OW26476   4.067   4.046   7.465 -0.6991  0.1718 -0.0226
 5006SOL    HW126477   4.020   4.058   7.383  0.9092  0.2511 -0.9425
 5006SOL    HW226478   4.152   4.009   7.440 -0.6680 -1.1905  2.0424
 5007SOL     OW26479   4.189   4.582   2.625  0.9879 -0.1706  0.1562
 5007SOL    HW126480   4.231   4.626   2.552  0.6792  1.7339  1.1169
 5007SOL    HW226481   4.141   4.662   2.646  0.9101 -0.0385 -0.5299
 5008SOL     OW26482   4.640   0.959  16.874 -0.3933 -0.0926 -0.1593
 5008SOL    HW126483   4.667   0.880  16.827  0.8841  1.3104 -1.7996
 5008SOL    HW226484   4.564   0.979  16.820 -1.0918 -1.3835  0.3396
 5009SOL     OW26485   2.841   1.232  11.284 -0.3393 -0.5347  0.7514
 5009SOL    HW126486   2.799   1.204  11.202  1.7795 -2.5465  0.3390
 5009SOL    HW226487   2.799   1.169  11.342  1.9907 -0.2482  2.6961
 5010SOL     OW26488   2.563   4.717   3.712  0.3079  0.1262  0.1799
 5010SOL    HW126489   2.656   0.002   3.728  0.1709  1.9564 -0.2682
 5010SOL    HW226490   2.566   4.635   3.662  0.1100 -0.7570  1.6019
 5011SOL     OW26491   2.717   3.442   5.337 -0.3759 -0.2914  0.0485
 5011SOL    HW126492   2.711   3.522   5.388  0.0926  0.8257 -1.6427
 5011SOL    HW226493   2.694   3.475   5.250  0.9034 -0.6985 -0.4443
 5012SOL     OW26494   4.061   0.010  11.175 -0.4734  0.2563 -0.1333
 5012SOL    HW126495   4.092   0.061  11.100  1.3723  0.5179  0.8208
 5012SOL    HW226496   3.968   0.034  11.175 -0.4372  0.4221  0.8476
 5013SOL     OW26497   4.506   2.453  14.146  0.4682  0.0998 -0.4527
 5013SOL    HW126498   4.438   2.476  14.210  1.1815 -0.0611  0.3759
 5013SOL    HW226499   4.541   2.377  14.193 -1.4264  0.6791  1.9365
 5014SOL     OW26500   0.968   1.500   5.283 -0.1470  0.0230  0.2655
 5014SOL    HW126501   1.061   1.486   5.299 -0.7697 -2.5675  1.7597
 5014SOL    HW226502   0.934   1.506   5.372  0.4973 -0.0769  0.5160
 5015SOL     OW26503   1.140   2.336   4.549  0.0259 -0.3333 -0.3899
 5015SOL    HW126504   1.073   2.297   4.492 -0.7792  1.5434 -0.7414
 5015SOL    HW226505   1.178   2.407   4.498 -1.8492  1.0891  0.1649
 5016SOL     OW26506   3.098   3.758  13.196 -0.2603 -0.1075  0.9925
 5016SOL    HW126507   3.186   3.725  13.212  1.6246  2.6673 -3.8036
 5016SOL    HW226508   3.106   3.842  13.152 -2.0486 -0.8263 -0.7125
 5017SOL     OW26509   3.037   4.445   4.140 -0.0621  0.2345 -0.2394
 5017SOL    HW126510   3.094   4.520   4.121 -0.2620 -0.0877 -2.0786
 5017SOL    HW226511   3.008   4.410   4.056  1.9097  0.1481 -0.8992
 5018SOL     OW26512   0.993   3.808   6.521 -0.3543 -0.0379 -0.5175
 5018SOL    HW126513   1.014   3.899   6.544 -1.8496 -0.1475  1.3289
 5018SOL    HW226514   0.902   3.805   6.493 -0.5019  0.6716 -0.1228
 5019SOL     OW26515   0.729   0.000   5.043  0.0225 -1.0733 -0.2254
 5019SOL    HW126516   0.669   0.074   5.035 -0.7439 -1.6831 -0.0942
 5019SOL    HW226517   0.818   0.035   5.045 -0.9765  1.5102 -0.9362
 5020SOL     OW26518   1.865   3.750   5.124  0.5979 -0.5916 -0.5673
 5020SOL    HW126519   1.855   3.805   5.046 -2.6575  0.1346  0.3726
 5020SOL    HW226520   1.904   3.819   5.177  0.6455 -1.1504  0.1327
 5021SOL     OW26521   0.870   3.787   6.156  0.4432  0.2732  0.3995
 5021SOL    HW126522   0.874   3.719   6.090 -1.8378  0.4420  0.1089
 5021SOL    HW226523   0.965   3.801   6.163  0.3174  1.1394  0.4518
 5022SOL     OW26524   2.907   3.412   5.515  0.7583 -0.0259 -0.0277
 5022SOL    HW126525   2.860   3.370   5.443  0.1367  1.4885 -0.5120
 5022SOL    HW226526   2.951   3.485   5.471 -0.7253  0.0787 -1.3208
 5023SOL     OW26527   3.604   0.955   5.172 -0.2789  0.2877  0.1120
 5023SOL    HW126528   3.517   0.995   5.176 -0.1708  0.6081 -0.7391
 5023SOL    HW226529   3.577   0.871   5.135 -0.7539 -0.4030  2.0646
 5024SOL     OW26530   0.225   4.030  10.985 -0.1571 -0.1078 -0.0664
 5024SOL    HW126531   0.165   4.103  10.965 -1.1748 -1.5841 -2.3391
 5024SOL    HW226532   0.250   4.010  10.895  0.9003  0.2014  0.1563
 5025SOL     OW26533   1.470   0.625   4.805  0.0582  0.3316  0.2548
 5025SOL    HW126534   1.547   0.617   4.749 -0.0441  2.2279 -0.1591
 5025SOL    HW226535   1.518   0.667   4.877 -0.1356 -0.5291  0.8940
 5026SOL     OW26536   0.682   4.641   7.661  0.4596  0.3051  0.1431
 5026SOL    HW126537   0.657   4.549   7.660  2.2719 -0.1408 -2.9108
 5026SOL    HW226538   0.773   4.638   7.632  0.2942  0.4453 -0.3938
 5027SOL     OW26539   1.858   0.961  12.549  0.2709  0.4693  0.1366
 5027SOL    HW126540   1.952   0.940  12.550  0.3024  0.5679 -0.9086
 5027SOL    HW226541   1.835   0.924  12.464 -0.2969  1.0101  0.0590
 5028SOL     OW26542   3.564   1.275   4.847 -0.0407  0.3188  0.4309
 5028SOL    HW126543   3.621   1.202   4.873 -0.3923 -0.3935 -0.7706
 5028SOL    HW226544   3.540   1.252   4.757  0.0950 -0.0173  0.4792
 5029SOL     OW26545   0.419   3.182  14.599 -0.8303  0.6808 -0.3749
 5029SOL    HW126546   0.499   3.210  14.554 -0.0385 -0.6575  0.1921
 5029SOL    HW226547   0.414   3.243  14.672  0.8579 -0.3066  0.5700
 5030SOL     OW26548   2.024   0.025   6.129  0.4078  0.2559 -0.2122
 5030SOL    HW126549   1.973   0.095   6.171 -0.0498 -1.0317  1.3531
 5030SOL    HW226550   1.992   0.023   6.038 -0.7014 -1.3362  0.2124
 5031SOL     OW26551   0.369   1.223   2.958  0.7518  0.2011 -0.3332
 5031SOL    HW126552   0.435   1.264   2.903  0.3084 -1.4444 -2.0688
 5031SOL    HW226553   0.307   1.192   2.892  0.9108  0.3059 -0.5291
 5032SOL     OW26554   2.885   1.186   8.340 -0.8288 -0.0083 -0.1077
 5032SOL    HW126555   2.938   1.144   8.408  0.8257 -0.7007 -1.8183
 5032SOL    HW226556   2.837   1.112   8.302 -0.4594 -0.0153 -0.5647
 5033SOL     OW26557   0.322   3.877   7.732  0.6030 -0.2439  0.5143
 5033SOL    HW126558   0.342   3.789   7.700  3.2629  0.8455 -0.8845
 5033SOL    HW226559   0.357   3.932   7.661 -0.3181  0.3919  0.5592
 5034SOL     OW26560   4.068   1.386  11.522 -0.0258  1.0846 -0.0533
 5034SOL    HW126561   4.085   1.436  11.442  0.6158 -0.1958 -0.7189
 5034SOL    HW226562   4.156   1.360  11.551  0.3502  1.9410 -0.4429
 5035SOL     OW26563   3.123   0.091  12.631 -0.1250  0.1310 -0.1813
 5035SOL    HW126564   3.120   0.162  12.567 -0.2638  0.0568 -0.2595
 5035SOL    HW226565   3.108   0.011  12.580  2.7556 -1.7125  1.8466
 5036SOL     OW26566   1.151   1.548   2.658 -0.0293  0.3616 -0.3291
 5036SOL    HW126567   1.230   1.557   2.604  0.4482 -0.8916  0.1512
 5036SOL    HW226568   1.178   1.483   2.723 -0.3363  1.1811  0.6159
 5037SOL     OW26569   1.820   1.749   3.783 -0.2642  0.0805 -0.1188
 5037SOL    HW126570   1.889   1.710   3.838  0.5576  2.8321  0.7779
 5037SOL    HW226571   1.801   1.674   3.727 -0.3920 -0.2729  0.3983
 5038SOL     OW26572   2.578   1.783   2.329 -0.0186 -0.1475  0.4258
 5038SOL    HW126573   2.492   1.760   2.295 -0.1806  1.0724  0.0018
 5038SOL    HW226574   2.602   1.841   2.257 -1.2983 -1.1438 -0.8161
 5039SOL     OW26575   3.271   0.917   1.224 -0.3964  0.0380 -0.1007
 5039SOL    HW126576   3.325   0.839   1.229 -0.4340  0.1351  1.8267
 5039SOL    HW226577   3.278   0.945   1.315  1.5537  0.4302 -0.3660
 5040SOL     OW26578   1.863   1.263   7.807  0.0666  0.0436  0.6214
 5040SOL    HW126579   1.908   1.282   7.725  0.8182 -1.4458  0.6831
 5040SOL    HW226580   1.908   1.186   7.842 -1.9426 -0.6406  1.6926
 5041SOL     OW26581   1.317   0.199   2.065  0.6302 -0.0836 -0.1207
 5041SOL    HW126582   1.388   0.150   2.025  2.2182  1.3192  1.0258
 5041SOL    HW226583   1.354   0.287   2.074  0.3257  0.0873 -0.5070
 5042SOL     OW26584   4.234   2.043   3.285  0.0549 -0.3743  0.3927
 5042SOL    HW126585   4.311   1.989   3.301 -0.2047 -0.9363 -0.2620
 5042SOL    HW226586   4.179   1.971   3.253 -0.4477 -0.2145  0.8759
 5043SOL     OW26587   2.217   3.892  10.240  0.1459  0.3053  0.0737
 5043SOL    HW126588   2.192   3.946  10.164  1.4901  1.7279  0.6446
 5043SOL    HW226589   2.231   3.963  10.303 -0.5596 -0.0323  0.6042
 5044SOL     OW26590   1.634   3.428  10.970 -0.2444 -0.1113  0.0254
 5044SOL    HW126591   1.714   3.478  10.983 -1.0379  0.4160  2.9108
 5044SOL    HW226592   1.627   3.457  10.879 -0.0859  0.7386  0.2820
 5045SOL     OW26593   1.562   2.315  13.380 -0.3021 -0.6951  0.2633
 5045SOL    HW126594   1.469   2.295  13.369 -0.0287 -1.2311 -1.1806
 5045SOL    HW226595   1.567   2.328  13.474 -0.9695  0.8354  0.0778
 5046SOL     OW26596   2.960   3.003  15.149  0.0597  0.1912 -0.5959
 5046SOL    HW126597   2.909   2.955  15.214  1.3470 -0.0336  0.2485
 5046SOL    HW226598   3.033   3.027  15.206  1.9406 -0.3386 -2.7250
 5047SOL     OW26599   3.093   2.978   6.127 -0.0516 -0.0095  0.0111
 5047SOL    HW126600   3.094   2.903   6.068 -0.2937 -0.9097  1.1523
 5047SOL    HW226601   3.021   3.035   6.099  1.1224  1.4782  0.0040
 5048SOL     OW26602   3.007   0.992  12.371 -0.1676  0.5465  0.0544
 5048SOL    HW126603   3.046   1.075  12.343 -0.9099  1.7611  2.6128
 5048SOL    HW226604   2.959   0.966  12.293  1.8527  1.1096 -1.3660
 5049SOL     OW26605   1.409   3.104  14.692  0.0781 -0.6218  0.2239
 5049SOL    HW126606   1.315   3.089  14.702 -0.1310  1.8529  1.8656
 5049SOL    HW226607   1.434   3.173  14.754  1.7307  1.0834 -2.3084
 5050SOL     OW26608   1.539   2.761   5.239  0.4978  0.3619  0.2731
 5050SOL    HW126609   1.476   2.690   5.230 -0.4945  1.4488 -1.1580
 5050SOL    HW226610   1.531   2.765   5.335 -1.3484 -0.7209  0.1517
 5051SOL     OW26611   1.916   0.207   9.922  0.1907 -0.1110  0.3488
 5051SOL    HW126612   1.826   0.193   9.893  0.6869 -1.7733 -0.3480
 5051SOL    HW226613   1.931   0.118   9.953  0.3429 -0.1706  0.1049
 5052SOL     OW26614   4.019   4.722   1.748  0.1652 -0.5049  0.2714
 5052SOL    HW126615   3.935   4.681   1.730  0.2950 -1.5976  2.1037
 5052SOL    HW226616   4.051   4.726   1.658 -1.5143 -2.0042 -0.3730
 5053SOL     OW26617   1.192   1.229  12.454 -0.2220 -0.2913 -0.2145
 5053SOL    HW126618   1.210   1.144  12.416 -1.4365 -0.8370  0.4377
 5053SOL    HW226619   1.099   1.242  12.435 -0.2507 -1.0501 -0.5718
 5054SOL     OW26620   3.403   0.240   0.666 -0.0423 -0.2422 -0.3019
 5054SOL    HW126621   3.364   0.294   0.734 -1.6724  1.2704 -2.4453
 5054SOL    HW226622   3.335   0.258   0.600 -0.0350 -0.5119 -0.3827
 5055SOL     OW26623   2.884   3.377  11.984 -0.4549  0.1444 -0.3877
 5055SOL    HW126624   2.918   3.438  11.919  1.9710  0.2350  0.9522
 5055SOL    HW226625   2.958   3.318  11.996 -1.0729 -1.2512 -3.2311
 5056SOL     OW26626   2.899   2.116   7.228 -0.3390 -0.2025 -0.8177
 5056SOL    HW126627   2.984   2.100   7.271 -2.1060 -0.3247  2.6472
 5056SOL    HW226628   2.918   2.203   7.193 -1.6315  1.1695  1.9199
 5057SOL     OW26629   2.556   4.175   9.850  0.1157 -0.1449 -0.0866
 5057SOL    HW126630   2.599   4.090   9.844 -1.4720 -0.8349 -1.3107
 5057SOL    HW226631   2.519   4.177   9.939 -2.3510  0.8103 -1.1582
 5058SOL     OW26632   2.513   1.100  13.810 -0.2851  0.1027 -0.5110
 5058SOL    HW126633   2.492   1.194  13.812  0.4767  0.2247  1.5683
 5058SOL    HW226634   2.559   1.100  13.894 -1.2085 -0.2693 -0.0057
 5059SOL     OW26635   1.991   3.847   9.349 -0.3801  0.1670  0.3246
 5059SOL    HW126636   1.898   3.839   9.327 -0.6487 -1.1058  1.9716
 5059SOL    HW226637   2.031   3.785   9.289  1.1208  0.2336  1.2675
 5060SOL     OW26638   1.513   1.065   8.265 -0.0462 -0.0510  0.1944
 5060SOL    HW126639   1.563   0.989   8.236  1.0202  0.7629 -0.1051
 5060SOL    HW226640   1.489   1.024   8.348  0.6230 -0.6395  0.0919
 5061SOL     OW26641   2.685   4.124   6.107  0.6451 -0.1435 -0.7627
 5061SOL    HW126642   2.594   4.110   6.131  0.8727 -0.3198  0.0080
 5061SOL    HW226643   2.723   4.041   6.137 -0.0253  0.2063  1.0293
 5062SOL     OW26644   1.323   2.596   5.220  0.4255  0.2551  0.0406
 5062SOL    HW126645   1.377   2.516   5.224 -1.3949 -0.8727  1.8266
 5062SOL    HW226646   1.239   2.571   5.258  0.4599 -0.5038 -0.3714
 5063SOL     OW26647   0.750   2.741   3.720  1.3765  0.4417 -0.0407
 5063SOL    HW126648   0.673   2.685   3.729 -0.9793  3.8961  1.2691
 5063SOL    HW226649   0.788   2.713   3.636  1.1926 -2.1130  0.7231
 5064SOL     OW26650   0.407   2.019   1.633 -0.7850  0.3307 -0.3680
 5064SOL    HW126651   0.419   1.976   1.718 -1.1814 -1.6368 -1.2853
 5064SOL    HW226652   0.400   1.945   1.572  0.1934  1.9176 -2.3907
 5065SOL     OW26653   0.167   2.882   9.347 -0.2729 -0.4054 -0.1952
 5065SOL    HW126654   0.181   2.790   9.369 -1.8351 -0.6121 -0.0946
 5065SOL    HW226655   0.086   2.895   9.397 -1.9404 -2.1003 -2.4930
 5066SOL     OW26656   3.402   2.633  13.562 -0.8189  0.0143 -0.7222
 5066SOL    HW126657   3.353   2.583  13.497 -1.8126 -3.5691  2.8037
 5066SOL    HW226658   3.423   2.556  13.614  0.3889 -0.2469 -1.5798
 5067SOL     OW26659   0.614   2.657  11.380  0.3612  0.0630 -0.1301
 5067SOL    HW126660   0.635   2.742  11.418 -1.4790  1.2440 -1.7592
 5067SOL    HW226661   0.698   2.619  11.355  0.1161 -1.3047  1.1330
 5068SOL     OW26662   0.130   2.884   1.463 -0.0765 -1.1879 -0.1150
 5068SOL    HW126663   0.097   2.798   1.488 -0.8333 -0.4397  1.4259
 5068SOL    HW226664   0.222   2.870   1.438 -0.5536  0.6505 -2.8770
 5069SOL     OW26665   0.937   0.670   4.747 -0.1458 -0.7000 -0.2373
 5069SOL    HW126666   0.877   0.744   4.757 -1.5784 -1.8743 -0.0867
 5069SOL    HW226667   0.901   0.629   4.668  0.2668  0.5518 -1.0747
 5070SOL     OW26668   0.610   0.977   6.544 -0.3506 -0.3240  0.3210
 5070SOL    HW126669   0.672   0.980   6.616 -1.1199  0.5154  0.9351
 5070SOL    HW226670   0.584   1.068   6.534  0.6429  0.0152  0.8293
 5071SOL     OW26671   0.760   3.617   4.822 -0.2321 -0.1059  0.1699
 5071SOL    HW126672   0.805   3.619   4.738  0.7208  0.4706  0.6980
 5071SOL    HW226673   0.674   3.653   4.799  1.0673  3.1850  0.4372
 5072SOL     OW26674   4.010   3.016  11.702  0.3854 -0.3902  0.5170
 5072SOL    HW126675   3.991   3.066  11.622 -3.0931  0.9470  2.2010
 5072SOL    HW226676   4.032   3.092  11.756  0.6084  0.1193 -0.2933
 5073SOL     OW26677   1.737   2.374  11.061  0.6624  0.4258 -0.1620
 5073SOL    HW126678   1.832   2.363  11.065  0.6800  1.4861  1.9376
 5073SOL    HW226679   1.729   2.463  11.094  0.6093  0.5797 -0.5857
 5074SOL     OW26680   1.449   4.177  15.030 -0.0954 -0.0916 -0.5965
 5074SOL    HW126681   1.540   4.148  15.027  0.8655  2.8356  0.4725
 5074SOL    HW226682   1.444   4.208  14.940 -2.0825 -0.7122 -0.7022
 5075SOL     OW26683   2.243   3.395   7.023  0.1640  0.2237  1.1125
 5075SOL    HW126684   2.213   3.398   7.114 -0.9042 -0.9930  0.8066
 5075SOL    HW226685   2.334   3.365   7.028  0.2906  0.4010 -0.4137
 5076SOL     OW26686   2.390   0.297  16.845 -0.3337  0.4090 -0.0455
 5076SOL    HW126687   2.409   0.254  16.929 -0.9171 -0.5825 -0.4121
 5076SOL    HW226688   2.409   0.389  16.863 -4.2467  0.8039  2.0455
 5077SOL     OW26689   3.367   4.467   1.380 -0.1049  0.4638 -0.4228
 5077SOL    HW126690   3.275   4.482   1.358  0.0382  1.9784 -0.0214
 5077SOL    HW226691   3.419   4.517   1.317  0.4061  2.8909  1.9080
 5078SOL     OW26692   0.872   2.039   3.441  0.3222 -0.1047 -0.5006
 5078SOL    HW126693   0.799   1.978   3.436 -0.1027  0.5159 -1.6732
 5078SOL    HW226694   0.868   2.085   3.357  1.7441 -2.1538 -1.6982
 5079SOL     OW26695   2.460   2.940   6.912 -0.1152  0.1720  0.2384
 5079SOL    HW126696   2.422   2.881   6.848  0.8649 -1.8027  1.4815
 5079SOL    HW226697   2.406   2.912   6.986  1.8519  1.4023  2.1498
 5080SOL     OW26698   1.736   2.953  13.276  0.4393 -0.0660 -1.2318
 5080SOL    HW126699   1.779   3.019  13.222 -0.7405  0.8478 -1.0620
 5080SOL    HW226700   1.648   2.975  13.244 -0.0045  1.6715  1.1335
 5081SOL     OW26701   2.885   2.307   1.817  0.2116 -0.1757 -0.1624
 5081SOL    HW126702   2.923   2.350   1.893  1.2751 -2.0904  0.3703
 5081SOL    HW226703   2.869   2.386   1.765 -1.2945 -0.7266 -0.5190
 5082SOL     OW26704   1.799   2.957   8.398 -0.6422 -0.8224  0.6430
 5082SOL    HW126705   1.876   2.910   8.429  0.6393 -0.3484 -1.7554
 5082SOL    HW226706   1.727   2.895   8.403 -1.0852 -0.4816 -1.1781
 5083SOL     OW26707   1.289   3.969   8.554  0.6106  0.0931 -0.1442
 5083SOL    HW126708   1.253   4.055   8.531 -1.6997 -1.3714 -1.9376
 5083SOL    HW226709   1.240   3.912   8.496 -2.3854  4.1219 -1.5973
 5084SOL     OW26710   4.316   3.996   1.049 -0.4110  0.0651  0.6708
 5084SOL    HW126711   4.250   4.047   1.002 -0.1367  1.8804  2.2421
 5084SOL    HW226712   4.255   3.950   1.107 -1.1693  4.0586  3.0870
 5085SOL     OW26713   1.517   2.150   2.777  0.2210 -0.2302  0.4659
 5085SOL    HW126714   1.607   2.128   2.801  0.6315 -0.0381 -0.9291
 5085SOL    HW226715   1.476   2.137   2.863 -0.5592  1.5824  0.3636
 5086SOL     OW26716   1.176   1.326   2.387  0.1974 -0.2180 -0.6180
 5086SOL    HW126717   1.129   1.394   2.339  0.2851 -0.9196 -1.7080
 5086SOL    HW226718   1.219   1.273   2.320 -0.3922 -0.8544 -0.4915
 5087SOL     OW26719   1.394   0.603   6.502  0.3688  0.0541 -0.1479
 5087SOL    HW126720   1.370   0.693   6.480 -0.4916  0.1289  1.0885
 5087SOL    HW226721   1.308   0.560   6.504  0.4580 -0.1205 -0.0330
 5088SOL     OW26722   2.896   1.904   5.051 -0.1778  0.0469  0.3574
 5088SOL    HW126723   2.983   1.930   5.022 -1.1046  1.0804 -1.5143
 5088SOL    HW226724   2.895   1.962   5.127 -2.4820 -0.0853  0.4312
 5089SOL     OW26725   1.824   0.243  15.828  0.2536 -0.1348  0.0139
 5089SOL    HW126726   1.780   0.158  15.822  0.5316 -0.4619  2.6498
 5089SOL    HW226727   1.878   0.233  15.907  1.9964 -0.9623 -1.2960
 5090SOL     OW26728   1.855   3.548   8.648 -0.0556  0.0533 -0.1046
 5090SOL    HW126729   1.881   3.634   8.683 -1.7986  0.6423 -0.2625
 5090SOL    HW226730   1.891   3.546   8.560 -0.1787  3.0646 -0.2199
 5091SOL     OW26731   1.273   1.260  16.494  0.3859 -0.0318  0.1202
 5091SOL    HW126732   1.238   1.319  16.560 -1.4165  0.3604 -1.1925
 5091SOL    HW226733   1.197   1.247  16.438  0.2262 -0.8602  0.5184
 5092SOL     OW26734   0.915   0.455   5.901  0.4137 -0.1715  0.1595
 5092SOL    HW126735   0.958   0.448   5.816 -0.1545 -3.0432  0.0923
 5092SOL    HW226736   0.872   0.539   5.888 -3.0798 -1.8826  0.5755
 5093SOL     OW26737   0.787   2.556  16.258  0.1809  0.1057 -0.9359
 5093SOL    HW126738   0.706   2.558  16.206  0.2220 -0.5835 -1.0199
 5093SOL    HW226739   0.790   2.465  16.289 -0.4511  0.1395 -0.7572
 5094SOL     OW26740   3.551   1.242   7.004  0.2369  0.2197  0.1420
 5094SOL    HW126741   3.482   1.183   7.033 -0.3632  0.3343 -1.0350
 5094SOL    HW226742   3.524   1.318   7.055 -1.1462  0.6529 -1.2277
 5095SOL     OW26743   0.965   2.201   8.179  0.1440 -0.4172 -0.0183
 5095SOL    HW126744   1.014   2.188   8.098  0.7837  0.9062  0.1639
 5095SOL    HW226745   0.946   2.109   8.197  0.9386 -1.0576 -2.4298
 5096SOL     OW26746   1.292   4.532   2.761  0.1923  0.3571 -0.1860
 5096SOL    HW126747   1.306   4.530   2.667 -2.0203 -0.0292 -0.4946
 5096SOL    HW226748   1.226   4.601   2.762  2.4866  2.5456  0.7784
 5097SOL     OW26749   2.393   0.415  11.336  0.7907 -0.5360  0.4236
 5097SOL    HW126750   2.328   0.353  11.369  0.3843 -1.0909 -1.4271
 5097SOL    HW226751   2.340   0.494  11.320 -0.5062 -1.8753 -1.8577
 5098SOL     OW26752   0.911   0.499   2.062  0.2424 -0.3453  0.3826
 5098SOL    HW126753   0.933   0.432   1.997 -0.9247  0.0969 -0.4805
 5098SOL    HW226754   0.976   0.485   2.131  0.1728 -1.9048  0.1269
 5099SOL     OW26755   3.872   4.073   6.917  0.4606 -0.6958  0.0640
 5099SOL    HW126756   3.836   3.997   6.964 -1.1962 -0.1418 -0.3302
 5099SOL    HW226757   3.965   4.051   6.913  0.9256  0.8192  2.6596
 5100SOL     OW26758   3.859   3.061   7.452 -0.4726  0.5232  0.2922
 5100SOL    HW126759   3.822   3.025   7.533  1.0659  0.9242  1.1624
 5100SOL    HW226760   3.813   3.142   7.431 -0.5198  0.5523  0.5081
 5101SOL     OW26761   2.369   4.170   9.511  0.1158  0.2990  0.1875
 5101SOL    HW126762   2.330   4.087   9.486  0.3898  0.6992 -1.5619
 5101SOL    HW226763   2.424   4.143   9.585 -2.4780 -2.6741  1.0206
 5102SOL     OW26764   3.482   1.994   6.818  0.1727  0.8518  0.2146
 5102SOL    HW126765   3.527   2.066   6.862  0.1688 -0.0312  1.6402
 5102SOL    HW226766   3.514   1.992   6.728 -2.0180 -0.2000 -0.5538
 5103SOL     OW26767   3.490   0.963  13.528  0.2109  0.3478  0.1824
 5103SOL    HW126768   3.510   0.897  13.461 -1.7331  0.2842 -0.3562
 5103SOL    HW226769   3.424   1.012  13.478 -0.0376 -1.7001 -1.5025
 5104SOL     OW26770   2.724   3.126   3.103  0.0383 -0.3965  0.2868
 5104SOL    HW126771   2.767   3.120   3.188  0.4914 -0.4791  0.0516
 5104SOL    HW226772   2.738   3.037   3.070  0.7971 -1.7172  4.2700
 5105SOL     OW26773   0.141   2.154  16.652  0.0329 -0.7724  0.0826
 5105SOL    HW126774   0.167   2.182  16.739 -0.7004  3.0275 -0.9327
 5105SOL    HW226775   0.051   2.184  16.644  0.1276 -1.1224 -2.4654
 5106SOL     OW26776   4.712   0.465   2.328 -0.1149 -0.7226  0.0124
 5106SOL    HW126777   0.067   0.516   2.329 -0.5338 -0.0550 -0.1510
 5106SOL    HW226778   0.008   0.388   2.274 -0.7091 -0.6683 -0.3095
 5107SOL     OW26779   0.330   0.349   9.430  0.1219 -0.2627 -0.3942
 5107SOL    HW126780   0.281   0.327   9.509 -1.9086  0.4573 -1.4480
 5107SOL    HW226781   0.257   0.358   9.368 -0.3345 -0.2843  0.1476
 5108SOL     OW26782   0.480   4.248   5.040 -0.6156 -0.1387  0.2770
 5108SOL    HW126783   0.433   4.234   5.122 -0.2907 -2.2163  0.1067
 5108SOL    HW226784   0.567   4.242   5.080 -1.1297 -1.9002  1.1247
 5109SOL     OW26785   4.009   0.556   5.208  0.0830  0.0826 -0.0449
 5109SOL    HW126786   3.945   0.485   5.195 -0.8794  1.0085 -0.3596
 5109SOL    HW226787   4.083   0.516   5.254  0.3669 -0.9758 -1.4165
 5110SOL     OW26788   1.487   0.514   9.029 -0.2635 -0.2630 -0.1409
 5110SOL    HW126789   1.503   0.606   9.051 -1.3272 -0.4243  1.3539
 5110SOL    HW226790   1.406   0.496   9.076  0.5282  1.1299  1.7874
 5111SOL     OW26791   4.361   1.080   1.943  0.0944 -0.0435 -0.2130
 5111SOL    HW126792   4.343   1.044   2.030 -0.0910 -2.2140 -1.1422
 5111SOL    HW226793   4.385   0.999   1.897  2.1832  0.6633 -0.3860
 5112SOL     OW26794   3.200   4.422   2.849  0.3866  0.2458 -0.0397
 5112SOL    HW126795   3.229   4.446   2.760  0.5521 -1.1431 -0.3617
 5112SOL    HW226796   3.144   4.499   2.863  0.0982  0.0187  0.0327
 5113SOL     OW26797   2.282   1.299  14.403 -0.7517 -0.0311  0.2183
 5113SOL    HW126798   2.350   1.241  14.438 -2.3293 -1.6901  0.5326
 5113SOL    HW226799   2.200   1.254  14.425 -0.1654 -1.2179 -0.0024
 5114SOL     OW26800   3.050   1.207   4.964  0.0069 -0.6982 -0.1934
 5114SOL    HW126801   3.126   1.207   4.906  0.0797  0.6977 -0.0864
 5114SOL    HW226802   2.975   1.181   4.910 -1.5505  0.0349  1.6214
 5115SOL     OW26803   4.641   2.106   3.619 -0.3232 -0.3259  0.3348
 5115SOL    HW126804   4.712   2.114   3.683  0.7223  0.4608 -0.9272
 5115SOL    HW226805   4.583   2.182   3.623  0.4775  0.2690  0.6273
 5116SOL     OW26806   2.212   0.791   6.026 -0.0065 -0.3557 -0.2841
 5116SOL    HW126807   2.235   0.875   5.986  0.6244  0.8431  2.5613
 5116SOL    HW226808   2.228   0.746   5.943  0.7642 -0.6115  0.0012
 5117SOL     OW26809   2.276   0.130   5.184 -0.1163  0.4775 -0.7566
 5117SOL    HW126810   2.369   0.131   5.209 -0.8508 -2.0566  2.1318
 5117SOL    HW226811   2.241   0.071   5.251  1.4139 -1.7446 -1.9134
 5118SOL     OW26812   4.099   1.363   5.469 -0.0471 -0.2475  0.0036
 5118SOL    HW126813   4.149   1.361   5.387  0.6288  1.1642  0.3854
 5118SOL    HW226814   4.067   1.274   5.486 -0.4362  0.4134  2.7423
 5119SOL     OW26815   4.354   1.144  14.538 -0.5711 -0.0692  0.2210
 5119SOL    HW126816   4.267   1.141  14.499 -0.9413 -2.7762  1.2597
 5119SOL    HW226817   4.316   1.177  14.619  2.5465  0.9150  1.2954
 5120SOL     OW26818   2.413   1.688  15.118  0.0774 -0.1968  0.0043
 5120SOL    HW126819   2.483   1.749  15.137  0.4774 -0.6851  0.0964
 5120SOL    HW226820   2.440   1.609  15.165 -0.6839  0.4734  1.5745
 5121SOL     OW26821   3.608   4.665  16.403 -0.3087 -0.1290 -0.0627
 5121SOL    HW126822   3.575   0.007  16.461  0.4536  1.4608 -1.5018
 5121SOL    HW226823   3.620   4.704  16.316 -0.3718  0.2524  0.0984
 5122SOL     OW26824   2.147   2.956   6.413  0.2700  0.1221  0.1546
 5122SOL    HW126825   2.146   3.026   6.348 -2.2575 -0.8499 -0.8276
 5122SOL    HW226826   2.053   2.937   6.417  0.2303 -0.1341 -2.2437
 5123SOL     OW26827   4.387   0.547   9.023  0.6484  0.3893  0.0741
 5123SOL    HW126828   4.439   0.467   9.021 -0.9332 -0.6311 -0.2484
 5123SOL    HW226829   4.425   0.583   9.103 -0.8265  1.6860  0.1706
 5124SOL     OW26830   3.570   1.596   6.801  0.0185  0.6212  0.0881
 5124SOL    HW126831   3.510   1.619   6.730 -1.1525  0.9031  1.1969
 5124SOL    HW226832   3.544   1.655   6.871  0.5316 -0.4247  1.1686
 5125SOL     OW26833   3.199   0.628   0.228 -0.2290 -0.3216  0.3179
 5125SOL    HW126834   3.202   0.541   0.189 -0.9962 -0.5250  0.7152
 5125SOL    HW226835   3.161   0.612   0.314 -2.1788  0.5048 -0.3632
 5126SOL     OW26836   2.474   2.804  12.071 -0.0773  0.1573 -0.2777
 5126SOL    HW126837   2.481   2.740  12.142 -1.2648 -0.6694 -0.9074
 5126SOL    HW226838   2.559   2.847  12.069 -0.7014  1.3089 -1.8379
 5127SOL     OW26839   2.970   1.025  15.913  0.2191  0.0661  0.2405
 5127SOL    HW126840   3.033   1.048  15.982  0.9061  1.9641 -1.0376
 5127SOL    HW226841   2.987   0.931  15.915 -2.0732 -0.3376  0.9815
 5128SOL     OW26842   1.276   2.175  10.265 -0.0173 -0.1550 -0.1498
 5128SOL    HW126843   1.213   2.131  10.208  0.7808  0.7004 -1.7173
 5128SOL    HW226844   1.273   2.259  10.219 -0.9418  0.0231  0.2464
 5129SOL     OW26845   2.376   4.273   1.873 -0.2012 -0.3241  0.2450
 5129SOL    HW126846   2.384   4.190   1.825  0.5243  0.4843 -1.0420
 5129SOL    HW226847   2.389   4.341   1.807 -0.0733 -2.1358 -1.6025
 5130SOL     OW26848   4.293   2.710   9.821 -0.1257 -0.0212  0.3538
 5130SOL    HW126849   4.200   2.695   9.808  0.0352  0.3876 -1.2875
 5130SOL    HW226850   4.333   2.658   9.751 -1.1533 -1.2458  0.6815
 5131SOL     OW26851   2.869   4.660   6.713 -0.2096 -0.6107  0.6889
 5131SOL    HW126852   2.884   4.604   6.637 -0.9791 -0.2671  0.2880
 5131SOL    HW226853   2.851   4.594   6.780  1.1428 -2.1852 -0.4935
 5132SOL     OW26854   1.553   1.103   3.040  0.7094  0.4772 -0.5574
 5132SOL    HW126855   1.594   1.094   2.954 -1.7006  1.0282 -1.7519
 5132SOL    HW226856   1.464   1.068   3.036  1.2600 -1.1132  0.7174
 5133SOL     OW26857   1.504   2.501   2.499  0.0304 -0.1609 -0.3645
 5133SOL    HW126858   1.455   2.442   2.557  0.6038  0.1217  0.4053
 5133SOL    HW226859   1.527   2.569   2.562  0.7191 -1.1916  0.5033
 5134SOL     OW26860   1.955   4.382  14.923  0.4442  0.1048  0.3830
 5134SOL    HW126861   2.035   4.339  14.893  0.0770 -1.8984  2.3260
 5134SOL    HW226862   1.984   4.399  15.012 -0.4013  2.2173  0.2460
 5135SOL     OW26863   4.032   3.653   8.220 -0.3126  0.1298 -0.3341
 5135SOL    HW126864   4.042   3.579   8.281 -0.9448  1.4804  1.3835
 5135SOL    HW226865   4.123   3.665   8.193  0.4500 -0.1859  2.0552
 5136SOL     OW26866   4.056   1.277   9.341 -0.0562  0.1778 -0.0113
 5136SOL    HW126867   3.996   1.202   9.335 -1.1437  1.1303 -1.1474
 5136SOL    HW226868   4.138   1.233   9.363 -0.6322  0.8618  3.4227
 5137SOL     OW26869   2.292   3.285  15.214 -0.1441  0.3780  0.4390
 5137SOL    HW126870   2.284   3.353  15.147 -0.3540  0.0730  0.1522
 5137SOL    HW226871   2.359   3.220  15.191  1.0466  0.8567  2.5761
 5138SOL     OW26872   0.164   4.399   5.380 -0.1550 -0.2356  0.2437
 5138SOL    HW126873   0.239   4.340   5.373  0.3180  0.6220 -1.7418
 5138SOL    HW226874   0.211   4.463   5.434  1.0817  0.6488 -1.8906
 5139SOL     OW26875   0.777   0.208  17.204  0.6815  0.2177 -0.0897
 5139SOL    HW126876   0.738   0.176  17.123  0.4692 -1.5614  0.7173
 5139SOL    HW226877   0.771   0.301  17.181  0.5425  0.3996  0.6723
 5140SOL     OW26878   4.474   1.481  16.309  0.1083  0.3815 -0.1740
 5140SOL    HW126879   4.557   1.472  16.263  1.8021 -0.2954  3.0140
 5140SOL    HW226880   4.501   1.439  16.391  0.7664  1.5469  0.2104
 5141SOL     OW26881   0.331   2.730   4.479  0.6030  0.1525  0.0281
 5141SOL    HW126882   0.340   2.717   4.385 -0.2775 -0.1645 -0.0134
 5141SOL    HW226883   0.255   2.789   4.478 -0.6594 -1.4816 -1.7811
 5142SOL     OW26884   2.292   1.782   1.871 -0.0620  0.1267  0.1509
 5142SOL    HW126885   2.327   1.703   1.830  0.3610  1.4381 -2.0653
 5142SOL    HW226886   2.220   1.741   1.919  0.5321 -1.5483 -0.3764
 5143SOL     OW26887   3.608   0.359  16.848  0.0070 -0.3055  0.5972
 5143SOL    HW126888   3.565   0.363  16.762  0.3975  0.1614  0.4235
 5143SOL    HW226889   3.582   0.441  16.891  1.5734 -0.2507  1.4348
 5144SOL     OW26890   3.864   1.955   6.659  0.6991  0.0385  0.3370
 5144SOL    HW126891   3.852   1.869   6.701 -0.5809  0.5521  1.0242
 5144SOL    HW226892   3.775   1.978   6.633  0.8788  2.0862  1.5716
 5145SOL     OW26893   0.666   0.769   4.356 -0.0810  0.7190 -0.3144
 5145SOL    HW126894   0.636   0.726   4.276 -1.8079  1.7605 -0.2346
 5145SOL    HW226895   0.753   0.730   4.354 -0.6071 -0.4407 -0.7804
 5146SOL     OW26896   2.855   1.786   9.204  0.3226 -0.1807  0.2216
 5146SOL    HW126897   2.804   1.777   9.284 -0.0893 -0.2198 -0.0454
 5146SOL    HW226898   2.850   1.880   9.186  0.9979  0.2795  2.4669
 5147SOL     OW26899   1.858   0.994   1.954 -0.0971  0.0551 -0.3624
 5147SOL    HW126900   1.825   0.917   1.909 -0.0541  0.3711 -0.9409
 5147SOL    HW226901   1.784   1.006   2.014  1.0025 -1.0494  1.2206
 5148SOL     OW26902   2.522   3.271   2.956  0.0649 -0.1931  0.0734
 5148SOL    HW126903   2.441   3.253   3.004  0.7956 -0.5631  1.1681
 5148SOL    HW226904   2.588   3.221   3.004  1.0019  0.1858 -0.8409
 5149SOL     OW26905   2.351   0.747  17.446 -0.3002 -0.4371 -0.3857
 5149SOL    HW126906   2.444   0.736  17.425  0.1402 -0.8376  1.8059
 5149SOL    HW226907   2.351   0.816  17.513 -0.8312 -0.7423 -0.0741
 5150SOL     OW26908   0.833   3.019   7.130 -0.1381 -0.3122  0.1097
 5150SOL    HW126909   0.786   3.026   7.047  0.1783 -0.4533 -0.0809
 5150SOL    HW226910   0.914   3.061   7.103  0.6553 -1.7190  0.3105
 5151SOL     OW26911   2.273   3.506   3.488 -0.0891  0.4378  0.0215
 5151SOL    HW126912   2.310   3.590   3.518 -1.0866  0.8568  0.0794
 5151SOL    HW226913   2.267   3.518   3.393 -0.2371  0.9392  0.0947
 5152SOL     OW26914   3.566   2.586   9.773  0.2108  0.0194 -0.1276
 5152SOL    HW126915   3.661   2.569   9.780  0.6382  2.2436 -0.7146
 5152SOL    HW226916   3.530   2.556   9.856 -0.1492  1.0514  0.0851
 5153SOL     OW26917   2.776   1.231   5.596 -0.2160 -0.1208 -0.0267
 5153SOL    HW126918   2.802   1.206   5.507  0.2476  3.6685 -0.9448
 5153SOL    HW226919   2.865   1.249   5.627 -0.2995  0.7034 -0.2781
 5154SOL     OW26920   1.978   3.361   9.434  0.2416  0.1178 -0.0117
 5154SOL    HW126921   1.980   3.448   9.473  0.1393  0.2166 -0.2254
 5154SOL    HW226922   2.070   3.334   9.439  0.0423 -0.3685  0.9519
 5155SOL     OW26923   0.872   3.518   3.624  0.0617  0.5273  0.3570
 5155SOL    HW126924   0.807   3.448   3.625  0.0354  0.5425 -0.1448
 5155SOL    HW226925   0.942   3.477   3.674  0.3526 -0.5594 -0.9157
 5156SOL     OW26926   1.832   2.881   5.821  0.5985 -0.9901  0.1262
 5156SOL    HW126927   1.768   2.934   5.867  0.2288  0.2054 -1.7853
 5156SOL    HW226928   1.914   2.926   5.840 -0.5371  0.4787  1.5172
 5157SOL     OW26929   2.326   1.947   5.647  0.0049 -0.4497  0.0301
 5157SOL    HW126930   2.349   2.022   5.593  1.3774 -0.4087  0.6723
 5157SOL    HW226931   2.232   1.950   5.625  0.2841  2.2065 -0.7263
 5158SOL     OW26932   2.458   1.650   9.890  0.4877 -0.2067  0.0839
 5158SOL    HW126933   2.428   1.703   9.964  0.8159 -0.0850  0.1297
 5158SOL    HW226934   2.544   1.618   9.914 -0.2545 -0.7675  2.0045
 5159SOL     OW26935   3.629   3.096   9.763  0.1292 -0.0390 -0.1083
 5159SOL    HW126936   3.690   3.086   9.836 -0.0435  1.0645  0.1856
 5159SOL    HW226937   3.573   3.022   9.787 -0.6133  0.4625 -0.2753
 5160SOL     OW26938   1.539   1.304   1.066 -0.0404  0.2496  0.1319
 5160SOL    HW126939   1.595   1.283   1.141 -2.5903 -1.4104  1.5881
 5160SOL    HW226940   1.468   1.239   1.067  0.5688 -0.4205 -0.5636
 5161SOL     OW26941   1.538   2.653   0.591  0.4430 -0.0597  0.8738
 5161SOL    HW126942   1.628   2.681   0.607  0.7197  0.2609 -1.2533
 5161SOL    HW226943   1.531   2.584   0.656  0.4965 -0.7989  0.0961
 5162SOL     OW26944   4.017   2.155   1.521 -0.1667  0.6304 -0.0056
 5162SOL    HW126945   4.102   2.192   1.542 -0.4314 -0.4242  2.9457
 5162SOL    HW226946   4.038   2.063   1.536 -0.1920  0.3500 -1.6302
 5163SOL     OW26947   2.025   0.425   4.699 -0.0649 -0.3776 -0.4323
 5163SOL    HW126948   1.941   0.383   4.715 -0.4403  1.2869  1.8849
 5163SOL    HW226949   2.085   0.378   4.757  1.2144 -0.0738 -1.5010
 5164SOL     OW26950   4.532   2.477   6.354 -0.0642 -0.2426 -0.6713
 5164SOL    HW126951   4.529   2.539   6.281 -2.2570 -0.3051 -0.6369
 5164SOL    HW226952   4.460   2.415   6.344 -0.6225  0.4810 -1.1393
 5165SOL     OW26953   4.557   2.292   8.670 -0.0158  0.0690 -0.3835
 5165SOL    HW126954   4.587   2.206   8.700  2.5907  1.7502  1.8074
 5165SOL    HW226955   4.581   2.295   8.577  1.8226  1.1222  0.1374
 5166SOL     OW26956   4.020   2.247   2.098 -0.6679 -0.2368 -0.5232
 5166SOL    HW126957   4.022   2.284   2.010 -0.2580 -0.8350 -0.7637
 5166SOL    HW226958   4.105   2.205   2.113  0.6656  1.6576 -2.8162
 5167SOL     OW26959   2.230   4.466   7.488 -0.1320  0.1250 -0.3843
 5167SOL    HW126960   2.219   4.538   7.550 -0.9023  1.1167 -1.6722
 5167SOL    HW226961   2.264   4.394   7.540 -0.2511 -0.1380 -0.6677
 5168SOL     OW26962   0.558   1.312   3.285 -0.0557 -0.1486 -0.2766
 5168SOL    HW126963   0.492   1.246   3.308  0.6784 -1.0219 -0.6496
 5168SOL    HW226964   0.634   1.274   3.330 -0.1059 -1.4294 -1.2419
 5169SOL     OW26965   0.757   4.073   8.599  0.0054  0.0707 -0.5313
 5169SOL    HW126966   0.766   4.008   8.668 -0.8417  2.5971  1.9444
 5169SOL    HW226967   0.676   4.118   8.625 -1.0681 -1.2520 -1.5826
 5170SOL     OW26968   2.155   2.304   2.016  0.3334  0.3754  0.2734
 5170SOL    HW126969   2.242   2.293   1.976 -0.3107 -1.4112 -0.6584
 5170SOL    HW226970   2.155   2.396   2.039 -1.7383  0.2721  0.6246
 5171SOL     OW26971   1.954   4.383   4.238  0.0983 -0.0361  0.4706
 5171SOL    HW126972   1.974   4.390   4.332  1.6934  0.5933  0.0798
 5171SOL    HW226973   1.902   4.303   4.242 -1.2066  0.7369 -1.4374
 5172SOL     OW26974   4.386   4.379   2.965 -0.4295 -0.0112  0.0743
 5172SOL    HW126975   4.423   4.404   3.050 -3.0905 -3.1275  2.1542
 5172SOL    HW226976   4.321   4.448   2.957 -0.9430 -0.6470 -1.1872
 5173SOL     OW26977   0.320   1.980   8.542 -1.3541  0.3780 -0.0805
 5173SOL    HW126978   0.243   1.926   8.563 -2.7577  2.1254 -0.7025
 5173SOL    HW226979   0.389   1.915   8.548 -1.3247  0.3077 -1.1661
 5174SOL     OW26980   1.055   1.458  15.547  0.3726  0.2288  0.7205
 5174SOL    HW126981   1.091   1.478  15.461  1.8060 -1.1241  1.0121
 5174SOL    HW226982   1.136   1.425  15.587  1.0739 -0.6714 -1.4580
 5175SOL     OW26983   4.218   3.547  16.902 -0.2227  0.1463 -0.4203
 5175SOL    HW126984   4.127   3.575  16.912 -0.0905  0.6221 -0.5234
 5175SOL    HW226985   4.238   3.513  16.989 -2.3197 -0.5694 -0.2301
 5176SOL     OW26986   4.195   0.055  12.313  0.1590 -0.7468 -0.2417
 5176SOL    HW126987   4.286   0.082  12.327 -0.5238  0.9165  0.9378
 5176SOL    HW226988   4.189   0.036  12.220  0.4853 -0.7664 -0.2609
 5177SOL     OW26989   0.191   3.389   2.093 -0.5448  0.3310 -0.3809
 5177SOL    HW126990   0.135   3.323   2.133 -2.0268 -0.4198 -3.6419
 5177SOL    HW226991   0.278   3.357   2.116 -0.8204 -0.7261 -0.7955
 5178SOL     OW26992   3.215   1.440   6.826 -0.3701 -0.4627 -0.8731
 5178SOL    HW126993   3.147   1.376   6.804  0.7586 -2.4817  1.4315
 5178SOL    HW226994   3.171   1.520   6.799  0.4827 -0.0820 -1.1055
 5179SOL     OW26995   3.101   3.750   5.613  0.3660  0.0654  0.0169
 5179SOL    HW126996   3.116   3.713   5.700 -1.2458  3.4105  1.7310
 5179SOL    HW226997   3.113   3.845   5.618  0.2334  0.1268 -0.7882
 5180SOL     OW26998   1.666   1.341  15.875  0.0112 -0.0013 -0.4313
 5180SOL    HW126999   1.730   1.377  15.936 -0.8673  2.2574 -0.8275
 5180SOL    HW227000   1.590   1.346  15.932  0.4078  0.5146  0.0436
 5181SOL     OW27001   3.790   1.054   6.248 -0.2821  0.2329  0.3556
 5181SOL    HW127002   3.727   0.982   6.253  2.8109 -2.5879 -0.8221
 5181SOL    HW227003   3.846   1.025   6.319  0.6547 -1.2058 -0.9593
 5182SOL     OW27004   3.899   0.370   9.477 -0.3021  0.4061 -0.1464
 5182SOL    HW127005   3.973   0.414   9.519  0.2813 -0.7135 -0.0173
 5182SOL    HW227006   3.851   0.330   9.550 -0.4266  1.4700  0.3588
 5183SOL     OW27007   2.471   2.757   8.945  0.4255  0.1585  0.0964
 5183SOL    HW127008   2.411   2.754   8.870 -0.9427 -0.2327  1.1983
 5183SOL    HW227009   2.415   2.706   9.003  0.6131 -1.1971 -0.9067
 5184SOL     OW27010   3.563   0.626   2.793 -0.7982  0.3291  0.0221
 5184SOL    HW127011   3.638   0.680   2.817  1.3694 -1.5877 -2.4814
 5184SOL    HW227012   3.530   0.661   2.711 -3.5669 -1.2252  0.4802
 5185SOL     OW27013   2.733   0.870  13.704  0.7069 -0.5569  1.1170
 5185SOL    HW127014   2.742   0.943  13.643 -1.0675 -1.8502 -0.6806
 5185SOL    HW227015   2.639   0.865  13.716  0.5204 -1.6129 -0.7900
 5186SOL     OW27016   2.640   3.912   4.384  0.3794 -0.1924  0.2488
 5186SOL    HW127017   2.664   3.868   4.302 -0.0136  0.1187 -0.0379
 5186SOL    HW227018   2.686   3.996   4.373 -0.8936  0.7387  1.9637
 5187SOL     OW27019   0.125   0.902   3.774  0.7641 -0.4749 -0.4288
 5187SOL    HW127020   0.070   0.825   3.786  0.6029 -0.5442 -1.5924
 5187SOL    HW227021   0.171   0.874   3.695  0.0399 -1.2933 -0.5573
 5188SOL     OW27022   3.185   1.525  16.320  0.3390 -0.4502  0.0005
 5188SOL    HW127023   3.229   1.598  16.364  1.1209 -0.3287 -0.9951
 5188SOL    HW227024   3.242   1.504  16.247  0.7126  0.5805 -0.0039
 5189SOL     OW27025   1.367   0.459   7.007 -0.0885  0.4961 -0.1593
 5189SOL    HW127026   1.431   0.451   7.078 -0.6222  1.2509  0.3961
 5189SOL    HW227027   1.430   0.460   6.935 -1.2642 -1.9168 -1.2569
 5190SOL     OW27028   4.689   2.405  12.469 -0.1740  0.0820 -0.4022
 5190SOL    HW127029   4.673   2.360  12.552  0.3074  1.1418  0.2606
 5190SOL    HW227030   0.053   2.435  12.475  0.1185 -0.1779 -3.3133
 5191SOL     OW27031   0.609   1.611   7.256  0.0766 -0.1967 -0.1703
 5191SOL    HW127032   0.595   1.701   7.225  1.0787  0.8303  2.3917
 5191SOL    HW227033   0.605   1.561   7.174  1.9250  0.3307 -0.5837
 5192SOL     OW27034   0.184   1.759   6.208 -0.0258 -0.4301  0.4206
 5192SOL    HW127035   0.226   1.754   6.294  0.3605  0.3734  0.2837
 5192SOL    HW227036   0.191   1.854   6.198  0.5623 -0.4777  0.3727
 5193SOL     OW27037   3.552   0.722  13.394  0.0065 -0.0971  0.0025
 5193SOL    HW127038   3.505   0.675  13.462 -1.5930 -0.0882 -1.0909
 5193SOL    HW227039   3.528   0.665  13.321  1.3371  0.5872 -0.9785
 5194SOL     OW27040   2.983   2.770   6.829 -0.3507  0.2290 -0.3034
 5194SOL    HW127041   2.949   2.860   6.828 -1.2766 -0.1030  1.3502
 5194SOL    HW227042   2.929   2.736   6.901 -0.9180  2.6160  0.4342
 5195SOL     OW27043   1.669   3.884   5.523 -0.1520  0.1293 -0.0746
 5195SOL    HW127044   1.762   3.862   5.529 -0.3634 -0.4694  1.0239
 5195SOL    HW227045   1.660   3.956   5.586  0.8463  0.6244 -0.4993
 5196SOL     OW27046   1.820   3.895   4.908  1.0321 -0.8379 -0.2615
 5196SOL    HW127047   1.861   3.917   4.824 -0.5494  0.4248 -0.7042
 5196SOL    HW227048   1.732   3.932   4.901  1.1607 -0.5319 -0.2584
 5197SOL     OW27049   2.106   1.418   6.728  0.3816 -0.0602  0.1006
 5197SOL    HW127050   2.188   1.461   6.752  0.1629  1.1626 -1.3826
 5197SOL    HW227051   2.130   1.326   6.713  0.4499 -0.1578  0.8122
 5198SOL     OW27052   1.828   4.013   0.175  0.4871 -0.0311  0.2481
 5198SOL    HW127053   1.886   4.056   0.112 -0.4484  0.6654 -0.1461
 5198SOL    HW227054   1.882   4.005   0.253  1.2237  1.6563 -0.0813
 5199SOL     OW27055   3.896   3.849   0.407 -0.5361 -0.1412 -0.4209
 5199SOL    HW127056   3.909   3.842   0.312  1.7046 -0.5611 -0.0961
 5199SOL    HW227057   3.864   3.939   0.402  2.1354  1.0101  3.3082
 5200SOL     OW27058   1.098   2.325  14.106  0.4899  0.2038  0.1082
 5200SOL    HW127059   1.012   2.298  14.137  1.7538 -2.8106  0.9525
 5200SOL    HW227060   1.116   2.284  14.021 -0.4170  1.1788 -0.5661
 5201SOL     OW27061   0.598   4.113   6.453  0.0656  0.0302 -0.2052
 5201SOL    HW127062   0.583   4.038   6.510  2.6951  0.4892  1.1035
 5201SOL    HW227063   0.688   4.091   6.427  0.2818  1.3241 -0.5517
 5202SOL     OW27064   0.283   1.670   5.698 -0.2952 -0.7800 -0.0676
 5202SOL    HW127065   0.249   1.580   5.697 -0.6492 -0.6477  0.1542
 5202SOL    HW227066   0.262   1.691   5.789 -1.7259  0.5257 -0.7073
 5203SOL     OW27067   0.854   3.388   0.417 -0.1381 -0.0702  0.4222
 5203SOL    HW127068   0.843   3.441   0.496  0.4313  1.9249 -0.8456
 5203SOL    HW227069   0.828   3.446   0.346  1.1761  0.3432  0.2821
 5204SOL     OW27070   1.165   3.535   5.825 -0.3442 -0.7696  0.2278
 5204SOL    HW127071   1.189   3.522   5.916  1.0907  0.7873  0.0820
 5204SOL    HW227072   1.252   3.536   5.787 -1.1114 -0.5924 -1.5497
 5205SOL     OW27073   3.825   3.429  10.415 -0.5938  0.4416  0.1823
 5205SOL    HW127074   3.905   3.448  10.464 -0.5695 -1.9947  1.0904
 5205SOL    HW227075   3.797   3.519  10.395 -0.2441  0.4544 -0.2698
 5206SOL     OW27076   2.881   3.353   7.761  0.6909 -0.1663  0.3269
 5206SOL    HW127077   2.933   3.433   7.752  2.5337 -1.4342 -0.1522
 5206SOL    HW227078   2.804   3.378   7.708  0.9873  0.6282  0.2646
 5207SOL     OW27079   0.920   4.206  10.227  0.5269 -0.1441 -0.3101
 5207SOL    HW127080   0.843   4.150  10.237  0.6643 -0.1707  0.6276
 5207SOL    HW227081   0.883   4.295  10.219 -0.4367 -0.7265 -2.2832
 5208SOL     OW27082   3.527   3.982   8.654  0.4155  0.0772  0.5733
 5208SOL    HW127083   3.586   3.961   8.581 -3.5062 -1.0283 -2.2713
 5208SOL    HW227084   3.528   4.077   8.643 -1.0817 -0.0212 -0.4642
 5209SOL     OW27085   2.577   3.498   7.977 -0.0213 -0.0708  0.3496
 5209SOL    HW127086   2.518   3.454   8.039 -0.1405  1.6736  1.4720
 5209SOL    HW227087   2.500   3.525   7.926 -0.0579 -0.1549  0.3589
 5210SOL     OW27088   0.860   1.294   3.590 -0.4295  0.1345 -0.0465
 5210SOL    HW127089   0.812   1.245   3.524  0.4195  0.2515 -0.7447
 5210SOL    HW227090   0.943   1.313   3.546  0.2675 -2.3650  0.2161
 5211SOL     OW27091   2.403   0.112  11.688  0.1009 -0.0786  0.7022
 5211SOL    HW127092   2.431   0.044  11.626 -0.2660  0.3051  0.1109
 5211SOL    HW227093   2.483   0.127  11.737  0.0081 -1.7464  1.3737
 5212SOL     OW27094   2.780   4.266   7.337 -0.1699 -0.1308 -0.0958
 5212SOL    HW127095   2.869   4.232   7.349 -0.8253 -1.1469  1.8926
 5212SOL    HW227096   2.795   4.357   7.362 -0.4347 -0.4646  1.2818
 5213SOL     OW27097   3.234   2.015  17.102  0.1330  0.9847  0.0469
 5213SOL    HW127098   3.251   2.010  17.196 -1.9839  2.9355  0.5433
 5213SOL    HW227099   3.297   2.084  17.082  0.5356  0.3986 -0.7253
 5214SOL     OW27100   3.786   2.340   2.835  0.2838 -0.2643 -0.0100
 5214SOL    HW127101   3.758   2.249   2.845  1.0063 -0.5995 -1.0472
 5214SOL    HW227102   3.859   2.334   2.897 -0.7848  3.0013  1.5666
 5215SOL     OW27103   1.555   4.593  10.066 -0.5243 -0.2099 -0.5827
 5215SOL    HW127104   1.622   4.653  10.100  0.4912 -1.4415 -0.4169
 5215SOL    HW227105   1.478   4.649  10.070 -1.1862 -1.3683  2.3859
 5216SOL     OW27106   3.324   3.514   0.967  0.2296 -0.2310 -0.7740
 5216SOL    HW127107   3.284   3.569   0.899 -1.7163 -1.5354 -0.6835
 5216SOL    HW227108   3.395   3.570   0.997 -0.9794  0.0496  1.6070
 5217SOL     OW27109   3.697   4.412   6.900  0.2666 -0.1257 -0.6220
 5217SOL    HW127110   3.605   4.435   6.890  0.4075  0.5204 -0.4323
 5217SOL    HW227111   3.727   4.394   6.811  0.6633 -0.5788 -0.3949
 5218SOL     OW27112   1.062   4.054   4.855  0.2265  0.3360 -0.2749
 5218SOL    HW127113   1.078   4.030   4.764 -0.8400 -0.4396 -0.2506
 5218SOL    HW227114   1.002   3.987   4.887  3.1672 -2.2619 -0.2179
 5219SOL     OW27115   3.951   0.332   6.858  0.2904 -0.3508 -0.8372
 5219SOL    HW127116   3.977   0.246   6.892 -0.1849  0.5270  1.7087
 5219SOL    HW227117   3.974   0.323   6.766  1.2843 -0.9475 -0.5356
 5220SOL     OW27118   4.388   2.375   9.922  0.5238 -0.4958 -0.3632
 5220SOL    HW127119   4.437   2.449   9.958  1.0220 -0.0494 -1.9577
 5220SOL    HW227120   4.328   2.354   9.994 -0.0146  0.2584 -0.5860
 5221SOL     OW27121   4.434   3.909   3.986 -0.5508 -0.1353  0.8267
 5221SOL    HW127122   4.422   3.819   4.018 -0.7893  0.1742  1.5876
 5221SOL    HW227123   4.479   3.934   4.066 -2.1679  1.6437  1.1727
 5222SOL     OW27124   3.176   0.684  11.512  0.4594 -0.2945  0.0115
 5222SOL    HW127125   3.187   0.778  11.499 -1.4847 -0.0420  0.2178
 5222SOL    HW227126   3.241   0.649  11.451 -0.3399 -2.3333  0.3378
 5223SOL     OW27127   0.130   4.220   0.042 -0.2341 -0.1046 -0.0908
 5223SOL    HW127128   0.137   4.231   0.137  0.3717  1.3782 -0.3220
 5223SOL    HW227129   0.095   4.301   0.006  1.5864  1.2574  1.2267
 5224SOL     OW27130   3.160   4.627  11.228  0.4299 -0.3304 -0.2554
 5224SOL    HW127131   3.143   4.545  11.274  1.5075 -0.2768  0.2357
 5224SOL    HW227132   3.089   4.628  11.164  0.5426  2.7257 -0.3592
 5225SOL     OW27133   0.947   2.861  14.071 -0.2380  0.0757 -0.1456
 5225SOL    HW127134   0.929   2.768  14.082 -0.3477  0.1146  0.0126
 5225SOL    HW227135   1.016   2.861  14.137 -1.7309  1.1719  1.4382
 5226SOL     OW27136   0.045   3.135   1.497  0.2677 -0.1300  0.3678
 5226SOL    HW127137   0.065   3.041   1.495 -3.2682 -0.8322 -2.2076
 5226SOL    HW227138   0.130   3.171   1.519  0.7677 -0.3183 -1.2932
 5227SOL     OW27139   2.643   3.459   7.619  0.0565  0.1446 -0.2903
 5227SOL    HW127140   2.660   3.550   7.595 -0.6945  0.7426  1.4043
 5227SOL    HW227141   2.589   3.429   7.546  1.0751 -2.4042  0.0066
 5228SOL     OW27142   1.569   3.690   3.297  0.3217 -0.4032  0.1072
 5228SOL    HW127143   1.584   3.706   3.390 -3.0867 -1.3827  0.8250
 5228SOL    HW227144   1.616   3.609   3.276  1.3054  0.1863  0.0566
 5229SOL     OW27145   0.124   1.789   8.535  0.1916  0.4974  0.3227
 5229SOL    HW127146   0.201   1.737   8.554  0.5649  0.9779  0.1310
 5229SOL    HW227147   0.082   1.799   8.620 -3.3471 -0.8347 -1.2569
 5230SOL     OW27148   0.273   0.590   3.760 -0.0097 -0.2885  0.4704
 5230SOL    HW127149   0.264   0.500   3.792 -0.2632 -0.1498  0.7925
 5230SOL    HW227150   0.251   0.581   3.667  2.3496 -1.7615  0.0620
 5231SOL     OW27151   1.697   0.541   3.113 -0.7355 -0.4551  0.1333
 5231SOL    HW127152   1.772   0.585   3.153  0.1830 -2.6510  0.8324
 5231SOL    HW227153   1.736   0.486   3.045 -1.1405  0.7781 -1.0931
 5232SOL     OW27154   1.697   3.613   8.384 -0.0930 -0.2493  0.3934
 5232SOL    HW127155   1.755   3.548   8.346 -0.4534 -0.9604  1.0670
 5232SOL    HW227156   1.748   3.694   8.375  0.1235 -0.4670 -0.2530
 5233SOL     OW27157   4.578   2.536  16.263  0.3756 -0.4632  0.2191
 5233SOL    HW127158   4.572   2.500  16.351 -0.0837  2.3627  1.3254
 5233SOL    HW227159   4.672   2.557  16.262 -0.3241  2.6515  0.5509
 5234SOL     OW27160   1.062   0.962   1.446  0.5265 -0.1568  0.1081
 5234SOL    HW127161   1.076   0.878   1.403  0.8844 -0.5160  0.9190
 5234SOL    HW227162   1.069   1.016   1.367 -1.2517  0.0379  0.0923
 5235SOL     OW27163   2.908   3.555   4.931 -0.1570  0.8608  0.1917
 5235SOL    HW127164   2.837   3.590   4.878  0.9228  3.8683  0.7498
 5235SOL    HW227165   2.967   3.526   4.861  1.1516  2.5965  0.5773
 5236SOL     OW27166   1.412   3.574   1.991 -0.6308 -0.4937  0.1135
 5236SOL    HW127167   1.360   3.550   2.067  1.1511 -3.1384  0.4838
 5236SOL    HW227168   1.499   3.591   2.026  0.3956 -2.4942 -1.4703
 5237SOL     OW27169   0.573   1.544   3.831  0.1442  0.2703 -0.2039
 5237SOL    HW127170   0.591   1.602   3.905  0.1005 -1.6792  1.3326
 5237SOL    HW227171   0.657   1.500   3.841  0.9686  1.1950 -3.0618
 5238SOL     OW27172   4.634   0.963   7.888  0.0431 -0.2287 -0.4483
 5238SOL    HW127173   4.628   1.011   7.971  0.9049 -0.6065 -0.1613
 5238SOL    HW227174   4.579   0.886   7.907  0.4164 -0.2502  0.5811
 5239SOL     OW27175   4.562   0.744   5.715 -0.4879 -0.1930  0.2428
 5239SOL    HW127176   4.655   0.741   5.736 -0.3106 -0.5290 -0.5717
 5239SOL    HW227177   4.557   0.652   5.688  1.0206 -0.2868  0.2727
 5240SOL     OW27178   1.255   3.956   2.194  0.3232 -0.3982 -0.3569
 5240SOL    HW127179   1.244   3.890   2.125  1.6829 -0.4810 -0.5074
 5240SOL    HW227180   1.205   4.030   2.162  2.1016  0.9686  0.0329
 5241SOL     OW27181   2.167   3.126   4.842 -0.0263 -0.0688  0.4337
 5241SOL    HW127182   2.108   3.052   4.852  0.0221 -0.1915 -0.2188
 5241SOL    HW227183   2.244   3.080   4.877 -0.3675 -0.4500  0.6744
 5242SOL     OW27184   1.906   1.969   6.039 -0.2960  0.5384 -0.6020
 5242SOL    HW127185   1.961   1.890   6.039  0.2172  0.8969 -2.0761
 5242SOL    HW227186   1.929   2.007   5.954  0.2749 -2.4527 -1.7765
 5243SOL     OW27187   2.871   2.429   7.885 -0.4341 -0.1827  0.5498
 5243SOL    HW127188   2.875   2.372   7.808  0.4694 -1.7220  1.7335
 5243SOL    HW227189   2.776   2.438   7.887 -0.1631  2.6969 -0.0743
 5244SOL     OW27190   3.903   3.916   3.072  0.1315 -0.4821 -0.1950
 5244SOL    HW127191   3.912   4.004   3.108  0.1013  0.0746 -1.5734
 5244SOL    HW227192   3.958   3.911   2.994  1.0232 -1.0637  0.4776
 5245SOL     OW27193   3.649   4.313   5.649  0.5989 -0.1596  0.3590
 5245SOL    HW127194   3.739   4.280   5.646  0.4986 -0.0749 -2.8907
 5245SOL    HW227195   3.613   4.252   5.713  0.6717  0.0789  0.6277
 5246SOL     OW27196   1.293   4.512   1.314  0.1488 -0.2644 -0.4972
 5246SOL    HW127197   1.201   4.539   1.302  0.8524  2.5061  0.3946
 5246SOL    HW227198   1.307   4.540   1.404  0.5236 -2.3555  0.0873
 5247SOL     OW27199   0.685   1.730  12.132  0.3810  0.1812 -0.1293
 5247SOL    HW127200   0.750   1.661  12.143 -0.6584 -0.3111  2.7530
 5247SOL    HW227201   0.728   1.815  12.146 -1.7510  1.1542  0.4282
 5248SOL     OW27202   1.502   4.691   8.211 -0.1679  0.3459  0.4808
 5248SOL    HW127203   1.509   4.601   8.240 -0.4970  0.2058  0.1242
 5248SOL    HW227204   1.411   4.710   8.189  0.3040  1.7584 -0.3295
 5249SOL     OW27205   4.137   4.723   1.458 -0.3955  0.2809  0.5761
 5249SOL    HW127206   4.224   0.034   1.473  0.1153 -0.2303 -1.1538
 5249SOL    HW227207   4.101   0.076   1.418 -0.1111 -0.3240 -0.8772
 5250SOL     OW27208   0.861   3.069   4.073 -0.0755  0.1893  0.5380
 5250SOL    HW127209   0.956   3.067   4.085  0.3652  1.8841 -2.8514
 5250SOL    HW227210   0.846   2.990   4.021 -0.9825  1.3830 -0.9773
 5251SOL     OW27211   1.250   2.390   6.864  0.6336  0.1037  0.0247
 5251SOL    HW127212   1.241   2.485   6.852 -0.0597  0.3071  2.1778
 5251SOL    HW227213   1.224   2.377   6.955  1.6937 -0.4549  0.2437
 5252SOL     OW27214   1.807   1.321   3.797 -0.0947  0.1564  0.0922
 5252SOL    HW127215   1.772   1.409   3.781  0.1812  0.6309  2.1849
 5252SOL    HW227216   1.889   1.321   3.747 -0.6631 -0.8378 -0.8416
 5253SOL     OW27217   0.475   1.776   1.013  0.0010 -0.2086 -0.3965
 5253SOL    HW127218   0.571   1.783   1.014  0.0997 -1.7283  1.4057
 5253SOL    HW227219   0.465   1.704   0.950 -0.3566 -0.5863  0.0885
 5254SOL     OW27220   4.411   2.379   3.934  0.2193  0.0212  0.9455
 5254SOL    HW127221   4.378   2.450   3.990 -0.7148  1.3770 -1.3076
 5254SOL    HW227222   4.346   2.379   3.864  1.1987 -2.2571  0.0615
 5255SOL     OW27223   0.500   1.248   8.052 -0.3014  0.5209 -0.1562
 5255SOL    HW127224   0.574   1.239   8.112 -0.4881 -2.0027 -0.2885
 5255SOL    HW227225   0.539   1.277   7.970 -2.1516  1.0779 -0.8493
 5256SOL     OW27226   0.196   4.174   7.357 -0.2086 -0.2701 -0.0683
 5256SOL    HW127227   0.188   4.084   7.387 -2.5394 -0.3512 -0.9612
 5256SOL    HW227228   0.202   4.224   7.439 -1.1117 -0.0737 -0.1215
 5257SOL     OW27229   0.539   4.706   0.969 -0.6291 -0.3061  0.1717
 5257SOL    HW127230   0.507   4.618   0.987  0.8707 -0.8650  0.0709
 5257SOL    HW227231   0.494   4.724   0.886 -1.4913  1.0187  0.9210
 5258SOL     OW27232   2.763   0.274  10.471  0.2480  0.0553  0.5908
 5258SOL    HW127233   2.772   0.369  10.460 -1.7414  0.4234  2.1938
 5258SOL    HW227234   2.714   0.251  10.392 -0.9635 -1.3071  1.7291
 5259SOL     OW27235   0.378   4.533   2.597 -0.8450  0.1888 -0.1541
 5259SOL    HW127236   0.435   4.610   2.598 -3.2590  1.9846  0.7189
 5259SOL    HW227237   0.365   4.515   2.690 -1.0831  0.5790 -0.1089
 5260SOL     OW27238   1.860   4.372  12.101 -0.6955  0.3757 -0.5910
 5260SOL    HW127239   1.871   4.426  12.022  2.8713  1.3969  0.6141
 5260SOL    HW227240   1.913   4.297  12.075 -1.8872 -0.4123 -0.7577
 5261SOL     OW27241   4.139   3.974   3.299 -0.0547  0.2130  0.4389
 5261SOL    HW127242   4.070   3.997   3.361 -1.0634  1.1649 -1.0451
 5261SOL    HW227243   4.106   3.892   3.263 -0.2185 -0.3529  1.8610
 5262SOL     OW27244   0.984   4.182   3.610  0.2926  0.7556  0.0019
 5262SOL    HW127245   1.039   4.252   3.573  0.3509  0.0493 -1.2543
 5262SOL    HW227246   0.970   4.125   3.534  0.0132  1.2908 -0.3495
 5263SOL     OW27247   1.942   1.656   7.042 -0.1584  0.2572  0.5233
 5263SOL    HW127248   2.014   1.595   7.025  0.3744  1.1005 -0.2898
 5263SOL    HW227249   1.977   1.743   7.021  0.5208 -0.8236 -2.6753
 5264SOL     OW27250   1.094   0.517   1.188  0.2041  0.7023  0.2396
 5264SOL    HW127251   1.172   0.472   1.219 -0.2027 -0.0532  0.1827
 5264SOL    HW227252   1.123   0.523   1.097 -0.1765  1.7493  0.1886
 5265SOL     OW27253   0.191   1.696  12.185  0.1438  0.4644  0.3046
 5265SOL    HW127254   0.123   1.750  12.144  1.1612  0.1443 -1.7581
 5265SOL    HW227255   0.259   1.763  12.189 -1.2369  2.0658 -2.5824
 5266SOL     OW27256   3.140   3.133  11.676  0.4154  0.2230 -0.4605
 5266SOL    HW127257   3.093   3.123  11.593 -0.6151 -0.6010  0.2230
 5266SOL    HW227258   3.230   3.102  11.669  0.8641  0.9439  2.1413
 5267SOL     OW27259   3.135   2.987   8.259 -0.3201  0.5615  0.0669
 5267SOL    HW127260   3.065   2.933   8.294  0.1241 -0.2334 -0.2722
 5267SOL    HW227261   3.177   3.003   8.344  1.6247  0.3464 -0.8517
 5268SOL     OW27262   1.942   1.339   5.097  0.6060 -0.4478 -0.0242
 5268SOL    HW127263   1.939   1.396   5.174  0.5723 -1.6171  0.8395
 5268SOL    HW227264   1.934   1.255   5.143  0.7015 -0.1480  0.5378
 5269SOL     OW27265   0.840   3.992   8.877  0.1565  0.3906  0.0123
 5269SOL    HW127266   0.761   3.953   8.913  0.1157  1.0910  0.6872
 5269SOL    HW227267   0.833   4.083   8.907  0.8539  0.1266  1.0097
 5270SOL     OW27268   2.057   3.690   7.176 -0.3962 -0.0956 -0.2085
 5270SOL    HW127269   1.965   3.664   7.170 -0.3691  0.4090 -2.6256
 5270SOL    HW227270   2.055   3.738   7.259 -0.5944 -1.9950  0.9132
 5271SOL     OW27271   2.847   4.607  16.182  0.0971 -0.4425 -0.5751
 5271SOL    HW127272   2.874   4.600  16.090  1.4949  0.0965 -0.2145
 5271SOL    HW227273   2.835   4.702  16.178  0.2683 -0.4526 -1.3420
 5272SOL     OW27274   2.363   0.732   8.406 -0.3925 -0.1873  0.3840
 5272SOL    HW127275   2.444   0.682   8.403  0.2961  0.9377 -0.0769
 5272SOL    HW227276   2.353   0.750   8.313  1.7658  2.0459  0.5972
 5273SOL     OW27277   0.434   2.026   6.020 -0.1289 -0.4518 -0.3572
 5273SOL    HW127278   0.472   2.114   6.020  0.7753 -0.8546 -0.8360
 5273SOL    HW227279   0.507   1.969   6.043  0.4566  1.4516  2.5070
 5274SOL     OW27280   0.697   3.846  16.046  0.4331 -0.3494  0.1652
 5274SOL    HW127281   0.703   3.875  15.955  1.8134  1.4500  0.8226
 5274SOL    HW227282   0.605   3.820  16.049  0.3139 -0.1728 -2.1679
 5275SOL     OW27283   1.931   1.076  13.874  0.3119  0.6814 -0.1186
 5275SOL    HW127284   1.842   1.105  13.893  0.3713  0.5545  0.3606
 5275SOL    HW227285   1.982   1.157  13.882  0.6702  0.5398 -1.1082
 5276SOL     OW27286   2.513   4.041   2.582 -0.0123 -0.0760  0.1579
 5276SOL    HW127287   2.460   3.973   2.625  2.1027 -2.5643 -1.1678
 5276SOL    HW227288   2.578   3.990   2.533 -1.0532 -1.1826 -0.0715
 5277SOL     OW27289   1.618   0.044   8.485  0.1477 -0.1312  0.1543
 5277SOL    HW127290   1.708   0.014   8.479  0.2729  0.4650 -0.9479
 5277SOL    HW227291   1.591   0.019   8.397 -0.0832 -0.1955  0.2422
 5278SOL     OW27292   1.428   2.341   6.649  0.7426 -0.6369  0.0914
 5278SOL    HW127293   1.373   2.339   6.727 -1.8330 -0.4416 -1.7285
 5278SOL    HW227294   1.484   2.417   6.666  1.3489 -0.9462 -0.5376
 5279SOL     OW27295   0.066   1.717   5.944 -0.0815 -0.3559  0.2561
 5279SOL    HW127296   0.073   1.712   6.039 -1.6709 -1.2987  0.3124
 5279SOL    HW227297   0.087   1.810   5.932 -2.3319  0.0199 -0.7037
 5280SOL     OW27298   3.004   3.710  11.114 -0.7919  0.2508 -0.0318
 5280SOL    HW127299   3.002   3.644  11.045  2.5106  1.8323 -1.6452
 5280SOL    HW227300   2.973   3.789  11.069 -1.5239  0.1132  0.2377
 5281SOL     OW27301   0.956   4.539   5.569 -0.0197  0.3457 -1.2350
 5281SOL    HW127302   0.931   4.570   5.481  0.2496  4.5652  0.1860
 5281SOL    HW227303   1.044   4.508   5.546  0.1739 -1.8700  2.6860
 5282SOL     OW27304   0.321   4.468   6.734 -0.4157 -0.0583 -0.5561
 5282SOL    HW127305   0.333   4.475   6.829  1.6159 -3.1258 -0.5820
 5282SOL    HW227306   0.301   4.559   6.716 -0.9798  0.4094  2.3127
 5283SOL     OW27307   4.250   4.540   7.211 -0.0823  0.2077 -0.3641
 5283SOL    HW127308   4.178   4.486   7.243  0.8146 -1.5794 -1.3517
 5283SOL    HW227309   4.310   4.537   7.285 -0.3834  3.8214  0.0081
 5284SOL     OW27310   3.558   2.509   4.339 -0.0885 -0.1183 -0.3989
 5284SOL    HW127311   3.551   2.414   4.333 -0.5449  0.0056 -1.8207
 5284SOL    HW227312   3.491   2.547   4.282 -1.1466 -1.2523  0.1075
 5285SOL     OW27313   0.435   3.016   6.743 -0.1409 -0.0234  0.3937
 5285SOL    HW127314   0.505   2.966   6.700 -0.5426  1.1917 -1.6302
 5285SOL    HW227315   0.451   3.011   6.838  1.9543  0.7838  0.0896
 5286SOL     OW27316   3.122   3.916   1.584 -0.5770  0.3303 -0.6715
 5286SOL    HW127317   3.094   3.957   1.666  0.2972  1.3273 -0.8656
 5286SOL    HW227318   3.035   3.899   1.549 -0.4801  1.6473 -1.5364
 5287SOL     OW27319   1.781   1.783  13.481  0.6464  0.0066 -0.5714
 5287SOL    HW127320   1.748   1.700  13.517 -1.6059  1.3091  0.4072
 5287SOL    HW227321   1.768   1.767  13.388 -0.7647  0.9566 -0.5393
 5288SOL     OW27322   0.843   1.250   6.473  0.0248  0.4236  0.5450
 5288SOL    HW127323   0.832   1.235   6.567  1.8358  0.6520  0.7990
 5288SOL    HW227324   0.901   1.326   6.483  0.5904  0.1009 -0.2239
 5289SOL     OW27325   4.555   3.832   8.296 -0.3035 -0.0840  0.5934
 5289SOL    HW127326   4.635   3.836   8.348 -0.3508  0.4862  0.6241
 5289SOL    HW227327   4.490   3.846   8.365 -0.9288 -1.8854  0.3628
 5290SOL     OW27328   0.204   3.272   3.147 -0.1269  0.6882  0.1274
 5290SOL    HW127329   0.155   3.294   3.068 -1.3056 -1.7641  0.1766
 5290SOL    HW227330   0.161   3.311   3.223  0.0862  0.5987  0.2932
 5291SOL     OW27331   1.014   3.780  11.941  0.0944 -0.0431  0.2402
 5291SOL    HW127332   1.109   3.781  11.938 -0.0110  0.5451 -2.1307
 5291SOL    HW227333   0.991   3.813  12.029  1.4897 -0.1137  0.6212
 5292SOL     OW27334   0.168   0.108   1.082 -0.3064 -0.2208  0.4450
 5292SOL    HW127335   0.145   0.027   1.127  1.6412 -0.1306  1.5863
 5292SOL    HW227336   0.211   0.070   1.005 -1.0480  1.5813 -0.8743
 5293SOL     OW27337   0.453   0.562   2.333  0.2840 -0.3170  0.2416
 5293SOL    HW127338   0.525   0.591   2.277 -0.0782  1.0060  0.4680
 5293SOL    HW227339   0.453   0.625   2.405  1.4682 -0.4465  0.3526
 5294SOL     OW27340   1.655   3.948   2.777 -0.0151 -0.1176 -0.0827
 5294SOL    HW127341   1.664   3.870   2.833  0.5505  0.5361  0.7277
 5294SOL    HW227342   1.661   4.022   2.836 -0.7489 -0.0091 -0.1383
 5295SOL     OW27343   3.314   4.371  11.479  0.2892 -0.2093 -0.6712
 5295SOL    HW127344   3.236   4.394  11.427 -0.3045 -3.4461 -1.2039
 5295SOL    HW227345   3.327   4.277  11.465  1.3136 -0.1410 -0.1274
 5296SOL     OW27346   0.098   1.302  16.081  0.3447 -0.6041 -0.2372
 5296SOL    HW127347   0.143   1.235  16.131 -0.1029 -0.3359  0.5245
 5296SOL    HW227348   0.050   1.339  16.155 -0.1367 -2.4586  0.3857
 5297SOL     OW27349   1.653   4.507   6.120  0.2576  0.0757  0.2694
 5297SOL    HW127350   1.685   4.524   6.031 -0.1450  0.0181  0.1133
 5297SOL    HW227351   1.561   4.493   6.098 -0.0873  1.4035  0.8781
 5298SOL     OW27352   3.560   3.715   8.485  0.2876 -0.4505  0.2256
 5298SOL    HW127353   3.519   3.705   8.399  1.1768 -3.7287  0.1797
 5298SOL    HW227354   3.613   3.795   8.480  0.8374 -0.7541  1.1880
 5299SOL     OW27355   3.244   2.650   4.396  0.1701  0.5564 -0.3431
 5299SOL    HW127356   3.273   2.681   4.310  0.5845  1.2114  0.0291
 5299SOL    HW227357   3.263   2.730   4.445  2.0308 -0.7017  0.9790
 5300SOL     OW27358   1.594   2.586   6.220 -0.3486 -0.3089  0.1669
 5300SOL    HW127359   1.662   2.533   6.261 -1.6255 -1.0935  1.2875
 5300SOL    HW227360   1.636   2.607   6.137  1.4613 -1.6542  0.7543
 5301SOL     OW27361   3.668   3.219   8.557  0.0092  0.4417 -0.0948
 5301SOL    HW127362   3.623   3.246   8.637 -1.1557  0.0628 -0.6291
 5301SOL    HW227363   3.746   3.177   8.593 -1.5825 -1.9053  0.6279
 5302SOL     OW27364   1.337   1.429   6.367 -0.0292 -0.0463 -0.1259
 5302SOL    HW127365   1.425   1.424   6.331  1.3014  1.8064  2.8627
 5302SOL    HW227366   1.353   1.414   6.460  0.7724 -0.0825 -0.2755
 5303SOL     OW27367   4.084   2.483  16.074  0.4242 -0.4827 -0.4248
 5303SOL    HW127368   4.133   2.433  16.009  1.9185  1.5989 -0.8952
 5303SOL    HW227369   4.153   2.517  16.131 -0.2547  0.6872 -0.2986
 5304SOL     OW27370   3.269   2.491   2.380  0.1719  0.1527  0.3100
 5304SOL    HW127371   3.201   2.557   2.386  1.8700  1.9737 -0.5843
 5304SOL    HW227372   3.233   2.429   2.316 -0.0056 -0.4231  0.9740
 5305SOL     OW27373   2.562   1.118   8.158 -0.3218  0.3004 -0.1983
 5305SOL    HW127374   2.523   1.187   8.211 -0.1758 -1.2342  1.9087
 5305SOL    HW227375   2.595   1.055   8.221  1.2900  0.4538 -0.8934
 5306SOL     OW27376   4.646   2.426   5.547 -0.6493 -0.4227  0.6731
 5306SOL    HW127377   4.690   2.365   5.488  1.6689  2.1730 -0.2645
 5306SOL    HW227378   4.619   2.497   5.488  0.7445 -0.2382  0.2759
 5307SOL     OW27379   4.413   0.519   1.943  0.5504  0.6972 -0.6446
 5307SOL    HW127380   4.374   0.453   1.886  0.4653  2.0740 -2.1984
 5307SOL    HW227381   4.502   0.519   1.906  0.8120  1.0930 -0.0152
 5308SOL     OW27382   3.440   4.563   5.121 -0.1509 -0.0550 -0.0809
 5308SOL    HW127383   3.441   4.471   5.144 -1.0109 -0.1633 -0.4674
 5308SOL    HW227384   3.481   4.602   5.198  0.6235 -1.3062  0.1224
 5309SOL     OW27385   4.635   1.569  16.539 -0.1217 -0.5376 -0.1900
 5309SOL    HW127386   4.623   1.500  16.604  1.8027 -0.5298  0.2012
 5309SOL    HW227387   4.688   1.625  16.596  0.4889 -2.1742  0.8591
 5310SOL     OW27388   0.499   3.026   5.619  0.4478  0.0889  0.6453
 5310SOL    HW127389   0.468   2.971   5.691 -2.7338  1.0566  0.0134
 5310SOL    HW227390   0.550   3.098   5.659 -1.1315  1.5271  0.0652
 5311SOL     OW27391   0.140   1.010   4.132  0.0568  0.3868 -0.0992
 5311SOL    HW127392   0.155   1.085   4.189 -0.2586  1.1830 -1.0734
 5311SOL    HW227393   0.225   0.966   4.143  0.3110  0.5624 -1.4506
 5312SOL     OW27394   1.861   1.053   5.948 -0.2456 -0.1915 -0.1461
 5312SOL    HW127395   1.942   1.076   5.904  0.7714 -1.0985  1.2444
 5312SOL    HW227396   1.872   1.111   6.024  0.3769  1.2395 -1.3249
 5313SOL     OW27397   3.166   2.068  14.348 -0.0301 -0.1543  0.2243
 5313SOL    HW127398   3.207   2.145  14.386  1.9503 -1.4040  0.6122
 5313SOL    HW227399   3.089   2.052  14.402  0.7450 -0.1858  1.3004
 5314SOL     OW27400   4.634   2.830   5.790  0.2193  0.0463 -0.3940
 5314SOL    HW127401   4.718   2.786   5.780  0.7246  1.2462 -1.4816
 5314SOL    HW227402   4.633   2.858   5.881 -0.2359 -0.4419 -0.2516
 5315SOL     OW27403   2.805   1.333   3.689 -0.0419  0.1794  0.0359
 5315SOL    HW127404   2.734   1.270   3.673  1.4838 -0.9107 -2.6229
 5315SOL    HW227405   2.873   1.270   3.712  0.1543  0.6342  0.6715
 5316SOL     OW27406   3.911   1.124   6.014 -0.4323 -0.6095 -0.0035
 5316SOL    HW127407   3.842   1.119   6.080  0.3683 -2.8933  0.6697
 5316SOL    HW227408   3.985   1.098   6.069 -0.2310  1.7291  0.8481
 5317SOL     OW27409   2.278   2.401   9.085 -0.0744 -0.0502 -0.4241
 5317SOL    HW127410   2.269   2.466   9.016  1.2183 -1.0529 -1.5222
 5317SOL    HW227411   2.299   2.324   9.031  1.1272  0.4004 -0.5809
 5318SOL     OW27412   4.047   1.513  11.030 -0.6621 -0.6078 -0.3011
 5318SOL    HW127413   4.008   1.587  10.985  0.0805 -1.4466 -2.3335
 5318SOL    HW227414   4.111   1.477  10.968  1.1542 -2.1571  2.4553
 5319SOL     OW27415   1.918   2.172  10.598  0.3500  1.0947  0.5980
 5319SOL    HW127416   1.986   2.231  10.568 -1.2169  2.4399 -0.3145
 5319SOL    HW227417   1.869   2.225  10.661 -0.9471 -2.4076  2.5643
 5320SOL     OW27418   3.382   2.700  14.273  0.1028  0.2909  0.1619
 5320SOL    HW127419   3.471   2.666  14.258  0.6619  1.8947 -0.1789
 5320SOL    HW227420   3.325   2.626  14.254  3.0478 -2.4136  2.0439
 5321SOL     OW27421   0.290   3.480   9.964  0.1728  0.4284  0.3705
 5321SOL    HW127422   0.222   3.421   9.931  0.0908  0.9073 -0.3285
 5321SOL    HW227423   0.258   3.481  10.054 -1.2786 -0.9046 -0.1240
 5322SOL     OW27424   0.558   0.465   5.946 -0.1136 -0.6643 -0.2328
 5322SOL    HW127425   0.650   0.487   5.937  0.0993 -1.6890 -0.4783
 5322SOL    HW227426   0.533   0.531   6.011 -0.7641 -2.6113  1.4907
 5323SOL     OW27427   2.197   1.624  12.330 -0.4412 -0.2464  0.1072
 5323SOL    HW127428   2.216   1.547  12.384 -3.9497  0.4573  2.3091
 5323SOL    HW227429   2.180   1.578  12.248  4.3444  0.8967 -1.5633
 5324SOL     OW27430   0.418   3.065   7.023  0.0241 -0.1292  0.1866
 5324SOL    HW127431   0.465   3.080   7.105  1.4088  1.4374 -0.9067
 5324SOL    HW227432   0.331   3.034   7.049  0.4953 -1.4576  0.2089
 5325SOL     OW27433   0.230   2.224   8.999  0.3065 -0.2430  0.0949
 5325SOL    HW127434   0.210   2.203   8.907 -0.3357 -1.2699  0.4713
 5325SOL    HW227435   0.187   2.309   9.002  0.9614  0.0075  2.0170
 5326SOL     OW27436   2.075   1.106  16.968 -1.0525 -0.1675  0.0201
 5326SOL    HW127437   2.006   1.150  17.018 -0.3775 -0.6956  1.4197
 5326SOL    HW227438   2.133   1.082  17.040  1.5410 -0.6243 -2.2359
 5327SOL     OW27439   1.902   1.318  11.833  0.1195  0.6558  0.0966
 5327SOL    HW127440   1.965   1.379  11.871  1.3155 -1.2589  1.2074
 5327SOL    HW227441   1.825   1.320  11.889 -0.1797  0.5662 -0.3152
 5328SOL     OW27442   4.141   3.999   5.390 -0.1010  0.2527  0.2703
 5328SOL    HW127443   4.114   4.017   5.300  0.5695  2.0704  0.4393
 5328SOL    HW227444   4.183   4.081   5.414 -0.0547 -0.8565  3.9987
 5329SOL     OW27445   3.570   1.751   3.746 -0.0716 -0.1116  0.2145
 5329SOL    HW127446   3.631   1.822   3.725  0.8890 -1.6847 -2.2321
 5329SOL    HW227447   3.580   1.700   3.666 -0.6067 -0.5021  0.3989
 5330SOL     OW27448   1.330   1.003   7.215 -0.3926  0.1212 -0.5104
 5330SOL    HW127449   1.363   0.989   7.304 -0.2813 -0.6781 -0.6800
 5330SOL    HW227450   1.238   1.027   7.225 -0.2392  0.9669 -1.1301
 5331SOL     OW27451   1.999   3.816   6.719  0.5339 -0.6498 -0.1980
 5331SOL    HW127452   2.056   3.805   6.644  0.4510 -0.8467 -0.2336
 5331SOL    HW227453   1.912   3.824   6.679  0.7730 -3.5915 -1.2933
 5332SOL     OW27454   3.887   4.608   1.022 -0.3024 -0.1396  0.0022
 5332SOL    HW127455   3.819   4.629   1.086 -0.0952 -0.0401  0.1894
 5332SOL    HW227456   3.929   4.693   1.012 -0.7530  0.0335 -0.4275
 5333SOL     OW27457   0.177   3.073   7.704 -0.0605 -0.4950  0.1299
 5333SOL    HW127458   0.270   3.051   7.704  0.1967  0.6026  1.1321
 5333SOL    HW227459   0.164   3.109   7.791 -0.6382  1.0381 -0.6096
 5334SOL     OW27460   3.942   3.973   0.966  0.0025  0.2002  0.2742
 5334SOL    HW127461   3.972   4.051   0.919  0.7443  0.3509  0.9983
 5334SOL    HW227462   4.026   3.941   1.001  0.1337 -1.2060 -1.3009
 5335SOL     OW27463   1.514   3.344   4.942 -0.1385 -0.6537 -0.5896
 5335SOL    HW127464   1.586   3.402   4.915 -1.1370  0.0764 -1.6605
 5335SOL    HW227465   1.567   3.264   4.938 -2.4302 -2.1556 -0.5563
 5336SOL     OW27466   4.699   1.735   4.076  0.1969  0.0323  0.0880
 5336SOL    HW127467   0.032   1.767   4.144  0.1204  1.4065 -0.4909
 5336SOL    HW227468   4.655   1.673   4.134  0.4713  0.4735  0.7661
 5337SOL     OW27469   4.085   4.448   9.399 -0.0291  0.1959  0.6804
 5337SOL    HW127470   4.116   4.359   9.388  0.1364  0.2102  1.0173
 5337SOL    HW227471   4.129   4.486   9.323 -2.4380 -2.1857 -1.9277
 5338SOL     OW27472   4.008   3.783   6.677  0.0506 -0.0424  0.7022
 5338SOL    HW127473   3.990   3.875   6.658  0.9198 -0.3605 -1.6490
 5338SOL    HW227474   4.097   3.777   6.645  0.5193  1.1029  1.7941
 5339SOL     OW27475   0.600   0.410   5.569  0.7896  0.2936 -0.1057
 5339SOL    HW127476   0.677   0.467   5.571  2.0404 -1.3148 -1.8614
 5339SOL    HW227477   0.636   0.340   5.514  0.3965 -0.6355  0.8132
 5340SOL     OW27478   4.538   1.290   2.170  0.6801  0.1634 -0.1915
 5340SOL    HW127479   4.575   1.205   2.196 -0.7507 -0.0113  1.2848
 5340SOL    HW227480   4.604   1.333   2.116 -0.7106  3.6340  0.9013
 5341SOL     OW27481   0.722   3.009   5.023  0.0955  0.0678 -0.5902
 5341SOL    HW127482   0.813   2.979   5.023  0.3773  0.9157 -1.9185
 5341SOL    HW227483   0.694   2.985   4.935  0.9996  1.8563 -1.3552
 5342SOL     OW27484   2.472   3.317   2.692 -0.1803 -0.3930  0.3623
 5342SOL    HW127485   2.513   3.302   2.777  0.0611  0.0048  0.3159
 5342SOL    HW227486   2.433   3.232   2.674  0.7998 -1.0529  1.3517
 5343SOL     OW27487   3.990   1.178   7.838  0.1518  0.0483 -0.4661
 5343SOL    HW127488   3.997   1.151   7.929 -2.3808 -0.2119 -0.3278
 5343SOL    HW227489   3.908   1.226   7.847 -0.0402 -0.5834  1.0986
 5344SOL     OW27490   4.259   2.134   2.144  0.2526  0.1104 -0.4516
 5344SOL    HW127491   4.263   2.039   2.134  1.1346  0.0040  0.9232
 5344SOL    HW227492   4.322   2.151   2.214 -2.2479  0.9911  1.5976
 5345SOL     OW27493   1.791   2.056   5.640  0.3620 -0.8244  0.2133
 5345SOL    HW127494   1.857   2.078   5.706  1.6210 -2.5418 -0.4951
 5345SOL    HW227495   1.740   1.989   5.685  1.3642 -1.4658  0.3829
 5346SOL     OW27496   3.876   1.463   4.912 -0.7150 -0.6502  0.1810
 5346SOL    HW127497   3.928   1.519   4.970 -0.9508  1.1310 -1.3338
 5346SOL    HW227498   3.896   1.376   4.949 -2.3661  0.4209  3.6311
 5347SOL     OW27499   0.746   2.416  16.545 -0.3023  0.6125 -0.7795
 5347SOL    HW127500   0.703   2.379  16.622  2.6374  0.4813  0.8197
 5347SOL    HW227501   0.742   2.346  16.481  0.5248  1.1708 -1.4465
 5348SOL     OW27502   2.464   0.354  12.068 -1.1926  0.5642 -0.1852
 5348SOL    HW127503   2.492   0.352  11.977  1.4081 -1.1332  0.6499
 5348SOL    HW227504   2.506   0.426  12.114 -0.7553 -0.3565  0.8835
 5349SOL     OW27505   0.852   3.366   9.132  0.6808 -0.4896  0.1774
 5349SOL    HW127506   0.931   3.359   9.079  0.1903 -0.6996 -0.5370
 5349SOL    HW227507   0.797   3.297   9.095 -1.2696  2.5941 -2.6660
 5350SOL     OW27508   2.025   3.901   4.415 -0.0299  0.5884 -0.1655
 5350SOL    HW127509   2.065   3.815   4.404  0.1742  0.7957 -1.0573
 5350SOL    HW227510   1.988   3.894   4.503  0.3565 -1.4179 -0.1729
 5351SOL     OW27511   1.828   2.065  13.467  0.1930 -0.7820  0.1607
 5351SOL    HW127512   1.889   2.040  13.397 -1.1008  0.8061 -1.5686
 5351SOL    HW227513   1.789   1.980  13.488 -3.6655  0.7798 -0.6183
 5352SOL     OW27514   0.392   2.732   6.077 -0.5322 -0.7214 -0.0545
 5352SOL    HW127515   0.360   2.703   6.162 -0.9248  1.6745  0.6249
 5352SOL    HW227516   0.431   2.651   6.044 -0.4887 -1.0821  0.8845
 5353SOL     OW27517   3.117   3.759   2.708 -0.1720 -0.1242  0.3125
 5353SOL    HW127518   3.074   3.736   2.626  0.1034  0.6486 -0.0459
 5353SOL    HW227519   3.121   3.854   2.704 -2.8686 -0.0405 -0.2476
 5354SOL     OW27520   3.072   0.666   2.511  0.3708  0.0166 -0.5745
 5354SOL    HW127521   3.022   0.608   2.455 -2.5154  1.1622  0.8300
 5354SOL    HW227522   3.157   0.624   2.526  0.0053 -0.1598  0.9622
 5355SOL     OW27523   2.381   4.321   0.413  0.8467  0.1085  0.5366
 5355SOL    HW127524   2.295   4.302   0.451  0.8999  0.9133  1.0531
 5355SOL    HW227525   2.353   4.405   0.376 -0.6288 -0.7472 -0.2970
 5356SOL     OW27526   2.390   4.331   5.786  0.4739  0.6511  0.1054
 5356SOL    HW127527   2.420   4.256   5.734 -3.7563 -3.3187  3.3299
 5356SOL    HW227528   2.313   4.360   5.737  0.9455  0.5231 -0.7104
 5357SOL     OW27529   0.247   1.248   1.892 -0.0965  0.2066  0.4083
 5357SOL    HW127530   0.330   1.254   1.844  1.1059 -0.4237  2.4292
 5357SOL    HW227531   0.271   1.206   1.975  2.4727  0.0637 -0.4107
 5358SOL     OW27532   2.202   3.381   4.936 -0.1470 -0.8637 -0.1695
 5358SOL    HW127533   2.197   3.286   4.931  1.8593 -0.8987 -1.4993
 5358SOL    HW227534   2.114   3.396   4.972 -0.0582 -1.2039  0.1862
 5359SOL     OW27535   1.470   0.901   2.211  0.2321 -0.2315 -0.3954
 5359SOL    HW127536   1.427   0.827   2.168  1.5478 -1.0125 -0.3900
 5359SOL    HW227537   1.458   0.876   2.303  2.4177  1.5114  0.3764
 5360SOL     OW27538   2.830   3.855  12.793 -0.1011 -0.5920 -0.6048
 5360SOL    HW127539   2.863   3.814  12.873  0.5502  1.3149  0.0791
 5360SOL    HW227540   2.772   3.788  12.755 -0.2057 -1.0820  0.4079
 5361SOL     OW27541   3.823   1.575   1.569  0.0982  0.0478  0.3050
 5361SOL    HW127542   3.855   1.621   1.492  1.8981  2.5634  2.5497
 5361SOL    HW227543   3.776   1.641   1.620 -1.7291 -0.0080 -1.3125
 5362SOL     OW27544   4.644   0.660   1.163 -0.4125  0.7143  0.1574
 5362SOL    HW127545   4.722   0.656   1.108  0.4925  1.0025  1.4268
 5362SOL    HW227546   4.601   0.742   1.138  0.8819  0.0021 -4.2805
 5363SOL     OW27547   0.335   4.442  11.740 -0.2906 -0.0623  0.4405
 5363SOL    HW127548   0.369   4.529  11.762  0.7293 -0.2117 -0.5273
 5363SOL    HW227549   0.412   4.401  11.700 -0.8648 -1.7768  1.0903
 5364SOL     OW27550   4.014   4.298   4.394  0.6128  0.2159 -0.6460
 5364SOL    HW127551   4.039   4.351   4.318  1.2092  0.8993  0.0217
 5364SOL    HW227552   4.087   4.320   4.451 -1.8832  2.3181  1.7473
 5365SOL     OW27553   3.231   2.241  15.928 -0.1882 -0.1004 -0.4258
 5365SOL    HW127554   3.293   2.245  16.001 -0.1737 -0.1460 -0.4357
 5365SOL    HW227555   3.281   2.299  15.871 -0.0654  0.3712  0.1532
 5366SOL     OW27556   4.036   3.667   2.856  0.3866 -0.2540  0.3018
 5366SOL    HW127557   4.085   3.699   2.931 -1.5449 -0.9009  1.8395
 5366SOL    HW227558   4.030   3.571   2.857 -1.2050 -0.1606 -0.1723
 5367SOL     OW27559   3.549   4.682   9.062 -0.4244 -0.2762 -0.0086
 5367SOL    HW127560   3.583   0.038   9.096 -0.7955 -0.6775  1.3368
 5367SOL    HW227561   3.597   4.633   9.129  0.2851 -1.9861 -1.7672
 5368SOL     OW27562   1.143   3.338   7.642  0.1188  0.1575  0.5778
 5368SOL    HW127563   1.105   3.288   7.715  1.1921 -0.2050  0.8923
 5368SOL    HW227564   1.232   3.307   7.628  0.4014  0.8759  0.7822
 5369SOL     OW27565   2.904   3.896   3.649 -0.2044  0.3791 -0.2214
 5369SOL    HW127566   2.902   3.908   3.744  0.0453 -0.3128 -0.1248
 5369SOL    HW227567   2.943   3.977   3.617  1.2671  0.9606  2.9522
 5370SOL     OW27568   1.305   2.628  14.321  0.0924  0.0469  0.9536
 5370SOL    HW127569   1.224   2.578  14.333  0.2014 -0.6626 -1.2105
 5370SOL    HW227570   1.370   2.560  14.334 -0.9352 -0.3978  3.7446
 5371SOL     OW27571   4.003   1.822   3.918  0.5944 -0.1317  0.2906
 5371SOL    HW127572   4.030   1.746   3.969  0.4359 -0.2136  0.2547
 5371SOL    HW227573   3.977   1.780   3.836 -0.3395  0.3164  0.3543
 5372SOL     OW27574   3.314   1.958   3.097  0.3293  0.3175  0.3295
 5372SOL    HW127575   3.294   1.952   3.004  0.3970  0.7257  0.2892
 5372SOL    HW227576   3.295   1.871   3.133  1.4278  1.0031  2.6065
 5373SOL     OW27577   4.603   2.106   5.483 -0.5397 -0.0770 -0.6120
 5373SOL    HW127578   4.676   2.100   5.545 -0.8433  3.6821  0.1563
 5373SOL    HW227579   4.636   2.144   5.401  0.9092  0.2993  0.1491
 5374SOL     OW27580   2.947   1.701  10.199  0.4192 -0.2854 -0.1728
 5374SOL    HW127581   2.958   1.732  10.289  4.7782  0.1483 -0.8689
 5374SOL    HW227582   2.973   1.609  10.211 -0.0404 -0.3019  0.7186
 5375SOL     OW27583   3.438   4.243   3.506  0.3075 -0.6060 -0.1963
 5375SOL    HW127584   3.452   4.294   3.426 -2.1284 -1.2045 -0.9818
 5375SOL    HW227585   3.359   4.280   3.544  0.6423  0.0493 -0.1362
 5376SOL     OW27586   0.747   1.890   8.043 -0.6883  0.0632 -0.2033
 5376SOL    HW127587   0.808   1.878   7.970 -0.0915  0.6049  0.2017
 5376SOL    HW227588   0.689   1.816   8.025 -2.2030  1.3648 -0.5808
 5377SOL     OW27589   4.169   4.208  12.446  0.0391  0.0711  0.2300
 5377SOL    HW127590   4.233   4.164  12.502  1.4108 -0.3261 -1.6712
 5377SOL    HW227591   4.199   4.299  12.439  0.7595 -0.2507 -0.7331
 5378SOL     OW27592   1.983   3.336  11.108  0.3871 -0.3231  0.1562
 5378SOL    HW127593   1.919   3.270  11.080  0.5428 -1.0238  1.4272
 5378SOL    HW227594   1.934   3.416  11.089 -1.4064 -1.1924  1.0041
 5379SOL     OW27595   4.069   2.853  16.880 -0.0182  0.0708 -0.0415
 5379SOL    HW127596   4.084   2.789  16.951  0.0425  0.7781  0.5854
 5379SOL    HW227597   4.036   2.931  16.925 -2.3234 -0.8675 -0.0936
 5380SOL     OW27598   1.518   3.237   1.227 -0.5592 -0.2415 -0.1389
 5380SOL    HW127599   1.424   3.227   1.214 -0.7569 -0.1725  1.2576
 5380SOL    HW227600   1.547   3.273   1.143 -2.6937  1.5055 -0.1205
 5381SOL     OW27601   4.512   3.581  16.058 -0.5981  0.2453  0.6843
 5381SOL    HW127602   4.553   3.665  16.042  1.3023 -1.1344 -1.7142
 5381SOL    HW227603   4.428   3.609  16.092 -1.4788 -1.0853 -0.3887
 5382SOL     OW27604   4.671   1.177   7.516 -0.3709 -0.2394 -0.3896
 5382SOL    HW127605   0.039   1.183   7.535 -0.4088  1.9729 -0.9064
 5382SOL    HW227606   4.655   1.201   7.607  0.0575 -1.5244  0.0175
 5383SOL     OW27607   1.831   4.522   8.898 -0.4073 -0.3211 -0.2153
 5383SOL    HW127608   1.856   4.532   8.990  1.6117 -0.5412 -0.7370
 5383SOL    HW227609   1.767   4.452   8.911 -0.9111  0.1157 -0.3592
 5384SOL     OW27610   3.735   1.729  12.194  0.6388 -0.2063 -0.1432
 5384SOL    HW127611   3.785   1.695  12.269 -0.4642  0.8602  1.0876
 5384SOL    HW227612   3.777   1.669  12.133  0.3030 -0.5956  0.0025
 5385SOL     OW27613   0.653   3.596   1.182  0.5956 -0.3156 -0.5838
 5385SOL    HW127614   0.646   3.666   1.248 -0.3508 -0.6410 -0.3290
 5385SOL    HW227615   0.588   3.625   1.118 -0.1247  0.5151  0.5076
 5386SOL     OW27616   1.461   4.353   1.884  0.3481 -0.2361  0.1058
 5386SOL    HW127617   1.444   4.430   1.938  1.1399 -0.2175  0.3364
 5386SOL    HW227618   1.374   4.319   1.864  0.4865 -1.0919  0.9036
 5387SOL     OW27619   3.718   0.374   7.138  0.0839 -0.6418  0.9776
 5387SOL    HW127620   3.723   0.362   7.233  1.0489 -1.4194  0.8315
 5387SOL    HW227621   3.735   0.286   7.103 -0.1978 -0.2495 -0.1500
 5388SOL     OW27622   3.141   3.421   2.439 -0.4515  0.2467  0.0651
 5388SOL    HW127623   3.080   3.367   2.389  1.7861 -0.8310 -1.4995
 5388SOL    HW227624   3.122   3.509   2.407 -2.4139 -0.0244  0.5286
 5389SOL     OW27625   0.217   2.440   1.658  0.2529 -0.1038  0.1971
 5389SOL    HW127626   0.309   2.444   1.633 -0.2948  3.4365 -1.2827
 5389SOL    HW227627   0.205   2.345   1.660 -1.7923  0.1230 -0.5136
 5390SOL     OW27628   1.106   0.308   6.676  0.1627 -0.0047  0.3822
 5390SOL    HW127629   1.184   0.257   6.695 -0.5705 -1.5752 -0.8511
 5390SOL    HW227630   1.123   0.387   6.728  0.3543  1.8799 -2.5527
 5391SOL     OW27631   3.393   1.598  17.558 -0.0579  0.6613 -0.5659
 5391SOL    HW127632   3.477   1.560  17.531  0.5411  0.9565  0.8622
 5391SOL    HW227633   3.405   1.692  17.572  0.9259  0.4328  0.1832
 5392SOL     OW27634   3.159   3.262   2.113 -0.0183  0.2182  1.1738
 5392SOL    HW127635   3.164   3.352   2.145  1.8921  1.2383 -2.0036
 5392SOL    HW227636   3.248   3.253   2.080 -0.1860 -2.0706  1.3543
 5393SOL     OW27637   4.046   1.043   4.722  0.0814  0.4212  0.0817
 5393SOL    HW127638   4.042   1.020   4.815  0.7421  2.9340  0.7295
 5393SOL    HW227639   4.034   1.138   4.722  0.3118  0.4495 -0.0894
 5394SOL     OW27640   3.369   4.715  11.325  0.0878  0.5140 -0.2923
 5394SOL    HW127641   3.320   4.725  11.407  0.6466 -4.2875  0.6405
 5394SOL    HW227642   3.298   4.689  11.266 -0.3141 -1.2694  0.9897
 5395SOL     OW27643   1.459   1.965   4.081 -0.4376  0.2881 -0.2912
 5395SOL    HW127644   1.472   1.916   4.000 -0.7359  1.5032 -1.0684
 5395SOL    HW227645   1.485   2.057   4.068  1.4989 -0.5092 -2.0844
 5396SOL     OW27646   1.285   0.448   4.958  0.8024  0.5935 -0.1273
 5396SOL    HW127647   1.259   0.373   4.904 -0.6576  0.7626  0.3497
 5396SOL    HW227648   1.328   0.505   4.894 -2.2871 -0.3299 -3.0319
 5397SOL     OW27649   3.367   0.458   3.266 -0.4231 -0.2204  0.3054
 5397SOL    HW127650   3.391   0.468   3.174  1.6539 -0.7459  0.7890
 5397SOL    HW227651   3.442   0.498   3.310 -0.0598  0.5451 -1.0082
 5398SOL     OW27652   3.164   3.779   3.865  0.0137  0.0432 -0.7151
 5398SOL    HW127653   3.161   3.703   3.806  2.4261 -1.7546  1.4629
 5398SOL    HW227654   3.221   3.839   3.816 -0.2006  1.3528  0.6554
 5399SOL     OW27655   4.318   2.694   7.901 -0.0841  0.3182  0.6701
 5399SOL    HW127656   4.310   2.775   7.850 -0.8122  0.9521  1.7687
 5399SOL    HW227657   4.254   2.636   7.861 -1.5387  0.8225  2.2469
 5400SOL     OW27658   0.150   3.014   7.086 -0.0771  0.2331  1.0343
 5400SOL    HW127659   0.122   3.068   7.012  2.9779  1.6193  0.8997
 5400SOL    HW227660   0.104   3.060   7.157  1.2316 -0.0769  2.0718
 5401SOL     OW27661   3.384   2.333  15.706 -0.4032 -0.6629  0.6995
 5401SOL    HW127662   3.424   2.277  15.639  0.8421  0.9754  0.0824
 5401SOL    HW227663   3.322   2.388  15.659 -1.1107 -0.8447  1.4187
 5402SOL     OW27664   3.036   0.443   4.635  0.0923  0.4907  0.2319
 5402SOL    HW127665   3.116   0.496   4.643  0.2834  0.2941 -0.4229
 5402SOL    HW227666   3.058   0.355   4.666  0.6228  0.9690  1.2191
 5403SOL     OW27667   4.347   2.979   7.589 -0.0216  0.6704 -0.1313
 5403SOL    HW127668   4.412   3.006   7.653  1.4595 -0.8580 -0.9676
 5403SOL    HW227669   4.267   2.957   7.636  0.0094  0.8724  0.0108
 5404SOL     OW27670   3.476   3.457   2.217 -0.1713 -0.0646  0.2560
 5404SOL    HW127671   3.458   3.369   2.250 -0.6121 -0.6913 -1.6974
 5404SOL    HW227672   3.529   3.438   2.140  1.3153  1.3126  0.9236
 5405SOL     OW27673   0.007   0.515  15.690  0.3904 -0.3167  0.2268
 5405SOL    HW127674   0.023   0.457  15.616 -0.5913 -0.9976  0.5530
 5405SOL    HW227675   4.673   0.463  15.743  0.9434 -0.3272  0.8433
 5406SOL     OW27676   1.141   3.390   2.795  0.1961  0.1729  0.1625
 5406SOL    HW127677   1.132   3.415   2.703  1.6929  0.1352 -0.0020
 5406SOL    HW227678   1.096   3.306   2.799  0.1348  0.2003  0.0483
 5407SOL     OW27679   2.037   0.117   1.316  0.7429 -0.7614  0.3649
 5407SOL    HW127680   2.064   0.127   1.225  0.7458  0.7003  0.5353
 5407SOL    HW227681   2.030   0.021   1.320  2.9789 -0.9169  0.9187
 5408SOL     OW27682   1.330   1.627   5.943  0.5030  0.0379  0.5147
 5408SOL    HW127683   1.387   1.550   5.946 -0.7728 -0.9856 -1.2441
 5408SOL    HW227684   1.282   1.615   5.861  0.9190 -1.9457  0.5573
 5409SOL     OW27685   1.980   2.766  10.665 -0.2087  0.4687 -0.0072
 5409SOL    HW127686   1.939   2.768  10.578 -0.0618 -1.2489 -0.1135
 5409SOL    HW227687   2.061   2.719  10.650 -1.3812 -1.0676 -1.4877
 5410SOL     OW27688   1.347   3.402   8.112 -0.0446  0.3286  0.1711
 5410SOL    HW127689   1.426   3.354   8.087  0.4411  1.5849 -0.6603
 5410SOL    HW227690   1.289   3.331   8.084 -0.9312  1.1288  0.0074
 5411SOL     OW27691   4.526   3.446   1.676 -0.3042 -0.1435 -0.1807
 5411SOL    HW127692   4.481   3.376   1.724 -0.4980 -0.2193 -0.4707
 5411SOL    HW227693   4.455   3.503   1.645  0.6142  1.2659  0.3192
 5412SOL     OW27694   4.585   2.229   9.788 -0.3027  0.0856 -0.4509
 5412SOL    HW127695   4.499   2.258   9.817 -0.6669 -1.3665 -0.0969
 5412SOL    HW227696   4.639   2.287   9.842 -1.8838 -1.6318  2.9391
 5413SOL     OW27697   1.346   3.742   9.628 -0.0141  0.3773  0.4679
 5413SOL    HW127698   1.366   3.819   9.681 -0.3674  1.3773 -0.8228
 5413SOL    HW227699   1.302   3.772   9.548 -1.0552  1.9384  1.6284
 5414SOL     OW27700   1.698   4.321  14.320 -0.3709  0.2660 -0.4620
 5414SOL    HW127701   1.645   4.293  14.394 -1.9034  0.3487 -1.5301
 5414SOL    HW227702   1.646   4.294  14.244 -3.3496  2.0837  0.9157
 5415SOL     OW27703   4.067   4.245   4.686  0.3931 -0.0539 -0.6280
 5415SOL    HW127704   3.974   4.260   4.667 -0.2292 -4.2884 -0.9173
 5415SOL    HW227705   4.078   4.165   4.635 -0.5897  0.6381 -1.9208
 5416SOL     OW27706   0.127   4.014   2.029  0.2200 -0.1800 -0.1458
 5416SOL    HW127707   0.072   3.940   2.055  1.2200 -1.1958 -0.9700
 5416SOL    HW227708   0.050   4.071   2.020  1.6357  1.7629 -0.0101
 5417SOL     OW27709   4.057   0.250  11.394 -0.5024  0.1396 -0.5597
 5417SOL    HW127710   3.982   0.236  11.337 -1.7314 -0.7329  1.2660
 5417SOL    HW227711   4.040   0.187  11.464 -1.3253  1.1323  0.1408
 5418SOL     OW27712   0.044   0.004  16.311  0.2329  0.2795  0.0219
 5418SOL    HW127713   4.697   4.722  16.371  1.0036 -0.9959  0.7883
 5418SOL    HW227714   0.092   4.649  16.329 -0.4300 -0.5529 -1.8591
 5419SOL     OW27715   3.143   1.503   4.638  0.2258  0.6809  0.0759
 5419SOL    HW127716   3.104   1.463   4.560  2.7798  0.2551 -0.9988
 5419SOL    HW227717   3.094   1.470   4.713  1.2463 -0.3566  0.2846
 5420SOL     OW27718   0.556   1.001   6.211  0.0421 -0.1272 -0.1598
 5420SOL    HW127719   0.529   0.921   6.257  0.0638 -0.0427  0.0017
 5420SOL    HW227720   0.648   0.986   6.192 -0.3901  0.2986 -2.4941
 5421SOL     OW27721   1.143   0.507   8.327 -0.3707 -0.7468  0.3207
 5421SOL    HW127722   1.204   0.492   8.400 -1.0635  0.6646  1.1869
 5421SOL    HW227723   1.117   0.596   8.349  0.6513 -0.4657  0.4039
 5422SOL     OW27724   4.259   4.553   9.216 -0.3352 -0.4071 -0.3718
 5422SOL    HW127725   4.344   4.518   9.188  0.9743  1.9405  0.6295
 5422SOL    HW227726   4.276   4.646   9.233 -4.5813 -0.2616  3.1302
 5423SOL     OW27727   4.055   4.533   5.050  0.2948 -0.1189 -0.0773
 5423SOL    HW127728   3.987   4.519   4.985 -1.2927  0.2074  1.4956
 5423SOL    HW227729   4.087   4.618   5.019 -0.5023 -0.1248 -0.9228
 5424SOL     OW27730   3.830   2.251   5.220  0.5707 -0.0788 -0.1085
 5424SOL    HW127731   3.890   2.202   5.276  0.0211 -0.6787 -0.0424
 5424SOL    HW227732   3.859   2.244   5.129  2.1387 -3.6700  0.6634
 5425SOL     OW27733   0.250   1.684   7.600  0.3367  0.3707  0.8465
 5425SOL    HW127734   0.329   1.711   7.647  1.2090  1.2505 -1.1204
 5425SOL    HW227735   0.274   1.704   7.510  1.9719 -3.8941  0.3757
 5426SOL     OW27736   1.918   2.761   4.587  0.8177 -0.9205  0.0597
 5426SOL    HW127737   1.931   2.729   4.498  2.1211 -0.5846  0.1384
 5426SOL    HW227738   2.000   2.809   4.594 -0.3813  1.3347 -1.5130
 5427SOL     OW27739   0.130   2.794   6.904 -0.2092  0.0771 -0.0421
 5427SOL    HW127740   0.156   2.863   6.965  0.9659 -0.7388  0.3866
 5427SOL    HW227741   0.035   2.793   6.914 -0.3412 -0.1990 -1.3786
 5428SOL     OW27742   4.526   2.505  12.716 -0.2234 -0.3784 -0.1841
 5428SOL    HW127743   4.523   2.410  12.708 -0.5145 -0.4547  0.7235
 5428SOL    HW227744   4.448   2.514  12.771 -0.7179 -2.3657 -0.5575
 5429SOL     OW27745   1.739   1.901   3.227  0.4713  0.5241  0.1108
 5429SOL    HW127746   1.829   1.923   3.250 -0.3006  2.9889  0.7666
 5429SOL    HW227747   1.759   1.886   3.135  0.0944 -1.5500  0.3490
 5430SOL     OW27748   0.847   1.740  14.802  0.4972  0.3793 -0.1447
 5430SOL    HW127749   0.916   1.806  14.804  1.2042 -0.3597 -0.2795
 5430SOL    HW227750   0.864   1.692  14.721  1.2753  0.7676 -0.2048
 5431SOL     OW27751   1.442   2.895   9.932 -0.4861 -0.1427  0.3766
 5431SOL    HW127752   1.352   2.884   9.964 -1.4264  1.9478 -1.5010
 5431SOL    HW227753   1.430   2.987   9.910 -0.0255  0.4168  2.5115
 5432SOL     OW27754   4.342   3.103   2.724 -0.1205 -0.4282  0.6433
 5432SOL    HW127755   4.251   3.074   2.724 -0.1661 -0.3153 -0.7282
 5432SOL    HW227756   4.385   3.029   2.768  2.3179  1.6923  1.8005
 5433SOL     OW27757   2.154   1.382  12.172 -0.1701 -0.2165  0.1329
 5433SOL    HW127758   2.173   1.422  12.087 -0.2785  1.6263  0.9778
 5433SOL    HW227759   2.212   1.307  12.162 -0.4197 -0.8483  3.4132
 5434SOL     OW27760   2.927   3.791   6.039  0.4428 -0.3047 -0.0685
 5434SOL    HW127761   2.955   3.809   6.129  0.9621 -0.4325 -0.2044
 5434SOL    HW227762   2.911   3.697   6.037 -1.2417  0.0150 -1.5132
 5435SOL     OW27763   2.373   2.024   9.525  0.2248 -0.7651  0.8810
 5435SOL    HW127764   2.372   2.098   9.586  0.3875 -0.2813  0.2958
 5435SOL    HW227765   2.440   1.972   9.570  1.2286  0.6822  1.0928
 5436SOL     OW27766   2.593   2.504   2.603 -0.1509  0.0051  0.0462
 5436SOL    HW127767   2.557   2.543   2.524  0.2036 -0.6539 -0.4341
 5436SOL    HW227768   2.592   2.409   2.587 -0.7065  0.0925 -0.4410
 5437SOL     OW27769   0.117   1.967   7.982 -0.7127  0.7344  0.9065
 5437SOL    HW127770   0.101   2.042   8.040  2.8524  2.0029  0.2444
 5437SOL    HW227771   0.029   1.930   7.985  1.1863 -3.7326  1.4265
 5438SOL     OW27772   3.471   3.823   8.875 -0.2044  0.0650 -0.0562
 5438SOL    HW127773   3.458   3.886   8.945  1.9412 -0.7688  1.0667
 5438SOL    HW227774   3.493   3.884   8.805 -2.8025 -0.9838 -1.8193
 5439SOL     OW27775   1.318   1.389   3.335  0.4309 -0.7167  0.0009
 5439SOL    HW127776   1.382   1.399   3.265  2.6310 -5.1080  1.3919
 5439SOL    HW227777   1.300   1.295   3.327 -2.4004 -0.4199  2.8487
 5440SOL     OW27778   2.940   2.799   7.276  0.0118  0.1052 -0.1367
 5440SOL    HW127779   2.918   2.749   7.197  1.4962 -0.2736 -0.3053
 5440SOL    HW227780   2.854   2.822   7.311 -0.1551 -1.2281  0.3470
 5441SOL     OW27781   1.025   2.816   6.083 -0.3056  0.6844  0.5032
 5441SOL    HW127782   0.971   2.743   6.113  2.1563 -1.2379  0.2211
 5441SOL    HW227783   0.968   2.889   6.056 -0.8048  1.4317  3.6609
 5442SOL     OW27784   4.116   1.406   7.279  0.0506  0.0126  0.1351
 5442SOL    HW127785   4.047   1.438   7.221 -0.8167 -1.9495  0.0796
 5442SOL    HW227786   4.115   1.313   7.255  0.0205  0.0127  0.1355
 5443SOL     OW27787   3.687   3.177   2.981  0.1274  0.1917 -0.3941
 5443SOL    HW127788   3.744   3.110   2.942 -0.3930  0.7839 -2.1715
 5443SOL    HW227789   3.621   3.127   3.029  1.8034 -1.3484  0.2936
 5444SOL     OW27790   3.563   0.539   3.470 -0.1878 -0.1083  0.7830
 5444SOL    HW127791   3.602   0.596   3.536  1.0001 -1.2949  1.1183
 5444SOL    HW227792   3.518   0.473   3.522 -0.0679 -0.6591  0.1951
 5445SOL     OW27793   0.870   4.632  14.361 -0.4098 -1.0641  0.0312
 5445SOL    HW127794   0.840   4.667  14.445 -2.7358  1.0482 -1.6765
 5445SOL    HW227795   0.950   4.589  14.393 -0.2631 -1.2905 -0.6391
 5446SOL     OW27796   0.728   2.692   7.500  0.5121 -0.3969 -0.0008
 5446SOL    HW127797   0.641   2.732   7.496  1.3871  1.2645 -2.6918
 5446SOL    HW227798   0.701   2.600   7.504  2.3373 -0.8668  1.1675
 5447SOL     OW27799   3.279   0.552   2.634 -0.6985  0.3586 -0.3740
 5447SOL    HW127800   3.258   0.463   2.663 -1.7484  0.0114 -2.1529
 5447SOL    HW227801   3.345   0.528   2.569 -1.4080 -2.2250 -0.1690
 5448SOL     OW27802   0.763   2.070  15.458 -0.2395 -0.1457  0.4875
 5448SOL    HW127803   0.771   2.097  15.367  4.3617  0.3171  1.0427
 5448SOL    HW227804   0.837   2.111  15.503  0.5216 -1.0383  0.0469
 5449SOL     OW27805   3.346   1.241   5.037 -0.6166 -0.3638 -0.4611
 5449SOL    HW127806   3.422   1.293   5.013 -1.5911  0.0088 -2.7214
 5449SOL    HW227807   3.327   1.184   4.963 -1.2704 -0.7219 -0.0221
 5450SOL     OW27808   2.115   3.236  15.676  0.0469 -0.0753  0.4441
 5450SOL    HW127809   2.205   3.211  15.694  0.9453  0.8088 -2.9253
 5450SOL    HW227810   2.132   3.330  15.682 -0.9752  0.1960 -0.9248
 5451SOL     OW27811   3.113   3.303   0.848 -0.3129 -0.0394 -0.1194
 5451SOL    HW127812   3.105   3.279   0.755 -0.1118  1.2970 -0.4848
 5451SOL    HW227813   3.134   3.396   0.847 -0.0849 -0.0855  0.5096
 5452SOL     OW27814   3.436   1.337   6.710 -0.5767 -0.6214  0.0867
 5452SOL    HW127815   3.487   1.416   6.727 -1.0109 -0.3959  0.3119
 5452SOL    HW227816   3.354   1.374   6.741  0.7247 -0.2375  3.0813
 5453SOL     OW27817   1.346   1.551  16.175  0.4088  0.4026 -0.2340
 5453SOL    HW127818   1.259   1.562  16.214  0.9316 -1.5638  1.4959
 5453SOL    HW227819   1.329   1.571  16.083  1.4344  0.8653 -0.3132
 5454SOL     OW27820   1.717   3.155   4.912 -0.3706 -0.3936  0.0296
 5454SOL    HW127821   1.767   3.140   4.832 -0.4664 -0.3963 -0.0302
 5454SOL    HW227822   1.700   3.065   4.942  1.5742 -1.3146 -1.6642
 5455SOL     OW27823   2.820   3.541   2.389  0.2050 -0.0008 -0.5923
 5455SOL    HW127824   2.866   3.458   2.377 -1.0794 -0.7221 -0.5410
 5455SOL    HW227825   2.788   3.556   2.299  1.7042  1.1408 -0.9352
 5456SOL     OW27826   2.375   2.109   0.510  0.1321  0.5226 -0.3788
 5456SOL    HW127827   2.370   2.028   0.460  0.3315  0.5451 -0.4357
 5456SOL    HW227828   2.469   2.126   0.504  0.5403 -1.7921 -0.6324
 5457SOL     OW27829   1.924   3.733   8.277 -0.1521 -0.0411 -0.7231
 5457SOL    HW127830   1.987   3.666   8.303 -0.8681 -0.0302  1.0208
 5457SOL    HW227831   1.958   3.815   8.314 -1.3003 -0.4300  1.1669
 5458SOL     OW27832   4.266   1.988   5.717  0.2487 -0.2616 -0.4903
 5458SOL    HW127833   4.263   1.919   5.650 -2.7194 -0.1533 -0.4535
 5458SOL    HW227834   4.246   2.062   5.660  1.3071 -0.1540 -0.7283
 5459SOL     OW27835   2.510   1.044   0.202 -0.5294 -0.4152 -0.0888
 5459SOL    HW127836   2.455   1.108   0.247  0.5304  0.3261  0.1283
 5459SOL    HW227837   2.570   1.033   0.276 -1.8487  0.2314  1.0964
 5460SOL     OW27838   3.380   2.226   7.695 -0.0002 -0.2640 -0.3498
 5460SOL    HW127839   3.425   2.161   7.749  0.6803 -0.2200 -0.8626
 5460SOL    HW227840   3.448   2.293   7.684  0.5221 -0.5567  1.0318
 5461SOL     OW27841   2.476   2.285   6.662 -0.4362  0.4819 -0.2217
 5461SOL    HW127842   2.528   2.227   6.718 -1.1592  0.1044  0.0697
 5461SOL    HW227843   2.544   2.345   6.632  0.2287 -0.8620 -1.4236
 5462SOL     OW27844   3.742   4.690   5.074 -0.5641 -0.2312 -0.2123
 5462SOL    HW127845   3.779   4.603   5.059  1.2224  0.5417 -0.1870
 5462SOL    HW227846   3.808   0.005   5.129 -1.2162  0.8526 -0.2444
 5463SOL     OW27847   0.222   4.283   6.993  0.5072 -0.1067 -0.1171
 5463SOL    HW127848   0.276   4.326   7.059 -0.5701  1.0528  0.0278
 5463SOL    HW227849   0.268   4.200   7.005 -1.7114 -1.2438  0.6918
 5464SOL     OW27850   0.175   2.869  11.312 -0.5490 -0.1319  0.3199
 5464SOL    HW127851   0.095   2.823  11.284 -1.0707  1.2595 -0.5051
 5464SOL    HW227852   0.239   2.799  11.322  0.3530  0.6995  0.3451
 5465SOL     OW27853   0.380   3.494  16.681  0.1928 -0.3729 -0.0192
 5465SOL    HW127854   0.311   3.428  16.674 -0.8993  0.7030  0.6811
 5465SOL    HW227855   0.386   3.525  16.591  1.6621  0.1266  0.2505
 5466SOL     OW27856   0.269   0.004   6.655  0.3302 -0.2207 -0.0088
 5466SOL    HW127857   0.277   0.095   6.627  0.0378 -0.0552  0.4423
 5466SOL    HW227858   0.219   4.700   6.579  0.3292 -0.6388  0.1572
 5467SOL     OW27859   0.751   4.558   0.427 -0.5869  0.0514 -0.2758
 5467SOL    HW127860   0.734   4.516   0.343  2.9127 -2.3203  0.2023
 5467SOL    HW227861   0.817   4.623   0.404  1.7419 -1.5859  1.7523
 5468SOL     OW27862   0.369   2.107   9.407 -0.2963 -0.0240 -0.1154
 5468SOL    HW127863   0.299   2.095   9.342 -0.7835  1.6129  0.0809
 5468SOL    HW227864   0.435   2.041   9.387  1.0806  1.1338  0.6061
 5469SOL     OW27865   1.693   4.257  14.689 -0.1962 -0.3394  0.3710
 5469SOL    HW127866   1.754   4.303  14.631 -0.4959 -0.1727  0.1931
 5469SOL    HW227867   1.629   4.230  14.623 -0.8797  0.1205  0.8551
 5470SOL     OW27868   4.059   0.059  13.451  0.0046 -0.4941 -0.8205
 5470SOL    HW127869   4.131   4.725  13.434  0.1269 -0.8342  0.9339
 5470SOL    HW227870   4.023   0.032  13.536 -0.0696  0.7932 -0.4412
 5471SOL     OW27871   2.342   4.027  16.025  0.1928  0.2977  0.3015
 5471SOL    HW127872   2.262   4.077  16.013  0.1388 -0.9119 -4.5302
 5471SOL    HW227873   2.401   4.096  16.053 -0.7022  0.1954  2.4284
 5472SOL     OW27874   4.031   0.229   4.788 -0.1817 -0.0811  0.0963
 5472SOL    HW127875   4.068   0.144   4.813 -2.7923 -0.7887  1.5644
 5472SOL    HW227876   4.067   0.284   4.857 -1.7923  1.4569 -0.3113
 5473SOL     OW27877   2.144   2.622   3.036  0.6125  0.2545 -0.6539
 5473SOL    HW127878   2.159   2.665   2.952  4.2691  0.3654  0.0692
 5473SOL    HW227879   2.233   2.623   3.071  1.1603 -4.3801 -1.9892
 5474SOL     OW27880   0.434   0.444   3.207  0.3388  0.6241 -0.3410
 5474SOL    HW127881   0.419   0.417   3.297 -0.4569  1.3798 -0.2367
 5474SOL    HW227882   0.359   0.410   3.157 -1.7800  2.0524  1.8180
 5475SOL     OW27883   3.927   1.931   5.031  0.1534 -0.4489 -0.0168
 5475SOL    HW127884   3.854   1.874   5.007  1.5419 -1.6614 -1.3084
 5475SOL    HW227885   3.993   1.870   4.996  1.1389  0.8276 -0.3642
 5476SOL     OW27886   0.301   0.617   2.900  0.3618 -0.0318 -0.2503
 5476SOL    HW127887   0.266   0.667   2.827 -0.8278 -2.7735 -1.5549
 5476SOL    HW227888   0.338   0.541   2.856 -1.7912 -1.7701  0.9419
 5477SOL     OW27889   1.772   1.280  12.877  0.6930  0.0771 -0.7936
 5477SOL    HW127890   1.702   1.257  12.938  0.7845 -1.2080 -1.1725
 5477SOL    HW227891   1.722   1.259  12.798 -2.0147 -1.5279  1.3607
 5478SOL     OW27892   0.356   2.440  15.758 -0.4661  0.6165  0.3495
 5478SOL    HW127893   0.313   2.410  15.678  0.2722 -2.1344  0.9761
 5478SOL    HW227894   0.302   2.514  15.784  0.6609  1.7061 -0.3971
 5479SOL     OW27895   2.717   4.481   3.994  0.2854  0.1268 -0.3488
 5479SOL    HW127896   2.734   4.390   3.971  0.1962  0.1547 -0.5282
 5479SOL    HW227897   2.623   4.477   4.009  0.1400  0.9163 -0.9992
 5480SOL     OW27898   1.828   1.773  15.481 -0.5903  0.1702  0.0786
 5480SOL    HW127899   1.741   1.735  15.463 -0.3224  0.5855 -2.1635
 5480SOL    HW227900   1.876   1.691  15.479  1.8026  1.5499  1.6615
 5481SOL     OW27901   4.142   3.198   3.300  0.0348 -0.0258  0.1163
 5481SOL    HW127902   4.163   3.111   3.336  1.2163  0.5434  0.7995
 5481SOL    HW227903   4.053   3.185   3.269  0.1156  0.6352 -0.3690
 5482SOL     OW27904   4.206   1.208  17.658  0.1877 -0.9765  0.5348
 5482SOL    HW127905   4.214   1.295  17.619 -2.0103 -0.6979  0.7095
 5482SOL    HW227906   4.285   1.202   0.006  0.9436 -0.3009 -0.4997
 5483SOL     OW27907   3.970   0.079  15.431 -0.3735  0.2463 -0.0028
 5483SOL    HW127908   3.891   0.093  15.484  2.1779 -0.0301  3.9315
 5483SOL    HW227909   3.993   0.167  15.400 -1.1086  1.0429  1.7164
 5484SOL     OW27910   2.549   1.167   4.521  0.1046  0.0759 -0.0815
 5484SOL    HW127911   2.530   1.152   4.428  2.0305 -1.2506 -0.2843
 5484SOL    HW227912   2.617   1.234   4.514  0.7317 -0.7785 -2.2695
 5485SOL     OW27913   0.657   0.295   3.601  0.1309  0.4623 -0.3026
 5485SOL    HW127914   0.685   0.262   3.686 -1.1615 -0.2509 -0.1558
 5485SOL    HW227915   0.733   0.353   3.596  0.7763 -0.2814  0.9296
 5486SOL     OW27916   2.316   0.892   8.652  0.2570 -0.2329 -0.6885
 5486SOL    HW127917   2.404   0.930   8.650  1.0665 -2.0010  1.1914
 5486SOL    HW227918   2.311   0.858   8.563  0.1700 -1.6255 -0.1448
 5487SOL     OW27919   3.032   0.652   8.310  0.1686 -0.2139 -0.3104
 5487SOL    HW127920   3.021   0.581   8.247  0.5469  0.4353 -1.0963
 5487SOL    HW227921   3.117   0.619   8.339  0.3940 -0.4027 -1.2057
 5488SOL     OW27922   0.548   0.686   6.075 -0.3692 -0.6225  0.1071
 5488SOL    HW127923   0.507   0.712   6.157 -0.8110  1.5134 -0.7936
 5488SOL    HW227924   0.636   0.724   6.081 -0.4531 -0.5551  0.9468
 5489SOL     OW27925   4.723   3.684   5.651 -0.4450  0.0699 -0.0736
 5489SOL    HW127926   4.680   3.740   5.586 -0.6399 -0.1516 -0.1372
 5489SOL    HW227927   0.081   3.654   5.617  1.3594  2.7816  2.0655
 5490SOL     OW27928   4.606   4.519   2.142  0.2231 -0.1578 -0.2912
 5490SOL    HW127929   4.661   4.518   2.063 -0.1438  0.0594 -0.5487
 5490SOL    HW227930   4.588   4.613   2.153 -0.7949 -0.3072 -0.7156
 5491SOL     OW27931   1.533   4.442  13.938 -0.0290  0.2035 -0.0023
 5491SOL    HW127932   1.548   4.534  13.962 -0.3716  0.7973 -2.1179
 5491SOL    HW227933   1.508   4.447  13.846  0.8052 -1.0402 -0.2899
 5492SOL     OW27934   0.672   2.789   4.050 -0.2254  0.0483  0.1119
 5492SOL    HW127935   0.589   2.823   4.017 -0.4062 -0.2907  0.2074
 5492SOL    HW227936   0.642   2.726   4.116 -0.7960  1.0570  0.8284
 5493SOL     OW27937   4.272   4.366   4.507  0.4602 -0.4524  0.1710
 5493SOL    HW127938   4.345   4.391   4.562 -0.1302  1.2125  0.1882
 5493SOL    HW227939   4.302   4.374   4.416 -2.9280  0.1219 -0.9265
 5494SOL     OW27940   3.256   0.625   1.449  0.6118  0.3199  0.3260
 5494SOL    HW127941   3.181   0.614   1.390  1.0849 -0.1358 -0.1930
 5494SOL    HW227942   3.309   0.674   1.387 -0.7990 -0.0098 -1.1537
 5495SOL     OW27943   3.763   0.521   6.887 -0.3177  0.8162 -0.2261
 5495SOL    HW127944   3.737   0.479   6.968  1.4288  1.0959  0.4813
 5495SOL    HW227945   3.836   0.465   6.862  0.6905  1.7663  0.5517
 5496SOL     OW27946   3.074   2.444   6.817  0.2793  0.2609  0.7062
 5496SOL    HW127947   3.154   2.495   6.829  1.9834 -1.6575 -2.4268
 5496SOL    HW227948   3.062   2.404   6.903 -1.7702 -0.9216 -0.1123
 5497SOL     OW27949   4.200   1.109  14.801 -0.3346 -0.2070  0.2955
 5497SOL    HW127950   4.117   1.062  14.787  0.0584 -0.3250 -1.5712
 5497SOL    HW227951   4.166   1.183  14.752  0.4531  1.8272  2.8185
 5498SOL     OW27952   3.045   1.312   9.802 -0.0657  0.1318  0.1910
 5498SOL    HW127953   3.130   1.355   9.807  1.0522 -2.0483 -0.3526
 5498SOL    HW227954   2.986   1.376   9.842 -0.2786  0.4728 -0.6610
 5499SOL     OW27955   2.390   0.224   3.739  0.0790  0.3321  0.0898
 5499SOL    HW127956   2.425   0.266   3.660 -3.8674  0.4704 -1.5871
 5499SOL    HW227957   2.434   0.139   3.732 -1.2348 -0.6519  3.6095
 5500SOL     OW27958   2.156   1.093   6.238  0.0245 -0.0424  0.4513
 5500SOL    HW127959   2.092   1.131   6.178 -1.0086 -1.2771  0.7612
 5500SOL    HW227960   2.229   1.063   6.184 -0.1812 -1.4768  0.9660
 5501SOL     OW27961   1.268   1.470   5.717  0.0782  0.0656 -0.2698
 5501SOL    HW127962   1.363   1.461   5.708  0.2394  1.8076 -0.2739
 5501SOL    HW227963   1.240   1.412   5.646  0.2580  0.4598 -0.6615
 5502SOL     OW27964   0.412   1.544  14.731 -0.0384  0.4674  0.4700
 5502SOL    HW127965   0.327   1.500  14.732 -0.2971  0.9800  1.0991
 5502SOL    HW227966   0.476   1.478  14.704  1.0122  1.0189  1.6073
 5503SOL     OW27967   3.863   4.143   2.109  0.4215 -0.3890 -0.0552
 5503SOL    HW127968   3.779   4.115   2.145  0.7901 -0.6164  0.6227
 5503SOL    HW227969   3.835   4.150   2.017 -0.3418  1.6979  0.3416
 5504SOL     OW27970   3.306   2.680   2.646 -0.0072 -0.8194  0.0048
 5504SOL    HW127971   3.251   2.702   2.571 -0.2067  2.5394  1.1611
 5504SOL    HW227972   3.358   2.606   2.614  1.4044  0.7111 -1.2186
 5505SOL     OW27973   1.059   2.981   8.331  0.5639  0.7032  0.2181
 5505SOL    HW127974   1.006   3.046   8.284 -1.3362 -0.9859  0.0098
 5505SOL    HW227975   1.064   3.025   8.416  0.9775  0.4451  0.3271
 5506SOL     OW27976   3.038   1.408   7.317  0.4345 -0.2538 -0.2652
 5506SOL    HW127977   3.054   1.356   7.395 -0.7356 -1.2420 -0.6767
 5506SOL    HW227978   3.099   1.481   7.327 -0.4420  0.5731 -0.8031
 5507SOL     OW27979   3.543   2.762   7.265 -0.2656 -0.4682  0.6537
 5507SOL    HW127980   3.545   2.666   7.264 -0.8788 -0.4585 -2.1526
 5507SOL    HW227981   3.636   2.783   7.265  0.0637 -1.9739  1.3980
 5508SOL     OW27982   0.373   3.327   6.957 -0.3439 -0.2108  0.1062
 5508SOL    HW127983   0.454   3.345   6.909 -0.3140  0.5031  0.4185
 5508SOL    HW227984   0.383   3.232   6.961  0.1738 -0.1471  0.3130
 5509SOL     OW27985   3.747   0.663   5.486 -0.0475  0.2431 -0.2698
 5509SOL    HW127986   3.772   0.676   5.394  3.7092  0.0077  0.7389
 5509SOL    HW227987   3.735   0.568   5.492  1.2445  0.0424 -0.7952
 5510SOL     OW27988   0.737   2.650   0.973 -0.0343 -0.1471  0.6817
 5510SOL    HW127989   0.796   2.608   1.036  1.7093 -0.2329 -1.0005
 5510SOL    HW227990   0.771   2.739   0.975 -0.0378 -0.1516  1.0112
 5511SOL     OW27991   2.109   3.814   2.235  0.0513 -0.3027  0.9698
 5511SOL    HW127992   2.067   3.899   2.219 -0.1372 -0.2144  1.9255
 5511SOL    HW227993   2.172   3.810   2.163 -0.0881  0.1910  0.8172
 5512SOL     OW27994   0.185   2.199   8.726 -0.6439  0.6484  0.2604
 5512SOL    HW127995   0.215   2.187   8.636  0.3953 -2.4867  1.0213
 5512SOL    HW227996   0.106   2.145   8.729 -0.3875  0.3316  1.5831
 5513SOL     OW27997   3.907   0.616   8.935  0.1009 -0.0919  1.0825
 5513SOL    HW127998   3.817   0.635   8.961 -0.0700  0.8401 -0.1968
 5513SOL    HW227999   3.937   0.690   8.881 -1.1441  1.6638  2.7829
 5514SOL     OW28000   0.396   4.520  14.658  0.0072 -0.3404 -0.1814
 5514SOL    HW128001   0.419   4.442  14.608 -0.7196 -1.0286  0.5559
 5514SOL    HW228002   0.301   4.510  14.660 -0.0373 -0.2679 -1.8663
 5515SOL     OW28003   3.832   2.696  15.356  0.3613 -0.3254 -0.1821
 5515SOL    HW128004   3.755   2.749  15.337  1.0009  1.2160  1.5569
 5515SOL    HW228005   3.858   2.729  15.442 -0.6237  1.6385 -0.6449
 5516SOL     OW28006   3.731   1.052  10.709 -0.0779 -0.1529 -0.9064
 5516SOL    HW128007   3.649   1.009  10.683 -0.1949 -0.3280 -0.2374
 5516SOL    HW228008   3.753   1.035  10.801 -1.1852  1.1540 -0.4068
 5517SOL     OW28009   3.855   2.320   9.022 -0.4631 -0.1610 -0.3954
 5517SOL    HW128010   3.822   2.259   9.088 -1.5760  1.0155  0.1230
 5517SOL    HW228011   3.815   2.282   8.944 -0.1847  0.4994 -0.8696
 5518SOL     OW28012   2.508   2.368   3.502  0.1929  0.0357 -0.1278
 5518SOL    HW128013   2.489   2.283   3.543  3.2632 -1.0395 -0.9613
 5518SOL    HW228014   2.461   2.359   3.419  1.6655  2.0478 -1.1603
 5519SOL     OW28015   1.988   0.730  10.669  0.5642  0.1630 -0.2421
 5519SOL    HW128016   1.908   0.754  10.716 -0.2083  0.5401 -1.7615
 5519SOL    HW228017   1.988   0.767  10.581 -0.1759  0.6381 -0.0379
 5520SOL     OW28018   2.620   2.008  10.133 -0.0727  0.2429 -0.0842
 5520SOL    HW128019   2.700   2.034  10.088  1.8580  0.0999  3.2831
 5520SOL    HW228020   2.562   2.068  10.086 -0.9431 -0.0303  0.6446
 5521SOL     OW28021   4.044   3.594  13.584  0.5946  0.1647 -0.3434
 5521SOL    HW128022   4.008   3.636  13.505 -1.4466  0.8100  0.9480
 5521SOL    HW228023   3.993   3.620  13.660  0.9732  3.1078 -1.0905
 5522SOL     OW28024   0.709   1.568   2.907  0.4820  0.3812 -0.1763
 5522SOL    HW128025   0.678   1.597   2.992 -2.4619 -1.7076 -0.5128
 5522SOL    HW228026   0.735   1.651   2.868  0.5780  0.8248  0.8423
 5523SOL     OW28027   4.713   2.308   4.998  0.1203  0.5620  0.0539
 5523SOL    HW128028   4.640   2.313   4.937 -0.1474 -0.6766  0.2652
 5523SOL    HW228029   0.063   2.314   4.941 -0.0441  0.6281 -0.1547
 5524SOL     OW28030   3.880   2.805   1.003  0.1027  0.1245  0.2499
 5524SOL    HW128031   3.883   2.713   1.030  0.0157  0.1024  0.1840
 5524SOL    HW228032   3.786   2.813   0.987  0.3677  0.4826 -1.1505
 5525SOL     OW28033   3.425   2.067   5.117 -0.0148  0.0587 -0.2859
 5525SOL    HW128034   3.516   2.041   5.132 -0.3066 -0.8099 -0.0445
 5525SOL    HW228035   3.417   2.156   5.152  3.0438  0.8074 -1.5154
 5526SOL     OW28036   3.845   0.025   5.672 -0.1192 -0.0059  0.2184
 5526SOL    HW128037   3.789   0.073   5.612 -0.5817 -0.2715  0.4440
 5526SOL    HW228038   3.788   4.680   5.700  0.7178 -1.1680 -1.0331
 5527SOL     OW28039   3.990   2.198  15.700  0.3900  0.3409  0.1439
 5527SOL    HW128040   3.956   2.140  15.768  0.0816  1.7846  1.2186
 5527SOL    HW228041   3.933   2.271  15.721 -1.3707 -0.2428 -2.7008
 5528SOL     OW28042   4.291   3.317  17.092 -0.0919  0.4512  0.3665
 5528SOL    HW128043   4.366   3.294  17.147 -0.7392 -0.4297  0.8692
 5528SOL    HW228044   4.240   3.385  17.135 -0.4720  1.0793 -1.0668
 5529SOL     OW28045   0.264   2.494   8.690  0.0417 -0.0653 -0.2415
 5529SOL    HW128046   0.225   2.407   8.698  1.2724 -0.7310 -1.4097
 5529SOL    HW228047   0.357   2.471   8.688  0.5726  1.9488  1.4677
 5530SOL     OW28048   1.330   2.133   6.510 -0.3007 -0.0682  0.3173
 5530SOL    HW128049   1.379   2.203   6.554 -0.4631  0.7372 -0.7952
 5530SOL    HW228050   1.338   2.158   6.418  1.1140 -1.1576  0.1502
 5531SOL     OW28051   0.813   3.468   1.385 -0.2417  0.1880 -0.4918
 5531SOL    HW128052   0.751   3.493   1.316 -3.7240 -2.3264  1.7318
 5531SOL    HW228053   0.745   3.425   1.437  1.5088 -2.5315 -0.4452
 5532SOL     OW28054   3.677   2.710   5.764 -0.0234  0.2635  0.8093
 5532SOL    HW128055   3.639   2.772   5.702  0.9387 -0.0681 -0.1163
 5532SOL    HW228056   3.640   2.626   5.736  0.9106  0.4800 -1.0514
 5533SOL     OW28057   1.006   2.733  11.025  0.4897  0.7440 -0.1951
 5533SOL    HW128058   1.099   2.713  11.035  0.4988  1.3054  0.8405
 5533SOL    HW228059   1.012   2.821  10.986  1.1823 -0.1554 -2.1149
 5534SOL     OW28060   2.656   3.593   3.315 -0.4197  0.1563  0.2278
 5534SOL    HW128061   2.719   3.540   3.266 -1.6100  0.0945 -1.2352
 5534SOL    HW228062   2.579   3.537   3.322  0.7184 -1.4628 -0.1514
 5535SOL     OW28063   1.932   2.286  13.550  0.0068 -0.4829  0.7033
 5535SOL    HW128064   1.854   2.331  13.518  0.2365 -1.4589 -1.1975
 5535SOL    HW228065   1.903   2.195  13.542 -1.6100  0.0163  0.8852
 5536SOL     OW28066   2.063   1.346   3.661  0.1271  0.0145 -0.3493
 5536SOL    HW128067   2.041   1.389   3.578 -0.8933  0.9904  0.4262
 5536SOL    HW228068   2.101   1.263   3.633 -0.0957 -0.5129  0.8772
 5537SOL     OW28069   3.203   2.328  14.779  1.2372 -0.0327  0.1880
 5537SOL    HW128070   3.203   2.348  14.686  1.9597  0.3986  0.2789
 5537SOL    HW228071   3.214   2.414  14.819  2.4884 -0.0223 -0.1878
 5538SOL     OW28072   3.568   2.364   6.515  0.3190  0.1149 -0.0867
 5538SOL    HW128073   3.590   2.337   6.604 -0.8813 -1.2633 -0.2111
 5538SOL    HW228074   3.531   2.451   6.532  2.5217  1.3385 -1.5950
 5539SOL     OW28075   2.620   0.328   6.440 -0.8753  0.0252  0.1270
 5539SOL    HW128076   2.584   0.274   6.370  0.0278 -0.4609  0.0366
 5539SOL    HW228077   2.554   0.396   6.455 -2.1477 -1.4460  1.1983
 5540SOL     OW28078   2.692   4.628   7.421  0.8099 -0.7735  0.1145
 5540SOL    HW128079   2.683   4.546   7.470 -2.1049 -1.7585 -2.1080
 5540SOL    HW228080   2.787   4.632   7.434  0.7823 -1.6465  0.5790
 5541SOL     OW28081   2.370   2.974   9.499  0.1726  0.2109 -0.2022
 5541SOL    HW128082   2.408   2.907   9.442  1.1786 -0.3375  1.0942
 5541SOL    HW228083   2.315   2.929   9.562 -1.1128  1.5835 -0.3417
 5542SOL     OW28084   2.066   3.395   2.688 -0.1470  0.4979 -0.0322
 5542SOL    HW128085   2.135   3.435   2.634  2.9221  0.0862  3.4981
 5542SOL    HW228086   2.019   3.331   2.636 -0.5758 -0.2427  1.2535
 5543SOL     OW28087   0.232   1.198   3.619 -0.4056  0.2193  0.1797
 5543SOL    HW128088   0.137   1.199   3.627 -0.5401  0.1749 -1.4191
 5543SOL    HW228089   0.268   1.127   3.672  0.2009 -0.6510 -1.3941
 5544SOL     OW28090   1.765   3.518   0.281 -0.3988 -0.2523  0.3281
 5544SOL    HW128091   1.716   3.437   0.262 -0.3032  0.4670 -2.9913
 5544SOL    HW228092   1.754   3.526   0.375 -0.6132  0.4767  0.2414
 5545SOL     OW28093   4.680   0.823   1.851 -0.5210 -0.4085 -0.2310
 5545SOL    HW128094   4.676   0.748   1.791 -1.1207 -0.7137  0.1894
 5545SOL    HW228095   0.027   0.881   1.827  0.5461 -1.5675  0.1958
 5546SOL     OW28096   4.478   0.982   6.234  0.5019  0.2227  0.2788
 5546SOL    HW128097   4.404   1.040   6.254  1.2065  1.7492 -1.6496
 5546SOL    HW228098   4.480   0.923   6.310 -0.9941  1.0967  1.0122
 5547SOL     OW28099   1.921   1.763  10.169 -0.1835 -0.1712 -0.3973
 5547SOL    HW128100   1.936   1.843  10.219  0.5325 -1.3388  1.2613
 5547SOL    HW228101   1.839   1.776  10.121  0.1794  0.3024 -0.8804
 5548SOL     OW28102   3.363   2.870   7.755 -0.3251  0.0848 -0.2141
 5548SOL    HW128103   3.361   2.828   7.670 -0.4149  2.5350 -1.4126
 5548SOL    HW228104   3.283   2.844   7.801 -0.2445 -0.1627 -0.2105
 5549SOL     OW28105   1.458   1.164   4.733  0.3083  0.0565 -0.1036
 5549SOL    HW128106   1.411   1.158   4.650  0.9282  0.5442 -0.4887
 5549SOL    HW228107   1.444   1.257   4.752  2.1394  0.3848 -0.3835
 5550SOL     OW28108   3.287   2.322   2.853  0.2396 -0.0162  0.5570
 5550SOL    HW128109   3.325   2.357   2.772  1.6142 -0.0227  1.2208
 5550SOL    HW228110   3.238   2.404   2.861  0.0709 -0.2733  2.0698
 5551SOL     OW28111   3.553   4.161   2.662 -0.4946 -0.0149 -0.2416
 5551SOL    HW128112   3.475   4.136   2.712  0.2976 -3.6226 -0.8594
 5551SOL    HW228113   3.620   4.106   2.702 -2.2238 -0.9704  1.3183
 5552SOL     OW28114   3.433   3.837   2.569  0.8800  0.4996  0.7586
 5552SOL    HW128115   3.377   3.912   2.548 -0.0987 -0.5675 -0.4017
 5552SOL    HW228116   3.503   3.844   2.505 -0.2864  2.1026 -0.3346
 5553SOL     OW28117   2.152   4.145   4.461 -0.0016 -0.4809 -0.2163
 5553SOL    HW128118   2.228   4.126   4.406 -0.0934 -1.9706  0.1650
 5553SOL    HW228119   2.096   4.069   4.444 -1.5734  1.0630 -1.8788
 5554SOL     OW28120   2.885   3.845   5.050  0.3874  0.4801  0.1425
 5554SOL    HW128121   2.830   3.806   5.119 -2.7975 -0.8696 -3.1445
 5554SOL    HW228122   2.971   3.815   5.079  0.3979 -1.2669 -1.6901
 5555SOL     OW28123   3.563   3.107   9.054  0.2004  0.1222  0.2472
 5555SOL    HW128124   3.482   3.060   9.036 -0.3550  0.3129  2.2205
 5555SOL    HW228125   3.633   3.043   9.047  0.6954  0.6958 -0.0733
 5556SOL     OW28126   3.055   3.281   0.569 -0.0304  0.1538  0.1450
 5556SOL    HW128127   2.980   3.222   0.581  0.6061 -0.6893  0.0356
 5556SOL    HW228128   3.014   3.347   0.514 -1.0051  0.6189  1.4336
 5557SOL     OW28129   1.177   0.214  17.398  0.1900 -0.4139  0.1747
 5557SOL    HW128130   1.128   0.247  17.323  0.2314  0.0824  0.3627
 5557SOL    HW228131   1.218   0.136  17.361  0.9905  0.4569 -0.7517
 5558SOL     OW28132   1.041   0.114   5.540 -0.2423  0.4967  0.1092
 5558SOL    HW128133   1.056   0.045   5.605 -0.1576  0.7278  0.3389
 5558SOL    HW228134   1.108   0.100   5.474 -0.5936  1.9835 -0.5659
 5559SOL     OW28135   4.148   1.507   4.645  0.0997  0.0789 -0.6296
 5559SOL    HW128136   4.164   1.498   4.739  1.2497  1.4006 -0.6975
 5559SOL    HW228137   4.226   1.550   4.610  1.5209  0.2931  2.8070
 5560SOL     OW28138   1.269   4.379   7.695 -0.6743 -0.0602 -0.1134
 5560SOL    HW128139   1.293   4.465   7.728 -2.2552 -0.6725  2.6294
 5560SOL    HW228140   1.186   4.394   7.650 -0.4609 -1.7345 -1.0799
 5561SOL     OW28141   0.581   0.587   7.153  0.5758 -0.3053 -0.0775
 5561SOL    HW128142   0.541   0.618   7.234 -0.2580  1.0497 -1.0010
 5561SOL    HW228143   0.570   0.493   7.168  1.8380 -0.1987  1.4232
 5562SOL     OW28144   1.941   1.232  12.472  0.0774 -0.5672 -0.4905
 5562SOL    HW128145   1.905   1.199  12.390  0.0242 -0.2126 -0.6112
 5562SOL    HW228146   1.925   1.168  12.542 -0.5979 -1.9691 -1.9262
 5563SOL     OW28147   0.621   2.262   6.240  0.1899  0.3382 -0.3151
 5563SOL    HW128148   0.554   2.198   6.263 -1.4986  2.7383  1.4772
 5563SOL    HW228149   0.602   2.332   6.303 -0.6733 -0.0794 -0.1143
 5564SOL     OW28150   2.752   4.287   5.886  0.2773  0.2841 -0.3163
 5564SOL    HW128151   2.735   4.245   5.970  1.9737  1.7525  0.7507
 5564SOL    HW228152   2.848   4.284   5.888  0.2995  1.1522  0.0468
 5565SOL     OW28153   2.107   0.375  16.243  0.0365 -0.2657 -0.0122
 5565SOL    HW128154   2.158   0.303  16.280  0.6418 -0.5058 -1.2982
 5565SOL    HW228155   2.079   0.411  16.327 -3.4702  2.6866 -2.4578
 5566SOL     OW28156   0.103   3.223   1.800 -0.0411  0.3760 -0.1981
 5566SOL    HW128157   0.016   3.225   1.839  0.5785 -1.2080  1.2669
 5566SOL    HW228158   0.136   3.143   1.841  2.2852  1.3612 -0.0992
 5567SOL     OW28159   4.602   3.456   6.453  0.0128 -0.7892  0.6726
 5567SOL    HW128160   4.557   3.440   6.536  0.2991 -3.4132  0.3162
 5567SOL    HW228161   4.686   3.490   6.485  0.0933  0.7175 -1.1196
 5568SOL     OW28162   0.955   4.108   9.497  0.3895  0.0304  0.1689
 5568SOL    HW128163   1.037   4.077   9.535 -0.2448 -0.4611  1.1436
 5568SOL    HW228164   0.918   4.164   9.565 -2.1896 -1.1408 -0.2333
 5569SOL     OW28165   0.620   2.898   0.701 -0.1724  0.2617 -0.0157
 5569SOL    HW128166   0.666   2.968   0.748  1.0392  0.8886 -2.1088
 5569SOL    HW228167   0.686   2.857   0.644 -1.7782  0.7003 -2.1861
 5570SOL     OW28168   0.997   2.152   2.255  0.0688  0.3169 -0.2145
 5570SOL    HW128169   1.021   2.065   2.223 -2.1944 -0.1795 -0.5576
 5570SOL    HW228170   1.054   2.154   2.332 -1.2360  1.0596  0.7394
 5571SOL     OW28171   3.522   3.333   8.206 -0.3808  0.1620 -0.0986
 5571SOL    HW128172   3.532   3.428   8.201 -0.5648  0.2662  1.7348
 5571SOL    HW228173   3.548   3.307   8.117  1.7619  1.3961  0.1651
 5572SOL     OW28174   2.470   3.384   8.455  0.6848 -0.6233 -0.0366
 5572SOL    HW128175   2.390   3.348   8.494  0.2743 -0.8383 -1.0865
 5572SOL    HW228176   2.488   3.459   8.511 -0.8806 -0.3461  0.0985
 5573SOL     OW28177   2.585   2.514   3.129  0.0234 -0.3776  0.6274
 5573SOL    HW128178   2.610   2.571   3.202  3.0311  0.8841 -1.4093
 5573SOL    HW228179   2.669   2.479   3.102  1.0501  1.1242  1.8382
 5574SOL     OW28180   2.958   1.943   5.590 -0.1274 -0.0377  0.5216
 5574SOL    HW128181   2.993   2.027   5.561  0.4653 -0.7340 -0.7436
 5574SOL    HW228182   3.000   1.877   5.535  1.1737  1.4518 -0.2618
 5575SOL     OW28183   1.528   0.975  11.294  0.1706 -0.1700 -0.1353
 5575SOL    HW128184   1.616   0.981  11.330  0.8169  0.8858 -1.8321
 5575SOL    HW228185   1.543   0.916  11.220 -0.4555 -1.1113  0.4964
 5576SOL     OW28186   2.780   3.326   5.076  0.3723  0.1134  0.2870
 5576SOL    HW128187   2.856   3.381   5.057 -0.7474  1.8515  0.8560
 5576SOL    HW228188   2.710   3.392   5.079 -0.3476 -0.6245 -0.1673
 5577SOL     OW28189   2.372   0.704   3.938 -0.1804 -0.2544 -0.2850
 5577SOL    HW128190   2.278   0.691   3.926 -0.1475  1.7710 -2.5279
 5577SOL    HW228191   2.394   0.617   3.972  4.1488  1.5155  1.5050
 5578SOL     OW28192   0.270   2.921  12.823 -0.1505 -0.3973  0.1653
 5578SOL    HW128193   0.306   2.924  12.912 -0.9558 -0.2531  0.4852
 5578SOL    HW228194   0.286   3.010  12.792  0.2649 -0.7620 -0.6831
 5579SOL     OW28195   4.618   3.419   5.061 -0.4340  0.2790 -0.5901
 5579SOL    HW128196   4.601   3.491   5.001  0.0841  1.1181  0.2648
 5579SOL    HW228197   4.531   3.382   5.075  0.6059 -1.0137  2.5813
 5580SOL     OW28198   2.232   4.244   6.813  0.3334  0.1450  0.0282
 5580SOL    HW128199   2.247   4.219   6.904  0.9588 -1.4127 -0.5012
 5580SOL    HW228200   2.244   4.338   6.818 -2.5625  0.5242  0.0931
 5581SOL     OW28201   0.770   1.020   9.280 -0.0448 -0.1547 -0.4512
 5581SOL    HW128202   0.681   0.986   9.293  0.6790 -0.3129  4.2346
 5581SOL    HW228203   0.797   0.992   9.193  0.1674 -0.2075 -0.3674
 5582SOL     OW28204   0.484   1.277   7.314 -0.2854  0.2576 -0.4726
 5582SOL    HW128205   0.503   1.194   7.358 -1.8144  0.6865  1.0118
 5582SOL    HW228206   0.471   1.333   7.391 -0.1006  0.9181 -0.9296
 5583SOL     OW28207   4.311   0.270   2.663  0.7223 -0.2657 -0.1134
 5583SOL    HW128208   4.269   0.184   2.670  0.3831  0.0189  1.3058
 5583SOL    HW228209   4.304   0.306   2.575 -0.1662 -1.0093 -0.3426
 5584SOL     OW28210   3.686   0.373   0.144  0.5526 -0.0649  0.5842
 5584SOL    HW128211   3.716   0.431   0.215 -1.4252 -0.2164  1.5387
 5584SOL    HW228212   3.663   0.428   0.069  0.3242 -0.7988  0.1174
 5585SOL     OW28213   3.007   4.258  17.287  0.8050 -0.0116  0.3545
 5585SOL    HW128214   2.930   4.314  17.288  0.7025 -0.1475 -0.3858
 5585SOL    HW228215   3.018   4.245  17.382  0.1391 -0.6272  0.3456
 5586SOL     OW28216   2.661   4.140   3.263 -0.2555 -0.0525 -0.0336
 5586SOL    HW128217   2.664   4.044   3.263 -1.0250 -0.0841  0.0469
 5586SOL    HW228218   2.665   4.153   3.358 -0.5292  0.6154 -0.1122
 5587SOL     OW28219   2.142   3.525  15.711  0.0582 -0.2425 -0.8983
 5587SOL    HW128220   2.080   3.571  15.654  1.4526 -1.0134 -3.0518
 5587SOL    HW228221   2.226   3.560  15.679  0.5585  0.3083  1.0365
 5588SOL     OW28222   3.223   3.555  16.119 -0.0844  0.3621  0.3082
 5588SOL    HW128223   3.178   3.550  16.035 -0.5471  2.8430  0.4147
 5588SOL    HW228224   3.301   3.504  16.097  0.5811  1.0528  1.0993
 5589SOL     OW28225   1.046   3.260   7.388  0.0347  0.2577  0.3415
 5589SOL    HW128226   0.963   3.302   7.367  0.8699  1.7278 -0.0387
 5589SOL    HW228227   1.067   3.312   7.466 -0.2951 -1.8169  1.8435
 5590SOL     OW28228   0.922   1.853  16.760  0.3675 -0.7183  0.0688
 5590SOL    HW128229   0.935   1.760  16.777 -1.0450 -0.7896  0.7379
 5590SOL    HW228230   0.879   1.846  16.675  1.2095 -0.3633 -0.3967
 5591SOL     OW28231   2.103   0.566  12.671  0.1540 -0.0878  0.4815
 5591SOL    HW128232   2.015   0.573  12.707 -0.7407 -3.6124 -1.0876
 5591SOL    HW228233   2.164   0.575  12.744 -1.6620 -1.4526  2.1411
 5592SOL     OW28234   4.497   0.178   8.345 -0.6432 -0.2983 -0.0575
 5592SOL    HW128235   4.461   0.226   8.271 -0.7432 -0.3306 -0.0295
 5592SOL    HW228236   4.508   0.242   8.416  2.0349  1.5524 -2.1073
 5593SOL     OW28237   0.889   0.370   1.544 -0.5181 -0.2806  0.3389
 5593SOL    HW128238   0.859   0.312   1.614 -0.3163 -1.9930 -0.9815
 5593SOL    HW228239   0.812   0.421   1.520 -3.2303 -4.4121  0.1597
 5594SOL     OW28240   4.603   4.665  17.690 -0.0558 -0.2291 -0.4759
 5594SOL    HW128241   4.680   4.676   0.040 -0.9984 -0.3788  0.8306
 5594SOL    HW228242   4.528   4.662   0.042 -0.9089 -2.5528 -1.7031
 5595SOL     OW28243   1.331   1.992   3.680 -0.0593  0.7259 -0.2619
 5595SOL    HW128244   1.376   1.919   3.723 -1.6533  0.6837  1.3622
 5595SOL    HW228245   1.276   1.961   3.608  0.6461  1.2262 -1.0137
 5596SOL     OW28246   4.605   2.776   0.081  0.4389  0.2565  0.2004
 5596SOL    HW128247   4.686   2.752   0.037 -0.1146 -0.5004 -0.4062
 5596SOL    HW228248   4.554   2.703   0.047 -0.9260  1.2659  0.0806
 5597SOL     OW28249   0.729   4.371  14.690  0.6985 -0.2696  0.1915
 5597SOL    HW128250   0.688   4.422  14.760  1.2422 -0.7960  0.8965
 5597SOL    HW228251   0.662   4.349  14.626  0.6820 -0.9692  0.4502
 5598SOL     OW28252   4.220   3.399   6.423  0.1858 -0.4758 -0.6152
 5598SOL    HW128253   4.240   3.347   6.501 -2.9423 -0.2698  0.3082
 5598SOL    HW228254   4.188   3.328   6.367  1.8171 -0.3092 -1.7647
 5599SOL     OW28255   2.909   0.778   3.884 -0.4421 -0.1630  0.1636
 5599SOL    HW128256   3.004   0.788   3.875 -0.8609  4.5514  0.6330
 5599SOL    HW228257   2.877   0.853   3.834  1.6636 -0.4691 -1.6565
 5600SOL     OW28258   3.602   2.100   2.466  0.3223 -0.0849  0.3964
 5600SOL    HW128259   3.531   2.085   2.404 -0.4265  0.2619  1.1561
 5600SOL    HW228260   3.679   2.129   2.418 -1.1182 -2.9517 -3.5682
 5601SOL     OW28261   4.293   1.123   9.344  0.0425 -0.6550  0.2016
 5601SOL    HW128262   4.270   1.092   9.432  0.3905 -0.9909  0.1757
 5601SOL    HW228263   4.387   1.142   9.343 -0.1593  0.2221 -1.5141
 5602SOL     OW28264   2.891   3.782   9.451  1.2783 -0.4811  0.5658
 5602SOL    HW128265   2.847   3.710   9.406  1.3011 -0.3735  0.3719
 5602SOL    HW228266   2.901   3.839   9.375  0.0334 -1.5856 -0.4248
 5603SOL     OW28267   2.073   0.653  13.939 -0.5694 -0.4278 -0.2520
 5603SOL    HW128268   2.161   0.621  13.962 -0.7899 -0.2025  0.9258
 5603SOL    HW228269   2.013   0.641  14.012  0.4107 -1.1091  0.4427
 5604SOL     OW28270   2.800   0.150   2.221 -0.0359  0.4285 -0.1585
 5604SOL    HW128271   2.729   0.167   2.283 -1.2741  1.3440 -1.8262
 5604SOL    HW228272   2.841   0.070   2.253 -0.7837  0.6709  1.4063
 5605SOL     OW28273   1.484   2.389   0.722 -0.4699  0.3803  0.0514
 5605SOL    HW128274   1.433   2.313   0.750 -0.0344  0.7355  1.8517
 5605SOL    HW228275   1.517   2.422   0.806  1.8895 -0.2048 -0.6489
 5606SOL     OW28276   4.602   3.847  15.735  0.2699 -0.8354 -0.1109
 5606SOL    HW128277   4.570   3.781  15.673 -0.7408  1.7784 -2.3629
 5606SOL    HW228278   4.616   3.918  15.672 -1.9466  0.3991  0.8079
 5607SOL     OW28279   1.118   4.238   7.878 -0.2042 -0.2882 -0.0492
 5607SOL    HW128280   1.140   4.154   7.838 -0.3478 -0.3629  0.0327
 5607SOL    HW228281   1.128   4.307   7.812 -2.3659 -0.5702 -0.6662
 5608SOL     OW28282   0.888   1.563   0.919 -0.4674  0.3722  0.6676
 5608SOL    HW128283   0.967   1.520   0.887 -0.3850  0.5616  0.6169
 5608SOL    HW228284   0.822   1.499   0.942  0.0688 -0.2928  0.3405
 5609SOL     OW28285   0.730   1.782   1.023 -0.0634  0.5251 -0.5294
 5609SOL    HW128286   0.784   1.861   1.033  2.6342 -1.4970  1.0628
 5609SOL    HW228287   0.792   1.730   0.972 -1.6746  0.3951 -2.3390
 5610SOL     OW28288   3.600   1.147   6.619 -0.2822  0.1052 -0.2560
 5610SOL    HW128289   3.654   1.131   6.697 -1.8628 -0.3331  0.7379
 5610SOL    HW228290   3.548   1.222   6.647 -1.7687 -0.8205 -0.5415
 5611SOL     OW28291   3.860   3.583   6.939 -0.2706  0.7095 -0.5658
 5611SOL    HW128292   3.892   3.569   6.849 -0.3268 -0.2656 -0.4385
 5611SOL    HW228293   3.771   3.549   6.931 -0.7819  1.7297  0.9264
 5612SOL     OW28294   3.344   0.051   2.916 -0.9346 -0.1929  0.4868
 5612SOL    HW128295   3.400   0.087   2.985 -1.4060  0.2249  0.6463
 5612SOL    HW228296   3.389   4.693   2.904  0.5712  0.2528  3.1465
 5613SOL     OW28297   4.437   0.645   9.304  0.4590  0.6794  0.2845
 5613SOL    HW128298   4.364   0.669   9.361 -0.5627  0.3613 -0.8889
 5613SOL    HW228299   4.507   0.650   9.369  0.7409 -1.5537  0.1566
 5614SOL     OW28300   1.539   4.255   9.444  0.2502 -0.5089 -0.2173
 5614SOL    HW128301   1.457   4.226   9.483  0.2710 -3.4385 -2.4481
 5614SOL    HW228302   1.605   4.211   9.498  0.5554  0.9482  0.6228
 5615SOL     OW28303   0.675   0.741   9.077  0.1779  0.6421  0.7599
 5615SOL    HW128304   0.607   0.769   9.139  0.2009  1.0797  0.5890
 5615SOL    HW228305   0.666   0.808   9.009 -2.2088  2.1202  2.5356
 5616SOL     OW28306   3.846   3.997   2.432 -0.4613 -0.0382 -0.2992
 5616SOL    HW128307   3.916   3.956   2.381  0.2630  3.0816 -1.8533
 5616SOL    HW228308   3.906   4.058   2.475 -0.3872 -1.1214  1.0930
 5617SOL     OW28309   3.954   4.677   8.047  0.2401  0.3927  0.2476
 5617SOL    HW128310   3.968   4.601   7.991  1.2029  2.3631 -2.1700
 5617SOL    HW228311   4.020   4.653   8.112  0.7974 -2.0110 -1.1873
 5618SOL     OW28312   4.510   3.282   5.362 -0.5470 -0.2253 -0.2543
 5618SOL    HW128313   4.521   3.229   5.442 -4.3398  0.3562  0.6773
 5618SOL    HW228314   4.595   3.261   5.324 -0.0294 -2.4994  2.0949
 5619SOL     OW28315   1.213   3.933  15.003 -0.1402  0.4035  0.1820
 5619SOL    HW128316   1.130   3.975  14.981 -1.3425 -1.4314  1.2012
 5619SOL    HW228317   1.198   3.896  15.090 -1.8618  0.6143 -0.0175
 5620SOL     OW28318   3.532   1.654   3.124 -0.3342 -0.0955  0.6127
 5620SOL    HW128319   3.483   1.578   3.091 -0.9098 -0.3657  2.0852
 5620SOL    HW228320   3.471   1.694   3.186 -1.0704 -0.9110  0.4238
 5621SOL     OW28321   1.072   2.654   3.227 -0.4124  0.1343 -0.0627
 5621SOL    HW128322   1.098   2.737   3.187  1.2627 -0.9838 -1.3001
 5621SOL    HW228323   1.105   2.594   3.160  1.5033  1.6253 -0.4216
 5622SOL     OW28324   3.681   1.906   8.591 -0.9981  0.1260  0.1144
 5622SOL    HW128325   3.606   1.961   8.617 -0.1779  0.8639  0.9312
 5622SOL    HW228326   3.746   1.944   8.650 -2.3328 -1.3086  2.5056
 5623SOL     OW28327   1.772   2.826   2.399  0.0545 -0.1369 -0.2430
 5623SOL    HW128328   1.754   2.781   2.482 -1.7022  0.8133 -0.1185
 5623SOL    HW228329   1.774   2.920   2.417  1.2030 -0.5494  1.8646
 5624SOL     OW28330   3.583   0.771   1.661 -0.2976  0.5350  0.0494
 5624SOL    HW128331   3.643   0.735   1.596  1.3719  1.2712  1.1652
 5624SOL    HW228332   3.501   0.732   1.633  0.1334 -2.2281  2.6477
 5625SOL     OW28333   1.305   1.749   6.475  0.1058 -0.1285  0.2687
 5625SOL    HW128334   1.399   1.751   6.491  0.0675 -0.3529  0.5404
 5625SOL    HW228335   1.293   1.736   6.381 -2.2135 -3.6853  1.0426
 5626SOL     OW28336   2.235   0.176   7.575 -0.8016  0.0333  0.4506
 5626SOL    HW128337   2.207   0.178   7.667  1.4474  3.2761  1.0576
 5626SOL    HW228338   2.330   0.185   7.582 -0.7644  0.8689 -1.2138
 5627SOL     OW28339   1.486   1.492   1.717 -0.1394 -0.4576  0.2975
 5627SOL    HW128340   1.461   1.471   1.807  0.3943  1.1348  0.8105
 5627SOL    HW228341   1.483   1.587   1.733 -1.0873 -0.4676  0.2060
 5628SOL     OW28342   0.952   0.523   9.553 -0.7687  0.0847 -0.3874
 5628SOL    HW128343   0.870   0.554   9.515 -1.4851  0.6225  1.5785
 5628SOL    HW228344   0.925   0.492   9.640  0.9293 -1.8376 -0.5533
 5629SOL     OW28345   2.614   2.668   6.375  0.2072 -0.1457 -0.0201
 5629SOL    HW128346   2.650   2.666   6.463 -1.3106  0.3424  0.6241
 5629SOL    HW228347   2.519   2.658   6.386  0.0432  1.4716  0.0775
 5630SOL     OW28348   0.209   4.057  14.121  0.2458 -0.1015 -0.1266
 5630SOL    HW128349   0.141   4.102  14.171  0.3181 -0.2931  0.1423
 5630SOL    HW228350   0.162   4.005  14.056  2.9294 -0.4468 -1.7811
 5631SOL     OW28351   2.723   4.685  15.529  0.0896 -0.1013  0.2603
 5631SOL    HW128352   2.659   4.614  15.519 -1.1313  0.9163  0.7879
 5631SOL    HW228353   2.691   0.020  15.463  0.6168 -0.1795 -0.0634
 5632SOL     OW28354   0.391   2.985   6.068 -0.3561 -0.1375  0.2090
 5632SOL    HW128355   0.402   2.890   6.063  0.9669  0.1037 -1.5470
 5632SOL    HW228356   0.379   3.003   6.161 -0.1369 -0.4482  0.2978
 5633SOL     OW28357   4.616   3.103   4.830 -0.0728 -0.2629 -0.1751
 5633SOL    HW128358   4.630   3.098   4.924 -0.9644  0.0148 -0.0294
 5633SOL    HW228359   4.657   3.189   4.817 -0.8609 -0.0598 -1.3846
 5634SOL     OW28360   2.250   3.164   6.226  0.1641 -0.4109  0.5469
 5634SOL    HW128361   2.185   3.233   6.240  1.6408  0.6975  1.9300
 5634SOL    HW228362   2.324   3.208   6.267  1.3161 -1.9135  0.1030
 5635SOL     OW28363   0.707   1.764   5.373  0.0376  0.7623  0.0455
 5635SOL    HW128364   0.662   1.747   5.456  1.1800  0.7566  0.6581
 5635SOL    HW228365   0.692   1.680   5.331 -4.0066  1.2914  0.4393
 5636SOL     OW28366   3.625   4.106   2.208 -0.1836  0.3836  1.2490
 5636SOL    HW128367   3.654   4.100   2.299  2.1130 -0.4206  0.4753
 5636SOL    HW228368   3.530   4.099   2.215 -0.3143  0.3008 -0.5318
 5637SOL     OW28369   0.528   0.841   7.944  0.0912  0.3265  0.7230
 5637SOL    HW128370   0.579   0.762   7.962  1.2800  0.7565 -0.7502
 5637SOL    HW228371   0.453   0.797   7.903 -0.9829  2.8109  0.0002
 5638SOL     OW28372   1.521   0.129  16.457  0.0454  0.7448  0.0914
 5638SOL    HW128373   1.586   0.109  16.389  0.4491  0.3125  0.6086
 5638SOL    HW228374   1.506   0.224  16.453  3.8560  1.2769 -1.4051
 5639SOL     OW28375   0.874   0.952   7.678  0.1985 -0.3370 -0.3377
 5639SOL    HW128376   0.841   1.022   7.734 -0.6655  0.2278 -1.5334
 5639SOL    HW228377   0.932   1.005   7.623  0.1091 -0.0362 -0.1382
 5640SOL     OW28378   4.227   0.637   7.888 -0.0192  0.3106 -0.2552
 5640SOL    HW128379   4.241   0.707   7.825 -1.9322 -0.4987 -1.5560
 5640SOL    HW228380   4.147   0.671   7.927  0.6166  1.1472  0.3400
 5641SOL     OW28381   0.439   1.553  10.070  0.4175 -0.8539 -0.5142
 5641SOL    HW128382   0.476   1.504  10.144 -2.7249 -0.6186  1.2325
 5641SOL    HW228383   0.466   1.499   9.996 -2.4763 -1.9998 -0.7286
 5642SOL     OW28384   1.608   4.302  10.990 -0.1233 -0.6319 -0.9076
 5642SOL    HW128385   1.671   4.263  11.050 -0.1212 -0.3156 -0.7068
 5642SOL    HW228386   1.580   4.374  11.046  0.8390 -0.5966 -0.4865
 5643SOL     OW28387   3.581   4.384   4.331  0.2633 -0.3480  0.4553
 5643SOL    HW128388   3.623   4.465   4.360  1.7357 -0.3090 -1.7856
 5643SOL    HW228389   3.629   4.322   4.385 -1.9515 -2.5366 -0.1189
 5644SOL     OW28390   1.548   0.096   3.276  0.9340  0.2206 -0.2444
 5644SOL    HW128391   1.594   0.059   3.201 -1.3044  1.7336 -2.3437
 5644SOL    HW228392   1.589   0.047   3.348 -0.3146 -0.5119 -0.0274
 5645SOL     OW28393   1.178   0.178   7.854 -0.3285  0.5304  0.1404
 5645SOL    HW128394   1.184   0.272   7.836 -1.4895  0.3065 -1.4689
 5645SOL    HW228395   1.249   0.143   7.801 -1.7560 -0.4245 -1.1596
 5646SOL     OW28396   3.071   4.156  16.510 -0.2053 -0.1882  0.5562
 5646SOL    HW128397   3.087   4.176  16.418  0.5230  0.4331  0.8201
 5646SOL    HW228398   2.976   4.150  16.518 -0.4854  2.2689 -1.0811
 5647SOL     OW28399   0.958   1.567  12.383  0.0179  0.0300  0.3743
 5647SOL    HW128400   1.046   1.552  12.419 -0.1305  0.0257  0.7385
 5647SOL    HW228401   0.984   1.601  12.298  0.7655 -1.3010  0.0718
 5648SOL     OW28402   3.676   0.283   7.658 -0.1019  0.4676 -0.1424
 5648SOL    HW128403   3.601   0.304   7.603 -0.2558  1.3002  0.3837
 5648SOL    HW228404   3.683   0.190   7.636  0.6351  0.3675  0.5094
 5649SOL     OW28405   0.510   3.952  11.008 -0.6733  0.3049 -0.1076
 5649SOL    HW128406   0.562   4.030  11.029  0.1144 -0.0225 -0.8041
 5649SOL    HW228407   0.423   3.985  11.029 -1.1038 -0.7064 -0.2846
 5650SOL     OW28408   1.474   2.951   9.170 -0.6582 -0.8816  0.1110
 5650SOL    HW128409   1.502   2.957   9.078  1.2923 -0.0201  0.7632
 5650SOL    HW228410   1.560   2.940   9.210  0.2637 -2.5509 -2.2960
 5651SOL     OW28411   1.196   1.888   1.624 -0.0144  0.4157  0.3737
 5651SOL    HW128412   1.264   1.848   1.677 -1.5413 -0.8184  1.4169
 5651SOL    HW228413   1.169   1.817   1.566  2.8395  1.0688 -1.7092
 5652SOL     OW28414   2.377   2.118   0.117  0.2452  0.3908 -0.0137
 5652SOL    HW128415   2.372   2.213   0.119  0.8156  0.4341 -0.3318
 5652SOL    HW228416   2.457   2.101   0.066 -0.7486  1.6789 -2.0112
 5653SOL     OW28417   0.782   1.999   1.666 -1.0393  0.7694  0.0377
 5653SOL    HW128418   0.743   1.984   1.580 -1.7739 -0.7666  0.6233
 5653SOL    HW228419   0.707   2.040   1.710 -0.8293  0.6972  0.4668
 5654SOL     OW28420   2.984   4.016   3.274  0.1187 -0.4235 -1.1560
 5654SOL    HW128421   2.939   4.070   3.209  0.9783 -1.1652 -2.3761
 5654SOL    HW228422   2.906   3.963   3.287 -1.1363  1.3525 -1.4847
 5655SOL     OW28423   2.921   2.130   3.819  0.2372  0.2778 -0.2168
 5655SOL    HW128424   2.931   2.225   3.806 -1.5686  0.9091  2.8417
 5655SOL    HW228425   3.010   2.102   3.839  0.1396 -0.2723 -0.5792
 5656SOL     OW28426   1.655   2.911   5.011  0.2242  0.1138 -0.2751
 5656SOL    HW128427   1.719   2.841   4.999  0.2385  0.1151 -0.2067
 5656SOL    HW228428   1.610   2.878   5.089  0.9015  0.1569  0.1385
 5657SOL     OW28429   3.679   1.025   8.809 -0.3791  0.0104  0.0164
 5657SOL    HW128430   3.743   1.065   8.868  0.4647 -1.2016 -0.0636
 5657SOL    HW228431   3.645   0.958   8.868 -0.4704  1.7237  1.8909
 5658SOL     OW28432   3.462   3.127   4.985 -0.3147 -0.3733  0.4731
 5658SOL    HW128433   3.410   3.132   4.905  0.5148  0.2895 -0.0143
 5658SOL    HW228434   3.543   3.088   4.953  0.1504  0.1530  1.0090
 5659SOL     OW28435   1.283   2.963  13.773  0.3210 -0.3631 -0.5443
 5659SOL    HW128436   1.290   3.002  13.860  2.1643  0.2999 -0.9858
 5659SOL    HW228437   1.191   2.944  13.792  0.7304 -0.9927  0.8365
 5660SOL     OW28438   1.048   4.649   2.274  0.7829  0.3563  0.2212
 5660SOL    HW128439   1.068   4.666   2.366  1.9566  0.6272 -0.0776
 5660SOL    HW228440   1.021   0.009   2.243  1.7086  1.4820  2.4770
 5661SOL     OW28441   2.705   0.036   7.166 -0.3552  0.5721 -0.1367
 5661SOL    HW128442   2.793   0.026   7.129 -0.2178  1.1412  0.0421
 5661SOL    HW228443   2.715   0.011   7.258 -0.0202  1.2367  0.0057
 5662SOL     OW28444   3.756   3.328   7.405 -0.3153  0.1584 -1.1940
 5662SOL    HW128445   3.693   3.351   7.473  0.7892 -1.5468  0.4375
 5662SOL    HW228446   3.728   3.393   7.341 -3.4493  0.4810  0.5388
 5663SOL     OW28447   2.038   3.562  15.953 -0.0274  0.0028  0.3579
 5663SOL    HW128448   2.105   3.621  15.986  1.9539 -2.1742  0.2314
 5663SOL    HW228449   2.075   3.545  15.867  4.3922  1.8176  1.9470
 5664SOL     OW28450   4.557   1.357   2.559 -0.6843 -0.1700 -0.0641
 5664SOL    HW128451   4.555   1.453   2.561 -0.9764 -0.2059  2.3014
 5664SOL    HW228452   4.646   1.329   2.539 -0.4276  1.0068 -0.5310
 5665SOL     OW28453   3.112   3.926   2.126 -0.0642  0.2509  0.0368
 5665SOL    HW128454   3.051   3.903   2.055  0.1332  1.8437 -0.6389
 5665SOL    HW228455   3.060   3.977   2.189  0.8586 -0.7437  1.6097
 5666SOL     OW28456   0.361   3.108   9.258 -0.0001  0.0401  0.4231
 5666SOL    HW128457   0.444   3.070   9.286  1.1792  0.4032 -2.6093
 5666SOL    HW228458   0.299   3.047   9.299  1.3612 -0.7332  1.3548
 5667SOL     OW28459   4.160   3.650   3.278 -0.2993 -0.3041 -0.5201
 5667SOL    HW128460   4.077   3.691   3.301 -1.0869 -1.0602 -2.0196
 5667SOL    HW228461   4.190   3.712   3.212 -4.3720 -0.3094 -2.3402
 5668SOL     OW28462   1.284   4.061   3.059 -0.6077  0.0899  0.4766
 5668SOL    HW128463   1.196   4.066   3.023  0.2364  1.5386 -1.3603
 5668SOL    HW228464   1.344   4.106   3.000 -0.4006 -2.0576 -0.9737
 5669SOL     OW28465   3.227   2.594   2.883 -0.1192 -0.4611 -0.1050
 5669SOL    HW128466   3.305   2.628   2.928 -1.6976 -0.3076  2.4877
 5669SOL    HW228467   3.254   2.614   2.793 -2.5962  0.7343 -0.5850
 5670SOL     OW28468   4.481   3.072  13.825 -0.2775 -0.4397 -0.9429
 5670SOL    HW128469   4.489   3.060  13.919  3.1892 -1.0969 -1.3392
 5670SOL    HW228470   4.454   3.163  13.810  1.2841  0.3751  1.1899
 5671SOL     OW28471   2.404   0.006   4.534  0.5666 -0.2005 -0.1707
 5671SOL    HW128472   2.454   0.083   4.561  0.4611 -0.6954  1.4407
 5671SOL    HW228473   2.440   4.666   4.593 -0.8229 -1.3250 -0.5736
 5672SOL     OW28474   3.401   1.644   7.822 -0.1227 -0.1594  0.1612
 5672SOL    HW128475   3.345   1.697   7.880 -0.0153 -0.2250  0.3257
 5672SOL    HW228476   3.434   1.587   7.892 -0.4071  1.0479  1.2865
 5673SOL     OW28477   1.651   1.149  12.651  0.0607  0.1513  0.5247
 5673SOL    HW128478   1.693   1.069  12.620  1.8301  2.1175 -2.1937
 5673SOL    HW228479   1.612   1.186  12.572  0.7855 -0.5120 -0.1400
 5674SOL     OW28480   1.416   4.641  12.491 -0.3606 -0.5277  0.3130
 5674SOL    HW128481   1.376   4.649  12.404 -1.3303  1.6866  0.9735
 5674SOL    HW228482   1.510   4.623  12.486 -0.4743 -1.0812  0.1743
 5675SOL     OW28483   0.599   2.163  17.563 -1.0909 -0.1541 -0.8682
 5675SOL    HW128484   0.653   2.121  17.496 -0.5727 -1.2399  0.2302
 5675SOL    HW228485   0.638   2.251  17.566 -1.6338  0.0797 -0.6029
 5676SOL     OW28486   2.920   0.991  12.104 -0.2999  0.1779 -0.0744
 5676SOL    HW128487   2.982   1.020  12.037  0.1938 -0.1475  0.2400
 5676SOL    HW228488   2.845   1.045  12.081 -0.3908 -1.3770 -3.3966
 5677SOL     OW28489   1.475   1.407   7.426  0.1949 -0.9157  0.1853
 5677SOL    HW128490   1.464   1.497   7.457  0.1975 -0.2264 -1.8115
 5677SOL    HW228491   1.384   1.381   7.412 -0.0266  0.7131 -1.4614
 5678SOL     OW28492   4.651   0.377   7.679  0.1042  0.0708 -0.2442
 5678SOL    HW128493   0.014   0.343   7.684  0.4587  1.3549  2.0592
 5678SOL    HW228494   4.655   0.472   7.692 -3.8922 -0.0394  1.9579
 5679SOL     OW28495   4.039   1.069   2.812  0.1350  0.1092 -0.7646
 5679SOL    HW128496   4.086   1.053   2.894  1.1388 -0.2485 -1.4010
 5679SOL    HW228497   4.083   1.007   2.753 -0.9754  0.3955 -1.8858
 5680SOL     OW28498   0.765   1.986   2.665  0.4944 -0.4655 -0.0683
 5680SOL    HW128499   0.793   1.935   2.589 -0.9466  0.0479 -0.9524
 5680SOL    HW228500   0.678   1.946   2.669  1.4269 -2.2382  2.4260
 5681SOL     OW28501   3.339   2.388  11.730 -0.7520  0.0743  0.3964
 5681SOL    HW128502   3.368   2.407  11.640 -1.6758 -0.9854 -0.1185
 5681SOL    HW228503   3.346   2.476  11.767  0.0263 -0.5812  1.8130
 5682SOL     OW28504   2.207   4.672   1.029  0.0404 -0.0695 -0.1678
 5682SOL    HW128505   2.166   4.661   0.944  0.8750 -0.3251 -0.5370
 5682SOL    HW228506   2.196   0.039   1.047 -0.0668 -0.4986  1.9990
 5683SOL     OW28507   0.490   0.451   6.517  0.2315  0.0362  0.4236
 5683SOL    HW128508   0.582   0.424   6.508  0.4497  0.1538  2.1379
 5683SOL    HW228509   0.498   0.546   6.517  1.4094 -0.0641 -0.2429
 5684SOL     OW28510   2.052   1.159   3.407  0.3777  0.6106  0.2474
 5684SOL    HW128511   2.136   1.150   3.451  1.2814  1.8633 -1.1932
 5684SOL    HW228512   2.086   1.185   3.321 -0.4722 -1.7412 -0.8222
 5685SOL     OW28513   1.060   3.000   7.413  0.4202 -0.6574 -0.0327
 5685SOL    HW128514   1.079   3.094   7.412  0.6855 -0.6792  2.2298
 5685SOL    HW228515   0.980   2.992   7.361  1.5210 -1.2807 -1.6183
 5686SOL     OW28516   2.043   2.076   6.301  0.0880  0.5596  0.2371
 5686SOL    HW128517   2.047   2.119   6.216  2.4936  0.8312  0.5020
 5686SOL    HW228518   2.042   2.154   6.356  1.6831 -0.4143  1.6533
 5687SOL     OW28519   0.426   4.555   6.973 -0.3676  0.2570  0.1306
 5687SOL    HW128520   0.378   4.534   7.053 -1.1516  1.4890 -0.0153
 5687SOL    HW228521   0.513   4.533   7.006  0.6793  1.8078 -1.6649
 5688SOL     OW28522   0.765   0.332  14.015 -0.0082  0.6896 -0.3528
 5688SOL    HW128523   0.674   0.304  14.032  0.7008 -0.6674  1.2469
 5688SOL    HW228524   0.804   0.282  14.087  2.5163  1.9904 -0.8231
 5689SOL     OW28525   4.349   2.150   6.466  0.1586 -0.1438 -0.2065
 5689SOL    HW128526   4.368   2.079   6.404 -0.3665  0.1990 -0.7577
 5689SOL    HW228527   4.269   2.110   6.499  0.8907 -0.6434  0.9749
 5690SOL     OW28528   3.941   2.053   2.998  0.0458  0.5581 -0.4460
 5690SOL    HW128529   3.848   2.042   2.977  0.3002  0.2366 -1.3926
 5690SOL    HW228530   3.941   2.131   3.055 -0.9214  1.0958 -1.1691
 5691SOL     OW28531   3.998   2.952  10.241  0.1893 -0.2577 -0.8428
 5691SOL    HW128532   4.008   3.011  10.315 -0.9595  0.5214 -1.3209
 5691SOL    HW228533   4.041   2.872  10.272 -0.5428 -1.1448 -2.1437
 5692SOL     OW28534   0.741   1.391  12.129  0.1652  0.4199  0.1252
 5692SOL    HW128535   0.685   1.350  12.195  2.0632 -0.0235  1.4478
 5692SOL    HW228536   0.802   1.320  12.107 -1.7452 -1.4459  0.8576
 5693SOL     OW28537   3.414   2.286   8.615  0.3151 -0.6546  0.0329
 5693SOL    HW128538   3.415   2.321   8.704  0.8343 -0.8994  0.1223
 5693SOL    HW228539   3.375   2.358   8.566 -1.6884 -2.9742 -1.8048
 5694SOL     OW28540   0.818   2.200  17.067  0.3085 -0.0567 -0.7750
 5694SOL    HW128541   0.876   2.270  17.039  0.4598 -0.8006 -2.3099
 5694SOL    HW228542   0.878   2.125  17.066 -0.7083 -0.8926  0.1706
 5695SOL     OW28543   4.529   4.288  10.562 -0.4099 -0.4735 -0.3512
 5695SOL    HW128544   4.476   4.292  10.642  0.7949 -1.2210  0.4896
 5695SOL    HW228545   4.459   4.289  10.498 -0.8785  0.6249  0.1693
 5696SOL     OW28546   1.683   0.830   5.944  0.0833  0.6688  0.5587
 5696SOL    HW128547   1.697   0.805   6.035 -0.7025 -1.6758  0.0140
 5696SOL    HW228548   1.721   0.919   5.944  2.7947 -0.4901 -1.0404
 5697SOL     OW28549   0.844   4.099   8.046 -0.2200 -0.0690  0.3426
 5697SOL    HW128550   0.798   4.103   8.129 -4.9467  0.2885 -2.3107
 5697SOL    HW228551   0.897   4.020   8.057  0.3535  0.1448 -0.8667
 5698SOL     OW28552   4.014   1.559  17.669  0.2187 -0.1847 -0.3091
 5698SOL    HW128553   3.973   1.632   0.010 -1.0242 -0.4596 -0.9529
 5698SOL    HW228554   3.975   1.492   0.018  0.5568 -0.7926 -0.8122
 5699SOL     OW28555   1.448   3.501  17.669  0.4521 -0.6684 -0.3541
 5699SOL    HW128556   1.432   3.546   0.047 -1.2437  2.9298 -2.6309
 5699SOL    HW228557   1.437   3.410  17.698  0.4738 -1.1456 -1.8873
 5700SOL     OW28558   1.983   1.622   1.244  0.1977 -0.3703 -0.0301
 5700SOL    HW128559   1.974   1.546   1.300  1.8897 -0.0753  0.6494
 5700SOL    HW228560   1.964   1.590   1.156  2.6873 -0.2992 -0.5924
 5701SOL     OW28561   2.637   2.124   6.799  0.1035 -0.1530 -0.1912
 5701SOL    HW128562   2.727   2.123   6.829 -1.3835  0.9961  4.2623
 5701SOL    HW228563   2.646   2.078   6.715 -2.1601  1.7491 -1.4790
 5702SOL     OW28564   2.257   3.353  12.849  0.0153 -0.0738 -0.1159
 5702SOL    HW128565   2.286   3.416  12.916  1.8308 -2.4966  1.3761
 5702SOL    HW228566   2.336   3.354  12.795  0.1056 -1.1993  0.0009
 5703SOL     OW28567   3.442   4.200   1.404  0.3133  0.1367  0.3418
 5703SOL    HW128568   3.424   4.292   1.387 -2.2479 -0.2271  1.0100
 5703SOL    HW228569   3.357   4.157   1.392  0.1379  0.5545  0.1149
 5704SOL     OW28570   3.624   4.064   3.964 -0.0939  0.2443  0.3839
 5704SOL    HW128571   3.591   4.109   3.886 -0.7987  1.8899  1.6246
 5704SOL    HW228572   3.717   4.059   3.941 -0.5164 -0.8389 -1.0389
 5705SOL     OW28573   4.088   1.833  11.568 -0.6817 -0.3326 -0.0806
 5705SOL    HW128574   4.165   1.781  11.546  0.3167  1.0820  0.0569
 5705SOL    HW228575   4.027   1.799  11.503  1.7965  0.1627 -2.6526
 5706SOL     OW28576   1.224   1.411  16.725 -0.2771 -0.4919  0.4723
 5706SOL    HW128577   1.222   1.357  16.804 -0.0515 -2.2614 -0.7432
 5706SOL    HW228578   1.202   1.500  16.754 -2.0016 -0.8339  0.2399
 5707SOL     OW28579   3.329   2.234   7.403  0.8022 -0.0345 -0.3319
 5707SOL    HW128580   3.365   2.165   7.348  0.6009 -0.5595  0.1886
 5707SOL    HW228581   3.391   2.249   7.475 -0.7778  1.5740  0.6932
 5708SOL     OW28582   0.186   4.263  14.505  0.0382 -0.3022 -0.4231
 5708SOL    HW128583   0.144   4.259  14.419 -0.7121 -1.1650 -0.0081
 5708SOL    HW228584   0.189   4.358  14.517 -0.4259  0.0524 -3.0291
 5709SOL     OW28585   0.522   2.657   3.546 -0.1155  0.2472  0.2955
 5709SOL    HW128586   0.526   2.749   3.519 -1.6020 -0.2764 -1.6321
 5709SOL    HW228587   0.609   2.622   3.527  0.7389  1.0250  2.7715
 5710SOL     OW28588   2.101   3.058  11.134 -0.0094  0.3555  0.2762
 5710SOL    HW128589   2.028   3.095  11.083  0.6755  3.1220  1.3401
 5710SOL    HW228590   2.153   3.127  11.175 -1.1542  0.4660  1.5482
 5711SOL     OW28591   2.318   0.016  16.603 -0.1038  0.1867 -0.0069
 5711SOL    HW128592   2.284   0.063  16.527  0.7181 -0.7057 -0.9188
 5711SOL    HW228593   2.252   4.674  16.610  0.4363 -0.2640  0.6063
 5712SOL     OW28594   2.713   2.215  11.923  0.0016  0.8171  0.3144
 5712SOL    HW128595   2.673   2.165  11.852  1.3275  0.4213 -0.1394
 5712SOL    HW228596   2.679   2.164  11.996 -1.0204 -0.8499 -1.3448
 5713SOL     OW28597   1.004   4.268   6.565 -0.7121  0.6005  0.2699
 5713SOL    HW128598   1.064   4.328   6.610  1.3440 -0.0175 -1.6505
 5713SOL    HW228599   0.985   4.321   6.489 -1.9523 -0.5235 -0.1940
 5714SOL     OW28600   1.699   1.831   7.668  0.1177  0.4835 -0.3424
 5714SOL    HW128601   1.642   1.866   7.599 -1.4823 -0.1350  0.6671
 5714SOL    HW228602   1.644   1.845   7.745  0.0420  2.2530 -0.7071
 5715SOL     OW28603   2.175   2.458   4.350 -0.2977  0.3503 -0.6275
 5715SOL    HW128604   2.208   2.443   4.439 -1.0058 -0.0581 -0.4335
 5715SOL    HW228605   2.122   2.538   4.355 -2.2012 -0.6341 -4.8734
 5716SOL     OW28606   0.342   0.311   1.807  0.1012  0.0472  0.2081
 5716SOL    HW128607   0.348   0.400   1.841 -0.8731 -0.5243  1.8738
 5716SOL    HW228608   0.315   0.327   1.717  1.6973  1.6614  0.0071
 5717SOL     OW28609   2.912   0.327  17.075 -0.4893 -0.7189 -0.0694
 5717SOL    HW128610   2.997   0.295  17.105 -0.6448 -0.4846  0.6190
 5717SOL    HW228611   2.899   0.280  16.992  1.7787 -0.4476 -0.5772
 5718SOL     OW28612   1.228   0.140   3.018 -0.2371 -0.2415  0.0942
 5718SOL    HW128613   1.140   0.128   3.054 -0.5969 -1.8490 -1.3270
 5718SOL    HW228614   1.258   0.051   3.037 -2.3691 -0.5994  1.7651
 5719SOL     OW28615   3.226   0.165   6.797  0.8054 -0.6903  0.1844
 5719SOL    HW128616   3.299   0.106   6.780  0.0915 -0.6786 -3.0094
 5719SOL    HW228617   3.257   0.220   6.869 -1.1195  0.0651  0.4289
 5720SOL     OW28618   4.521   0.632   6.988 -0.3429 -0.1068  0.0063
 5720SOL    HW128619   4.574   0.572   7.041 -1.1471 -0.8332  0.0033
 5720SOL    HW228620   4.511   0.714   7.036 -2.5208 -0.0072 -0.6138
 5721SOL     OW28621   3.393   3.312  12.077  0.0666 -1.1284 -0.2885
 5721SOL    HW128622   3.389   3.237  12.018  2.8820 -1.0033 -0.6147
 5721SOL    HW228623   3.381   3.383  12.013  0.2141 -2.4850 -1.8206
 5722SOL     OW28624   2.381   4.714   6.408 -0.0392  0.2659  0.6057
 5722SOL    HW128625   2.396   4.651   6.338 -0.4414 -0.2962  1.0320
 5722SOL    HW228626   2.346   4.658   6.477 -2.4505 -0.0591 -0.8795
 5723SOL     OW28627   0.934   0.842   1.806  0.6996  0.2538  0.2846
 5723SOL    HW128628   0.992   0.782   1.854 -1.2044 -1.1454  0.8460
 5723SOL    HW228629   0.909   0.770   1.749  1.0213  0.3299  0.0453
 5724SOL     OW28630   0.575   2.310   6.613 -0.0858  0.4063  0.7199
 5724SOL    HW128631   0.669   2.292   6.608 -0.0893  0.0658  1.9148
 5724SOL    HW228632   0.570   2.368   6.537 -0.5988  1.0073  1.2176
 5725SOL     OW28633   2.467   3.038   3.195 -0.0972  0.1112 -0.3092
 5725SOL    HW128634   2.511   2.955   3.214  1.0381  0.2124 -2.4925
 5725SOL    HW228635   2.443   3.073   3.281 -0.1619  0.8999 -0.6553
 5726SOL     OW28636   4.614   0.080   7.711  0.3853 -0.2872 -0.2037
 5726SOL    HW128637   4.664   0.141   7.657  0.4870 -2.1931 -2.2447
 5726SOL    HW228638   4.523   0.104   7.692  0.1054 -0.7364  0.5738
 5727SOL     OW28639   1.891   0.130   6.346 -0.6741  0.3555  0.5819
 5727SOL    HW128640   1.963   0.192   6.362 -0.5804  0.4048 -0.0595
 5727SOL    HW228641   1.906   0.071   6.420 -0.1602 -1.3299 -0.8702
 5728SOL     OW28642   1.011   2.633   4.339 -0.3297  0.2612  0.0113
 5728SOL    HW128643   1.047   2.720   4.354 -2.4862  0.9077  1.3895
 5728SOL    HW228644   0.937   2.637   4.401 -0.0636  0.4147  0.3183
 5729SOL     OW28645   2.530   1.522   8.954  0.0726  0.4591 -0.1905
 5729SOL    HW128646   2.446   1.515   8.908 -0.1112  1.3993 -0.0210
 5729SOL    HW228647   2.571   1.598   8.914  0.4421 -0.3851 -1.3991
 5730SOL     OW28648   1.558   3.063   7.619  0.4026 -0.3886  0.6409
 5730SOL    HW128649   1.520   2.975   7.614 -0.4819  0.0281  0.0346
 5730SOL    HW228650   1.553   3.073   7.714 -0.0923  1.8262  0.3834
 5731SOL     OW28651   0.002   2.574   2.726  0.3870 -0.9699  0.1224
 5731SOL    HW128652   4.672   2.629   2.672 -0.1774 -2.2733 -0.6225
 5731SOL    HW228653   0.080   2.624   2.702  1.5619 -3.2889 -0.9393
 5732SOL     OW28654   1.710   3.441   2.945 -0.5304  0.1194 -0.1071
 5732SOL    HW128655   1.697   3.390   3.025 -0.9127 -0.8637 -0.7945
 5732SOL    HW228656   1.621   3.459   2.913 -0.6523  2.0194  1.2761
 5733SOL     OW28657   3.555   1.926   7.423  0.1007 -0.8846 -0.6261
 5733SOL    HW128658   3.484   1.902   7.482 -0.9136  2.3743 -0.5768
 5733SOL    HW228659   3.611   1.851   7.444  0.6649 -0.2736  0.0696
 5734SOL     OW28660   4.479   4.625   4.963  0.3168  0.5918  0.7841
 5734SOL    HW128661   4.556   4.660   5.008  0.6514 -0.8053  1.2838
 5734SOL    HW228662   4.527   4.552   4.924 -1.2053  0.6055 -1.1554
 5735SOL     OW28663   0.518   2.484   8.320 -0.2795 -0.1778  0.1824
 5735SOL    HW128664   0.581   2.421   8.284 -1.4527 -0.4607 -1.3809
 5735SOL    HW228665   0.450   2.476   8.253  0.4830 -1.2773 -0.4541
 5736SOL     OW28666   0.046   2.201   7.256  0.3514 -0.0070  1.1342
 5736SOL    HW128667   0.063   2.285   7.299  0.0838  1.4579 -1.6206
 5736SOL    HW228668   0.077   2.212   7.166 -2.1282 -2.5111 -0.0228
 5737SOL     OW28669   2.812   4.134   6.419  0.0292 -0.1192  0.2173
 5737SOL    HW128670   2.896   4.124   6.375  0.6000 -1.3380  1.5988
 5737SOL    HW228671   2.778   4.045   6.408 -1.8001  0.5249  0.6162
 5738SOL     OW28672   4.013   3.603   2.113 -0.0921 -0.5992  0.3016
 5738SOL    HW128673   4.093   3.594   2.062 -0.2630 -0.2796 -0.0209
 5738SOL    HW228674   4.019   3.696   2.133  2.7319 -0.3127 -1.9955
 5739SOL     OW28675   2.110   1.623   1.986  0.1474  0.3617 -0.0431
 5739SOL    HW128676   2.072   1.548   1.939  0.7461  0.0115  0.0226
 5739SOL    HW228677   2.092   1.597   2.076  2.0288  0.1088  0.2646
 5740SOL     OW28678   0.853   2.869   9.233  0.1770 -0.5529 -0.5085
 5740SOL    HW128679   0.936   2.914   9.246  0.1888 -0.9293  0.7956
 5740SOL    HW228680   0.864   2.824   9.149  0.6299 -0.6619 -0.3907
 5741SOL     OW28681   4.565   2.706   4.436 -0.1262  0.2957  0.1546
 5741SOL    HW128682   4.603   2.739   4.355  0.6265 -0.3365  0.2453
 5741SOL    HW228683   4.470   2.714   4.429  0.1903  3.1380 -0.8618
 5742SOL     OW28684   1.035   2.057  10.105 -0.5840  0.3485  0.9393
 5742SOL    HW128685   0.954   2.106  10.119  0.4512  2.2707  0.1687
 5742SOL    HW228686   1.026   2.055  10.009 -0.2288 -0.4479  0.9261
 5743SOL     OW28687   1.771   4.017  16.173 -0.3480  0.0270 -0.1976
 5743SOL    HW128688   1.699   4.038  16.115 -1.0536  0.3869  0.8014
 5743SOL    HW228689   1.842   4.015  16.109 -0.1125  0.1148  0.0585
 5744SOL     OW28690   2.657   1.260   6.781  0.1703  0.5135  0.4687
 5744SOL    HW128691   2.603   1.195   6.826  0.1028  2.2827  2.9576
 5744SOL    HW228692   2.716   1.199   6.737 -0.1562  0.2491  0.3898
 5745SOL     OW28693   3.970   4.619   6.536  0.2302 -0.5031 -1.0220
 5745SOL    HW128694   4.057   4.618   6.577  0.8194  1.8401 -2.2316
 5745SOL    HW228695   3.953   4.711   6.520  0.7384 -0.0177  1.2698
 5746SOL     OW28696   2.783   4.028   3.876 -0.6076  0.4149 -0.0787
 5746SOL    HW128697   2.755   3.966   3.943  0.3794  1.7973  1.6141
 5746SOL    HW228698   2.701   4.039   3.828 -1.0003 -1.1072  0.2536
 5747SOL     OW28699   1.374   0.276  15.131 -0.0461 -0.1629 -0.2529
 5747SOL    HW128700   1.337   0.243  15.049 -0.0833  1.3561 -0.8363
 5747SOL    HW228701   1.301   0.334  15.152  0.6866  0.6037  0.1715
 5748SOL     OW28702   4.276   2.654   2.569 -0.4328 -0.7862  0.2546
 5748SOL    HW128703   4.321   2.650   2.485  0.4198 -0.1579  0.6651
 5748SOL    HW228704   4.216   2.583   2.549 -0.9068 -0.8572  1.9073
 5749SOL     OW28705   0.947   4.394   8.756 -0.2906  0.1084  0.3324
 5749SOL    HW128706   0.930   4.466   8.694 -0.9869  1.4119  2.0392
 5749SOL    HW228707   0.922   4.429   8.841  1.5921  1.0718  0.5095
 5750SOL     OW28708   2.692   4.444   3.291 -0.3190 -0.7176  0.4747
 5750SOL    HW128709   2.735   4.374   3.242  1.9899  1.2268 -0.2457
 5750SOL    HW228710   2.638   4.489   3.227 -0.0683 -0.2097  0.6276
 5751SOL     OW28711   3.923   1.207  10.208 -0.2486 -0.0053  0.1624
 5751SOL    HW128712   3.968   1.217  10.124  0.0537  0.2918  0.3613
 5751SOL    HW228713   3.904   1.300  10.215 -0.2462 -0.0625  0.8471
 5752SOL     OW28714   0.628   3.463   3.815  0.2760 -0.0103 -0.2530
 5752SOL    HW128715   0.547   3.424   3.782  0.5460 -0.1717 -0.7277
 5752SOL    HW228716   0.693   3.393   3.810  0.4210 -0.0979  2.8460
 5753SOL     OW28717   3.545   0.261  12.848 -0.2723 -0.0960 -0.0882
 5753SOL    HW128718   3.514   0.324  12.783  0.3854  0.6120  0.2849
 5753SOL    HW228719   3.637   0.285  12.850  0.5154 -3.1117 -0.4544
 5754SOL     OW28720   0.020   2.089  15.535  0.5588 -0.2732  0.2120
 5754SOL    HW128721   0.073   2.127  15.465  1.3746  0.5639  1.2917
 5754SOL    HW228722   0.019   2.157  15.602  1.5657 -0.5009  0.4584
 5755SOL     OW28723   1.380   1.432   5.021  0.3689  0.3845 -0.2239
 5755SOL    HW128724   1.373   1.338   5.008  1.3684  0.5643 -1.9843
 5755SOL    HW228725   1.427   1.444   4.939  0.2654 -2.8045 -0.7230
 5756SOL     OW28726   0.553   3.783   5.265  0.4809 -0.1038  0.2128
 5756SOL    HW128727   0.625   3.738   5.311 -0.2180 -1.7604 -0.3172
 5756SOL    HW228728   0.555   3.855   5.327  3.4746 -0.8401  1.0115
 5757SOL     OW28729   0.290   3.501   8.892  0.2809 -0.2504 -0.1479
 5757SOL    HW128730   0.242   3.425   8.859  0.5217  0.2306 -1.6123
 5757SOL    HW228731   0.316   3.486   8.983  0.3504  0.5153 -0.0344
 5758SOL     OW28732   4.475   0.530   3.288  0.0763 -0.1504 -0.0529
 5758SOL    HW128733   4.430   0.498   3.210  0.6206 -2.5528  0.6114
 5758SOL    HW228734   4.409   0.596   3.310  0.7582  0.9265 -1.2505
 5759SOL     OW28735   0.684   3.066  10.468  0.4789  0.1423  0.5996
 5759SOL    HW128736   0.651   3.033  10.384  1.3072 -0.1559  0.3969
 5759SOL    HW228737   0.644   3.001  10.525 -0.7808 -0.4677 -0.9817
 5760SOL     OW28738   1.021   3.541  13.949 -0.1529 -0.1133 -0.6516
 5760SOL    HW128739   0.994   3.590  14.027  1.1046 -0.8370  0.2377
 5760SOL    HW228740   1.108   3.506  13.971  0.7689  1.9130 -1.0599
 5761SOL     OW28741   0.674   3.573  12.761 -0.3209 -0.1745 -0.0644
 5761SOL    HW128742   0.705   3.504  12.821  1.2682  0.2476 -0.3844
 5761SOL    HW228743   0.737   3.551  12.693 -0.6281 -3.4459  0.6923
 5762SOL     OW28744   2.819   3.110   8.195  0.4845  0.0268  0.0038
 5762SOL    HW128745   2.840   3.180   8.133 -1.7708 -2.3455 -3.4650
 5762SOL    HW228746   2.765   3.156   8.259  1.4288  2.2335 -0.8096
 5763SOL     OW28747   4.497   2.362  13.801  0.5903  0.4451 -0.1108
 5763SOL    HW128748   4.491   2.448  13.843  1.0209  0.5368 -0.2400
 5763SOL    HW228749   4.419   2.362  13.745  1.9892 -1.2173 -2.0663
 5764SOL     OW28750   2.044   1.024   8.678 -0.1228 -1.0966 -0.6513
 5764SOL    HW128751   2.003   0.941   8.657 -1.4933 -0.1668 -1.6374
 5764SOL    HW228752   2.139   1.010   8.681 -0.0954 -0.8877 -0.4659
 5765SOL     OW28753   2.141   4.124  11.359 -0.2245 -0.7448 -1.0346
 5765SOL    HW128754   2.089   4.185  11.306 -0.4160  1.5845  1.8017
 5765SOL    HW228755   2.232   4.155  11.350 -0.3738 -0.7273 -2.5783
 5766SOL     OW28756   4.248   3.130   9.438  0.1043  0.0304 -0.1814
 5766SOL    HW128757   4.257   3.162   9.348 -1.4660  0.5633 -0.1570
 5766SOL    HW228758   4.235   3.037   9.419  2.0443 -0.8178  2.7707
 5767SOL     OW28759   2.618   0.637   6.892  0.0461 -0.3920  0.2282
 5767SOL    HW128760   2.543   0.673   6.940 -0.5902 -2.1593  0.5525
 5767SOL    HW228761   2.575   0.556   6.864 -0.4100  0.0254 -0.2724
 5768SOL     OW28762   2.659   1.354   8.670  0.0390 -1.0279  0.5180
 5768SOL    HW128763   2.742   1.401   8.681  0.3482 -1.9730  2.2323
 5768SOL    HW228764   2.690   1.264   8.672 -0.2758 -1.1249  0.9315
 5769SOL     OW28765   4.244   4.568  13.410  0.4364 -0.2503 -0.1253
 5769SOL    HW128766   4.280   4.581  13.322  0.6530  1.2640  0.1818
 5769SOL    HW228767   4.321   4.534  13.454  0.0868 -0.3467  0.4130
 5770SOL     OW28768   3.705   2.258   8.786  0.0152  0.1692  0.5468
 5770SOL    HW128769   3.610   2.247   8.791  0.0644 -1.0936 -1.3768
 5770SOL    HW228770   3.717   2.297   8.700  2.6043 -0.4086  0.6651
 5771SOL     OW28771   3.666   1.400   3.563 -0.0746  0.5285  0.0528
 5771SOL    HW128772   3.655   1.382   3.470  0.8276  1.4728 -0.2311
 5771SOL    HW228773   3.732   1.335   3.588  1.4870  0.8345 -3.2359
 5772SOL     OW28774   0.894   2.748   8.958  0.0036 -0.3074 -0.4386
 5772SOL    HW128775   0.816   2.802   8.964  0.2995 -0.0527  1.1885
 5772SOL    HW228776   0.850   2.666   8.936  0.9687 -1.4639  1.9340
 5773SOL     OW28777   4.011   1.906  13.900 -0.1715  0.4238  0.2229
 5773SOL    HW128778   3.939   1.842  13.900 -0.9638  1.3260 -1.7652
 5773SOL    HW228779   4.034   1.908  13.993  1.0552  0.4209 -0.0813
 5774SOL     OW28780   2.659   1.681   2.841  0.4326 -0.3879  0.0072
 5774SOL    HW128781   2.692   1.770   2.855  0.3549 -0.2890 -0.4517
 5774SOL    HW228782   2.631   1.695   2.751 -2.4895 -0.3170  0.9322
 5775SOL     OW28783   1.317   1.236   1.297  0.2528  0.2131  0.6380
 5775SOL    HW128784   1.316   1.205   1.206  1.5206  0.7650  0.4281
 5775SOL    HW228785   1.227   1.223   1.327  0.1064  0.7484  0.4234
 5776SOL     OW28786   0.195   0.248   2.816 -0.3844  0.7133  0.2423
 5776SOL    HW128787   0.168   0.326   2.768 -2.4461 -0.3075 -0.2666
 5776SOL    HW228788   0.190   0.276   2.907 -0.5724  1.5417 -0.0189
 5777SOL     OW28789   0.076   2.078  11.713 -0.0589 -0.2403 -0.7989
 5777SOL    HW128790   4.712   2.108  11.724  0.2433  0.3934 -0.0108
 5777SOL    HW228791   0.075   2.046  11.623 -0.1938  0.0970 -0.9187
 5778SOL     OW28792   4.438   0.855   9.558 -0.4759 -0.0624  0.3972
 5778SOL    HW128793   4.468   0.764   9.557  0.4078  0.2286 -1.6600
 5778SOL    HW228794   4.520   0.905   9.557 -1.1319  0.9955 -0.8500
 5779SOL     OW28795   0.899   0.149  15.233 -0.4289 -0.0070 -0.2403
 5779SOL    HW128796   0.833   0.079  15.227  1.1556 -1.4839 -0.4790
 5779SOL    HW228797   0.850   0.215  15.282 -0.9827  2.1391 -3.6996
 5780SOL     OW28798   3.795   4.168   5.424  0.3023  0.4272  0.0041
 5780SOL    HW128799   3.830   4.079   5.416 -0.3900  0.1462  0.0804
 5780SOL    HW228800   3.705   4.165   5.391  0.9126  1.5500 -1.7474
 5781SOL     OW28801   2.062   3.532  16.931 -0.1919  0.1747 -0.0505
 5781SOL    HW128802   1.968   3.548  16.936 -0.2473  0.6189 -2.7221
 5781SOL    HW228803   2.087   3.523  17.023  0.3096  0.2265 -0.1804
 5782SOL     OW28804   2.419   0.718   9.775 -0.2204 -0.2311  0.8250
 5782SOL    HW128805   2.374   0.636   9.755  1.9431 -1.6879  1.8798
 5782SOL    HW228806   2.346   0.770   9.811 -0.9259 -0.1478 -0.7521
 5783SOL     OW28807   4.213   2.782   9.012  0.0850  0.1433  0.3518
 5783SOL    HW128808   4.289   2.839   9.024  1.0508 -1.3990  1.5172
 5783SOL    HW228809   4.249   2.705   8.968 -1.2825  0.0509 -0.5973
 5784SOL     OW28810   1.271   1.251   5.538 -0.3524  0.6305  0.8546
 5784SOL    HW128811   1.356   1.221   5.507 -0.3014  1.2950  0.3482
 5784SOL    HW228812   1.235   1.292   5.459 -1.1494 -2.0743 -0.1701
 5785SOL     OW28813   0.862   0.420  12.517  0.0037 -0.6711 -0.2990
 5785SOL    HW128814   0.858   0.399  12.610 -0.8146 -0.6258 -0.3232
 5785SOL    HW228815   0.775   0.387  12.496 -0.4313 -0.9418  1.9659
 5786SOL     OW28816   2.835   1.879  12.654  0.6483 -0.5098 -0.2005
 5786SOL    HW128817   2.788   1.952  12.693  1.2787 -0.7833  1.0453
 5786SOL    HW228818   2.858   1.907  12.565 -0.6549  0.1001 -0.3485
 5787SOL     OW28819   3.474   4.087   1.897  0.2783  0.5621 -0.0020
 5787SOL    HW128820   3.446   4.127   1.979 -2.7525 -0.3817 -0.5771
 5787SOL    HW228821   3.423   4.005   1.902  0.1797  0.4390 -3.2615
 5788SOL     OW28822   1.663   3.146  17.586  0.3001 -0.1652  0.1418
 5788SOL    HW128823   1.576   3.116  17.559  0.1328  0.5777 -0.1370
 5788SOL    HW228824   1.716   3.067  17.570 -1.0327 -1.0796  0.2365
 5789SOL     OW28825   0.131   0.745   8.599 -0.2754  0.0461  0.1844
 5789SOL    HW128826   0.086   0.733   8.682 -1.3716 -1.8545 -0.6761
 5789SOL    HW228827   0.176   0.829   8.610  1.6822 -0.8772 -0.6981
 5790SOL     OW28828   0.792   1.643   7.463  0.4398 -0.5243 -0.4428
 5790SOL    HW128829   0.872   1.603   7.428  2.0962  0.8126  1.8255
 5790SOL    HW228830   0.748   1.633   7.378  2.0357  0.5912 -1.4025
 5791SOL     OW28831   2.566   0.086  15.754  0.3222  0.6433 -0.5433
 5791SOL    HW128832   2.485   0.101  15.705 -0.0560 -2.8826 -0.9810
 5791SOL    HW228833   2.611   0.045  15.681 -0.2366  1.4071 -1.3103
 5792SOL     OW28834   2.617   2.851   2.734 -0.5485  0.2656 -0.2965
 5792SOL    HW128835   2.583   2.936   2.761 -0.5286 -0.4404  1.9913
 5792SOL    HW228836   2.647   2.863   2.644  0.7649 -2.6955 -0.2808
 5793SOL     OW28837   4.624   0.801   3.185 -0.2206 -0.3036  0.0536
 5793SOL    HW128838   4.594   0.782   3.274 -1.7013 -2.9907 -1.0453
 5793SOL    HW228839   4.660   0.715   3.162 -0.5005 -0.0596 -1.2821
 5794SOL     OW28840   4.659   0.404  10.102 -0.7447 -0.0089  0.1438
 5794SOL    HW128841   4.690   0.324  10.060  1.4927  2.4643 -2.8896
 5794SOL    HW228842   0.006   0.465  10.099 -0.9224  0.1865 -0.1494
 5795SOL     OW28843   4.108   3.638   1.736 -0.4541 -0.2470 -0.0546
 5795SOL    HW128844   4.032   3.580   1.727  0.3381 -1.1100 -1.1691
 5795SOL    HW228845   4.078   3.715   1.688 -0.6234 -0.0445  0.3734
 5796SOL     OW28846   4.170   3.564   9.564 -0.5969  0.0374  0.0661
 5796SOL    HW128847   4.212   3.479   9.576  1.1628  0.9926  0.7349
 5796SOL    HW228848   4.078   3.538   9.562  0.0372 -2.3973  3.3542
 5797SOL     OW28849   4.033   0.079   3.742  0.1306 -0.0452  0.4276
 5797SOL    HW128850   3.996   0.150   3.795  2.5227  1.4111  0.1424
 5797SOL    HW228851   4.053   0.116   3.655 -1.4458  0.2456  0.1834
 5798SOL     OW28852   3.012   1.363   2.678  0.6791 -0.3257  0.0695
 5798SOL    HW128853   2.943   1.390   2.739 -0.6194 -1.7814 -0.7616
 5798SOL    HW228854   2.988   1.400   2.593 -3.1212 -0.3492  1.1017
 5799SOL     OW28855   4.679   0.984   2.303 -0.4862 -0.3505  0.5492
 5799SOL    HW128856   4.685   1.078   2.317 -0.3226 -0.7042  3.0159
 5799SOL    HW228857   4.661   0.949   2.391 -0.5240 -1.8266 -0.0505
 5800SOL     OW28858   2.867   0.475   7.928  0.4095  0.5897 -0.5801
 5800SOL    HW128859   2.960   0.494   7.933  0.3801  0.2120  1.3915
 5800SOL    HW228860   2.866   0.393   7.879  0.0740 -1.1836  2.3764
 5801SOL     OW28861   2.227   1.595   7.042 -0.2115  0.1810  0.8610
 5801SOL    HW128862   2.267   1.680   7.021 -0.1740  0.1212  0.6891
 5801SOL    HW228863   2.286   1.525   7.013 -2.0917 -0.0322 -2.4179
 5802SOL     OW28864   2.714   1.985   9.858  0.1662 -0.2558 -0.4453
 5802SOL    HW128865   2.785   2.015   9.802  2.3096 -2.0753  1.3116
 5802SOL    HW228866   2.760   1.932   9.923  0.3350  1.5173  0.8692
 5803SOL     OW28867   2.712   2.223   5.142 -0.2601 -0.8399 -0.3888
 5803SOL    HW128868   2.774   2.158   5.175 -0.0363  0.3543  1.4931
 5803SOL    HW228869   2.718   2.214   5.047 -0.9530 -0.0883 -0.5065
 5804SOL     OW28870   2.186   3.725  16.648  0.5618  0.0850  0.0263
 5804SOL    HW128871   2.128   3.650  16.641  1.8475 -0.9737  0.9506
 5804SOL    HW228872   2.266   3.681  16.621  1.6887  2.3154 -0.2669
 5805SOL     OW28873   1.413   3.990   7.973 -0.0743 -0.1186 -0.4961
 5805SOL    HW128874   1.466   3.991   7.893 -0.0301  1.3746 -0.4357
 5805SOL    HW228875   1.470   4.029   8.039  0.3200 -1.3932 -0.0891
 5806SOL     OW28876   0.771   0.975   8.911  0.8037  0.2512  0.2052
 5806SOL    HW128877   0.846   0.957   8.968  0.0060  0.7209  1.4081
 5806SOL    HW228878   0.811   1.037   8.851  0.1621 -1.5059 -2.0601
 5807SOL     OW28879   4.442   0.111  10.980 -0.2293 -0.4928 -0.2785
 5807SOL    HW128880   4.455   0.200  11.012  0.6387 -0.1916 -1.4831
 5807SOL    HW228881   4.347   0.113  10.962 -0.7714  0.5539  2.7309
 5808SOL     OW28882   1.548   2.403  12.576 -0.2183  0.4527 -0.9880
 5808SOL    HW128883   1.549   2.489  12.534 -0.0675  0.5324 -0.8223
 5808SOL    HW228884   1.459   2.402  12.611 -0.2762  0.8045 -1.1274
 5809SOL     OW28885   0.319   2.526  15.172 -0.4319  0.2331 -0.6723
 5809SOL    HW128886   0.292   2.613  15.143  0.5591  0.3420 -1.2586
 5809SOL    HW228887   0.248   2.500  15.232 -1.2402 -0.5505 -1.9686
 5810SOL     OW28888   3.874   3.157   7.028  0.3616 -0.2520  0.4399
 5810SOL    HW128889   3.784   3.189   7.033  0.8389  1.2157 -0.3614
 5810SOL    HW228890   3.858   3.064   7.017  1.9371 -0.3875 -0.7086
 5811SOL     OW28891   0.897   1.813   4.885  1.0203 -0.5759 -0.0141
 5811SOL    HW128892   0.888   1.766   4.968  0.0545 -0.6608 -0.1678
 5811SOL    HW228893   0.962   1.878   4.909  0.4357  0.2051 -0.5389
 5812SOL     OW28894   1.559   1.426   6.969  0.0071  0.4985  0.0558
 5812SOL    HW128895   1.598   1.344   6.999  3.0071  2.2198  0.9246
 5812SOL    HW228896   1.640   1.475   6.952  0.0736  0.1012 -0.7764
 5813SOL     OW28897   0.585   0.806   1.764 -0.1770  0.0696 -0.2642
 5813SOL    HW128898   0.613   0.792   1.854  1.0244  0.9401 -0.5063
 5813SOL    HW228899   0.663   0.803   1.708  2.1700  1.3595  2.9982
 5814SOL     OW28900   0.275   4.184   2.159 -0.0368 -0.2430 -0.6429
 5814SOL    HW128901   0.210   4.224   2.217  1.9996 -0.0107  1.4609
 5814SOL    HW228902   0.219   4.130   2.103  2.5131 -1.9771 -1.4920
 5815SOL     OW28903   3.511   3.972   6.745 -0.2251  0.3102  0.4163
 5815SOL    HW128904   3.551   4.024   6.676 -0.9445 -3.7065 -2.9974
 5815SOL    HW228905   3.586   3.953   6.802 -1.2195 -0.6727  1.3968
 5816SOL     OW28906   4.191   4.240   7.766  0.3101 -0.7225 -0.0206
 5816SOL    HW128907   4.103   4.211   7.789  0.5450  0.9501  2.9640
 5816SOL    HW228908   4.184   4.335   7.774 -0.6605 -0.6246 -2.2323
 5817SOL     OW28909   3.287   3.846   7.587 -0.0415 -0.3788 -0.9541
 5817SOL    HW128910   3.244   3.778   7.639 -1.2335  2.2930  1.5274
 5817SOL    HW228911   3.365   3.868   7.639  0.6513  0.6666 -2.4300
 5818SOL     OW28912   2.418   0.439   5.798  0.2314 -0.6601 -0.2739
 5818SOL    HW128913   2.423   0.483   5.713  2.2547 -1.0362 -0.3461
 5818SOL    HW228914   2.354   0.495   5.841 -1.9559 -2.8167 -0.7265
 5819SOL     OW28915   0.341   4.520   8.497  0.2185  0.6537 -0.9425
 5819SOL    HW128916   0.368   4.565   8.576 -1.0782 -3.8529  2.0585
 5819SOL    HW228917   0.246   4.516   8.503  0.3469 -0.8501  0.1352
 5820SOL     OW28918   1.116   0.115   3.952 -0.1007 -0.3905 -0.0747
 5820SOL    HW128919   1.122   0.024   3.921 -1.4850 -0.5367  0.0433
 5820SOL    HW228920   1.073   0.160   3.880 -0.1763  1.7720  1.3277
 5821SOL     OW28921   4.042   2.084   7.308 -0.2867  0.4156 -0.3382
 5821SOL    HW128922   4.077   2.165   7.343  0.3910 -0.6162  1.3405
 5821SOL    HW228923   4.056   2.024   7.381 -0.2204  0.9069  0.0526
 5822SOL     OW28924   0.183   2.194   3.760  0.2456 -0.1681 -0.0330
 5822SOL    HW128925   0.180   2.185   3.855  1.1999 -3.3207 -0.2996
 5822SOL    HW228926   0.166   2.287   3.745  0.1326 -0.4827 -1.9520
 5823SOL     OW28927   2.679   3.706   3.977 -0.1577 -0.1902  0.1181
 5823SOL    HW128928   2.662   3.615   4.004  0.2334 -0.3839 -0.2921
 5823SOL    HW228929   2.775   3.704   3.977 -0.1642 -0.7738  0.6384
 5824SOL     OW28930   1.578   0.670   2.817  0.3238 -0.1198 -0.2494
 5824SOL    HW128931   1.669   0.645   2.803 -0.1997 -1.1742 -1.7592
 5824SOL    HW228932   1.543   0.632   2.736  0.6556 -2.3077  0.6544
 5825SOL     OW28933   3.714   3.491   9.866 -0.3830  0.3322  0.2184
 5825SOL    HW128934   3.621   3.469   9.858 -0.6096  1.0915  0.7097
 5825SOL    HW228935   3.731   3.500   9.772 -1.7839  1.3887  0.0622
 5826SOL     OW28936   2.865   4.224   3.104  0.7186 -0.1085 -0.4140
 5826SOL    HW128937   2.852   4.188   3.017  0.7408 -0.3822 -0.3053
 5826SOL    HW228938   2.775   4.208   3.131  0.5188 -1.5538 -1.9506
 5827SOL     OW28939   0.756   1.088   1.072 -0.3218  0.2361 -0.1550
 5827SOL    HW128940   0.662   1.080   1.060 -0.6072  1.3890  1.3619
 5827SOL    HW228941   0.782   1.081   0.980  0.7577 -0.6987  0.2217
 5828SOL     OW28942   2.060   1.172   5.769  0.0704 -0.0257  0.2402
 5828SOL    HW128943   2.153   1.188   5.784  0.4812 -1.7300 -0.5716
 5828SOL    HW228944   2.025   1.255   5.802 -1.4579 -0.3376 -0.6135
 5829SOL     OW28945   2.246   0.967  12.218 -0.3050  0.4432 -0.8368
 5829SOL    HW128946   2.150   0.971  12.222 -0.2881 -0.3215  0.2700
 5829SOL    HW228947   2.261   0.892  12.276 -2.2021  0.3293 -0.4935
 5830SOL     OW28948   4.523   0.353   1.505 -0.5622  0.2556  0.1893
 5830SOL    HW128949   4.607   0.382   1.470 -1.8535  1.1003 -2.2481
 5830SOL    HW228950   4.553   0.303   1.581  0.9713  1.9568  0.7033
 5831SOL     OW28951   1.784   1.420   0.673 -0.1439  0.0315 -0.2449
 5831SOL    HW128952   1.710   1.371   0.709  1.4884  0.0593  3.1899
 5831SOL    HW228953   1.779   1.506   0.715  1.9544 -0.4600  1.0331
 5832SOL     OW28954   2.394   4.632  12.152  0.0244  0.4691  0.7696
 5832SOL    HW128955   2.420   4.722  12.172  0.4357  0.3909  0.5975
 5832SOL    HW228956   2.326   4.653  12.089  0.1514 -0.1876  0.4104
 5833SOL     OW28957   2.339   2.155   2.493 -0.5154 -0.2805  0.1397
 5833SOL    HW128958   2.422   2.198   2.511  0.5196 -1.4254 -1.8779
 5833SOL    HW228959   2.335   2.099   2.571 -0.0536  1.3148  1.3046
 5834SOL     OW28960   3.092   2.498   9.078 -0.2798  0.0426  0.0589
 5834SOL    HW128961   3.153   2.445   9.129 -0.3565 -0.8645 -0.7893
 5834SOL    HW228962   3.097   2.474   8.986 -0.3580  1.9743 -0.4413
 5835SOL     OW28963   0.565   0.569  10.710 -0.6584 -0.8314  0.7599
 5835SOL    HW128964   0.560   0.648  10.764 -1.4833  0.7525 -1.6839
 5835SOL    HW228965   0.620   0.522  10.774 -1.2856 -0.7428  1.3616
 5836SOL     OW28966   0.406   2.236   7.139 -0.0094  0.1558 -0.1789
 5836SOL    HW128967   0.334   2.258   7.080  0.1754 -0.7762 -0.7489
 5836SOL    HW228968   0.480   2.237   7.079 -0.4065  2.5390 -0.6129
 5837SOL     OW28969   3.239   2.219   3.468  0.2493  0.4251  0.1889
 5837SOL    HW128970   3.249   2.311   3.446  0.7012  0.5620  0.9681
 5837SOL    HW228971   3.148   2.226   3.498  0.0830 -1.4176  0.1446
 5838SOL     OW28972   4.674   1.770   4.958 -0.1731 -0.1922 -0.0218
 5838SOL    HW128973   0.005   1.723   5.019 -0.0337 -0.0654 -0.0547
 5838SOL    HW228974   0.010   1.831   4.918  0.1650  0.0025  0.7992
 5839SOL     OW28975   3.622   2.662   9.164 -0.5067 -0.1959 -0.5741
 5839SOL    HW128976   3.663   2.648   9.250 -0.3480  0.2424 -0.5781
 5839SOL    HW228977   3.536   2.621   9.166 -0.5380 -0.0285  2.1525
 5840SOL     OW28978   3.025   2.544  11.804 -0.6876  0.3350  0.0740
 5840SOL    HW128979   3.111   2.573  11.773  0.7423 -1.1079  2.7115
 5840SOL    HW228980   2.998   2.633  11.830 -1.2056  0.0512  0.4950
 5841SOL     OW28981   3.660   1.600   8.676 -0.6999 -0.0848  0.3937
 5841SOL    HW128982   3.601   1.582   8.603 -1.3720  2.1209  0.3925
 5841SOL    HW228983   3.639   1.691   8.695  0.2859  0.1314  0.4619
 5842SOL     OW28984   0.556   2.494  15.472  0.1404 -0.5898 -0.3024
 5842SOL    HW128985   0.464   2.482  15.448 -0.3529  4.2467 -0.9849
 5842SOL    HW228986   0.594   2.472  15.387  0.4039  0.5189 -0.4738
 5843SOL     OW28987   1.246   2.807   2.623  0.0837 -0.0967 -0.0905
 5843SOL    HW128988   1.271   2.849   2.541  1.3992 -0.2809  0.2170
 5843SOL    HW228989   1.208   2.729   2.581 -1.4990  1.0458 -0.7571
 5844SOL     OW28990   2.688   3.696   2.581  0.2749  0.1156 -0.2270
 5844SOL    HW128991   2.720   3.628   2.523  2.6492  0.4974  0.6390
 5844SOL    HW228992   2.694   3.772   2.523  0.2134 -1.1002 -1.8195
 5845SOL     OW28993   3.414   0.708  16.307  0.2461  0.5479 -0.0776
 5845SOL    HW128994   3.502   0.738  16.329  0.2352  0.0126  0.6668
 5845SOL    HW228995   3.379   0.734  16.392 -3.2001  2.0691 -1.9309
 5846SOL     OW28996   4.073   2.675  16.441  0.3678 -0.7381  0.0594
 5846SOL    HW128997   4.092   2.757  16.396  0.3457 -0.7846 -0.0362
 5846SOL    HW228998   3.989   2.653  16.401  0.4952 -3.3005  1.2069
 5847SOL     OW28999   0.641   4.426   7.074 -0.4553  0.6861 -0.6563
 5847SOL    HW129000   0.711   4.363   7.053 -1.2617 -0.6189  0.5860
 5847SOL    HW229001   0.632   4.415   7.168  2.6620 -0.6808 -0.5082
 5848SOL     OW29002   2.138   0.157   7.945 -0.0044  0.7029 -0.2238
 5848SOL    HW129003   2.232   0.153   7.962  0.1611 -1.4048 -1.6001
 5848SOL    HW229004   2.118   0.246   7.913 -2.9882  0.2485  0.4340
 5849SOL     OW29005   4.004   3.827   2.645 -0.3412  0.4899 -0.0464
 5849SOL    HW129006   4.015   3.767   2.719 -0.0295 -2.6040 -2.6039
 5849SOL    HW229007   4.060   3.790   2.576  0.9090 -0.7963  1.6474
 5850SOL     OW29008   2.546   0.995   6.345 -0.2562 -0.8727 -0.8999
 5850SOL    HW129009   2.565   1.087   6.363 -0.4827 -0.8567 -0.7439
 5850SOL    HW229010   2.614   0.976   6.280  0.1482 -0.2893 -0.6505
 5851SOL     OW29011   4.726   3.529   8.516 -0.4242  0.0214 -0.1146
 5851SOL    HW129012   0.033   3.567   8.597 -1.9013  0.0498  0.4755
 5851SOL    HW229013   4.644   3.576   8.505 -0.3655  0.3161  0.6934
 5852SOL     OW29014   1.788   3.096   6.121  0.2987  0.8560 -0.6250
 5852SOL    HW129015   1.715   3.036   6.113  0.9550  0.1403 -1.2168
 5852SOL    HW229016   1.748   3.176   6.157 -0.1170  0.2690  0.2166
 5853SOL     OW29017   1.774   2.000   8.936  0.1021  0.2342 -0.5684
 5853SOL    HW129018   1.822   2.014   9.018  1.2900  0.1784 -1.2523
 5853SOL    HW229019   1.710   2.071   8.925  0.2324 -0.1653 -3.7848
 5854SOL     OW29020   4.518   1.299   6.621 -0.4446 -0.4645 -0.7328
 5854SOL    HW129021   4.565   1.265   6.544 -0.3503 -0.8665 -0.4996
 5854SOL    HW229022   4.532   1.227   6.683  0.8497  0.5297  0.1198
 5855SOL     OW29023   1.137   4.027   6.613 -0.0444  0.0564 -0.5955
 5855SOL    HW129024   1.219   4.076   6.611 -0.3528  0.6071  0.1896
 5855SOL    HW229025   1.078   4.097   6.584  0.1510 -1.5326 -4.7519
 5856SOL     OW29026   4.666   2.156  13.724 -0.1782  0.0044  0.1704
 5856SOL    HW129027   4.706   2.136  13.809 -0.3488 -1.8667 -0.1901
 5856SOL    HW229028   4.607   2.226  13.751  0.3398 -0.9138  3.6983
 5857SOL     OW29029   2.376   4.628   3.900 -0.4786 -0.8217 -0.1119
 5857SOL    HW129030   2.448   4.652   3.842 -0.0978  2.1869  1.5912
 5857SOL    HW229031   2.319   4.597   3.830  0.1275 -1.6751 -0.2228
 5858SOL     OW29032   1.038   4.254   4.132  0.1347  0.1679  0.5220
 5858SOL    HW129033   1.085   4.297   4.061 -0.6055 -2.1090 -1.3411
 5858SOL    HW229034   1.117   4.234   4.183  1.0092  0.6363 -0.6605
 5859SOL     OW29035   3.457   0.037  15.946 -0.1906 -0.2270  0.5944
 5859SOL    HW129036   3.542   0.010  15.981  0.2890 -1.8234 -1.7561
 5859SOL    HW229037   3.491   0.073  15.864  0.7150 -0.2316  0.9657
 5860SOL     OW29038   4.638   3.144   3.897  0.0916  0.6163 -0.0259
 5860SOL    HW129039   4.657   3.065   3.847 -1.1756  0.1804  0.1744
 5860SOL    HW229040   4.587   3.111   3.971  0.8221 -0.3905  0.0147
 5861SOL     OW29041   2.289   3.699   3.823  0.1260 -0.0977  0.3879
 5861SOL    HW129042   2.365   3.648   3.796 -0.1689 -0.3393 -0.0068
 5861SOL    HW229043   2.275   3.745   3.739  0.3898 -2.6063 -1.0289
 5862SOL     OW29044   2.336   4.443   8.011 -0.0728  0.5360  0.1165
 5862SOL    HW129045   2.282   4.444   8.090  0.0365 -0.6612  0.2033
 5862SOL    HW229046   2.353   4.349   8.012 -1.5150  0.2495 -1.8216
 5863SOL     OW29047   2.239   4.003   0.272  0.1541 -0.2780  0.1139
 5863SOL    HW129048   2.154   3.962   0.254 -0.6319  1.0939  0.6938
 5863SOL    HW229049   2.230   4.030   0.363  0.4210 -0.7841  0.2901
 5864SOL     OW29050   0.926   1.594   2.457  0.4542 -0.0627  0.1341
 5864SOL    HW129051   0.982   1.571   2.531 -0.5016 -0.9590  0.5802
 5864SOL    HW229052   0.978   1.585   2.377  0.0745 -1.3528  0.0246
 5865SOL     OW29053   2.302   2.807  14.419 -0.5806 -0.4366  0.5427
 5865SOL    HW129054   2.214   2.817  14.455 -0.6646 -0.4569  0.3449
 5865SOL    HW229055   2.327   2.898  14.402  0.0879 -0.4852  1.2833
 5866SOL     OW29056   4.329   0.425   6.314  0.0387 -0.1742  0.1172
 5866SOL    HW129057   4.393   0.360   6.345 -1.9485 -2.5849 -0.7761
 5866SOL    HW229058   4.267   0.422   6.387 -1.2396 -0.7940 -1.0025
 5867SOL     OW29059   3.946   1.423   8.304  0.5364  0.2409  0.2907
 5867SOL    HW129060   3.993   1.506   8.309  2.7921 -1.0119 -0.2763
 5867SOL    HW229061   3.902   1.416   8.389  0.3102 -2.0804 -0.0203
 5868SOL     OW29062   2.287   3.217   5.550 -1.0922 -0.0464  0.3728
 5868SOL    HW129063   2.218   3.152   5.563  1.8235 -3.2053 -0.0075
 5868SOL    HW229064   2.324   3.217   5.639 -0.6161 -2.2172  0.1768
 5869SOL     OW29065   1.549   3.512  16.072 -0.6543 -0.0244  0.7148
 5869SOL    HW129066   1.509   3.525  16.158 -1.4426  0.0951  0.3357
 5869SOL    HW229067   1.641   3.504  16.096  0.2117  2.0188 -1.9053
 5870SOL     OW29068   0.390   2.599   3.949  0.3852  0.7546 -0.0367
 5870SOL    HW129069   0.314   2.652   3.925 -1.0259 -0.4037  1.9324
 5870SOL    HW229070   0.459   2.665   3.941  1.0604  0.0363 -0.1066
 5871SOL     OW29071   0.365   2.125   8.176 -0.1400 -0.1525  0.2907
 5871SOL    HW129072   0.280   2.161   8.150 -0.4910 -0.6249  0.8115
 5871SOL    HW229073   0.413   2.197   8.216  1.0017 -0.9031  0.2676
 5872SOL     OW29074   3.560   3.196   7.262 -0.1781 -0.3185 -0.0013
 5872SOL    HW129075   3.630   3.242   7.310 -1.3711  2.6267 -1.0726
 5872SOL    HW229076   3.592   3.216   7.174 -0.6699  0.7923  0.0640
 5873SOL     OW29077   0.611   4.549   5.221  0.1093 -0.0974 -0.5238
 5873SOL    HW129078   0.650   4.614   5.162 -2.9064  1.2460 -1.0224
 5873SOL    HW229079   0.588   4.609   5.292 -2.7596  0.3273 -1.8046
 5874SOL     OW29080   2.534   2.438   4.922  0.6565  0.0259  0.1277
 5874SOL    HW129081   2.618   2.394   4.938  1.2333  1.7525  1.7805
 5874SOL    HW229082   2.479   2.406   4.994 -0.5338  1.5262 -0.1330
 5875SOL     OW29083   3.560   0.481   1.048  0.2287 -0.3351 -0.1158
 5875SOL    HW129084   3.516   0.429   1.114  1.7449  0.7493  1.7448
 5875SOL    HW229085   3.482   0.502   0.997 -0.2274 -1.1514  0.2580
 5876SOL     OW29086   0.400   1.169   6.385 -0.1677  0.2155 -0.2483
 5876SOL    HW129087   0.465   1.141   6.320 -1.2666  1.1728 -1.7678
 5876SOL    HW229088   0.325   1.118   6.353  0.6261 -1.6026  0.7666
 5877SOL     OW29089   2.522   0.187   5.434 -0.4263  0.1378 -0.2024
 5877SOL    HW129090   2.449   0.195   5.496 -0.9391 -0.3674 -0.7490
 5877SOL    HW229091   2.509   0.094   5.420  1.0163  0.0269 -0.7596
 5878SOL     OW29092   4.075   2.886   4.138 -0.3533 -0.0074  0.0176
 5878SOL    HW129093   3.995   2.861   4.091 -0.8460  2.2375 -0.3526
 5878SOL    HW229094   4.032   2.923   4.215  1.9199  0.4127  1.0658
 5879SOL     OW29095   1.453   0.292   4.218 -0.3003 -0.3384  0.1742
 5879SOL    HW129096   1.456   0.282   4.123 -1.6110 -1.1044  0.2180
 5879SOL    HW229097   1.364   0.326   4.220 -0.1926 -0.0174 -0.5906
 5880SOL     OW29098   3.163   3.460   4.772  0.5176 -1.0936  0.1486
 5880SOL    HW129099   3.189   3.544   4.735 -0.5352 -0.8248  0.0271
 5880SOL    HW229100   3.178   3.461   4.866 -0.2433 -0.2279  0.2581
 5881SOL     OW29101   1.679   0.757   1.452  0.0160 -0.3340  0.1595
 5881SOL    HW129102   1.677   0.670   1.412 -2.5819 -0.9042  1.5232
 5881SOL    HW229103   1.608   0.792   1.398  0.0070 -0.4648  0.0851
 5882SOL     OW29104   3.263   3.165   3.378  0.0329 -0.4899 -0.4790
 5882SOL    HW129105   3.355   3.168   3.351 -0.0366  0.4334 -0.6055
 5882SOL    HW229106   3.272   3.208   3.463  1.0275  1.0822 -1.3806
 5883SOL     OW29107   1.477   3.362   6.917 -0.3358 -0.6450  0.0784
 5883SOL    HW129108   1.516   3.401   6.994 -2.5456 -0.5640  1.1639
 5883SOL    HW229109   1.493   3.434   6.856 -2.3638 -0.7217 -0.5767
 5884SOL     OW29110   3.944   0.354   6.589 -0.2575  0.4962  0.0180
 5884SOL    HW129111   3.933   0.265   6.556 -1.6081  0.7689 -0.2726
 5884SOL    HW229112   3.891   0.401   6.524  0.5011  1.5136  0.1169
 5885SOL     OW29113   3.512   3.907   4.154 -0.0736  0.7533  0.0121
 5885SOL    HW129114   3.559   3.969   4.097  0.9451 -0.3864 -0.4012
 5885SOL    HW229115   3.422   3.940   4.146 -0.3810 -0.1733 -0.4219
 5886SOL     OW29116   1.400   2.979  11.597  0.0956  0.1612  0.6205
 5886SOL    HW129117   1.455   2.903  11.579 -0.1980  0.4117 -1.3333
 5886SOL    HW229118   1.459   3.054  11.607  1.8769 -1.1353 -0.1766
 5887SOL     OW29119   4.721   2.606   8.337  0.0776 -1.1937 -0.2204
 5887SOL    HW129120   0.061   2.540   8.357  0.4351  0.0303  2.6497
 5887SOL    HW229121   0.019   2.677   8.396  0.9937 -0.5674 -1.3697
 5888SOL     OW29122   2.640   1.125   7.165  0.4817  0.1163 -0.1179
 5888SOL    HW129123   2.695   1.053   7.196 -0.6826 -1.6391 -2.1173
 5888SOL    HW229124   2.705   1.187   7.132  0.2076  0.3870 -0.1526
 5889SOL     OW29125   2.818   3.664   9.125 -0.0025  0.3337 -0.0764
 5889SOL    HW129126   2.888   3.725   9.151 -0.7337  2.7630 -3.7964
 5889SOL    HW229127   2.775   3.707   9.051  0.7043  0.5318 -0.3812
 5890SOL     OW29128   1.120   2.541  17.605 -0.0559  0.4476  0.0326
 5890SOL    HW129129   1.167   2.598  17.667 -0.1503  2.1913 -1.5033
 5890SOL    HW229130   1.048   2.603  17.595 -0.2919  0.0891 -0.4194
 5891SOL     OW29131   2.826   1.173   7.538  0.4533 -0.1418 -0.0916
 5891SOL    HW129132   2.891   1.179   7.609  0.0297  0.8385  0.2194
 5891SOL    HW229133   2.745   1.172   7.590 -0.1178  2.4708 -0.9595
 5892SOL     OW29134   3.699   3.433   0.894 -0.1403 -0.1553  0.4470
 5892SOL    HW129135   3.711   3.460   0.985 -0.5899 -0.3607  0.5674
 5892SOL    HW229136   3.690   3.519   0.853  2.8741  0.2825  0.7128
 5893SOL     OW29137   0.663   2.753   9.810 -0.1044  0.8243 -0.2925
 5893SOL    HW129138   0.602   2.780   9.742  2.2695  1.7878 -2.0533
 5893SOL    HW229139   0.723   2.828   9.810  0.0401  0.7170  1.2768
 5894SOL     OW29140   2.669   1.795   5.508  0.6274 -0.1676  0.2466
 5894SOL    HW129141   2.749   1.837   5.477 -0.0958  1.0460  0.0426
 5894SOL    HW229142   2.678   1.709   5.465  2.1187  0.1904 -0.1559
 5895SOL     OW29143   0.568   1.545  15.214 -0.3783  0.0992 -0.3565
 5895SOL    HW129144   0.502   1.610  15.191 -1.3692  0.0492  2.3022
 5895SOL    HW229145   0.635   1.562  15.148 -0.4253 -3.9367 -1.4138
 5896SOL     OW29146   2.677   2.194   3.221 -0.0003 -0.2879  0.9092
 5896SOL    HW129147   2.637   2.123   3.171 -0.5645 -0.5385  1.7125
 5896SOL    HW229148   2.598   2.245   3.239 -0.7060 -1.7016  1.8525
 5897SOL     OW29149   1.182   0.792   8.465 -0.3548  0.0582 -0.4028
 5897SOL    HW129150   1.159   0.745   8.545 -2.9188  1.2153 -0.4322
 5897SOL    HW229151   1.275   0.806   8.482 -0.7904  1.4245  0.8444
 5898SOL     OW29152   1.754   1.280   4.421 -0.4669  0.2254  0.2633
 5898SOL    HW129153   1.765   1.354   4.481  1.0245  0.1355  0.0820
 5898SOL    HW229154   1.681   1.313   4.368 -0.9641  1.5512  1.7442
 5899SOL     OW29155   0.381   3.526  14.881 -0.2254  0.1699  0.2160
 5899SOL    HW129156   0.460   3.472  14.882 -0.5150 -0.2334  1.3608
 5899SOL    HW229157   0.320   3.463  14.918 -3.1068  1.9640 -1.4619
 5900SOL     OW29158   0.326   1.838   4.086  0.7522 -0.3080 -0.1169
 5900SOL    HW129159   0.282   1.758   4.057  0.6489 -0.9786  1.8459
 5900SOL    HW229160   0.370   1.798   4.161  0.3262 -0.0541  0.2689
 5901SOL     OW29161   0.103   4.412  11.601  0.6262 -0.2374  0.4913
 5901SOL    HW129162   0.193   4.414  11.632  0.4619  2.6832  0.7832
 5901SOL    HW229163   0.041   4.403  11.674  0.1416  1.6054  0.3020
 5902SOL     OW29164   3.640   3.225  16.754 -0.1439 -0.2325 -0.0730
 5902SOL    HW129165   3.691   3.257  16.828 -0.9125  0.4950  0.1387
 5902SOL    HW229166   3.622   3.138  16.790 -0.2927 -0.0626  0.2601
 5903SOL     OW29167   3.603   3.740  14.510  0.1380 -0.0408 -0.4071
 5903SOL    HW129168   3.646   3.825  14.495  2.0629 -0.8569  0.4354
 5903SOL    HW229169   3.562   3.717  14.427 -0.7722 -1.0346  0.3200
 5904SOL     OW29170   1.533   2.663   8.961  0.2314 -0.2044  0.3789
 5904SOL    HW129171   1.525   2.634   9.052 -2.9061  2.4731  0.9399
 5904SOL    HW229172   1.600   2.602   8.931  1.1195  0.5339  0.8300
 5905SOL     OW29173   2.349   4.572   7.255 -0.1269 -0.3234  0.4195
 5905SOL    HW129174   2.426   4.600   7.304  0.6670 -0.1117 -0.9539
 5905SOL    HW229175   2.304   4.515   7.318  0.1293  1.2289  2.0058
 5906SOL     OW29176   1.808   0.286   7.632  0.7414  0.0085 -0.4687
 5906SOL    HW129177   1.811   0.228   7.708 -2.3223  2.1830  1.3290
 5906SOL    HW229178   1.851   0.364   7.668  0.3758  0.0145 -0.0301
 5907SOL     OW29179   3.324   0.796  16.875 -0.3105  0.3913 -0.0800
 5907SOL    HW129180   3.307   0.884  16.841 -0.9076  1.3175  2.6500
 5907SOL    HW229181   3.401   0.813  16.929 -0.4597 -2.2472  0.9335
 5908SOL     OW29182   0.789   3.753   2.922 -0.4416  0.3527  0.2153
 5908SOL    HW129183   0.803   3.847   2.934 -2.4964  0.4390  1.9831
 5908SOL    HW229184   0.712   3.751   2.864 -0.1332 -0.1586 -0.1736
 5909SOL     OW29185   2.331   2.258  11.273  0.4011  0.5325  0.5895
 5909SOL    HW129186   2.316   2.171  11.237 -0.0905  0.6943  0.4064
 5909SOL    HW229187   2.337   2.308  11.191  0.3585  2.3150  1.6915
 5910SOL     OW29188   0.988   2.070   8.524 -0.4059  0.7244  0.0148
 5910SOL    HW129189   1.057   2.045   8.586 -0.9616  0.5679  0.5671
 5910SOL    HW229190   1.022   2.151   8.485 -0.6960  0.0169 -1.7185
 5911SOL     OW29191   1.986   0.725   8.830 -0.2885  0.1724 -0.2773
 5911SOL    HW129192   2.007   0.637   8.860  0.4005 -0.1598 -1.7325
 5911SOL    HW229193   2.045   0.765   8.893 -1.1313 -1.0613  1.2929
 5912SOL     OW29194   4.354   1.802   6.059 -0.1521 -0.1343 -0.0563
 5912SOL    HW129195   4.274   1.774   6.104 -1.2549  2.2376 -0.5660
 5912SOL    HW229196   4.399   1.718   6.068 -1.2243 -0.5195  1.6715
 5913SOL     OW29197   1.875   4.156  17.050  0.3363 -0.0921 -0.0581
 5913SOL    HW129198   1.890   4.069  17.088  0.8289  0.3233  0.7007
 5913SOL    HW229199   1.892   4.207  17.129  1.1384 -3.2766  1.8615
 5914SOL     OW29200   3.946   2.015  15.959 -0.4870 -0.3888 -0.3425
 5914SOL    HW129201   3.998   1.969  16.025  1.0180  2.5200  0.4812
 5914SOL    HW229202   3.956   2.107  15.985  0.0815  0.0067 -2.0239
 5915SOL     OW29203   3.416   2.365   8.876 -0.0410  0.5138  0.1995
 5915SOL    HW129204   3.464   2.382   8.957  2.5095  0.0077 -1.1855
 5915SOL    HW229205   3.348   2.306   8.909 -0.3122 -0.0195 -1.3295
 5916SOL     OW29206   0.886   2.363  10.600 -0.1165  0.0478  0.6853
 5916SOL    HW129207   0.842   2.286  10.635  0.8756 -0.8499 -0.0832
 5916SOL    HW229208   0.937   2.339  10.523 -2.1111 -0.8786 -0.3467
 5917SOL     OW29209   3.405   2.237   5.421 -0.2123  0.7991  0.4531
 5917SOL    HW129210   3.434   2.146   5.408 -0.4085  0.5061  2.0474
 5917SOL    HW229211   3.477   2.290   5.387 -0.1870 -0.0236 -0.8130
 5918SOL     OW29212   3.757   1.502  14.514  0.4648  0.2332 -0.2509
 5918SOL    HW129213   3.738   1.565  14.445  0.2515  0.4660  0.0209
 5918SOL    HW229214   3.852   1.508  14.528  0.1607 -0.0391  1.9048
 5919SOL     OW29215   0.140   3.983  17.423 -0.2555  0.2925 -0.3771
 5919SOL    HW129216   0.217   4.037  17.406 -0.3022 -0.0121 -1.5254
 5919SOL    HW229217   0.177   3.915  17.366 -2.3263  0.9746 -2.5225
 5920SOL     OW29218   3.957   2.680   8.500 -0.1669 -0.1771 -0.0118
 5920SOL    HW129219   4.032   2.738   8.491 -1.1112  0.9158 -0.7939
 5920SOL    HW229220   3.924   2.676   8.410 -0.1526  1.0060 -0.0599
 5921SOL     OW29221   2.926   4.527  15.644 -0.4543 -0.1365  0.2328
 5921SOL    HW129222   2.860   4.580  15.599 -1.9385 -3.7289 -1.8062
 5921SOL    HW229223   2.926   4.451  15.586  0.8512  0.6264 -0.7610
 5922SOL     OW29224   3.381   1.024   7.514  0.1135 -0.5884  0.5197
 5922SOL    HW129225   3.475   1.042   7.508 -0.1777  0.3472 -1.5240
 5922SOL    HW229226   3.380   0.956   7.580  0.2801 -1.0307  0.0669
 5923SOL     OW29227   2.989   0.536   2.285  0.1751  0.0336  0.4124
 5923SOL    HW129228   2.896   0.516   2.292  0.1241  0.2360  0.3102
 5923SOL    HW229229   3.024   0.455   2.247 -0.5695 -0.5544  0.9974
 5924SOL     OW29230   2.734   0.827   2.971  0.2169 -0.3600  0.5602
 5924SOL    HW129231   2.756   0.774   2.894 -0.7571  0.8648 -0.5709
 5924SOL    HW229232   2.802   0.786   3.024  1.6288 -0.7157 -1.5439
 5925SOL     OW29233   0.396   3.290  12.752  0.2374 -0.1761 -0.7237
 5925SOL    HW129234   0.363   3.378  12.771  0.8003  0.1547 -1.2818
 5925SOL    HW229235   0.400   3.288  12.656  1.5742  2.1457 -0.7348
 5926SOL     OW29236   2.449   3.594   7.288 -0.1440 -0.5623  0.5459
 5926SOL    HW129237   2.468   3.658   7.357  0.2301 -1.3671  1.1814
 5926SOL    HW229238   2.363   3.627   7.260 -0.3654 -0.8385  0.9041
 5927SOL     OW29239   4.167   0.506   6.600 -0.0913 -0.0120 -0.5148
 5927SOL    HW129240   4.078   0.473   6.613  0.0154 -1.1152 -2.6490
 5927SOL    HW229241   4.196   0.465   6.682 -0.9452 -2.9077 -1.6732
 5928SOL     OW29242   0.964   2.277   1.425  0.3897  0.2357 -0.1862
 5928SOL    HW129243   1.006   2.297   1.509 -0.1036 -0.6330  0.2720
 5928SOL    HW229244   0.973   2.359   1.376  0.4250 -0.6210 -1.6110
 5929SOL     OW29245   1.683   0.154   6.194 -0.5564  0.2157  0.2997
 5929SOL    HW129246   1.700   0.246   6.174 -1.5730  0.2965 -0.2181
 5929SOL    HW229247   1.755   0.127   6.250 -0.4135  1.8180  0.8921
 5930SOL     OW29248   4.129   2.367   8.413  0.0322 -0.7481 -0.2577
 5930SOL    HW129249   4.072   2.303   8.457  2.0514 -2.6625 -0.4092
 5930SOL    HW229250   4.157   2.428   8.481 -2.8957  1.3702 -0.9443
 5931SOL     OW29251   1.773   3.514   4.292  0.0337 -0.0402 -0.5452
 5931SOL    HW129252   1.841   3.468   4.343  2.0195 -0.2175 -3.3747
 5931SOL    HW229253   1.794   3.479   4.206 -0.3711 -0.7544 -0.3520
 5932SOL     OW29254   1.990   3.300   8.673 -0.2232  0.6789 -0.2918
 5932SOL    HW129255   2.037   3.315   8.755  1.9102  0.0522 -1.3935
 5932SOL    HW229256   1.931   3.375   8.680 -0.0095  0.8199  0.0333
 5933SOL     OW29257   4.669   1.487   7.034  0.4560 -0.1178  0.0759
 5933SOL    HW129258   4.607   1.415   7.019 -0.2305  0.7874 -1.3958
 5933SOL    HW229259   4.723   1.449   7.102 -1.6547 -0.3353  1.6451
 5934SOL     OW29260   2.538   1.895   3.736  0.1832  0.8923  0.0608
 5934SOL    HW129261   2.634   1.888   3.736 -0.1193 -3.1494 -0.6247
 5934SOL    HW229262   2.522   1.952   3.811  0.9106  0.4931  0.5212
 5935SOL     OW29263   1.257   1.418   6.976  0.3423 -0.3166 -0.2075
 5935SOL    HW129264   1.317   1.361   7.026 -0.2507 -1.6819 -1.0639
 5935SOL    HW229265   1.323   1.469   6.929 -0.4731 -0.0251 -1.0194
 5936SOL     OW29266   2.768   4.163   2.712  0.0498  0.2422 -0.2744
 5936SOL    HW129267   2.680   4.132   2.688 -0.4493  0.1297  1.6766
 5936SOL    HW229268   2.777   4.109   2.791  0.2963 -2.3671 -2.0793
 5937SOL     OW29269   2.771   3.735   5.747  0.0332 -0.1338 -0.3687
 5937SOL    HW129270   2.773   3.830   5.735  1.5861 -0.0849  0.2170
 5937SOL    HW229271   2.800   3.719   5.837  1.3195  2.3122 -0.3491
 5938SOL     OW29272   4.334   0.303  17.195 -0.4672 -0.1926 -0.4063
 5938SOL    HW129273   4.338   0.382  17.142  1.5837 -1.0470 -1.5205
 5938SOL    HW229274   4.240   0.299  17.214 -0.6464  1.5730 -0.9125
 5939SOL     OW29275   4.462   0.738   6.431 -0.9396 -0.5860  0.7707
 5939SOL    HW129276   4.486   0.724   6.522 -2.7945  0.1098  1.3793
 5939SOL    HW229277   4.507   0.672   6.378 -0.1637 -1.8010  2.9564
 5940SOL     OW29278   4.248   4.323   2.535 -0.1797 -0.4394  0.2880
 5940SOL    HW129279   4.305   4.362   2.469  1.1032  0.2171  1.7725
 5940SOL    HW229280   4.218   4.397   2.589  2.4262  0.3335  0.6653
 5941SOL     OW29281   4.141   2.820   8.140  0.5682 -0.4746  0.1085
 5941SOL    HW129282   4.164   2.827   8.233  1.1349 -0.6245 -0.0228
 5941SOL    HW229283   4.136   2.725   8.138  0.2210 -0.4088 -1.8441
 5942SOL     OW29284   4.076   2.193   5.333  0.0358  0.5183 -0.1739
 5942SOL    HW129285   4.137   2.185   5.406 -0.9433  1.1525  0.7133
 5942SOL    HW229286   4.119   2.255   5.274  4.2884 -1.6163  0.7174
 5943SOL     OW29287   1.185   1.020  14.322  0.0543  0.2335  0.3340
 5943SOL    HW129288   1.192   1.012  14.227 -0.5218  1.0666  0.2199
 5943SOL    HW229289   1.118   0.958  14.351 -0.1980  1.0001  1.3931
 5944SOL     OW29290   0.822   0.970   8.534  0.2495  0.4710 -0.0525
 5944SOL    HW129291   0.741   0.929   8.566  1.2116 -0.3116  1.3515
 5944SOL    HW229292   0.845   0.915   8.459 -2.4458 -1.4828  0.5195
 5945SOL     OW29293   1.166   2.956   5.812 -0.1580 -0.3373  0.3824
 5945SOL    HW129294   1.188   3.046   5.786 -0.0809 -0.4724 -0.0084
 5945SOL    HW229295   1.075   2.953   5.781 -0.5858  2.3811  1.2919
 5946SOL     OW29296   0.529   1.276   8.801 -0.2385 -0.6959  0.2404
 5946SOL    HW129297   0.470   1.210   8.837 -0.6853 -0.8365 -0.7629
 5946SOL    HW229298   0.467   1.324   8.746 -0.2941 -1.1282 -0.0717
 5947SOL     OW29299   3.822   4.126   0.505  0.0185 -0.2603  0.2747
 5947SOL    HW129300   3.871   4.182   0.565  2.7225 -2.7127  0.3809
 5947SOL    HW229301   3.739   4.173   0.499  1.7429  3.0008  2.4319
 5948SOL     OW29302   0.343   2.191   6.307  0.3440  0.4284  0.4554
 5948SOL    HW129303   0.285   2.125   6.269 -0.7906  0.8242  1.5005
 5948SOL    HW229304   0.294   2.196   6.389  1.2209 -2.4239  1.1543
 5949SOL     OW29305   2.070   4.300  15.187  0.1385  0.0382  0.2559
 5949SOL    HW129306   2.097   4.229  15.245 -2.0423 -1.7248 -0.8835
 5949SOL    HW229307   2.117   4.282  15.106  0.3458  3.5119 -0.4042
 5950SOL     OW29308   4.395   1.979   8.566  0.5120  0.2630  0.1018
 5950SOL    HW129309   4.386   2.069   8.536  0.8449  0.7176  1.3922
 5950SOL    HW229310   4.309   1.965   8.606 -0.8577 -0.1088 -2.9420
 5951SOL     OW29311   4.089   4.122   8.221  0.0505 -0.1684 -0.0440
 5951SOL    HW129312   4.141   4.057   8.173  2.5651  1.2086  0.7968
 5951SOL    HW229313   4.159   4.183   8.247  0.1027 -0.7816  1.2329
 5952SOL     OW29314   4.685   4.314  10.098  0.6002 -0.0580  0.3227
 5952SOL    HW129315   4.708   4.397  10.055 -2.2213  0.6666  0.2184
 5952SOL    HW229316   4.720   4.331  10.186  0.8130  2.1447 -0.1805
 5953SOL     OW29317   0.004   4.116   7.165  0.3141  0.3445 -0.0993
 5953SOL    HW129318   0.091   4.117   7.206  1.0903  1.6129 -1.7793
 5953SOL    HW229319   0.009   4.051   7.095  1.9312  0.7857 -0.3971
 5954SOL     OW29320   2.294   3.603  13.133  0.1730  0.2113  0.5279
 5954SOL    HW129321   2.261   3.534  13.191 -1.0693 -0.0033 -0.4332
 5954SOL    HW229322   2.217   3.627  13.082  1.4865  0.9090 -1.1028
 5955SOL     OW29323   3.060   2.906   8.934  0.3347  0.2791 -0.8233
 5955SOL    HW129324   2.992   2.842   8.953  0.5336  0.6320  1.0808
 5955SOL    HW229325   3.026   2.984   8.979  1.2566  0.2244 -0.0265
 5956SOL     OW29326   3.171   4.251   9.397 -0.4409  0.1868 -0.3652
 5956SOL    HW129327   3.181   4.226   9.488  1.0521 -0.3661 -0.6835
 5956SOL    HW229328   3.254   4.293   9.377  0.7272 -1.8255  0.1865
 5957SOL     OW29329   4.329   3.009   5.808 -0.8082 -0.3480  0.2860
 5957SOL    HW129330   4.411   3.025   5.855  1.2786 -2.0972 -2.6969
 5957SOL    HW229331   4.310   3.101   5.827  0.3020  0.1677 -1.0298
 5958SOL     OW29332   4.513   2.610   5.699 -0.3494  0.2524  0.8161
 5958SOL    HW129333   4.584   2.548   5.717 -1.0482 -1.0419 -0.8746
 5958SOL    HW229334   4.551   2.696   5.717  0.8685 -0.2407  0.6156
 5959SOL     OW29335   3.415   0.274   0.056  0.0492 -0.4700  0.3692
 5959SOL    HW129336   3.404   0.190   0.100 -0.8990  0.1752  1.3538
 5959SOL    HW229337   3.493   0.301   0.105 -0.0427 -1.3533  0.9866
 5960SOL     OW29338   3.277   0.806  10.779  0.6567  0.2794  0.1294
 5960SOL    HW129339   3.277   0.722  10.825  1.3254  0.3518  0.2590
 5960SOL    HW229340   3.262   0.781  10.688 -1.8093  0.2250  0.5347
 5961SOL     OW29341   4.530   4.701   9.461  0.5032  0.2641 -0.3763
 5961SOL    HW129342   4.593   4.633   9.439 -0.0016 -0.7018  1.1118
 5961SOL    HW229343   4.541   4.698   9.556  1.0507 -0.7046 -0.4720
 5962SOL     OW29344   0.783   1.837   8.783 -0.2660 -0.0236  0.4102
 5962SOL    HW129345   0.822   1.753   8.756 -1.9381 -0.3128 -1.0854
 5962SOL    HW229346   0.855   1.895   8.809  0.1169 -0.3519  0.0894
 5963SOL     OW29347   0.684   0.177   3.857 -0.2330 -0.5947  0.5308
 5963SOL    HW129348   0.774   0.144   3.849  0.4465  1.1717  0.9361
 5963SOL    HW229349   0.636   0.107   3.812 -0.0797  0.4542 -1.2757
 5964SOL     OW29350   3.227   2.880   5.130 -0.1116 -0.2716 -0.3436
 5964SOL    HW129351   3.307   2.902   5.083 -0.4773  1.2154 -0.2812
 5964SOL    HW229352   3.172   2.954   5.104 -1.5637 -1.7167 -1.3668
 5965SOL     OW29353   3.064   0.705   5.336 -0.4155 -0.1624 -0.4365
 5965SOL    HW129354   2.992   0.701   5.273 -1.5201 -0.9371  0.8673
 5965SOL    HW229355   3.122   0.767   5.292 -0.8434  1.4434  1.2745
 5966SOL     OW29356   1.194   3.560   6.797 -0.5001 -0.1052  0.1463
 5966SOL    HW129357   1.196   3.647   6.758 -3.2608  0.7755  1.9520
 5966SOL    HW229358   1.181   3.595   6.885 -1.1265  0.7939 -0.3114
 5967SOL     OW29359   0.260   2.926   8.933  0.2990  0.5259  0.0675
 5967SOL    HW129360   0.298   2.870   9.001  0.7530  3.3685  2.1587
 5967SOL    HW229361   0.261   2.867   8.858  2.8214  0.6826 -0.0099
 5968SOL     OW29362   4.605   2.207  14.651 -0.0328  0.1293  0.0065
 5968SOL    HW129363   4.692   2.188  14.687 -0.2015 -0.0855  0.3064
 5968SOL    HW229364   4.553   2.168  14.721 -0.3976 -0.0625 -0.3693
 5969SOL     OW29365   0.268   3.326   9.134  0.3238 -0.5629 -0.2078
 5969SOL    HW129366   0.311   3.253   9.178 -1.4408  0.0752  2.5831
 5969SOL    HW229367   0.276   3.397   9.198  0.1187 -0.1143 -0.6763
 5970SOL     OW29368   2.041   2.877   7.297  0.0444  0.0965 -0.3416
 5970SOL    HW129369   2.019   2.810   7.361  0.4604  0.2015 -0.0809
 5970SOL    HW229370   1.983   2.946   7.330 -0.2011 -0.9022  1.3512
 5971SOL     OW29371   0.971   4.343   4.564 -0.3427 -0.5116  0.4329
 5971SOL    HW129372   1.037   4.355   4.632  2.1806 -0.3093 -2.0748
 5971SOL    HW229373   1.008   4.396   4.493 -1.6820 -0.2045 -0.0491
 5972SOL     OW29374   4.218   2.812   1.644  0.0691  0.5681 -0.0840
 5972SOL    HW129375   4.301   2.853   1.670  0.3174 -0.1768  0.3063
 5972SOL    HW229376   4.249   2.762   1.569 -0.5488  2.3839 -1.5596
 5973SOL     OW29377   1.277   0.227   9.028 -0.0293  0.3409 -0.6250
 5973SOL    HW129378   1.239   0.141   9.043  0.9133  0.1902  0.8708
 5973SOL    HW229379   1.224   0.264   9.099 -0.9182 -2.2614  0.0654
 5974SOL     OW29380   0.017   1.205   6.483 -0.3047  0.5816 -0.3419
 5974SOL    HW129381   0.066   1.131   6.449 -1.1296 -0.2078  0.1809
 5974SOL    HW229382   0.088   1.239   6.538  2.3796 -1.4614 -2.5690
 5975SOL     OW29383   3.561   0.281   4.677  0.1365 -0.1259 -0.3925
 5975SOL    HW129384   3.515   0.282   4.593 -2.1988  2.1849  0.9175
 5975SOL    HW229385   3.648   0.305   4.647  0.0641  0.4332 -0.1504
 5976SOL     OW29386   0.913   2.790   2.244 -0.5346 -0.1075 -0.0881
 5976SOL    HW129387   0.853   2.865   2.248  2.1320  2.0898 -1.0131
 5976SOL    HW229388   0.908   2.781   2.149 -0.8636 -0.7129 -0.0147
 5977SOL     OW29389   3.697   3.025   2.440 -0.5011 -0.4107 -0.4141
 5977SOL    HW129390   3.719   2.960   2.373  4.2478 -0.0572  0.8427
 5977SOL    HW229391   3.667   2.975   2.515 -0.2503  0.9381  0.5809
 5978SOL     OW29392   4.108   3.194   4.955  0.0755 -0.2845  0.0556
 5978SOL    HW129393   4.181   3.211   5.015  0.9473 -0.6205 -0.9182
 5978SOL    HW229394   4.138   3.240   4.877  0.9951 -1.8740 -0.5340
 5979SOL     OW29395   3.426   0.681   4.074  0.2625  0.5281  0.4215
 5979SOL    HW129396   3.404   0.588   4.086 -1.5888  1.2423  2.5294
 5979SOL    HW229397   3.491   0.683   4.144  0.3565 -0.9586  0.3773
 5980SOL     OW29398   2.002   1.877   3.512 -0.2620 -0.2911  0.3100
 5980SOL    HW129399   2.076   1.859   3.570  1.3810  0.6473 -1.5077
 5980SOL    HW229400   1.938   1.824   3.560  1.2149 -1.4977  0.9364
 5981SOL     OW29401   2.361   1.622   2.603  0.0621 -0.3115  0.3969
 5981SOL    HW129402   2.293   1.689   2.594  1.1180  0.7704  0.4820
 5981SOL    HW229403   2.444   1.670   2.607  0.2483 -0.8176  2.8081
 5982SOL     OW29404   0.805   0.544   4.533 -0.0128  0.2446  0.2804
 5982SOL    HW129405   0.796   0.449   4.542 -0.3262  0.1174 -1.3955
 5982SOL    HW229406   0.715   0.574   4.546 -0.4799 -2.4604  3.3860
 5983SOL     OW29407   3.945   1.451   5.891  0.6647  0.0035 -0.7508
 5983SOL    HW129408   3.891   1.512   5.841 -1.3972 -2.0045 -1.0017
 5983SOL    HW229409   4.018   1.504   5.923 -0.0986  1.1675 -0.9315
 5984SOL     OW29410   0.728   2.019   5.790 -0.2947 -0.1140 -0.3684
 5984SOL    HW129411   0.804   1.971   5.824  0.4914  0.7479 -0.9145
 5984SOL    HW229412   0.714   2.087   5.856  2.9507  0.9054 -0.7345
 5985SOL     OW29413   2.256   1.504   3.763  0.3750  0.0543 -0.0331
 5985SOL    HW129414   2.179   1.464   3.724  1.2434 -2.4835  0.8292
 5985SOL    HW229415   2.319   1.433   3.749 -0.4099 -0.4663 -0.9315
 5986SOL     OW29416   1.844   3.653   7.424  0.8226 -0.3261  0.4239
 5986SOL    HW129417   1.898   3.732   7.411 -2.2639  1.9138  1.1904
 5986SOL    HW229418   1.851   3.655   7.519 -1.3953 -0.3148  0.5782
 5987SOL     OW29419   2.377   2.942   0.871  0.3037  0.6681  0.4022
 5987SOL    HW129420   2.420   2.858   0.884 -0.8096 -0.0979 -0.8884
 5987SOL    HW229421   2.455   2.997   0.860 -0.7134  1.8651 -0.8972
 5988SOL     OW29422   4.177   1.528   4.943  0.2685  0.1648  0.0553
 5988SOL    HW129423   4.249   1.487   4.990  0.9318 -0.6134 -1.6857
 5988SOL    HW229424   4.107   1.525   5.009  0.3442  2.0635  0.2376
 5989SOL     OW29425   3.426   4.623  16.708 -0.2098  0.0378  0.7366
 5989SOL    HW129426   3.463   4.691  16.652 -0.4978 -0.8598 -0.5497
 5989SOL    HW229427   3.342   4.599  16.668  0.5586  0.8013 -1.2979
 5990SOL     OW29428   2.448   2.803   9.302  0.4703  0.7539 -0.7924
 5990SOL    HW129429   2.368   2.801   9.250  1.3122  2.5988 -2.1567
 5990SOL    HW229430   2.463   2.708   9.298 -1.9544  0.3256  0.4424
 5991SOL     OW29431   2.680   1.191  11.862  0.0356 -0.3585 -0.0544
 5991SOL    HW129432   2.743   1.245  11.909  0.1646 -0.3852 -0.1930
 5991SOL    HW229433   2.667   1.226  11.774  0.6573  2.2207  0.8720
 5992SOL     OW29434   3.480   1.051  11.743 -0.6247  0.5912  0.3301
 5992SOL    HW129435   3.527   0.991  11.685 -2.3625 -1.1744  0.7834
 5992SOL    HW229436   3.552   1.112  11.761 -1.3452  0.8801  2.2419
 5993SOL     OW29437   2.358   3.884   7.192 -0.4531  0.1462 -0.0961
 5993SOL    HW129438   2.426   3.946   7.165 -0.4861  1.1095  2.0326
 5993SOL    HW229439   2.369   3.821   7.121 -0.2688  2.6705 -2.3312
 5994SOL     OW29440   0.921   0.152  10.376  0.0102  0.5104 -0.0534
 5994SOL    HW129441   0.874   0.218  10.326  0.6641  0.9341 -0.1054
 5994SOL    HW229442   0.888   0.082  10.319  3.4585  1.5858 -3.3454
 5995SOL     OW29443   4.232   0.989  13.368 -0.4909 -0.0436  0.3135
 5995SOL    HW129444   4.193   0.981  13.281 -0.4594  1.9974  0.1233
 5995SOL    HW229445   4.144   0.980  13.405 -0.2186 -1.9468  0.4783
 5996SOL     OW29446   1.980   1.125   4.273 -0.3416  0.0582 -0.2658
 5996SOL    HW129447   1.904   1.179   4.254  1.3469  1.8913 -1.8511
 5996SOL    HW229448   2.051   1.189   4.271 -0.5408  0.1862 -2.9861
 5997SOL     OW29449   2.651   2.328   7.342 -0.2467 -0.2366  0.1084
 5997SOL    HW129450   2.658   2.248   7.292  2.3609  2.0551 -3.1609
 5997SOL    HW229451   2.657   2.282   7.426 -1.2475  1.4190  1.0879
 5998SOL     OW29452   3.579   3.472   4.634  0.4926  0.1333  0.3732
 5998SOL    HW129453   3.670   3.497   4.621  0.0009  0.2297 -3.0386
 5998SOL    HW229454   3.578   3.469   4.730  1.4269 -1.4412  0.3340
 5999SOL     OW29455   3.831   4.523   9.516  0.2887 -0.6543 -0.4524
 5999SOL    HW129456   3.842   4.612   9.548  0.9149 -1.8029  2.5278
 5999SOL    HW229457   3.919   4.498   9.486  0.7795  1.3892 -0.6768
 6000SOL     OW29458   4.690   3.381  15.971  0.3642  0.8436 -0.0952
 6000SOL    HW129459   4.638   3.306  16.001  0.9505  0.9196  1.1388
 6000SOL    HW229460   4.622   3.446  15.991 -0.0392  0.5135 -0.3876
 6001SOL     OW29461   1.318   0.391   1.696 -0.4117  0.4555 -0.3284
 6001SOL    HW129462   1.386   0.433   1.643  1.7542 -1.8487  0.5787
 6001SOL    HW229463   1.254   0.380   1.626  0.3901  1.6522 -1.2557
 6002SOL     OW29464   2.389   0.897  17.702  0.2861 -0.5380 -0.3854
 6002SOL    HW129465   2.415   0.966   0.059 -1.2627  0.5335 -0.9071
 6002SOL    HW229466   2.296   0.880   0.011  0.1854  0.4724  0.1412
 6003SOL     OW29467   2.172   3.789   8.411 -0.0981 -0.4026 -0.7496
 6003SOL    HW129468   2.203   3.829   8.493 -0.5536  1.0551 -1.3017
 6003SOL    HW229469   2.247   3.740   8.377  0.0999  0.9686 -2.3078
 6004SOL     OW29470   0.834   0.258   6.678  0.2540  0.5856  0.1610
 6004SOL    HW129471   0.807   0.176   6.637  0.6332  0.6987 -0.3077
 6004SOL    HW229472   0.928   0.247   6.668 -0.0582 -1.9403 -0.0566
 6005SOL     OW29473   3.442   2.124   2.669  0.3528 -0.1308 -0.5437
 6005SOL    HW129474   3.517   2.126   2.609  0.3527 -1.4291 -0.5763
 6005SOL    HW229475   3.456   2.201   2.725  2.1834 -0.9899  0.1595
 6006SOL     OW29476   1.631   2.101   2.145  0.0968 -0.1920  0.2271
 6006SOL    HW129477   1.713   2.102   2.194 -0.1407 -1.0203  0.6317
 6006SOL    HW229478   1.585   2.180   2.175 -0.3408 -0.4442  0.2173
 6007SOL     OW29479   1.452   1.283  16.037 -0.5092  0.1583 -0.1908
 6007SOL    HW129480   1.390   1.262  16.107  1.2129 -1.5093  0.8449
 6007SOL    HW229481   1.470   1.199  15.994  0.0833 -0.6118  1.5694
 6008SOL     OW29482   1.291   3.802   3.161 -0.1598 -0.0086  0.1821
 6008SOL    HW129483   1.209   3.852   3.154 -0.1863 -0.4535 -2.4244
 6008SOL    HW229484   1.265   3.720   3.120  0.6209 -0.4815  0.6336
 6009SOL     OW29485   3.685   0.882   4.100 -0.7879  0.1357  0.1083
 6009SOL    HW129486   3.677   0.853   4.190  0.1092 -1.5772 -0.3474
 6009SOL    HW229487   3.738   0.812   4.061 -3.0459  0.1756 -3.0791
 6010SOL     OW29488   0.071   2.537  15.775  0.0802 -0.3976  0.3408
 6010SOL    HW129489   0.043   2.628  15.760  3.8159  0.7438  0.2866
 6010SOL    HW229490   0.084   2.541  15.870  1.1164 -0.5022  0.2080
 6011SOL     OW29491   0.230   3.519   2.474  0.0726  0.0714 -0.2780
 6011SOL    HW129492   0.198   3.584   2.535  0.1926 -0.4874  0.3837
 6011SOL    HW229493   0.152   3.473   2.443  0.5840 -0.4480 -0.8137
 6012SOL     OW29494   3.908   4.105   3.911 -0.0200 -0.1726  0.0299
 6012SOL    HW129495   3.966   4.068   3.844 -0.3009 -0.2469 -0.1731
 6012SOL    HW229496   3.906   4.198   3.890  0.2272  0.0446  0.9825
 6013SOL     OW29497   1.635   2.233   8.934 -0.0401 -0.4310 -0.0652
 6013SOL    HW129498   1.676   2.316   8.908  1.3219 -0.6937  1.2529
 6013SOL    HW229499   1.624   2.244   9.028 -0.9295 -0.6869 -0.1324
 6014SOL     OW29500   4.196   3.745  10.139 -0.1221  0.0161  0.5183
 6014SOL    HW129501   4.280   3.756  10.094  1.2700  0.8167  3.3272
 6014SOL    HW229502   4.140   3.799  10.083  0.9575 -0.4138 -0.9595
 6015SOL     OW29503   0.443   3.052   4.304 -0.0576 -0.2974  0.7163
 6015SOL    HW129504   0.354   3.085   4.319 -0.1382 -0.3315  0.3100
 6015SOL    HW229505   0.465   3.081   4.216  0.3445 -1.7380  0.3449
 6016SOL     OW29506   4.711   2.894   8.930  0.6441 -0.2458 -0.2402
 6016SOL    HW129507   0.007   2.843   8.853  2.0728 -0.2444  0.1768
 6016SOL    HW229508   0.071   2.923   8.959  0.1126  0.8886  0.2202
 6017SOL     OW29509   0.822   1.695   1.477  0.0101  0.1535  0.5359
 6017SOL    HW129510   0.793   1.783   1.455 -0.4567 -0.0644  0.2852
 6017SOL    HW229511   0.917   1.697   1.464 -0.1943 -0.5176 -1.0041
 6018SOL     OW29512   1.074   3.982   7.274  0.2383  0.4009 -0.0171
 6018SOL    HW129513   1.059   4.025   7.358 -0.7355  1.3404 -0.6812
 6018SOL    HW229514   1.101   3.897   7.310  1.7430  0.6843 -0.4702
 6019SOL     OW29515   1.664   3.225  14.858 -0.3580  0.1257 -0.1222
 6019SOL    HW129516   1.667   3.142  14.904 -2.5630  0.5016  0.7203
 6019SOL    HW229517   1.734   3.216  14.794 -0.6730  1.4011 -0.6611
 6020SOL     OW29518   2.204   3.305   6.538  0.0117  0.3695  0.4362
 6020SOL    HW129519   2.278   3.257   6.574  0.3181  0.3276 -0.2535
 6020SOL    HW229520   2.168   3.326   6.625  1.0182 -0.6422  1.0975
 6021SOL     OW29521   4.491   2.839   7.193  0.1569 -0.1090  0.2508
 6021SOL    HW129522   4.518   2.815   7.282  2.3899 -1.6759 -0.8523
 6021SOL    HW229523   4.477   2.933   7.203  0.3932 -0.1042  0.5258
 6022SOL     OW29524   3.139   1.792   4.577 -0.3100 -0.4544  0.5806
 6022SOL    HW129525   3.120   1.698   4.573  0.7989 -0.6828  0.4524
 6022SOL    HW229526   3.139   1.815   4.669  3.6961  0.6640  0.3254
 6023SOL     OW29527   2.760   1.429   9.058 -0.6901  0.2349 -0.0196
 6023SOL    HW129528   2.674   1.470   9.053 -0.1441  1.4178  0.4460
 6023SOL    HW229529   2.800   1.452   8.974 -0.6062 -1.0323 -0.3370
 6024SOL     OW29530   2.968   4.541   6.208 -0.6035 -0.3529  0.0117
 6024SOL    HW129531   2.949   4.632   6.183 -1.5549  0.4669  3.6663
 6024SOL    HW229532   3.043   4.527   6.151 -1.9433  1.5489 -2.2379
 6025SOL     OW29533   2.535   3.878   6.712 -0.3007 -0.5330  0.6349
 6025SOL    HW129534   2.453   3.928   6.715  0.9510  1.6260 -1.2745
 6025SOL    HW229535   2.503   3.788   6.715  0.1830 -0.7907 -2.1215
 6026SOL     OW29536   2.545   0.876   3.816 -0.1675  0.2131  0.1350
 6026SOL    HW129537   2.474   0.824   3.853 -0.8306  1.0820  0.0740
 6026SOL    HW229538   2.547   0.941   3.886  5.6394  0.6943 -0.4416
 6027SOL     OW29539   0.806   0.554   4.995  0.3666  0.5224 -0.1257
 6027SOL    HW129540   0.877   0.590   4.941  1.0339  1.0964  1.1337
 6027SOL    HW229541   0.730   0.567   4.939 -0.5767  0.5355  1.1664
 6028SOL     OW29542   0.532   1.033   7.447  0.5137  0.1146 -0.0193
 6028SOL    HW129543   0.504   0.945   7.472  0.5568 -0.6894 -2.7252
 6028SOL    HW229544   0.552   1.063   7.535 -0.8059  0.1669  0.2620
 6029SOL     OW29545   1.406   2.825   7.592 -0.7232  0.4950  0.3540
 6029SOL    HW129546   1.359   2.789   7.667 -1.8612 -0.9087 -1.0250
 6029SOL    HW229547   1.412   2.748   7.535 -0.2801  2.4422 -2.1945
 6030SOL     OW29548   1.819   0.648   9.984  0.1777 -0.2188  0.5031
 6030SOL    HW129549   1.861   0.734   9.979 -0.5668  0.1152 -0.0732
 6030SOL    HW229550   1.876   0.592   9.931  1.3716 -0.9474  2.5392
 6031SOL     OW29551   3.328   0.556  11.742 -0.0531  0.0887  0.3267
 6031SOL    HW129552   3.412   0.603  11.742 -0.5693  1.0202  1.0466
 6031SOL    HW229553   3.278   0.603  11.675  2.3332  2.1540 -0.0151
 6032SOL     OW29554   4.178   3.103   3.995 -0.1042 -0.5371  0.1175
 6032SOL    HW129555   4.169   3.023   4.047  1.8916 -0.3458  0.7593
 6032SOL    HW229556   4.134   3.164   4.055  0.2179  1.8561 -2.0892
 6033SOL     OW29557   0.650   1.797   8.317  0.0610 -0.0851 -0.6123
 6033SOL    HW129558   0.690   1.843   8.243 -0.9531  0.4723 -0.8231
 6033SOL    HW229559   0.721   1.765   8.372 -2.2244 -1.6038  1.4557
 6034SOL     OW29560   0.756   0.624   8.622 -0.3916  0.2107 -0.5212
 6034SOL    HW129561   0.668   0.655   8.642 -0.3787  0.4021 -0.7689
 6034SOL    HW229562   0.790   0.700   8.575 -0.8810  0.8064  0.0956
 6035SOL     OW29563   1.505   0.443   6.710 -0.0577  0.1778  0.4385
 6035SOL    HW129564   1.578   0.394   6.673 -0.0331  0.6396 -0.1175
 6035SOL    HW229565   1.492   0.497   6.632  2.8473  0.3590  0.0539
 6036SOL     OW29566   1.176   1.846   7.929 -0.4798  0.1884 -0.2862
 6036SOL    HW129567   1.190   1.770   7.985 -1.4108  1.2943  1.4149
 6036SOL    HW229568   1.226   1.910   7.980  1.8342 -1.6566 -0.2110
 6037SOL     OW29569   1.264   4.683   9.073 -0.2305 -0.0703  0.0067
 6037SOL    HW129570   1.335   4.684   9.008  0.1078 -0.2903  0.3740
 6037SOL    HW229571   1.291   4.629   9.147 -0.8156 -0.1043  0.1921
 6038SOL     OW29572   3.272   1.486  10.082 -0.8603 -0.2863 -0.6968
 6038SOL    HW129573   3.218   1.492  10.161  0.0643 -2.0596  0.0731
 6038SOL    HW229574   3.260   1.396  10.052  2.0666 -0.5014 -1.2201
 6039SOL     OW29575   3.505   1.750   6.161 -0.6901  0.2980  0.0751
 6039SOL    HW129576   3.571   1.701   6.113 -0.6235  1.3451 -0.9122
 6039SOL    HW229577   3.427   1.707   6.129 -1.0774  1.4652 -0.5559
 6040SOL     OW29578   1.648   2.280   9.438  0.5556 -0.2880  0.1415
 6040SOL    HW129579   1.725   2.223   9.435  0.8883  0.2840 -2.3328
 6040SOL    HW229580   1.658   2.330   9.519 -1.6175  1.9627 -0.9882
 6041SOL     OW29581   2.781   4.466   1.491  0.4549  0.0977  0.2485
 6041SOL    HW129582   2.816   4.537   1.545 -0.2480  0.1067  0.6832
 6041SOL    HW229583   2.751   4.422   1.570 -0.3830 -0.8478 -0.5935
 6042SOL     OW29584   3.141   3.759  17.703  0.0639 -0.1359 -0.2328
 6042SOL    HW129585   3.126   3.831   0.057  0.3973  1.7605 -2.4458
 6042SOL    HW229586   3.053   3.724  17.688 -0.1939  0.8171 -0.8819
 6043SOL     OW29587   4.054   1.899   8.950 -0.4434 -0.2502  0.3664
 6043SOL    HW129588   4.075   1.977   8.900  2.2961 -0.9855  0.3902
 6043SOL    HW229589   4.141   1.861   8.938  0.3229  0.9139  2.2979
 6044SOL     OW29590   2.607   2.360  10.526  0.4587  0.6088  0.1491
 6044SOL    HW129591   2.605   2.266  10.543 -0.2555  0.4562 -0.7600
 6044SOL    HW229592   2.673   2.355  10.457  1.5591  2.9767  1.0151
 6045SOL     OW29593   1.071   1.382   1.452  0.0102  0.2743  0.3272
 6045SOL    HW129594   1.063   1.327   1.374 -1.2185  0.3455  0.4004
 6045SOL    HW229595   1.069   1.314   1.519 -0.8168 -0.9171 -0.9025
 6046SOL     OW29596   3.555   0.711   6.563 -0.6467  0.2834  0.0298
 6046SOL    HW129597   3.462   0.729   6.573 -1.2062 -2.2022 -0.6500
 6046SOL    HW229598   3.579   0.790   6.515 -0.5095 -0.3083 -0.8867
 6047SOL     OW29599   1.404   0.954   6.182 -0.1730  0.3784 -0.2509
 6047SOL    HW129600   1.392   0.898   6.105  0.8619 -0.9909  0.5643
 6047SOL    HW229601   1.317   0.930   6.214 -0.5838  0.1015 -1.5754
 6048SOL     OW29602   3.772   3.882   1.809 -0.6931 -0.1234 -0.3742
 6048SOL    HW129603   3.826   3.852   1.736 -0.7087  2.2505 -1.3577
 6048SOL    HW229604   3.769   3.977   1.805  1.4680  0.0442  1.7349
 6049SOL     OW29605   3.809   1.419   8.531 -0.5996  0.3357 -0.7513
 6049SOL    HW129606   3.761   1.492   8.570  1.3119 -0.6652  3.4710
 6049SOL    HW229607   3.750   1.346   8.551 -0.1429 -0.6482 -2.9892
 6050SOL     OW29608   3.457   3.604   8.722 -0.3129  0.3089  0.0068
 6050SOL    HW129609   3.474   3.687   8.768  1.2841 -0.5146  0.8680
 6050SOL    HW229610   3.505   3.629   8.643 -1.3187  1.8572 -0.1336
 6051SOL     OW29611   4.709   2.909   3.450 -0.1900  0.1297 -0.4130
 6051SOL    HW129612   4.652   2.987   3.454  0.6053  0.6734  0.4450
 6051SOL    HW229613   0.016   2.911   3.360  2.2348  1.0868  0.5042
 6052SOL     OW29614   2.489   1.196   7.471 -0.2231 -0.0748 -0.0750
 6052SOL    HW129615   2.508   1.110   7.432 -1.4765 -0.2136 -0.3726
 6052SOL    HW229616   2.532   1.258   7.412  0.0519 -1.6484 -1.5453
 6053SOL     OW29617   0.458   1.347   9.090  0.2275 -0.4976 -0.0485
 6053SOL    HW129618   0.490   1.294   9.017  0.3617 -1.3245  0.5965
 6053SOL    HW229619   0.381   1.395   9.061  0.1883 -0.2593  0.4486
 6054SOL     OW29620   2.991   0.791   5.590  0.3999  0.6498  0.1251
 6054SOL    HW129621   3.036   0.768   5.509  0.2639  1.2121 -0.1060
 6054SOL    HW229622   2.906   0.821   5.560 -0.3255 -0.4830  1.0500
 6055SOL     OW29623   1.041   0.974   5.101  0.6979  0.0867 -0.1709
 6055SOL    HW129624   1.111   0.955   5.164 -0.3289  1.0771  1.2726
 6055SOL    HW229625   1.075   0.929   5.024 -1.5095 -2.5365  0.3686
 6056SOL     OW29626   4.427   2.803  13.815  0.4484  0.1277 -0.1413
 6056SOL    HW129627   4.442   2.898  13.817 -0.6965  0.3094 -0.4051
 6056SOL    HW229628   4.491   2.764  13.875  0.4733 -0.8422 -0.8023
 6057SOL     OW29629   2.023   1.360   3.996  0.1981  0.8018  0.5115
 6057SOL    HW129630   1.939   1.365   3.951  0.9693  0.8878 -0.9211
 6057SOL    HW229631   2.087   1.314   3.942 -1.3432 -1.1438  0.3581
 6058SOL     OW29632   4.520   4.352   3.973 -0.1855  0.1819  0.4539
 6058SOL    HW129633   4.499   4.401   3.893 -0.9356 -3.3562 -1.5532
 6058SOL    HW229634   4.605   4.313   3.954  0.2653  1.2590  0.2943
 6059SOL     OW29635   1.975   0.434   3.387 -0.3633  0.3119  0.2337
 6059SOL    HW129636   1.949   0.511   3.335  1.1577 -1.4946 -3.1857
 6059SOL    HW229637   1.890   0.390   3.384  1.0353 -2.2406 -2.2539
 6060SOL     OW29638   1.178   1.050   2.263 -0.0705  0.1248  0.5583
 6060SOL    HW129639   1.088   1.046   2.296 -0.5571 -1.5435 -0.9966
 6060SOL    HW229640   1.215   0.974   2.309  2.0445  0.6256 -0.3159
 6061SOL     OW29641   0.490   0.216  15.255  0.4037 -0.4825 -0.2769
 6061SOL    HW129642   0.399   0.189  15.252  0.4005 -0.6182  0.8925
 6061SOL    HW229643   0.515   0.184  15.342 -1.2829 -1.0253 -0.0081
 6062SOL     OW29644   2.023   4.474  14.235  0.4234 -0.4290 -0.4466
 6062SOL    HW129645   2.103   4.511  14.198  0.1605  0.5734 -0.0261
 6062SOL    HW229646   1.996   4.549  14.287 -0.1168 -0.4291 -0.7308
 6063SOL     OW29647   1.602   2.022  13.280 -0.8757  0.6025 -0.2286
 6063SOL    HW129648   1.559   2.039  13.197 -1.0163  1.0156 -0.0712
 6063SOL    HW229649   1.654   2.102  13.286 -0.3413  0.1307  1.5884
 6064SOL     OW29650   3.787   0.300   5.857  0.3081 -0.0373  0.4632
 6064SOL    HW129651   3.735   0.252   5.922 -0.1464  0.3610  0.3855
 6064SOL    HW229652   3.785   0.235   5.787  1.1933  0.9139 -0.4361
 6065SOL     OW29653   2.875   2.677   7.050  0.4388 -0.2240  0.1497
 6065SOL    HW129654   2.787   2.716   7.045  0.2182 -0.6570  0.6447
 6065SOL    HW229655   2.873   2.584   7.028 -0.0430 -0.7779  2.5644
 6066SOL     OW29656   0.780   3.573   3.334  0.2731 -0.6542 -0.5604
 6066SOL    HW129657   0.768   3.526   3.417  0.7494  0.2047 -0.0054
 6066SOL    HW229658   0.875   3.576   3.324  0.4300 -0.7108  0.8934
 6067SOL     OW29659   4.608   1.115   3.235  0.3097  1.0214  0.4183
 6067SOL    HW129660   4.684   1.095   3.290 -1.2013 -3.4702  0.8835
 6067SOL    HW229661   4.567   1.029   3.235  0.0003  1.1666 -1.8420
 6068SOL     OW29662   2.720   1.032   1.196 -0.2070 -0.2913 -0.8584
 6068SOL    HW129663   2.756   1.048   1.109 -1.9204  1.1407 -1.2924
 6068SOL    HW229664   2.788   1.069   1.252  0.3194 -1.0902 -0.9664
 6069SOL     OW29665   0.229   2.695   2.638 -0.4031  0.0469 -0.1553
 6069SOL    HW129666   0.283   2.738   2.704 -0.1528 -2.5559  1.3385
 6069SOL    HW229667   0.292   2.630   2.607  0.0048  1.2411 -1.8446
 6070SOL     OW29668   4.110   2.657   6.536 -0.1410  0.7479  0.0625
 6070SOL    HW129669   4.078   2.680   6.449 -0.5993  1.0081  0.2942
 6070SOL    HW229670   4.204   2.651   6.522 -0.1970 -0.8591  0.4242
 6071SOL     OW29671   0.793   3.561   7.544 -0.1076  0.3517  0.4261
 6071SOL    HW129672   0.792   3.487   7.484  1.0256  1.8321 -1.4177
 6071SOL    HW229673   0.706   3.555   7.585 -0.2886 -0.8096 -0.1412
 6072SOL     OW29674   1.932   0.813   4.292  0.3121 -0.4189 -0.1434
 6072SOL    HW129675   1.918   0.722   4.266  0.7556 -0.0467 -1.6486
 6072SOL    HW229676   1.841   0.840   4.285  0.3991  0.0559  0.4978
 6073SOL     OW29677   3.386   0.714   3.083 -0.5067  0.6657  0.4330
 6073SOL    HW129678   3.345   0.668   3.010 -1.6041  0.5422  1.1375
 6073SOL    HW229679   3.477   0.686   3.072  0.1777  2.1751  2.2059
 6074SOL     OW29680   4.295   1.276  17.018  0.4058  0.5271 -0.0160
 6074SOL    HW129681   4.262   1.349  16.965 -0.6173 -1.0953 -1.6112
 6074SOL    HW229682   4.250   1.297  17.100 -2.6377  0.7999 -1.7414
 6075SOL     OW29683   2.228   4.441  17.171  0.2630 -0.0660 -0.4293
 6075SOL    HW129684   2.157   4.448  17.107  0.0035 -0.9916 -0.2327
 6075SOL    HW229685   2.193   4.497  17.241 -1.2305 -0.5018 -0.8387
 6076SOL     OW29686   3.280   3.364   6.591  0.1935 -0.3877 -0.1978
 6076SOL    HW129687   3.288   3.431   6.524  2.5468  1.1872  1.6667
 6076SOL    HW229688   3.185   3.349   6.594  1.0961 -6.2336  0.3835
 6077SOL     OW29689   1.954   4.436   7.451  0.4325  0.1686  0.4542
 6077SOL    HW129690   2.047   4.446   7.429  0.3715  2.0202  1.0558
 6077SOL    HW229691   1.945   4.526   7.481  0.7245 -0.0110  1.0832
 6078SOL     OW29692   2.035   4.208  11.977  0.0304  0.2204  0.1255
 6078SOL    HW129693   2.076   4.127  12.008  0.5272  0.5308  0.2850
 6078SOL    HW229694   2.101   4.275  11.996 -0.5291  0.9793 -0.6496
 6079SOL     OW29695   0.020   2.821  17.413  0.7506  0.2097 -0.2888
 6079SOL    HW129696   0.050   2.776  17.492  1.5351  0.7840 -0.2631
 6079SOL    HW229697   0.012   2.739  17.365 -0.8326 -1.1765  2.3444
 6080SOL     OW29698   2.102   2.447  13.699  1.1274  1.1230 -0.1872
 6080SOL    HW129699   2.049   2.497  13.761 -2.5144  0.3111 -2.6082
 6080SOL    HW229700   2.032   2.386  13.679  2.5150 -0.4320 -0.2704
 6081SOL     OW29701   1.073   3.398   4.728  0.0005  0.2727 -0.3975
 6081SOL    HW129702   1.045   3.460   4.660 -0.1718 -0.2779 -0.8294
 6081SOL    HW229703   1.161   3.382   4.694  0.6118  0.7698  0.9675
 6082SOL     OW29704   1.871   1.543  15.067  0.7944 -0.0177 -0.1843
 6082SOL    HW129705   1.955   1.585  15.087  1.1990 -0.4861 -0.9279
 6082SOL    HW229706   1.839   1.534  15.157 -2.7323  0.9881 -1.3485
 6083SOL     OW29707   3.984   2.428   7.507  0.3316 -0.2602  0.3017
 6083SOL    HW129708   3.973   2.455   7.416 -0.7311 -1.5003  0.0683
 6083SOL    HW229709   4.055   2.365   7.492  0.6461  0.9878 -3.3023
 6084SOL     OW29710   0.906   4.366   5.828  0.0186 -0.4676  0.1958
 6084SOL    HW129711   0.894   4.430   5.758 -1.1688 -1.8279 -0.8548
 6084SOL    HW229712   0.827   4.311   5.832  0.9557 -1.7618  1.1047
 6085SOL     OW29713   3.415   2.236   9.575 -0.6267 -0.3354 -0.7408
 6085SOL    HW129714   3.438   2.327   9.552  2.2212 -1.1613 -1.2218
 6085SOL    HW229715   3.326   2.225   9.542 -1.9061 -1.0514  2.9776
 6086SOL     OW29716   0.591   0.210   8.039  0.3094  0.2929 -0.2548
 6086SOL    HW129717   0.616   0.130   7.992  1.8336  0.3401  0.4850
 6086SOL    HW229718   0.636   0.192   8.121  0.7447 -0.0660 -0.5722
 6087SOL     OW29719   1.259   4.594   3.556 -0.0808  0.1180  0.2472
 6087SOL    HW129720   1.203   4.551   3.490 -0.0614  0.7095 -0.1558
 6087SOL    HW229721   1.273   4.676   3.508  2.3694  0.3284  1.3499
 6088SOL     OW29722   3.882   1.280  10.728 -0.0908 -0.2482 -0.0210
 6088SOL    HW129723   3.931   1.257  10.649  0.6653 -0.3653  0.4890
 6088SOL    HW229724   3.812   1.215  10.715  0.5731 -1.2295  1.3962
 6089SOL     OW29725   3.397   4.289   4.567 -0.0665  0.3739  0.4741
 6089SOL    HW129726   3.425   4.380   4.560 -2.9801  1.1156 -1.4774
 6089SOL    HW229727   3.444   4.251   4.642  3.0521  0.8932 -1.2116
 6090SOL     OW29728   2.288   0.059   8.510 -0.3126 -0.1198  0.2274
 6090SOL    HW129729   2.246   0.069   8.424 -0.6891  0.3340  0.4566
 6090SOL    HW229730   2.376   0.039   8.478  0.4386  0.1902  2.1111
 6091SOL     OW29731   4.680   1.399   4.283  0.0058 -0.0942 -0.0632
 6091SOL    HW129732   0.038   1.356   4.299 -0.4748 -1.0827 -0.1572
 6091SOL    HW229733   4.630   1.354   4.352 -0.6087  1.6252  0.6093
 6092SOL     OW29734   0.463   3.583   5.073 -0.2456  0.0586 -0.5441
 6092SOL    HW129735   0.441   3.510   5.132 -0.3221  0.7412  0.2613
 6092SOL    HW229736   0.497   3.645   5.136  0.2567 -1.2675  0.4997
 6093SOL     OW29737   3.489   1.045   3.071 -0.7458 -0.0364 -0.4097
 6093SOL    HW129738   3.530   0.959   3.071 -0.3916  0.1301  1.0569
 6093SOL    HW229739   3.411   1.032   3.016  0.0139 -0.7576 -1.3114
 6094SOL     OW29740   0.352   3.423   7.889 -0.2713 -0.4182  0.2232
 6094SOL    HW129741   0.434   3.377   7.908  0.3811  1.8134  2.6441
 6094SOL    HW229742   0.327   3.451   7.977 -2.2738 -1.1002 -0.1330
 6095SOL     OW29743   1.315   2.748  15.045  0.3046  0.0290  0.0982
 6095SOL    HW129744   1.220   2.736  15.037  0.2429 -0.6224  1.7870
 6095SOL    HW229745   1.334   2.671  15.098 -0.9306 -0.6747 -0.4776
 6096SOL     OW29746   0.139   2.065  13.191  0.2572  0.7959 -1.0170
 6096SOL    HW129747   0.222   2.067  13.239 -0.4623  1.2646  0.2165
 6096SOL    HW229748   0.097   2.148  13.213  0.5804  0.4784  0.7658
 6097SOL     OW29749   3.260   0.831  10.220  0.5337 -0.5820  0.0089
 6097SOL    HW129750   3.221   0.888  10.154  0.6105  3.4355  3.4307
 6097SOL    HW229751   3.195   0.762  10.206  0.1356 -0.0059 -0.9363
 6098SOL     OW29752   3.016   4.488   7.249  0.1946  0.1782 -0.0923
 6098SOL    HW129753   3.110   4.503   7.242 -0.0695  1.0164 -1.8985
 6098SOL    HW229754   3.014   4.396   7.223 -4.3906  0.0242  0.7902
 6099SOL     OW29755   4.367   2.494   3.448  0.2143 -0.6058  0.0779
 6099SOL    HW129756   4.390   2.568   3.505 -3.3559 -0.9670  1.9661
 6099SOL    HW229757   4.421   2.515   3.372  1.6734 -1.9077  0.7591
 6100SOL     OW29758   3.406   2.217  12.931 -0.3426  0.1230 -0.0181
 6100SOL    HW129759   3.419   2.294  12.876  0.1424 -0.3814 -0.6161
 6100SOL    HW229760   3.325   2.244  12.973 -1.3422 -2.4583 -0.2973
 6101SOL     OW29761   0.393   0.429   2.725 -0.2089 -0.1120 -0.6555
 6101SOL    HW129762   0.401   0.419   2.630  1.7297 -2.7689 -0.2330
 6101SOL    HW229763   0.378   0.338   2.750 -1.7928  0.2486 -0.2813
 6102SOL     OW29764   3.789   1.275   9.856  0.0543 -0.3371  0.4357
 6102SOL    HW129765   3.791   1.314   9.769 -1.3402 -2.0690 -0.3835
 6102SOL    HW229766   3.717   1.213   9.842  0.5909 -1.0991  1.0031
 6103SOL     OW29767   3.522   1.940   1.829  0.5299 -0.6736 -0.0726
 6103SOL    HW129768   3.460   2.012   1.818  0.0422 -1.0350  0.3228
 6103SOL    HW229769   3.557   1.967   1.913  0.4940  1.1355 -0.6314
 6104SOL     OW29770   1.392   1.356  17.377 -0.0380  0.4771  0.2422
 6104SOL    HW129771   1.357   1.296  17.311 -2.0499  1.1311  0.6967
 6104SOL    HW229772   1.477   1.314  17.387  0.2690  1.4426  1.8084
 6105SOL     OW29773   0.532   1.518   3.557 -0.0451 -0.2523  0.1185
 6105SOL    HW129774   0.545   1.506   3.651  1.5374  1.4197  0.1130
 6105SOL    HW229775   0.509   1.428   3.536  0.0391  0.1237 -1.5589
 6106SOL     OW29776   1.657   1.232   1.290  0.2303  0.5876  0.4661
 6106SOL    HW129777   1.704   1.193   1.364 -0.2320 -0.7286  0.0696
 6106SOL    HW229778   1.591   1.269   1.348 -0.6917 -1.3776  0.6828
 6107SOL     OW29779   2.835   4.063  17.153  0.8534 -0.0420 -0.6619
 6107SOL    HW129780   2.884   4.112  17.220  1.1689 -0.2785 -0.7213
 6107SOL    HW229781   2.744   4.069  17.182  1.2907  2.2807  0.2235
 6108SOL     OW29782   2.055   2.306   0.972 -0.0878  0.0882 -0.0275
 6108SOL    HW129783   2.125   2.323   0.909  1.1986 -2.1460  0.7822
 6108SOL    HW229784   2.071   2.375   1.036  0.1914  3.5354 -3.8379
 6109SOL     OW29785   1.396   2.369   4.304 -0.6257  0.6992  0.4613
 6109SOL    HW129786   1.406   2.277   4.280 -0.5836  1.2545 -1.6003
 6109SOL    HW229787   1.371   2.406   4.220 -0.2224  0.2239  0.1319
 6110SOL     OW29788   1.872   0.161   0.412 -0.1674 -0.0084  0.1641
 6110SOL    HW129789   1.953   0.159   0.463  0.4093 -1.9198 -0.8140
 6110SOL    HW229790   1.826   0.092   0.460 -1.0458  0.8285  0.5191
 6111SOL     OW29791   0.476   0.368  14.097  0.2560 -0.1635 -0.0550
 6111SOL    HW129792   0.466   0.312  14.174 -0.5098  0.1681  0.0954
 6111SOL    HW229793   0.426   0.448  14.114 -0.7198 -0.5844 -0.9784
 6112SOL     OW29794   1.892   2.517   6.359 -0.0281  0.3682  0.4033
 6112SOL    HW129795   1.815   2.461   6.374 -2.0129  2.7562 -0.7598
 6112SOL    HW229796   1.901   2.534   6.453 -0.0234  0.8952  0.3043
 6113SOL     OW29797   2.950   2.973   5.432 -0.0988  0.1307  0.1740
 6113SOL    HW129798   3.002   3.053   5.439 -0.5023  0.4583 -0.5055
 6113SOL    HW229799   2.889   2.997   5.362  1.7437  3.0330 -0.4477
 6114SOL     OW29800   4.068   3.126   4.571  0.3043  0.0432  0.0162
 6114SOL    HW129801   4.102   3.168   4.650 -1.2082 -2.0460  1.7891
 6114SOL    HW229802   3.974   3.129   4.588  0.2982  2.6355 -0.4896
 6115SOL     OW29803   0.208   3.213   4.708 -0.1247  0.0384 -0.2050
 6115SOL    HW129804   0.284   3.232   4.653 -0.2412  0.2465 -0.2965
 6115SOL    HW229805   0.246   3.240   4.792 -1.1483  2.3426 -0.4699
 6116SOL     OW29806   3.047   1.994   2.050 -0.2305  0.0847 -0.3195
 6116SOL    HW129807   3.095   2.067   2.011 -0.7143  0.7374  0.3110
 6116SOL    HW229808   2.956   2.021   2.040  0.0926  1.0615 -0.5852
 6117SOL     OW29809   4.013   1.626   0.562  0.0331  0.2607  0.4027
 6117SOL    HW129810   3.974   1.702   0.605  0.1263  0.6286 -0.1629
 6117SOL    HW229811   3.934   1.573   0.558  0.8866 -0.8308 -2.0436
 6118SOL     OW29812   0.593   2.281  17.153  0.1618  0.5491  0.1627
 6118SOL    HW129813   0.664   2.240  17.104 -0.0506 -1.2504  1.3457
 6118SOL    HW229814   0.642   2.299  17.233  1.5692 -0.1622 -0.5400
 6119SOL     OW29815   1.760   3.092  16.510  0.5248  0.1620  0.1828
 6119SOL    HW129816   1.795   3.101  16.422 -0.1260  1.3112  0.0359
 6119SOL    HW229817   1.675   3.133  16.494  0.1734 -0.3107  0.8384
 6120SOL     OW29818   3.099   0.340   4.009  0.1923 -0.0808 -0.3368
 6120SOL    HW129819   3.121   0.251   3.982 -0.5864 -0.2035 -0.5618
 6120SOL    HW229820   3.004   0.324   4.004  0.2734  0.3352 -3.2029
 6121SOL     OW29821   0.033   1.128   7.210  0.6816 -0.2759  0.3230
 6121SOL    HW129822   0.028   1.215   7.250  0.4546  0.4949 -1.3441
 6121SOL    HW229823   4.673   1.093   7.190  0.2047  0.6613  0.7248
 6122SOL     OW29824   1.104   1.937   7.489  0.0982 -0.5921 -0.2529
 6122SOL    HW129825   1.088   1.845   7.511 -1.8243 -0.3153 -0.5195
 6122SOL    HW229826   1.198   1.931   7.472  0.0707  0.7657 -0.8849
 6123SOL     OW29827   0.302   2.102   7.499  0.1641 -0.4318  0.3994
 6123SOL    HW129828   0.223   2.068   7.540 -0.8086  3.3007  1.6056
 6123SOL    HW229829   0.305   2.195   7.521  2.9982 -0.4609  0.1912
 6124SOL     OW29830   4.625   3.123   6.811 -0.2442 -0.1771  0.4680
 6124SOL    HW129831   4.702   3.155   6.859 -0.8718 -0.4576  1.6533
 6124SOL    HW229832   4.553   3.169   6.855 -0.1401  2.2233 -1.8704
 6125SOL     OW29833   1.057   2.307   8.402  0.4105  0.2203  0.4255
 6125SOL    HW129834   1.012   2.391   8.415  1.5231  0.8898 -0.1208
 6125SOL    HW229835   1.017   2.272   8.323  0.5216  3.4620 -1.0592
 6126SOL     OW29836   1.016   1.640   1.775  0.0006  0.2782  0.4255
 6126SOL    HW129837   1.073   1.644   1.698  0.9582 -0.2711  1.1128
 6126SOL    HW229838   0.992   1.548   1.782  1.5916  0.0247  2.4765
 6127SOL     OW29839   1.873   3.417   4.064  0.2747 -0.2570  0.4630
 6127SOL    HW129840   1.946   3.471   4.034 -0.3859 -0.8211 -2.1482
 6127SOL    HW229841   1.868   3.341   4.006  1.7371 -1.5927  2.0899
 6128SOL     OW29842   4.553   4.548   6.139 -0.1019 -0.1176  0.1198
 6128SOL    HW129843   4.515   4.555   6.051  0.0444  0.3697  0.0964
 6128SOL    HW229844   4.475   4.535   6.193  0.0725 -2.5915 -0.2227
 6129SOL     OW29845   2.531   3.982  11.587 -0.6695  0.5396  0.2267
 6129SOL    HW129846   2.585   3.977  11.508 -1.5459 -0.0073 -0.3281
 6129SOL    HW229847   2.492   3.895  11.588  1.2959 -0.3988 -3.0650
 6130SOL     OW29848   0.096   0.861   4.706  0.3619  0.5073 -0.6413
 6130SOL    HW129849   0.070   0.921   4.776  0.1811  0.8313 -0.9895
 6130SOL    HW229850   0.036   0.788   4.718  0.3363  0.3469 -1.7537
 6131SOL     OW29851   1.320   1.259   1.661 -0.1867 -0.1796  0.2186
 6131SOL    HW129852   1.365   1.283   1.742 -1.3082  0.7662  0.5493
 6131SOL    HW229853   1.360   1.328   1.608  1.2432  0.8167  2.5992
 6132SOL     OW29854   4.614   2.778   4.174 -0.7403  0.4802  0.2760
 6132SOL    HW129855   4.683   2.768   4.108  0.3397  1.6717  1.2300
 6132SOL    HW229856   4.543   2.812   4.119  0.4342  0.1032 -1.4917
 6133SOL     OW29857   4.024   3.772   6.379 -0.1820 -0.0812 -0.1046
 6133SOL    HW129858   4.004   3.858   6.415  0.5521  0.8580 -1.9995
 6133SOL    HW229859   4.103   3.766   6.433  0.3317  0.1611 -0.8325
 6134SOL     OW29860   0.285   0.345   9.731  1.5162 -0.0792 -0.1979
 6134SOL    HW129861   0.377   0.347   9.759  0.1781 -1.5910  4.3204
 6134SOL    HW229862   0.264   0.252   9.739  1.6049 -0.1597 -0.9042
 6135SOL     OW29863   2.993   4.423  16.395  0.1629 -0.7904 -0.7841
 6135SOL    HW129864   3.048   4.370  16.336 -0.1356 -0.9831 -0.8864
 6135SOL    HW229865   2.904   4.409  16.363 -0.0238  3.6505 -2.2631
 6136SOL     OW29866   1.352   0.294  17.606 -0.2012 -0.0376 -0.2182
 6136SOL    HW129867   1.351   0.386  17.583  1.5394 -0.0065 -0.2222
 6136SOL    HW229868   1.274   0.266  17.559  0.6498 -0.0436 -1.6126
 6137SOL     OW29869   2.945   3.293   6.401  0.5042  0.5077 -0.0285
 6137SOL    HW129870   2.948   3.258   6.490  2.9273  0.7668 -0.0074
 6137SOL    HW229871   3.015   3.234   6.374 -0.8418 -2.2561  2.4962
 6138SOL     OW29872   0.080   2.780  12.983 -0.2578 -0.1760  0.6199
 6138SOL    HW129873   0.051   2.863  13.021  0.6999  1.7636 -2.9348
 6138SOL    HW229874   0.120   2.738  13.059 -1.0285 -0.9976  0.5749
 6139SOL     OW29875   1.701   3.095   0.494  0.0632 -0.3520 -0.0068
 6139SOL    HW129876   1.679   3.050   0.576 -0.2022  0.3241  0.2996
 6139SOL    HW229877   1.797   3.099   0.499  0.1394 -3.1510  0.9227
 6140SOL     OW29878   4.629   2.856  12.481  0.2887 -0.0753  0.6573
 6140SOL    HW129879   4.677   2.826  12.558  1.4628  0.5295  0.1686
 6140SOL    HW229880   4.683   2.803  12.423 -1.4683  1.5414 -2.4244
 6141SOL     OW29881   1.669   3.767   2.994  0.2085  0.2470 -0.0250
 6141SOL    HW129882   1.610   3.834   3.028 -0.8014 -0.8330  0.3786
 6141SOL    HW229883   1.651   3.712   3.070 -2.1345  1.4707  0.3000
 6142SOL     OW29884   0.469   2.620   7.994 -0.3476  0.4268 -0.0986
 6142SOL    HW129885   0.381   2.633   7.959 -0.1499  1.6923 -0.0954
 6142SOL    HW229886   0.444   2.548   8.052  1.9360  0.3758  0.8371
 6143SOL     OW29887   0.280   0.102   9.844  0.0642 -0.3340  0.0819
 6143SOL    HW129888   0.349   0.073   9.902 -2.8866 -1.2289  3.1493
 6143SOL    HW229889   0.283   0.033   9.777  1.0831 -0.5441  0.3514
 6144SOL     OW29890   0.292   4.405  10.604 -0.1970  0.4947  0.2611
 6144SOL    HW129891   0.200   4.432  10.595 -0.4733 -0.7565 -0.6635
 6144SOL    HW229892   0.283   4.321  10.558  1.5894 -1.3870  3.3204
 6145SOL     OW29893   3.227   1.016   2.945  0.3060 -0.7006  0.1502
 6145SOL    HW129894   3.222   0.944   2.882  0.1772  1.1507 -1.9424
 6145SOL    HW229895   3.156   1.064   2.903 -0.2370 -1.4148  0.2483
 6146SOL     OW29896   1.618   3.249  16.347 -0.1702 -0.2818 -0.6046
 6146SOL    HW129897   1.676   3.255  16.271 -0.1140  0.4589 -0.4961
 6146SOL    HW229898   1.540   3.276  16.298  1.1367  1.5482 -1.6558
 6147SOL     OW29899   0.230   1.742  11.523  0.1477 -0.3054  0.2457
 6147SOL    HW129900   0.204   1.823  11.480  0.4816  0.0483  0.7125
 6147SOL    HW229901   0.308   1.725  11.470  2.2574  2.5067  2.4932
 6148SOL     OW29902   0.598   4.030   5.451 -0.4459 -0.1722  0.1558
 6148SOL    HW129903   0.604   4.117   5.492 -0.2398 -0.4312  0.6698
 6148SOL    HW229904   0.642   3.979   5.519  1.3576  1.0086 -0.1346
 6149SOL     OW29905   1.974   4.439   2.660  0.1769  0.2781  0.0546
 6149SOL    HW129906   2.062   4.463   2.630 -0.7895  2.4833 -0.9734
 6149SOL    HW229907   1.940   4.380   2.592 -1.8052 -0.4273  1.6648
 6150SOL     OW29908   3.517   4.385  16.802  0.3923  0.1273  0.3815
 6150SOL    HW129909   3.608   4.384  16.774  0.3279  1.3534  0.1357
 6150SOL    HW229910   3.496   4.470  16.765 -0.1931 -0.5979 -0.9659
 6151SOL     OW29911   1.407   1.150   7.602  0.1208 -0.4545  0.8028
 6151SOL    HW129912   1.472   1.128   7.669  0.2801 -1.0730  0.4463
 6151SOL    HW229913   1.445   1.233   7.575 -1.9515  0.3998  0.4728
 6152SOL     OW29914   1.503   1.763   3.878 -0.2599  0.2328  0.0453
 6152SOL    HW129915   1.539   1.682   3.912 -1.1050 -0.8657 -1.6693
 6152SOL    HW229916   1.500   1.737   3.786  1.8305  0.7665 -0.1641
 6153SOL     OW29917   1.069   4.086   9.232 -0.6497  0.1248 -0.4890
 6153SOL    HW129918   1.115   4.148   9.175 -0.4508  2.2719  2.0461
 6153SOL    HW229919   1.009   4.141   9.282 -0.3197 -0.3990  0.4876
 6154SOL     OW29920   3.878   1.797   6.120 -0.4427  0.5026  0.3204
 6154SOL    HW129921   3.921   1.811   6.036 -0.9977 -0.8505 -0.1760
 6154SOL    HW229922   3.851   1.889   6.131 -1.8667  0.2845 -1.3791
 6155SOL     OW29923   3.564   3.556  14.712  0.3014  0.1079 -0.0559
 6155SOL    HW129924   3.575   3.476  14.661  1.9169 -1.1611  2.2686
 6155SOL    HW229925   3.575   3.625  14.646 -2.1920  0.6277  0.0837
 6156SOL     OW29926   1.001   3.313   5.209  0.0667 -0.5513 -0.1310
 6156SOL    HW129927   1.007   3.397   5.163 -2.0257  0.3058  1.1356
 6156SOL    HW229928   1.046   3.256   5.147 -0.3225 -1.6860  0.6151
 6157SOL     OW29929   1.682   4.321   3.760  0.3486 -0.1089  0.5040
 6157SOL    HW129930   1.763   4.366   3.737 -0.3544  0.7731 -0.2524
 6157SOL    HW229931   1.621   4.378   3.714  0.3182 -1.5739 -1.2644
 6158SOL     OW29932   0.345   3.056   3.247  0.7148  0.7824 -0.2832
 6158SOL    HW129933   0.304   3.139   3.225 -1.3001 -1.3908 -4.7400
 6158SOL    HW229934   0.352   3.018   3.160  1.7581 -2.4729  1.2123
 6159SOL     OW29935   1.869   4.117  11.773  0.2128  0.0432 -0.2790
 6159SOL    HW129936   1.876   4.201  11.728  0.3845 -0.0182 -0.3676
 6159SOL    HW229937   1.912   4.136  11.856  1.1770 -0.0883 -0.7468
 6160SOL     OW29938   4.067   0.094   6.910  0.6998  0.1273  0.6800
 6160SOL    HW129939   4.154   0.129   6.926  0.1326  1.6184  0.5830
 6160SOL    HW229940   4.082   4.726   6.911 -1.4126 -0.2253 -0.6329
 6161SOL     OW29941   3.595   3.174   7.992  0.2745  0.5243 -0.1370
 6161SOL    HW129942   3.566   3.118   8.064  0.9580  1.8291  1.1556
 6161SOL    HW229943   3.530   3.156   7.925 -1.2494 -0.0242  1.4739
 6162SOL     OW29944   2.900   4.537  11.378  0.0754  0.5370  0.0329
 6162SOL    HW129945   2.982   4.489  11.367 -0.9397 -1.5562  1.5265
 6162SOL    HW229946   2.897   4.585  11.296  1.3474 -1.5259 -1.2235
 6163SOL     OW29947   3.700   1.663   6.356 -0.3414  0.5738 -0.2815
 6163SOL    HW129948   3.668   1.583   6.398  1.4416 -0.4207 -0.7971
 6163SOL    HW229949   3.621   1.703   6.320  0.9787  0.2648 -3.5770
 6164SOL     OW29950   3.821   1.248   5.778  0.5086  0.2061  0.4469
 6164SOL    HW129951   3.857   1.180   5.834  2.0576  1.0012  0.4069
 6164SOL    HW229952   3.860   1.323   5.822  0.2602  0.7496 -0.2431
 6165SOL     OW29953   4.435   0.977  15.867  0.5199  0.3903  0.7287
 6165SOL    HW129954   4.470   0.994  15.954 -0.4189 -0.1994  1.2143
 6165SOL    HW229955   4.487   0.907  15.826  1.2023  0.6252  1.1956
 6166SOL     OW29956   2.486   2.067   4.909  0.2552  0.0325 -0.2020
 6166SOL    HW129957   2.475   2.127   4.835  0.3588 -0.3538 -0.5250
 6166SOL    HW229958   2.581   2.056   4.896  0.6158  0.9653  1.6374
 6167SOL     OW29959   0.686   0.301   7.161  0.3861  0.0960  0.2140
 6167SOL    HW129960   0.725   0.214   7.165  0.5802  0.1071 -1.3511
 6167SOL    HW229961   0.698   0.310   7.066 -0.3230 -0.4632  0.0776
 6168SOL     OW29962   4.551   0.465   5.926  0.3395 -0.2573  0.1566
 6168SOL    HW129963   4.566   0.532   5.993 -1.8628  0.1552  0.2414
 6168SOL    HW229964   4.467   0.432   5.958 -0.6044  2.6642  0.7428
 6169SOL     OW29965   2.690   2.722  13.756  0.1101 -0.0744 -0.4617
 6169SOL    HW129966   2.652   2.757  13.675  0.2027 -0.0876 -0.5116
 6169SOL    HW229967   2.705   2.798  13.811 -1.6943  0.5737 -0.8600
 6170SOL     OW29968   2.982   0.232   7.762 -0.0358  0.8246  0.1311
 6170SOL    HW129969   2.979   0.138   7.747 -0.3905  0.6199  1.4932
 6170SOL    HW229970   3.003   0.258   7.672 -0.7174 -0.1601 -0.3096
 6171SOL     OW29971   2.892   2.387   3.736 -0.0081 -0.0848 -0.4468
 6171SOL    HW129972   2.897   2.419   3.826  1.9671  1.6811 -1.1906
 6171SOL    HW229973   2.815   2.439   3.714 -0.7409 -0.6182  0.8510
 6172SOL     OW29974   3.126   4.688   4.629  0.3053  0.2105  0.5593
 6172SOL    HW129975   3.177   4.649   4.700  0.3688 -0.9114 -0.0977
 6172SOL    HW229976   3.150   4.623   4.563  0.5164  0.4861  0.3685
 6173SOL     OW29977   2.039   4.471   2.961 -0.2527 -0.2140 -0.0088
 6173SOL    HW129978   2.026   4.446   2.869  0.4240 -0.6523  0.0171
 6173SOL    HW229979   2.034   4.385   3.003 -0.1052 -0.3175 -0.2012
 6174SOL     OW29980   4.629   4.644   6.869 -0.1425  0.0902 -0.2065
 6174SOL    HW129981   4.560   4.677   6.926 -1.6955 -0.1099 -1.9661
 6174SOL    HW229982   4.676   4.585   6.928 -1.1899 -0.8815 -0.3456
 6175SOL     OW29983   2.811   2.128  10.433  0.3337  0.0839 -0.1286
 6175SOL    HW129984   2.894   2.093  10.464  0.2416 -1.8501 -2.1166
 6175SOL    HW229985   2.832   2.221  10.426  0.6542 -0.0135 -0.4309
 6176SOL     OW29986   2.059   4.321  11.183 -0.3891  0.4612  0.0252
 6176SOL    HW129987   1.984   4.363  11.225 -0.1453  0.1759  0.7477
 6176SOL    HW229988   2.095   4.398  11.140 -1.8435  1.1939  0.1293
 6177SOL     OW29989   3.489   2.059   5.988  0.5410  0.1983  0.4596
 6177SOL    HW129990   3.412   2.105   5.954 -1.1968 -4.0308 -1.3155
 6177SOL    HW229991   3.519   2.119   6.056  1.0803  1.4665 -0.8918
 6178SOL     OW29992   3.565   0.141  14.816  0.1514  0.2404 -0.0673
 6178SOL    HW129993   3.639   0.161  14.758 -0.4012 -0.5904 -1.0580
 6178SOL    HW229994   3.545   0.049  14.798  0.0164  0.0095  1.3017
 6179SOL     OW29995   1.499   2.612   3.331 -0.4115 -0.1998  0.1018
 6179SOL    HW129996   1.518   2.663   3.253  1.1348  1.0213  1.2729
 6179SOL    HW229997   1.579   2.560   3.334 -0.1798  0.0865 -1.7231
 6180SOL     OW29998   1.659   3.811   2.061  0.6240  0.5075 -0.0031
 6180SOL    HW129999   1.647   3.861   1.980  0.8200  0.5127 -0.0275
 6180SOL    HW230000   1.650   3.720   2.035  0.2905  0.6645 -0.4385
 6181SOL     OW30001   2.402   3.149   8.807 -0.3325  0.3342  0.1799
 6181SOL    HW130002   2.332   3.181   8.864 -0.2232  0.0820  0.4557
 6181SOL    HW230003   2.472   3.207   8.838  0.0612  1.1211 -2.1542
 6182SOL     OW30004   2.761   4.408   5.591 -0.4552  0.8231  0.2148
 6182SOL    HW130005   2.722   4.406   5.679  2.4698 -0.5828  1.4580
 6182SOL    HW230006   2.823   4.480   5.597 -0.6979  1.0918 -0.4726
 6183SOL     OW30007   0.712   4.289  13.000  0.1123 -0.0535  0.2297
 6183SOL    HW130008   0.799   4.282  13.039  0.1812  1.3351  0.3320
 6183SOL    HW230009   0.670   4.282  13.086 -0.5224  1.6726  0.0664
 6184SOL     OW30010   4.078   0.870   3.397 -0.0813  0.4261  0.1377
 6184SOL    HW130011   4.117   0.783   3.394 -2.0608 -0.4531 -0.0302
 6184SOL    HW230012   4.149   0.924   3.433  1.3112 -1.9963  1.0927
 6185SOL     OW30013   2.414   1.522   2.048 -0.0704  0.1588 -0.5846
 6185SOL    HW130014   2.338   1.471   2.077  1.7234 -1.4411  1.2942
 6185SOL    HW230015   2.433   1.555   2.136 -0.4020  0.4831 -0.6327
 6186SOL     OW30016   1.099   2.585   7.744  0.4212  0.5100 -0.5501
 6186SOL    HW130017   1.157   2.563   7.817 -0.0368  1.1755  0.0102
 6186SOL    HW230018   1.025   2.526   7.756  0.3056  0.2582 -2.4653
 6187SOL     OW30019   0.612   2.549   6.054 -0.0214  0.5012  0.0175
 6187SOL    HW130020   0.612   2.588   5.966  1.0026 -1.6894 -0.9676
 6187SOL    HW230021   0.692   2.588   6.087  0.7371  0.5638 -1.8709
 6188SOL     OW30022   1.710   4.252  13.981  0.1383  0.2827  0.4191
 6188SOL    HW130023   1.708   4.215  13.893  0.4846 -0.2942  0.6505
 6188SOL    HW230024   1.654   4.327  13.965  0.0541 -0.0523 -0.8647
 6189SOL     OW30025   3.339   0.168   7.921 -0.4479 -0.1549 -0.4251
 6189SOL    HW130026   3.394   0.194   7.995 -0.6176 -2.6206  0.5535
 6189SOL    HW230027   3.348   0.246   7.866  0.4678 -0.8317 -1.2251
 6190SOL     OW30028   4.166   0.768   6.057  0.2528  0.2513 -0.6569
 6190SOL    HW130029   4.082   0.768   6.012 -1.1089  1.2988  1.8678
 6190SOL    HW230030   4.224   0.721   5.997 -0.1841 -1.4072  0.2280
 6191SOL     OW30031   2.888   3.083   3.319  0.2109  0.0792 -0.0759
 6191SOL    HW130032   2.953   3.014   3.304  0.8090  0.6948 -0.3406
 6191SOL    HW230033   2.912   3.113   3.407  0.5898 -0.8632  0.1341
 6192SOL     OW30034   3.320   0.496   5.844 -0.1803  0.1946  0.6107
 6192SOL    HW130035   3.257   0.429   5.871  1.2475 -0.6649  1.7854
 6192SOL    HW230036   3.259   0.559   5.805  0.6042  0.5650 -0.0177
 6193SOL     OW30037   0.701   1.044  10.760 -0.1612 -0.1111 -0.2133
 6193SOL    HW130038   0.676   1.116  10.817  1.7237  0.0691  0.4152
 6193SOL    HW230039   0.795   1.032  10.779  0.3289  0.7148 -2.1151
 6194SOL     OW30040   1.631   1.913   7.256  0.5804  0.0756  0.0302
 6194SOL    HW130041   1.610   1.934   7.346  1.6341 -0.3360  0.3786
 6194SOL    HW230042   1.556   1.940   7.203  1.1423  0.1326 -0.7506
 6195SOL     OW30043   2.268   3.357   9.195  0.4550  0.2125 -0.6325
 6195SOL    HW130044   2.257   3.322   9.283  0.5833  0.3963 -0.5439
 6195SOL    HW230045   2.359   3.386   9.197  0.6791 -0.5225 -0.0415
 6196SOL     OW30046   0.215   4.479  11.308 -0.0703  0.8677  0.2668
 6196SOL    HW130047   0.188   4.447  11.394 -0.2175 -1.2665 -0.5933
 6196SOL    HW230048   0.297   4.433  11.292  0.3206  1.1016  1.5813
 6197SOL     OW30049   0.875   4.174  16.776 -0.1852  0.4144 -0.5425
 6197SOL    HW130050   0.852   4.164  16.869 -2.4737 -0.9217 -1.2459
 6197SOL    HW230051   0.954   4.124  16.756  0.7526  1.0898  1.5036
 6198SOL     OW30052   1.699   1.547   4.577  0.1938  0.2213 -0.0569
 6198SOL    HW130053   1.746   1.616   4.529  0.3456  1.9245  2.5855
 6198SOL    HW230054   1.638   1.516   4.510  1.1023 -2.1177  0.1813
 6199SOL     OW30055   0.133   0.532   5.062 -0.1364  0.5095 -0.3982
 6199SOL    HW130056   0.122   0.574   5.147 -3.7003 -1.3316  0.0423
 6199SOL    HW230057   0.078   0.456   5.078 -1.2257  0.6407 -3.6117
 6200SOL     OW30058   0.402   2.451   4.794  0.4779 -0.4858 -0.2969
 6200SOL    HW130059   0.340   2.408   4.852 -1.2127 -0.3408 -1.9762
 6200SOL    HW230060   0.422   2.533   4.838 -1.3503 -0.0847 -0.2261
 6201SOL     OW30061   0.658   3.278  14.548  0.4309  0.7656  0.0212
 6201SOL    HW130062   0.681   3.366  14.518 -0.8928  0.9878 -0.3304
 6201SOL    HW230063   0.741   3.234  14.531 -0.3095 -0.0973 -1.3524
 6202SOL     OW30064   1.371   4.468   4.916 -0.1623  0.0332  0.5296
 6202SOL    HW130065   1.458   4.433   4.897 -0.6743  0.2301 -2.2874
 6202SOL    HW230066   1.316   4.394   4.940 -0.4679  0.8162  2.2066
 6203SOL     OW30067   0.145   1.310   5.929  0.2976  0.3308 -0.5127
 6203SOL    HW130068   0.183   1.315   6.016 -2.2314  1.9271  0.4874
 6203SOL    HW230069   0.056   1.338   5.947  1.1713  2.1404  0.9869
 6204SOL     OW30070   3.747   1.449   0.140 -0.4832 -0.1517  0.0636
 6204SOL    HW130071   3.782   1.490   0.220  0.6273 -0.1748 -0.4068
 6204SOL    HW230072   3.802   1.371   0.129  0.7098  0.8781 -1.3353
 6205SOL     OW30073   2.877   1.538   3.115  0.6106  0.0412  0.7669
 6205SOL    HW130074   2.907   1.451   3.141 -1.7324 -0.7770  0.6697
 6205SOL    HW230075   2.955   1.561   3.064  0.3240 -2.7238 -0.9067
 6206SOL     OW30076   3.604   4.260   0.262  0.6528 -0.1949  0.1689
 6206SOL    HW130077   3.670   4.201   0.226  1.0844  1.2997 -1.4755
 6206SOL    HW230078   3.651   4.342   0.277  0.8459 -0.1779 -0.5164
 6207SOL     OW30079   2.195   0.059   7.229  0.3145 -0.4125  0.4621
 6207SOL    HW130080   2.256   0.118   7.185  0.0343 -0.7906 -0.4392
 6207SOL    HW230081   2.246   4.704   7.225  1.3034  0.1910  0.9764
 6208SOL     OW30082   3.492   0.398   7.470 -0.2112  0.6313 -1.0025
 6208SOL    HW130083   3.502   0.468   7.406 -1.1913  2.1781  0.5599
 6208SOL    HW230084   3.449   0.334   7.413  1.6947  0.2543 -2.0141
 6209SOL     OW30085   1.493   1.445   4.426 -0.1412 -0.3132  0.3036
 6209SOL    HW130086   1.438   1.520   4.452 -0.0227  0.0180 -0.4051
 6209SOL    HW230087   1.482   1.439   4.331 -0.4633  0.5790  0.2842
 6210SOL     OW30088   1.936   1.917   7.541 -0.4051  0.1694 -0.3278
 6210SOL    HW130089   1.980   1.849   7.491  1.2672  1.1221 -0.1409
 6210SOL    HW230090   1.864   1.869   7.583  0.6339 -0.5258  0.6724
 6211SOL     OW30091   0.345   1.070   0.225  0.1280  0.0434 -0.2869
 6211SOL    HW130092   0.294   1.085   0.145  1.9036  0.7737 -1.2869
 6211SOL    HW230093   0.434   1.092   0.197 -0.0643  0.3582 -0.6693
 6212SOL     OW30094   1.797   3.229   3.869 -0.3576  0.2352 -0.3623
 6212SOL    HW130095   1.856   3.206   3.797 -0.2722 -0.4868 -0.0655
 6212SOL    HW230096   1.734   3.267   3.808 -0.2513  1.5959  0.3814
 6213SOL     OW30097   0.324   0.638   6.823 -0.3996 -0.3527 -0.1089
 6213SOL    HW130098   0.286   0.599   6.744 -1.9159  0.2024  0.3480
 6213SOL    HW230099   0.419   0.643   6.811 -0.6879  1.3502 -1.6078
 6214SOL     OW30100   0.337   3.405   5.239  0.1094  0.4771 -0.9021
 6214SOL    HW130101   0.319   3.340   5.308 -1.8986  1.1949 -0.7680
 6214SOL    HW230102   0.273   3.388   5.170 -0.6993  0.4755 -0.1522
 6215SOL     OW30103   2.717   2.403   8.820 -0.0844 -0.3525 -0.1319
 6215SOL    HW130104   2.654   2.428   8.752 -0.9871 -2.2367  0.0086
 6215SOL    HW230105   2.676   2.444   8.896 -0.2468  0.4397 -0.6505
 6216SOL     OW30106   3.499   0.046   3.340  0.6135  0.8197  0.4265
 6216SOL    HW130107   3.419   0.088   3.309  0.7992  0.2099 -0.8844
 6216SOL    HW230108   3.527   0.098   3.415  3.6066 -1.3888  0.8403
 6217SOL     OW30109   2.199   1.913   5.280  0.1200  0.2829  0.0164
 6217SOL    HW130110   2.286   1.954   5.275 -0.0471  0.6591  0.2849
 6217SOL    HW230111   2.207   1.875   5.192  0.4029 -2.3394  1.1632
 6218SOL     OW30112   2.000   2.257   6.503  0.2235 -0.1978 -0.6446
 6218SOL    HW130113   2.058   2.249   6.579  0.1072 -1.9661 -0.7468
 6218SOL    HW230114   1.915   2.265   6.547 -0.0730  4.4030 -2.1189
 6219SOL     OW30115   0.894   2.048  11.217 -0.0045 -0.4318 -0.3444
 6219SOL    HW130116   0.844   1.967  11.227 -0.2783  0.0094  1.8309
 6219SOL    HW230117   0.984   2.016  11.230  0.9023  1.8737 -0.9233
 6220SOL     OW30118   0.949   2.973   3.273  0.0705 -0.9168  0.1021
 6220SOL    HW130119   1.021   2.921   3.238  1.1144 -0.8219  2.1254
 6220SOL    HW230120   0.983   3.060   3.252  1.8546 -1.7223 -0.3248
 6221SOL     OW30121   4.162   0.008   7.704 -0.4164 -0.1121 -0.0531
 6221SOL    HW130122   4.242   0.004   7.651 -0.4239  0.7788 -0.1341
 6221SOL    HW230123   4.116   0.083   7.666  2.5398  0.5798 -2.2946
 6222SOL     OW30124   1.082   1.334   7.171  0.1560  0.0946  0.2221
 6222SOL    HW130125   1.133   1.351   7.091 -0.5968 -0.7731 -0.4462
 6222SOL    HW230126   1.107   1.244   7.189  2.0419  0.7797  1.0053
 6223SOL     OW30127   2.462   4.208   3.082  0.4206  0.1745  0.6507
 6223SOL    HW130128   2.460   4.127   3.032 -2.4495  0.2479  0.6419
 6223SOL    HW230129   2.531   4.190   3.146  1.1460 -1.0752 -0.4764
 6224SOL     OW30130   3.026   1.261  11.700 -0.0114  0.5072 -0.1364
 6224SOL    HW130131   3.057   1.275  11.611 -0.5336 -1.5273 -0.6266
 6224SOL    HW230132   2.950   1.319  11.703 -0.0316  0.4915 -0.3778
 6225SOL     OW30133   2.680   2.454   6.591 -0.3522  0.1731  0.1649
 6225SOL    HW130134   2.693   2.495   6.677 -0.5607 -2.1995  1.3241
 6225SOL    HW230135   2.753   2.486   6.538  1.7706 -2.5105  1.4841
 6226SOL     OW30136   2.520   2.355  10.222  0.0409  0.0399  0.1370
 6226SOL    HW130137   2.601   2.326  10.265  0.8057 -1.2862 -2.1872
 6226SOL    HW230138   2.554   2.346  10.133  0.5593  0.3713  0.2974
 6227SOL     OW30139   1.688   1.810   5.718 -0.6780 -0.1549 -0.2903
 6227SOL    HW130140   1.611   1.828   5.772  1.0940 -0.2233  2.2855
 6227SOL    HW230141   1.664   1.735   5.664  0.5642 -0.3199 -0.6219
 6228SOL     OW30142   0.306   3.698   4.902 -0.2815 -0.5326 -0.8134
 6228SOL    HW130143   0.366   3.629   4.930 -0.0089  0.3594  0.8717
 6228SOL    HW230144   0.276   3.728   4.988  1.6306 -0.4767 -0.1603
 6229SOL     OW30145   1.945   4.065   8.205 -0.3630  0.0993  0.5638
 6229SOL    HW130146   1.856   4.039   8.181 -0.2654 -1.0185  1.4230
 6229SOL    HW230147   1.958   4.048   8.298  3.5557 -1.4523 -0.2516
 6230SOL     OW30148   3.519   3.676  15.405  0.4961 -0.4182  0.1333
 6230SOL    HW130149   3.553   3.756  15.444 -0.5378  0.3485 -0.5639
 6230SOL    HW230150   3.473   3.717  15.332 -3.2169 -0.8879  2.2074
 6231SOL     OW30151   0.604   3.535   9.311  0.0875  0.2456  0.3642
 6231SOL    HW130152   0.665   3.573   9.248 -1.9918 -0.3411 -1.9672
 6231SOL    HW230153   0.667   3.519   9.382 -0.1462 -2.6367 -0.0779
 6232SOL     OW30154   0.533   1.386   5.584  0.3613 -0.8682 -0.5187
 6232SOL    HW130155   0.587   1.444   5.637  1.5587 -1.2044 -1.3714
 6232SOL    HW230156   0.487   1.337   5.652 -0.7755  2.3832  1.0652
 6233SOL     OW30157   4.493   3.096   9.822 -0.8320  0.1680 -0.5908
 6233SOL    HW130158   4.500   3.187   9.794 -0.8838  0.5049  0.5095
 6233SOL    HW230159   4.398   3.085   9.816 -1.1304  1.6053  1.5982
 6234SOL     OW30160   1.484   3.518   7.808  0.2786  0.0809 -0.3647
 6234SOL    HW130161   1.474   3.432   7.766 -0.7598  0.4278 -0.8342
 6234SOL    HW230162   1.573   3.500   7.839  0.3583 -2.1739 -1.8372
 6235SOL     OW30163   4.396   0.189  13.447 -0.4608  0.3517  0.6931
 6235SOL    HW130164   4.314   0.233  13.471 -1.6666 -1.3337 -0.3792
 6235SOL    HW230165   4.402   0.191  13.351 -0.6141  0.3198  0.6828
 6236SOL     OW30166   4.210   1.413  10.856  0.3869 -0.0074 -0.3478
 6236SOL    HW130167   4.301   1.440  10.855  0.1427  0.7360 -2.0719
 6236SOL    HW230168   4.189   1.399  10.764 -1.3163  5.1512 -0.7550
 6237SOL     OW30169   4.135   3.577   7.287  0.2733  0.2956 -0.2106
 6237SOL    HW130170   4.065   3.527   7.244  0.5988 -0.7684  0.5104
 6237SOL    HW230171   4.138   3.642   7.216 -0.2851  1.0757  0.4891
 6238SOL     OW30172   3.508   2.228   6.219  0.1868 -0.1139  0.2254
 6238SOL    HW130173   3.554   2.301   6.259 -2.0808  1.9583 -0.9694
 6238SOL    HW230174   3.554   2.151   6.253 -1.0490 -0.1691  1.8099
 6239SOL     OW30175   3.177   3.334   3.621 -0.6373  0.2575  0.3728
 6239SOL    HW130176   3.206   3.426   3.618  0.4944 -0.0950  0.6342
 6239SOL    HW230177   3.088   3.343   3.656 -1.2293 -1.8978 -0.6352
 6240SOL     OW30178   2.241   0.781   9.467  0.2628 -0.3928 -0.2403
 6240SOL    HW130179   2.270   0.872   9.455  1.6787 -0.6738  0.9554
 6240SOL    HW230180   2.327   0.745   9.489  0.1983 -0.2712  0.2108
 6241SOL     OW30181   0.958   3.962   5.841 -0.3721  0.1626 -0.3576
 6241SOL    HW130182   1.019   4.036   5.846  0.7354 -0.8238  0.8551
 6241SOL    HW230183   1.015   3.890   5.816  0.5226  0.6008  0.4255
 6242SOL     OW30184   3.838   0.478   9.235  0.3929 -0.0850  0.3306
 6242SOL    HW130185   3.848   0.431   9.318  1.3442 -1.4340 -0.5488
 6242SOL    HW230186   3.930   0.489   9.213  0.1391 -0.6236 -1.0049
 6243SOL     OW30187   4.695   4.532  15.504  0.2342  0.3541 -0.3232
 6243SOL    HW130188   0.031   4.597  15.472  0.4028  0.2299 -0.2457
 6243SOL    HW230189   4.621   4.592  15.520 -0.8164 -1.2077  0.6342
 6244SOL     OW30190   3.274   0.324  15.013  0.5826  0.1596 -0.9983
 6244SOL    HW130191   3.251   0.247  14.961 -0.0194  0.3931 -1.0797
 6244SOL    HW230192   3.364   0.304  15.038  0.0746  0.2993  0.9225
 6245SOL     OW30193   3.286   2.808   8.756 -0.2351 -0.3810 -0.1887
 6245SOL    HW130194   3.209   2.852   8.790 -1.1764 -2.3181  0.2143
 6245SOL    HW230195   3.297   2.734   8.817 -0.3167 -0.0651  0.2102
 6246SOL     OW30196   3.642   3.911  15.437  0.0147 -0.0375  0.0250
 6246SOL    HW130197   3.620   3.977  15.503  0.7324 -0.1013  0.3252
 6246SOL    HW230198   3.567   3.925  15.379 -1.8857 -2.0028  2.0016
 6247SOL     OW30199   3.739   2.308  17.021  0.1222 -0.3390  0.0770
 6247SOL    HW130200   3.801   2.274  16.957  1.4753  0.3799  1.0106
 6247SOL    HW230201   3.655   2.313  16.975  1.4979  0.2653 -2.3520
 6248SOL     OW30202   4.634   2.461   6.013 -0.0267  0.4188  0.1901
 6248SOL    HW130203   4.696   2.418   5.953 -0.6365 -1.2087  0.7189
 6248SOL    HW230204   4.698   2.522   6.050 -0.1363  1.3034 -1.0798
 6249SOL     OW30205   3.858   0.736   3.921  0.6671 -0.0771  0.4818
 6249SOL    HW130206   3.920   0.749   3.850  1.3529 -2.0001  0.7158
 6249SOL    HW230207   3.780   0.714   3.871 -0.8989  2.1439  1.9354
 6250SOL     OW30208   1.645   1.524   2.042 -0.3430 -0.2398 -0.5807
 6250SOL    HW130209   1.718   1.585   2.056  0.9308 -1.7182 -0.8114
 6250SOL    HW230210   1.582   1.577   1.993 -0.1866  1.2565  0.7913
 6251SOL     OW30211   3.576   3.699   7.794  0.4182 -0.2433 -0.4471
 6251SOL    HW130212   3.669   3.721   7.794  0.1738  0.7430 -2.7132
 6251SOL    HW230213   3.590   3.610   7.826  0.7843 -0.5840 -1.5570
 6252SOL     OW30214   4.514   1.134   1.719  0.0838  0.2917 -0.1275
 6252SOL    HW130215   4.475   1.070   1.660 -0.3874 -0.3032  0.8368
 6252SOL    HW230216   4.584   1.078   1.751 -1.0845 -1.1944 -0.1556
 6253SOL     OW30217   3.297   1.688  13.946  0.6452 -0.3065  0.4543
 6253SOL    HW130218   3.320   1.666  13.856  0.9301  1.0176  0.2026
 6253SOL    HW230219   3.205   1.663  13.951  0.7541 -0.9208 -0.5384
 6254SOL     OW30220   4.720   0.420   5.318  0.4164 -0.1817  0.2523
 6254SOL    HW130221   0.037   0.504   5.337 -1.1769  1.0042 -1.3868
 6254SOL    HW230222   0.009   0.377   5.403  0.0573 -1.2329 -0.2177
 6255SOL     OW30223   0.983   2.900   4.903 -0.0390 -0.1441 -0.2220
 6255SOL    HW130224   0.962   2.915   4.811  0.7560  0.2910 -0.3317
 6255SOL    HW230225   0.951   2.810   4.903 -0.7420  0.1042 -1.5506
 6256SOL     OW30226   4.307   1.043   8.710 -0.0204  0.0347 -0.5313
 6256SOL    HW130227   4.280   1.005   8.626  0.0454  1.6278 -1.2770
 6256SOL    HW230228   4.261   0.991   8.775 -1.0206 -0.6002 -1.7584
 6257SOL     OW30229   0.774   3.073   0.839 -0.4256  0.9937 -0.6014
 6257SOL    HW130230   0.837   3.146   0.836  1.3175 -0.4956 -0.2235
 6257SOL    HW230231   0.688   3.115   0.830  0.4564  2.8743 -0.3905
 6258SOL     OW30232   3.298   2.024   5.763  0.7766 -0.4776 -0.2030
 6258SOL    HW130233   3.384   1.983   5.751  1.3333  0.7076 -0.3477
 6258SOL    HW230234   3.238   1.963   5.722  0.5008  0.0840 -0.6296
 6259SOL     OW30235   2.917   1.127   4.350 -0.1150 -0.7325  0.3124
 6259SOL    HW130236   2.911   1.049   4.295 -0.3567 -0.5247  0.0424
 6259SOL    HW230237   2.857   1.107   4.422 -2.0290 -0.0411 -1.0952
 6260SOL     OW30238   0.093   2.021  14.775  0.4620 -0.2763  0.1553
 6260SOL    HW130239   0.127   1.932  14.785 -1.0764 -1.0874 -1.8992
 6260SOL    HW230240   0.165   2.071  14.737  1.2360 -0.9411  0.7507
 6261SOL     OW30241   2.658   0.723   4.098  0.2799 -0.6057 -0.9283
 6261SOL    HW130242   2.656   0.794   4.034  0.9056  0.1266 -0.1310
 6261SOL    HW230243   2.567   0.693   4.097  0.2439 -0.5194 -0.0092
 6262SOL     OW30244   0.477   2.729  15.632  0.6860 -0.1710  0.3170
 6262SOL    HW130245   0.418   2.731  15.557  0.1903 -2.8880  0.6422
 6262SOL    HW230246   0.534   2.656  15.609  0.4858 -0.8061  1.8090
 6263SOL     OW30247   2.509   4.414  16.530 -0.6065  0.4255  0.0616
 6263SOL    HW130248   2.435   4.396  16.588  1.3319 -3.4662  1.3748
 6263SOL    HW230249   2.535   4.322  16.517  0.7096  0.6644  0.9003
 6264SOL     OW30250   4.118   1.604   3.142  0.7513 -0.0427 -0.0500
 6264SOL    HW130251   4.172   1.552   3.083 -1.3397  0.1255 -2.1040
 6264SOL    HW230252   4.181   1.656   3.193 -0.3123  0.9532  0.2291
 6265SOL     OW30253   3.134   1.220  12.302 -0.2180  0.2480  0.4484
 6265SOL    HW130254   3.121   1.210  12.208  0.9821  2.1030  0.0909
 6265SOL    HW230255   3.206   1.281  12.319 -1.1718  1.2948  0.6479
 6266SOL     OW30256   3.827   0.106   2.873  0.0629 -0.2049  0.4473
 6266SOL    HW130257   3.752   0.154   2.836  1.2236 -0.1674 -1.8590
 6266SOL    HW230258   3.854   0.143   2.957  1.1023  0.0968 -0.0248
 6267SOL     OW30259   1.407   2.403  16.031 -0.1505 -0.4262  0.4121
 6267SOL    HW130260   1.500   2.397  16.050  0.3337  0.9270 -1.5732
 6267SOL    HW230261   1.409   2.336  15.962  2.2749 -1.0359  1.0828
 6268SOL     OW30262   2.582   4.683  15.992  0.5960 -0.0350 -0.2373
 6268SOL    HW130263   2.588   0.004  15.909  0.8851  0.6405  0.1651
 6268SOL    HW230264   2.663   4.631  15.999  0.4400 -0.2486  0.0142
 6269SOL     OW30265   3.585   0.148   8.713 -0.0745  0.1578 -0.4000
 6269SOL    HW130266   3.525   0.077   8.734  0.3068  0.3957  1.5052
 6269SOL    HW230267   3.645   0.140   8.787  0.2793  3.2065 -0.3594
 6270SOL     OW30268   3.940   3.492   3.140  0.3560  0.6099  0.3164
 6270SOL    HW130269   4.030   3.492   3.108  1.0500 -3.0595  2.2503
 6270SOL    HW230270   3.884   3.516   3.065 -0.1597  3.1247  1.5274
 6271SOL     OW30271   0.017   0.329  12.786  0.2020  0.1940  0.6350
 6271SOL    HW130272   0.100   0.337  12.832 -0.5401  0.2928  1.9373
 6271SOL    HW230273   0.011   0.416  12.745 -0.0351 -0.3767 -0.5397
 6272SOL     OW30274   1.217   3.759   4.998  0.2265  0.6965 -0.3270
 6272SOL    HW130275   1.137   3.809   5.015  0.7903  1.7749 -0.8107
 6272SOL    HW230276   1.259   3.747   5.083 -2.0287  0.5861  0.7778
 6273SOL     OW30277   3.480   0.730   1.249  0.3212 -0.1843 -0.9771
 6273SOL    HW130278   3.550   0.700   1.307  1.8164  2.5778 -1.3252
 6273SOL    HW230279   3.512   0.731   1.158  0.8820  0.5576 -0.7726
 6274SOL     OW30280   1.245   2.115   2.438  0.0731 -0.2109  0.4220
 6274SOL    HW130281   1.195   2.055   2.493 -2.0548  0.0629 -1.2067
 6274SOL    HW230282   1.252   2.072   2.353  0.8735  1.0907 -0.1644
 6275SOL     OW30283   2.266   2.571   8.092 -0.5248  0.1906 -0.1839
 6275SOL    HW130284   2.326   2.614   8.032 -0.5673 -1.2974 -1.2991
 6275SOL    HW230285   2.204   2.559   8.021 -0.3966 -1.3998 -0.0362
 6276SOL     OW30286   1.308   1.226   0.678  0.3923  0.4383 -0.4130
 6276SOL    HW130287   1.275   1.150   0.629  1.7359 -1.0924  1.0923
 6276SOL    HW230288   1.242   1.290   0.650 -1.7634 -1.4190  0.3507
 6277SOL     OW30289   2.294   0.187  11.453  0.0464  0.1761 -0.0844
 6277SOL    HW130290   2.360   0.123  11.428 -1.4521 -1.1843 -0.5737
 6277SOL    HW230291   2.312   0.184  11.547 -1.5831  0.6244  0.2462
 6278SOL     OW30292   3.832   2.218  10.759 -0.0690  0.0461  0.0012
 6278SOL    HW130293   3.821   2.244  10.851 -3.6362  0.4953 -0.5439
 6278SOL    HW230294   3.923   2.190  10.755  0.0943  0.6154 -0.2608
 6279SOL     OW30295   2.068   3.450  11.337 -0.0208  0.2813 -0.1778
 6279SOL    HW130296   2.072   3.402  11.255 -0.1753  0.3985 -0.2541
 6279SOL    HW230297   1.977   3.442  11.363  0.3933 -0.9083  0.8947
 6280SOL     OW30298   4.453   3.079   4.139  0.4503  0.1444  0.2187
 6280SOL    HW130299   4.368   3.057   4.100  1.0379 -1.3039 -0.2528
 6280SOL    HW230300   4.478   3.003   4.191 -1.2587 -1.8008 -1.7668
 6281SOL     OW30301   4.499   0.727   7.969 -0.1274 -0.6041  0.4076
 6281SOL    HW130302   4.502   0.738   8.064  3.8802 -1.5925  0.3782
 6281SOL    HW230303   4.406   0.706   7.961  0.1691 -1.9972  0.6281
 6282SOL     OW30304   4.523   4.121  12.962  0.2957 -0.3357  0.2114
 6282SOL    HW130305   4.543   4.197  13.017  3.3295  0.3665 -1.8450
 6282SOL    HW230306   4.444   4.092  13.008 -0.1020 -0.4416 -0.5426
 6283SOL     OW30307   3.207   3.944  16.629  0.5878  0.1640 -0.5719
 6283SOL    HW130308   3.147   4.013  16.603  0.1906  0.7889  2.0292
 6283SOL    HW230309   3.285   3.992  16.656  0.5650 -1.9073  3.3295
 6284SOL     OW30310   1.350   2.213   1.918  0.3071 -0.2882  0.1283
 6284SOL    HW130311   1.444   2.199   1.932 -0.1476 -4.1110 -0.4870
 6284SOL    HW230312   1.315   2.267   1.989  1.3051 -0.7625  0.9864
 6285SOL     OW30313   3.470   4.252  10.169 -0.0288 -0.2477  0.1896
 6285SOL    HW130314   3.437   4.192  10.102  0.3337 -0.9317  0.6281
 6285SOL    HW230315   3.489   4.318  10.102  0.0798 -1.3250 -0.8463
 6286SOL     OW30316   2.003   0.555   6.810 -0.2300  0.0823 -0.0842
 6286SOL    HW130317   1.945   0.566   6.735 -1.8721 -0.2231  1.1462
 6286SOL    HW230318   2.089   0.579   6.774 -1.9329 -0.4005 -4.3583
 6287SOL     OW30319   3.364   4.155  16.755 -0.8234  0.0345  0.1572
 6287SOL    HW130320   3.283   4.182  16.797 -1.8466 -2.3232 -0.2679
 6287SOL    HW230321   3.419   4.224  16.791  1.6554 -1.9440  0.1373
 6288SOL     OW30322   0.087   2.656  16.293 -0.3891  0.0569 -0.7168
 6288SOL    HW130323   0.039   2.739  16.283  0.5119  0.6198 -0.3664
 6288SOL    HW230324   0.106   2.652  16.386 -1.0501  1.1683 -0.5385
 6289SOL     OW30325   0.399   3.617   2.852 -0.5278  0.1035 -0.0575
 6289SOL    HW130326   0.414   3.530   2.889  2.3878 -0.1425 -1.7518
 6289SOL    HW230327   0.366   3.662   2.930 -1.3334 -1.3866  0.4590
 6290SOL     OW30328   1.769   0.757   2.277  0.5431 -0.3515 -0.2858
 6290SOL    HW130329   1.722   0.797   2.350  0.4078  0.8517 -1.0429
 6290SOL    HW230330   1.701   0.736   2.213 -1.4249  1.4786  1.1826
 6291SOL     OW30331   4.079   4.266   3.509  0.0480 -0.1396 -0.6234
 6291SOL    HW130332   4.092   4.302   3.422 -0.9561  2.5899  0.3722
 6291SOL    HW230333   4.051   4.345   3.555 -2.6571 -1.0855 -0.6710
 6292SOL     OW30334   3.849   0.126   8.569 -0.0255  0.4848  0.2440
 6292SOL    HW130335   3.832   0.038   8.538 -1.6776  0.8668  0.0530
 6292SOL    HW230336   3.776   0.137   8.631  0.0338  0.6452  0.2862
 6293SOL     OW30337   3.242   0.236   8.453 -0.3228  0.3477 -0.6637
 6293SOL    HW130338   3.281   0.189   8.526 -0.8944 -1.1076 -1.3116
 6293SOL    HW230339   3.183   0.289   8.506  0.6916 -0.6847  1.4777
 6294SOL     OW30340   3.392   3.971   3.297  0.4528  0.2548  0.2803
 6294SOL    HW130341   3.355   4.019   3.371 -2.5569  1.1675 -1.8182
 6294SOL    HW230342   3.323   3.906   3.281  0.9088 -0.3850  0.9275
 6295SOL     OW30343   0.377   2.000  17.268 -0.7029 -0.3856 -0.3034
 6295SOL    HW130344   0.448   1.969  17.213 -0.5971  1.5293 -1.2407
 6295SOL    HW230345   0.349   2.084  17.230 -0.4715 -0.0699  0.2212
 6296SOL     OW30346   4.264   4.266   5.378  0.4988  0.4980  0.4059
 6296SOL    HW130347   4.255   4.234   5.289 -0.6581  0.5877  0.4946
 6296SOL    HW230348   4.184   4.318   5.385  1.0318  1.3641  0.0845
 6297SOL     OW30349   0.961   3.014   2.524  0.0655  0.0923 -0.1840
 6297SOL    HW130350   0.904   2.960   2.579  0.4706  1.2897  1.4117
 6297SOL    HW230351   0.965   2.962   2.444 -1.3678  0.2678 -0.3729
 6298SOL     OW30352   0.420   2.573  11.577  0.2856  0.4771  0.0661
 6298SOL    HW130353   0.475   2.507  11.620  0.5783 -0.7190 -2.1531
 6298SOL    HW230354   0.483   2.603  11.512  0.3585  1.7826  0.7296
 6299SOL     OW30355   1.916   1.638  14.756 -0.0350  0.5893  0.3063
 6299SOL    HW130356   1.988   1.687  14.794 -1.0627  1.3612  1.2433
 6299SOL    HW230357   1.845   1.635  14.821 -0.5943 -0.2333 -0.3338
 6300SOL     OW30358   3.074   2.218   3.031 -0.3664  0.0099  0.3816
 6300SOL    HW130359   3.148   2.271   3.003 -1.2133 -0.3279 -2.5038
 6300SOL    HW230360   3.058   2.160   2.957 -2.1522 -1.8348  2.2057
 6301SOL     OW30361   2.148   1.902   7.314  0.0388  0.7892  0.3184
 6301SOL    HW130362   2.210   1.970   7.289  0.7127  0.3517  0.7912
 6301SOL    HW230363   2.068   1.923   7.266  0.2508  1.3750  0.2206
 6302SOL     OW30364   4.458   1.764   8.703 -0.3678 -0.5399  0.0260
 6302SOL    HW130365   4.441   1.844   8.653  0.7494  0.1205  0.7194
 6302SOL    HW230366   4.535   1.780   8.757 -2.4056  1.4144  2.3500
 6303SOL     OW30367   0.407   1.196   2.527  0.2867 -0.4654  0.2341
 6303SOL    HW130368   0.468   1.230   2.462  0.4897  0.8721  1.1424
 6303SOL    HW230369   0.362   1.271   2.566  2.5414  0.6110  0.7627
 6304SOL     OW30370   3.899   1.726  15.101  0.0796  0.4758  0.4575
 6304SOL    HW130371   3.970   1.785  15.077 -1.0137  1.8978  0.7284
 6304SOL    HW230372   3.880   1.692  15.013  1.4117 -0.9729  0.7260
 6305SOL     OW30373   0.553   1.811  11.130 -0.2743 -0.0174  0.6337
 6305SOL    HW130374   0.576   1.779  11.043 -0.4497  0.6837  0.3310
 6305SOL    HW230375   0.639   1.810  11.173  0.2453 -0.8504 -0.4163
 6306SOL     OW30376   4.429   4.039   4.611 -0.2327 -0.3670  0.5372
 6306SOL    HW130377   4.336   4.015   4.607 -0.1257 -0.8051  0.6836
 6306SOL    HW230378   4.454   3.947   4.623 -1.7977 -0.7728  0.6895
 6307SOL     OW30379   1.634   1.569   6.700  0.0071  0.1382 -0.0625
 6307SOL    HW130380   1.584   1.636   6.652 -0.3533  0.5277  0.8595
 6307SOL    HW230381   1.680   1.623   6.765 -0.1896 -1.1074  1.1114
 6308SOL     OW30382   3.074   0.230  13.935 -0.1808  0.1932  0.1119
 6308SOL    HW130383   3.045   0.320  13.950  0.9464  0.6237 -0.2556
 6308SOL    HW230384   3.158   0.232  13.981 -1.0052  0.7731  1.5884
 6309SOL     OW30385   0.782   2.864   8.606  0.6589 -0.4849  0.1085
 6309SOL    HW130386   0.844   2.791   8.610  0.8495 -0.4046 -1.5919
 6309SOL    HW230387   0.827   2.932   8.657 -0.3188  0.4947 -0.3121
 6310SOL     OW30388   0.535   2.492   4.557 -0.6355 -0.2545 -0.1298
 6310SOL    HW130389   0.501   2.457   4.639 -1.8473 -0.0905 -0.5651
 6310SOL    HW230390   0.486   2.445   4.489 -0.4692  0.3044 -0.6329
 6311SOL     OW30391   4.338   1.958   9.550  0.0197 -0.0061  0.0711
 6311SOL    HW130392   4.430   1.935   9.538  0.0383  1.4213 -2.5056
 6311SOL    HW230393   4.293   1.914   9.477 -0.2314  1.5212 -0.6912
 6312SOL     OW30394   0.325   2.752  14.048 -0.0273 -0.7815 -0.3563
 6312SOL    HW130395   0.290   2.841  14.052  1.6547 -0.1322 -0.2271
 6312SOL    HW230396   0.419   2.766  14.057 -0.6010  2.4591  0.5981
 6313SOL     OW30397   1.398   0.546  17.535 -0.2544 -0.7801 -0.2099
 6313SOL    HW130398   1.486   0.524  17.506  0.4707  0.0021  1.3630
 6313SOL    HW230399   1.392   0.637  17.506  0.8527 -1.1675 -1.6018
 6314SOL     OW30400   0.214   0.809  12.006 -0.0423  0.4986  0.0946
 6314SOL    HW130401   0.253   0.846  11.927  0.2690  1.4430  0.6844
 6314SOL    HW230402   0.220   0.715  11.986  3.4893  1.1603 -1.8083
 6315SOL     OW30403   0.070   2.188   4.004  0.1892 -0.3889  0.2361
 6315SOL    HW130404   0.022   2.119   3.958 -1.5152 -0.8153  2.6815
 6315SOL    HW230405   4.717   2.199   4.056  0.6975 -0.4515  1.0174
 6316SOL     OW30406   2.144   3.713   9.156  0.0331 -0.0474  0.2826
 6316SOL    HW130407   2.124   3.631   9.110  1.4215 -0.2243 -0.0295
 6316SOL    HW230408   2.219   3.683   9.208 -0.8081 -1.2074  0.8231
 6317SOL     OW30409   1.136   0.495   2.938  0.4431 -0.2707  0.0427
 6317SOL    HW130410   1.095   0.547   3.007  1.5769  0.0409  0.4740
 6317SOL    HW230411   1.224   0.529   2.955  0.8179 -1.3897  0.3491
 6318SOL     OW30412   4.467   1.399   1.445 -0.0546 -0.5711 -0.4188
 6318SOL    HW130413   4.468   1.332   1.513  2.6463 -0.2697 -0.1593
 6318SOL    HW230414   4.404   1.462   1.480  1.2152  0.2818  0.3019
 6319SOL     OW30415   3.254   1.859   8.781  0.6234 -0.7675 -0.9672
 6319SOL    HW130416   3.166   1.830   8.804  0.4391  1.0303  0.6439
 6319SOL    HW230417   3.286   1.776   8.747  0.3249 -1.7034  1.0518
 6320SOL     OW30418   1.843   2.725  16.574 -0.2436 -0.1804  0.8227
 6320SOL    HW130419   1.825   2.802  16.628  2.5476  0.4772  0.7831
 6320SOL    HW230420   1.831   2.760  16.486  1.7201 -2.9845 -0.5555
 6321SOL     OW30421   2.754   1.748   4.918  0.1793  0.1926 -1.1230
 6321SOL    HW130422   2.721   1.784   4.836 -0.8680  0.6425 -0.5158
 6321SOL    HW230423   2.799   1.822   4.957 -0.3581 -0.2169  0.2925
 6322SOL     OW30424   2.541   2.570  16.732 -0.2254  0.3718 -0.1274
 6322SOL    HW130425   2.627   2.575  16.688  0.4648  1.2701  1.3240
 6322SOL    HW230426   2.555   2.655  16.775 -0.1027 -0.4129  1.3462
 6323SOL     OW30427   3.169   0.973   9.969 -0.4911  0.4899  0.6380
 6323SOL    HW130428   3.243   1.014   9.925 -1.5607  1.4221 -0.3169
 6323SOL    HW230429   3.112   1.048   9.990  2.9393  3.2151  0.2085
 6324SOL     OW30430   1.525   3.042   7.884 -0.2029  0.6421 -0.0768
 6324SOL    HW130431   1.500   3.068   7.973 -3.0072  0.7055 -0.8752
 6324SOL    HW230432   1.453   2.984   7.859 -0.7469  2.0210 -1.7163
 6325SOL     OW30433   2.661   1.689   3.487 -0.2114 -0.0443 -0.3144
 6325SOL    HW130434   2.661   1.785   3.486 -0.1130 -0.0437 -0.2726
 6325SOL    HW230435   2.586   1.673   3.545  0.1084  1.8654  0.6114
 6326SOL     OW30436   3.234   1.060   6.849 -0.0041  0.4057  0.1290
 6326SOL    HW130437   3.327   1.075   6.860  0.0390  0.0378  0.2420
 6326SOL    HW230438   3.229   1.025   6.760 -0.7859  1.0082 -0.0641
 6327SOL     OW30439   2.425   2.879  10.692  0.4694  0.5999 -0.0619
 6327SOL    HW130440   2.421   2.863  10.786  0.5876  1.7466  0.1303
 6327SOL    HW230441   2.382   2.799  10.662  1.5129 -0.0633  0.1969
 6328SOL     OW30442   3.794   3.507   1.161  0.1134  0.5519 -0.3421
 6328SOL    HW130443   3.823   3.451   1.233 -0.3745  0.1207 -0.4797
 6328SOL    HW230444   3.848   3.585   1.168 -1.8564  1.8484  0.5283
 6329SOL     OW30445   2.599   4.384   9.695  0.2295  0.1902 -0.6631
 6329SOL    HW130446   2.592   4.309   9.755  0.0430 -0.1010 -1.0490
 6329SOL    HW230447   2.605   4.455   9.759  1.9533  0.0731 -0.7062
 6330SOL     OW30448   2.072   2.893   7.933  0.0483 -0.4939  0.5404
 6330SOL    HW130449   2.032   2.969   7.891  2.0054  0.2092 -0.0506
 6330SOL    HW230450   2.085   2.826   7.866  2.2003 -0.9663  1.4318
 6331SOL     OW30451   0.274   4.634   9.644  0.2847  0.2501  0.2865
 6331SOL    HW130452   0.258   4.544   9.673 -0.1921 -0.3734 -1.9120
 6331SOL    HW230453   0.342   4.613   9.580 -1.4778  0.5534 -1.6585
 6332SOL     OW30454   1.901   3.824   2.657 -0.2790  0.2786  0.1021
 6332SOL    HW130455   1.907   3.735   2.692  0.3332  0.1957 -0.2179
 6332SOL    HW230456   1.821   3.855   2.698 -0.5018 -2.7774  1.9865
 6333SOL     OW30457   1.472   4.285  14.184 -0.1931  0.0500  0.3637
 6333SOL    HW130458   1.427   4.339  14.248  0.0845  0.7272 -0.0190
 6333SOL    HW230459   1.467   4.331  14.100  2.6693 -0.8111 -0.3001
 6334SOL     OW30460   3.992   1.263   6.786  0.6394  0.0765 -0.3874
 6334SOL    HW130461   3.905   1.226   6.801  2.0182 -2.1436  2.2238
 6334SOL    HW230462   3.998   1.254   6.691 -0.5906 -2.7653 -0.1887
 6335SOL     OW30463   1.453   4.498   7.174 -0.1061 -0.0575  0.2509
 6335SOL    HW130464   1.456   4.592   7.156 -2.2682 -0.1196 -0.4816
 6335SOL    HW230465   1.387   4.493   7.243  0.1047  1.3554  0.5598
 6336SOL     OW30466   2.037   0.787   8.473 -0.5788 -0.1310  0.7300
 6336SOL    HW130467   1.965   0.726   8.489 -0.3016 -0.5400  0.4362
 6336SOL    HW230468   2.120   0.751   8.505  0.3622  1.5523  0.2033
 6337SOL     OW30469   2.821   1.907   3.710 -0.3449 -0.0727 -0.2304
 6337SOL    HW130470   2.828   2.002   3.722  0.3897 -0.2382  0.6821
 6337SOL    HW230471   2.892   1.900   3.647 -0.6708 -0.6148 -0.5333
 6338SOL     OW30472   3.910   2.750   6.339  0.0250 -0.4985  0.1763
 6338SOL    HW130473   3.904   2.845   6.323 -0.4569 -0.9127 -2.1002
 6338SOL    HW230474   3.945   2.720   6.255  0.4909  4.2495 -1.3682
 6339SOL     OW30475   3.303   2.953   5.421  0.4505  0.2465 -0.7955
 6339SOL    HW130476   3.296   2.926   5.330  1.1608 -0.4135 -0.6549
 6339SOL    HW230477   3.238   3.023   5.418  0.1081  0.0940  2.4286
 6340SOL     OW30478   2.577   4.239   4.817 -0.4954  0.0746  0.0102
 6340SOL    HW130479   2.588   4.260   4.725 -0.2006  2.5620  0.6092
 6340SOL    HW230480   2.656   4.186   4.830 -1.3061 -1.2106 -0.2992
 6341SOL     OW30481   1.473   4.514   9.566  0.0755 -0.5139  0.0610
 6341SOL    HW130482   1.524   4.495   9.645  0.1792  0.5676  0.2434
 6341SOL    HW230483   1.515   4.453   9.505  1.3205  0.8567 -0.4395
 6342SOL     OW30484   4.538   2.855   8.513  0.6194  0.1205  0.0616
 6342SOL    HW130485   4.608   2.918   8.532 -0.8706  1.5192  0.8875
 6342SOL    HW230486   4.469   2.895   8.567  1.2017  0.9711  0.1764
 6343SOL     OW30487   4.550   1.914  15.429  0.1583  0.4269 -0.5035
 6343SOL    HW130488   4.560   1.924  15.334  0.7267 -0.8749 -0.5841
 6343SOL    HW230489   4.622   1.962  15.472 -1.1734  0.2430  1.8909
 6344SOL     OW30490   3.024   3.201   4.147 -0.4178  0.2537  0.0179
 6344SOL    HW130491   3.044   3.262   4.076 -1.6267  1.3468  0.5967
 6344SOL    HW230492   3.101   3.145   4.143  0.0873  1.0494 -1.3967
 6345SOL     OW30493   0.164   1.032   6.298 -0.3009 -0.0285  0.0620
 6345SOL    HW130494   0.115   0.949   6.297  0.3237 -0.3932 -0.0396
 6345SOL    HW230495   0.182   1.055   6.207 -1.6018 -0.8020 -0.3943
 6346SOL     OW30496   1.924   0.122   9.384 -0.4647 -0.5167  0.3897
 6346SOL    HW130497   1.833   0.095   9.387 -0.6634 -0.1011 -2.0191
 6346SOL    HW230498   1.954   0.082   9.303 -1.0027 -2.6602  1.2503
 6347SOL     OW30499   1.728   0.369   7.042  0.4415 -0.2333 -0.7408
 6347SOL    HW130500   1.796   0.436   7.035  0.6937 -0.5316 -1.1792
 6347SOL    HW230501   1.752   0.307   6.973  1.9689  0.8591 -1.1964
 6348SOL     OW30502   0.353   3.902  13.019  0.9378  0.0372  0.2520
 6348SOL    HW130503   0.314   3.984  12.989 -1.1232 -0.8584  0.5201
 6348SOL    HW230504   0.429   3.933  13.069  1.2281  0.5460 -0.5054
 6349SOL     OW30505   2.561   0.736   6.436  0.7535  1.0220  0.7675
 6349SOL    HW130506   2.595   0.725   6.525 -0.0066 -2.3537  0.6366
 6349SOL    HW230507   2.555   0.832   6.433 -0.8489  0.9367  1.4566
 6350SOL     OW30508   1.460   4.327   6.973 -0.2221  0.8494 -0.1123
 6350SOL    HW130509   1.536   4.344   6.917 -0.0803 -0.1205 -0.2168
 6350SOL    HW230510   1.458   4.404   7.030 -0.6972  0.1735  0.7904
 6351SOL     OW30511   1.552   2.123   4.418 -0.2784 -0.0856 -0.4831
 6351SOL    HW130512   1.506   2.058   4.471 -0.8226  1.1996  0.6195
 6351SOL    HW230513   1.564   2.073   4.337  4.7839 -0.4454  0.4961
 6352SOL     OW30514   2.016   4.415  10.229 -0.2532 -0.4798  0.0835
 6352SOL    HW130515   2.058   4.378  10.307  1.0048  0.9709  0.0924
 6352SOL    HW230516   1.940   4.442  10.280 -0.4694  3.4508 -2.3204
 6353SOL     OW30517   2.126   2.613   7.781 -0.5770  0.1036  0.5099
 6353SOL    HW130518   2.065   2.582   7.714  0.5644 -0.7459 -0.1265
 6353SOL    HW230519   2.210   2.615   7.735 -0.8780  0.0122 -0.0369
 6354SOL     OW30520   1.493   3.959   3.234  0.1875 -0.5228 -0.0391
 6354SOL    HW130521   1.508   3.868   3.261 -0.0604 -0.1487  1.3537
 6354SOL    HW230522   1.411   3.938   3.190  0.2585  0.6416 -0.7215
 6355SOL     OW30523   2.712   3.835  13.881  0.0698  0.3292  1.1070
 6355SOL    HW130524   2.704   3.874  13.968 -1.0263  0.1964  1.0702
 6355SOL    HW230525   2.786   3.778  13.902 -0.5236 -0.6328  0.5838
 6356SOL     OW30526   2.611   2.541   8.212 -0.3112 -0.2087  0.5703
 6356SOL    HW130527   2.625   2.601   8.139 -1.4046 -0.4923  0.1119
 6356SOL    HW230528   2.595   2.462   8.160  1.2329 -0.4743  0.5250
 6357SOL     OW30529   1.077   2.002  10.871  0.0605 -0.3617 -0.4023
 6357SOL    HW130530   1.058   1.980  10.780 -0.9878  1.7686 -0.6816
 6357SOL    HW230531   0.993   1.990  10.916 -0.5778 -0.5392 -1.6459
 6358SOL     OW30532   1.483   3.969   7.483 -0.8307 -0.2855  0.2432
 6358SOL    HW130533   1.460   4.047   7.432 -0.8770  0.0333  0.7489
 6358SOL    HW230534   1.452   3.993   7.571  0.3843 -1.3950  0.9708
 6359SOL     OW30535   0.064   0.101   6.443  0.4455  0.4123 -0.0470
 6359SOL    HW130536   0.037   0.123   6.532  0.5504 -0.3055  0.1653
 6359SOL    HW230537   0.006   0.026   6.428 -0.6909  0.9169  1.7925
 6360SOL     OW30538   2.445   0.148  16.200  0.4486  1.0260  0.2801
 6360SOL    HW130539   2.396   0.179  16.124  0.0236  0.1470  0.1910
 6360SOL    HW230540   2.526   0.115  16.160  0.8590 -1.0004  2.7902
 6361SOL     OW30541   0.397   4.494   3.182  0.1932 -0.6310 -0.1812
 6361SOL    HW130542   0.386   4.442   3.261  1.0666 -0.4151  0.0807
 6361SOL    HW230543   0.446   4.432   3.127  2.1330  2.0310 -1.4683
 6362SOL     OW30544   0.344   1.272  10.119 -0.8825  0.3779 -0.9561
 6362SOL    HW130545   0.396   1.324  10.181  1.4816 -1.6190 -1.2854
 6362SOL    HW230546   0.384   1.297  10.036 -0.1368  2.1324 -0.0856
 6363SOL     OW30547   2.688   3.123   6.079 -0.2178 -0.2073 -0.2265
 6363SOL    HW130548   2.695   3.085   6.167 -0.1685 -0.2237 -0.2376
 6363SOL    HW230549   2.598   3.098   6.059 -0.4758  0.0164  0.6271
 6364SOL     OW30550   2.791   4.085   1.988  0.3196  0.2185 -0.2088
 6364SOL    HW130551   2.792   4.047   2.076  0.5931  0.8248  0.0498
 6364SOL    HW230552   2.829   4.006   1.950  0.0313  1.5806 -3.3489
 6365SOL     OW30553   2.527   4.211   7.805 -0.2167  0.1180 -0.5405
 6365SOL    HW130554   2.487   4.195   7.890  2.2295  1.7834  0.9208
 6365SOL    HW230555   2.453   4.220   7.744 -0.7829  1.7142  0.3587
 6366SOL     OW30556   1.848   0.626  16.746  0.2526  0.1031 -0.0528
 6366SOL    HW130557   1.892   0.596  16.825 -2.6405 -0.4691  1.3434
 6366SOL    HW230558   1.762   0.625  16.788  0.6613  1.2882  0.8001
 6367SOL     OW30559   2.517   4.383   2.872  0.1621  0.3743  0.0704
 6367SOL    HW130560   2.476   4.324   2.936  0.0530 -0.5788 -0.8769
 6367SOL    HW230561   2.487   4.350   2.788 -0.6422 -0.3584  0.6430
 6368SOL     OW30562   3.886   3.286   2.347  0.2894  0.5521  0.2743
 6368SOL    HW130563   3.875   3.255   2.258  1.4099 -2.3830  1.1532
 6368SOL    HW230564   3.803   3.329   2.369  0.6394  1.8500 -0.9529
 6369SOL     OW30565   4.286   2.734   3.733 -0.3387  0.1788 -0.3908
 6369SOL    HW130566   4.364   2.712   3.683  0.8535  1.3313  0.9811
 6369SOL    HW230567   4.244   2.794   3.671 -0.4412  2.6785  2.1232
 6370SOL     OW30568   0.894   2.536   0.756 -0.4270  0.2725  0.0263
 6370SOL    HW130569   0.827   2.489   0.806 -0.1288  0.1883  0.3463
 6370SOL    HW230570   0.890   2.624   0.792 -1.4114  0.3330 -0.2243
 6371SOL     OW30571   1.162   2.026   1.936  0.2734  0.4019 -0.3890
 6371SOL    HW130572   1.228   2.095   1.944 -0.7401  1.2969  0.3315
 6371SOL    HW230573   1.126   2.050   1.851 -2.7050 -1.7264  0.2679
 6372SOL     OW30574   4.046   3.256  11.839 -0.1404  0.6056 -0.2161
 6372SOL    HW130575   4.052   3.231  11.931  1.4944 -1.1726 -0.8076
 6372SOL    HW230576   3.971   3.316  11.843 -0.1042  0.6329  0.1038
 6373SOL     OW30577   1.488   0.372   9.916  0.3250  0.2195  0.4785
 6373SOL    HW130578   1.400   0.345   9.889  1.4307 -0.9665 -1.8562
 6373SOL    HW230579   1.547   0.301   9.891  1.1486  0.5932  1.3350
 6374SOL     OW30580   2.588   4.269   6.906 -0.3754 -0.1078 -0.1665
 6374SOL    HW130581   2.634   4.243   6.827  0.1389 -0.7977  0.3633
 6374SOL    HW230582   2.493   4.266   6.891 -0.5180  1.3830  0.4294
 6375SOL     OW30583   3.255   0.224   7.295 -0.3557 -0.3669 -0.1772
 6375SOL    HW130584   3.219   0.143   7.259  0.3613  0.0029 -1.7568
 6375SOL    HW230585   3.235   0.284   7.223 -0.0228  0.0153  0.0424
 6376SOL     OW30586   2.355   0.718   7.009 -0.3918 -0.0007  0.0418
 6376SOL    HW130587   2.377   0.682   7.095 -0.4127 -0.8673 -0.3082
 6376SOL    HW230588   2.277   0.767   7.033 -0.9247  0.2113 -2.1798
 6377SOL     OW30589   1.348   2.024   7.669  0.1014 -0.0235 -0.1380
 6377SOL    HW130590   1.265   2.067   7.687  0.2930  0.1380  0.3778
 6377SOL    HW230591   1.391   2.062   7.746 -1.1491 -0.1790  0.6348
 6378SOL     OW30592   1.030   0.771   7.191  0.0134  0.0285 -0.1235
 6378SOL    HW130593   1.093   0.739   7.126  0.2338 -0.7945  0.4934
 6378SOL    HW230594   1.084   0.772   7.270 -0.2955 -3.2411  0.1560
 6379SOL     OW30595   4.609   0.162   3.307  0.3767 -0.1815  0.1341
 6379SOL    HW130596   4.663   0.083   3.299 -0.0905 -0.4208 -0.6021
 6379SOL    HW230597   4.559   0.168   3.226  2.3728 -2.5582 -1.2602
 6380SOL     OW30598   0.042   3.490  14.800  0.1421  0.4016  0.0359
 6380SOL    HW130599   0.052   3.543  14.720  1.6731  0.2811  0.1567
 6380SOL    HW230600   0.120   3.436  14.797  0.1721  0.4656 -0.4706
 6381SOL     OW30601   2.431   1.594   5.530  0.5000  0.0792 -0.0761
 6381SOL    HW130602   2.445   1.662   5.595 -0.5655  1.5505 -1.4096
 6381SOL    HW230603   2.509   1.592   5.475  0.4472  0.4062 -0.1623
 6382SOL     OW30604   2.985   4.146   3.542 -0.3629  0.5603 -0.2621
 6382SOL    HW130605   3.057   4.209   3.532 -0.1885  0.6282  1.3592
 6382SOL    HW230606   2.964   4.128   3.451 -2.4768  0.6604  0.2198
 6383SOL     OW30607   3.517   4.139   8.342 -0.4331 -0.8240  0.1293
 6383SOL    HW130608   3.451   4.189   8.294  2.2980  0.5725 -2.1552
 6383SOL    HW230609   3.565   4.209   8.386  2.3731 -1.9732 -1.0655
 6384SOL     OW30610   3.516   4.217   7.888 -0.1010 -0.8258 -0.3682
 6384SOL    HW130611   3.543   4.259   7.807 -1.7606 -0.5940 -0.7853
 6384SOL    HW230612   3.523   4.123   7.872 -0.5951 -0.7086 -1.2616
 6385SOL     OW30613   4.163   4.012   6.960  0.1449 -0.1049  0.1706
 6385SOL    HW130614   4.156   4.001   7.055 -1.0740  1.2274  0.2492
 6385SOL    HW230615   4.196   3.927   6.931 -0.8504 -0.8118  1.1047
 6386SOL     OW30616   2.541   4.203   1.128 -0.2595 -0.3364 -0.0481
 6386SOL    HW130617   2.573   4.166   1.210  2.2827  0.4270 -0.6895
 6386SOL    HW230618   2.489   4.275   1.162  0.2732 -0.2596  0.6106
 6387SOL     OW30619   1.989   1.428   5.847  0.0483 -0.7277  0.2530
 6387SOL    HW130620   2.012   1.410   5.938  2.0330  1.3556  0.1713
 6387SOL    HW230621   1.963   1.520   5.842  1.2928 -0.4654 -1.4003
 6388SOL     OW30622   2.261   1.635   3.428  0.1137 -0.0284  0.3109
 6388SOL    HW130623   2.326   1.610   3.362 -0.3643 -0.3824 -0.0299
 6388SOL    HW230624   2.308   1.618   3.509 -0.0320  1.8099  0.7971
 6389SOL     OW30625   2.807   0.378  15.093  0.4372  0.1100  0.3459
 6389SOL    HW130626   2.823   0.463  15.133 -1.0783  1.2017 -1.3413
 6389SOL    HW230627   2.865   0.326  15.149 -0.3959 -2.3169 -1.0230
 6390SOL     OW30628   3.694   2.983   4.354 -0.4088  0.4675 -0.1100
 6390SOL    HW130629   3.789   2.995   4.351 -0.4118  0.2463 -1.0335
 6390SOL    HW230630   3.674   3.076   4.365  1.5999  0.9404 -0.4780
 6391SOL     OW30631   2.648   0.390   3.174 -0.3036  0.5390  0.2989
 6391SOL    HW130632   2.593   0.322   3.133  0.8836 -0.5490  0.5048
 6391SOL    HW230633   2.653   0.349   3.260 -0.1906  0.1178  0.0949
 6392SOL     OW30634   2.219   2.346   7.229 -1.0445 -0.0673  0.4882
 6392SOL    HW130635   2.129   2.335   7.258 -0.5287 -0.7975  1.8075
 6392SOL    HW230636   2.207   2.407   7.157  1.0450 -0.8223 -0.4991
 6393SOL     OW30637   2.843   3.934   1.054 -0.3482  0.4640  0.1957
 6393SOL    HW130638   2.750   3.932   1.028 -0.2440 -0.5268 -0.0842
 6393SOL    HW230639   2.857   4.029   1.050  0.1269  0.4076  0.6143
 6394SOL     OW30640   0.329   3.826   8.687 -0.0712  0.1545 -0.5817
 6394SOL    HW130641   0.325   3.880   8.766 -1.0324  0.9559 -1.1645
 6394SOL    HW230642   0.371   3.750   8.726 -0.0303 -0.9334 -2.7221
 6395SOL     OW30643   3.730   2.999   9.454  0.6968  0.2969 -0.0160
 6395SOL    HW130644   3.810   2.956   9.483  0.4859  0.9264  1.5049
 6395SOL    HW230645   3.752   3.022   9.364 -0.7074  0.3165 -0.3555
 6396SOL     OW30646   4.121   2.067   6.583  0.3558 -0.0508  0.3764
 6396SOL    HW130647   4.187   2.093   6.647 -0.9609  3.0036  0.4952
 6396SOL    HW230648   4.044   2.028   6.625  0.0464 -0.1554 -0.2854
 6397SOL     OW30649   2.709   1.176  17.653 -0.3236 -0.0781  0.3717
 6397SOL    HW130650   2.617   1.151  17.662 -0.0028 -0.9922  1.1156
 6397SOL    HW230651   2.753   1.118   0.009  0.2507 -1.1634 -1.0401
 6398SOL     OW30652   4.123   3.609  13.229  0.6696  0.0041  0.0527
 6398SOL    HW130653   4.036   3.594  13.192  1.5901 -0.7839 -1.8321
 6398SOL    HW230654   4.147   3.517  13.236  1.6060  0.0491 -2.4283
 6399SOL     OW30655   2.122   3.141   7.711 -0.2598 -0.0804  0.2356
 6399SOL    HW130656   2.208   3.170   7.741  1.1257  0.0644 -3.8687
 6399SOL    HW230657   2.080   3.226   7.701  2.8468  1.6547  2.2425
 6400SOL     OW30658   4.481   0.485   2.747  0.0989 -0.3442  0.0939
 6400SOL    HW130659   4.468   0.540   2.670 -1.7649 -0.1622  0.5309
 6400SOL    HW230660   4.412   0.420   2.735  0.5658 -1.0081  1.0176
 6401SOL     OW30661   2.067   1.502   5.587  0.0730  0.5219 -0.4834
 6401SOL    HW130662   2.046   1.438   5.654  2.5978  0.3817  0.1724
 6401SOL    HW230663   2.032   1.586   5.617  1.6768  0.7576  0.7148
 6402SOL     OW30664   3.155   2.324  16.891  0.2862 -0.0466 -0.6834
 6402SOL    HW130665   3.104   2.260  16.941  0.5256 -0.4832 -1.0056
 6402SOL    HW230666   3.106   2.325  16.809  1.2359 -2.4281 -1.2679
 6403SOL     OW30667   3.788   0.278  10.341 -0.0784  0.5792  0.3736
 6403SOL    HW130668   3.808   0.276  10.247  2.3785 -2.1809  0.9641
 6403SOL    HW230669   3.720   0.345  10.346 -1.2058 -0.5147 -0.5114
 6404SOL     OW30670   3.335   4.039   5.214  0.4210 -0.7373  0.7132
 6404SOL    HW130671   3.391   4.004   5.146 -1.1094 -0.0360 -0.9028
 6404SOL    HW230672   3.258   4.075   5.170  0.4046 -0.6769  0.7903
 6405SOL     OW30673   2.894   3.371   1.026  0.5109  0.8233 -0.2364
 6405SOL    HW130674   2.921   3.317   1.101 -0.0262  2.0836  0.8649
 6405SOL    HW230675   2.974   3.371   0.973  1.4916  1.8687  1.2551
 6406SOL     OW30676   4.623   1.163  17.651 -0.1517 -0.5704 -0.4459
 6406SOL    HW130677   4.552   1.149   0.007  0.9628 -0.7945  0.7868
 6406SOL    HW230678   4.667   1.240  17.687 -1.1932 -0.4333  0.5062
 6407SOL     OW30679   4.122   2.284  15.139  0.0958  0.7950 -0.1176
 6407SOL    HW130680   4.118   2.373  15.173 -1.2949  1.1402 -1.1716
 6407SOL    HW230681   4.048   2.284  15.077 -0.0835 -1.1580  0.0802
 6408SOL     OW30682   0.149   3.389   2.768 -0.2460 -0.2327 -0.1288
 6408SOL    HW130683   0.176   3.480   2.756 -1.0244  0.1470  0.9683
 6408SOL    HW230684   0.060   3.394   2.804  1.1287  2.1959  2.8919
 6409SOL     OW30685   3.925   3.196   1.128  0.2156  0.6452  0.1959
 6409SOL    HW130686   4.021   3.199   1.126  0.2659  0.5260  1.9722
 6409SOL    HW230687   3.903   3.256   1.200 -0.2082 -0.4545  0.9829
 6410SOL     OW30688   3.234   0.155   2.019 -0.3754  0.2934 -0.4315
 6410SOL    HW130689   3.286   0.080   2.047 -0.9436 -0.1574 -0.5789
 6410SOL    HW230690   3.282   0.182   1.941 -1.1761 -0.4822 -1.1895
 6411SOL     OW30691   1.972   3.161   3.680 -0.1938 -0.1599 -0.1795
 6411SOL    HW130692   1.969   3.105   3.603  1.9162  1.6967 -1.6048
 6411SOL    HW230693   1.967   3.251   3.649 -1.5579 -0.5456 -1.1073
 6412SOL     OW30694   2.288   0.371   3.286  0.2818  0.0574  0.3141
 6412SOL    HW130695   2.310   0.397   3.197 -2.6588 -0.3387 -0.5358
 6412SOL    HW230696   2.213   0.314   3.270  0.2372  0.3730 -0.5492
 6413SOL     OW30697   0.185   4.270   2.873 -0.5287  1.0110 -0.4219
 6413SOL    HW130698   0.243   4.234   2.806 -2.3817 -2.5064 -0.1612
 6413SOL    HW230699   0.095   4.252   2.845 -1.0883  0.2247  1.9132
 6414SOL     OW30700   0.316   1.487  12.123 -0.6573 -0.6029 -0.5970
 6414SOL    HW130701   0.274   1.563  12.164  1.6119 -0.5839  1.6928
 6414SOL    HW230702   0.374   1.538  12.068 -0.5830  0.6570  0.6448
 6415SOL     OW30703   0.638   2.241   9.977  0.1274 -0.6679 -0.0187
 6415SOL    HW130704   0.597   2.327   9.966 -1.2387 -1.1256  1.4682
 6415SOL    HW230705   0.605   2.196   9.900 -2.2654  1.5376 -0.2954
 6416SOL     OW30706   3.244   2.471  12.038 -0.3324 -0.5726  0.1910
 6416SOL    HW130707   3.265   2.423  12.118 -0.4978  0.7911  1.0544
 6416SOL    HW230708   3.159   2.510  12.059  0.6298  2.3198 -1.3288
 6417SOL     OW30709   2.134   0.910  12.541  0.1348  0.8480  0.1165
 6417SOL    HW130710   2.191   0.962  12.598  1.0018  0.8454 -0.7500
 6417SOL    HW230711   2.170   0.822  12.550 -0.1728  1.0560  3.2233
 6418SOL     OW30712   3.772   0.680   8.453  0.6209 -0.3170 -0.4038
 6418SOL    HW130713   3.717   0.725   8.517  2.0097  1.1645 -0.2467
 6418SOL    HW230714   3.756   0.589   8.475 -0.3724 -0.3770 -1.4050
 6419SOL     OW30715   2.228   1.360  12.461  0.4080 -0.1032  0.3326
 6419SOL    HW130716   2.179   1.299  12.406 -0.4403  0.0194  0.9640
 6419SOL    HW230717   2.290   1.300  12.502  0.6924 -1.1096 -1.5286
 6420SOL     OW30718   2.450   2.734   6.732 -0.1892  0.8631 -0.2889
 6420SOL    HW130719   2.382   2.670   6.711  0.9033 -0.3408 -0.1731
 6420SOL    HW230720   2.417   2.793   6.665  0.1501  1.3520 -0.0240
 6421SOL     OW30721   2.757   3.759  12.071  0.2395 -0.3133 -0.4387
 6421SOL    HW130722   2.685   3.801  12.118  1.7377  0.6345  1.0194
 6421SOL    HW230723   2.727   3.668  12.073  0.9591 -0.5562 -0.7714
 6422SOL     OW30724   1.258   2.818   7.355 -0.8086 -0.2717  0.1806
 6422SOL    HW130725   1.192   2.885   7.374 -1.8503 -1.1099 -0.4878
 6422SOL    HW230726   1.314   2.853   7.424 -1.6340 -0.2351  0.8241
 6423SOL     OW30727   0.000   2.174   6.245  0.1310  0.3552  0.6086
 6423SOL    HW130728   4.660   2.147   6.182 -1.1076 -0.3264  2.1878
 6423SOL    HW230729   0.076   2.137   6.199  1.6607  1.5980  2.1257
 6424SOL     OW30730   1.706   1.039  15.783 -0.1541  0.2969  0.3307
 6424SOL    HW130731   1.751   0.991  15.852  0.3718 -0.9920 -0.9038
 6424SOL    HW230732   1.734   1.130  15.791  0.8915  0.1548 -1.6729
 6425SOL     OW30733   2.746   4.397  16.317 -0.1235  0.4427  0.1305
 6425SOL    HW130734   2.775   4.461  16.252  1.3823  0.2930  0.6447
 6425SOL    HW230735   2.656   4.407  16.289  0.1721 -0.8552 -1.3141
 6426SOL     OW30736   1.712   1.024   9.423  0.5471  0.2515 -0.6212
 6426SOL    HW130737   1.685   1.116   9.418  1.9173  0.7313  0.7196
 6426SOL    HW230738   1.798   1.026   9.380  0.5210 -0.1465 -0.6887
 6427SOL     OW30739   0.919   1.000   6.714  0.2038 -0.5376  0.2154
 6427SOL    HW130740   0.836   1.009   6.760  0.1923  0.8178 -0.0574
 6427SOL    HW230741   0.947   1.090   6.692  0.4941 -0.3526  1.3467
 6428SOL     OW30742   1.755   1.010  14.200 -0.3062 -0.2423  0.5254
 6428SOL    HW130743   1.785   1.100  14.190 -0.2662 -0.1035  1.7895
 6428SOL    HW230744   1.661   1.026  14.189  0.0602  1.5733  0.0780
 6429SOL     OW30745   3.613   1.382  16.018 -0.0403 -0.3567  0.2115
 6429SOL    HW130746   3.565   1.342  15.946  1.3824 -1.6847  0.0025
 6429SOL    HW230747   3.694   1.337  15.994  0.6564  1.7095 -1.3049
 6430SOL     OW30748   2.062   3.009   9.378 -0.5676  0.0729  0.1510
 6430SOL    HW130749   2.100   2.962   9.452 -2.9705 -1.3307  0.5095
 6430SOL    HW230750   2.054   3.099   9.408 -1.8647 -0.5934  1.8016
 6431SOL     OW30751   0.675   2.869   6.700  0.5644  0.2138  0.7767
 6431SOL    HW130752   0.719   2.838   6.621 -1.6693 -0.1058 -0.3253
 6431SOL    HW230753   0.646   2.784   6.733 -1.4730  0.1843 -1.1517
 6432SOL     OW30754   1.297   0.107  12.794  0.2762  0.4009 -0.0591
 6432SOL    HW130755   1.374   0.158  12.819 -0.3182  0.5866  1.4408
 6432SOL    HW230756   1.253   0.169  12.737 -0.6774 -0.7080 -0.5332
 6433SOL     OW30757   2.058   0.097   4.682 -0.2867 -0.0838  0.3966
 6433SOL    HW130758   2.049   0.004   4.703  0.4429  0.2314  2.1898
 6433SOL    HW230759   2.014   0.137   4.757 -1.2691 -1.9282  0.8111
 6434SOL     OW30760   4.560   2.914  16.179 -0.0659  1.1351 -0.0616
 6434SOL    HW130761   4.530   2.880  16.095  0.9847  1.7723 -0.6936
 6434SOL    HW230762   4.478   2.916  16.228  0.3348  2.6653  0.5501
 6435SOL     OW30763   4.077   0.637   9.947  0.7444 -0.7842  0.3381
 6435SOL    HW130764   4.093   0.545   9.927 -0.2756 -0.9036  0.0891
 6435SOL    HW230765   4.170   0.655   9.961  0.2892  1.4737  0.4142
 6436SOL     OW30766   4.105   0.021   3.252 -0.5916  0.1124  0.0748
 6436SOL    HW130767   4.136   4.661   3.281 -0.5727 -0.0076 -0.2936
 6436SOL    HW230768   4.039   4.726   3.186 -1.0642  0.6452  0.3757
 6437SOL     OW30769   3.994   1.972  17.365  0.2185 -0.3020 -0.3058
 6437SOL    HW130770   3.945   2.029  17.306 -0.9837 -0.9903  0.0157
 6437SOL    HW230771   4.050   2.031  17.416  2.3612 -1.1037 -1.7476
 6438SOL     OW30772   2.569   0.917   5.078 -0.2837  0.1741 -0.0981
 6438SOL    HW130773   2.632   0.890   5.145  0.3903 -1.2484 -1.3052
 6438SOL    HW230774   2.573   0.838   5.024  1.2635 -0.1768  0.5128
 6439SOL     OW30775   4.112   1.099   4.021  0.0986  0.0544 -0.6636
 6439SOL    HW130776   4.043   1.108   3.955  0.6162  0.3040 -1.1671
 6439SOL    HW230777   4.087   1.015   4.057  0.2686 -0.0887 -0.8775
 6440SOL     OW30778   2.635   4.411   2.284  0.5862  0.2059  0.4618
 6440SOL    HW130779   2.548   4.387   2.316  0.8004  0.6152  1.3503
 6440SOL    HW230780   2.634   4.383   2.193 -1.5219  0.0854  0.5433
 6441SOL     OW30781   0.102   3.559   9.276 -0.7167 -0.3236 -0.1851
 6441SOL    HW130782   0.191   3.542   9.306 -0.2655  1.0658 -0.7277
 6441SOL    HW230783   0.050   3.552   9.356 -0.4395 -0.6536 -0.0341
 6442SOL     OW30784   0.788   3.883  17.406 -0.1860 -0.1658  0.9648
 6442SOL    HW130785   0.816   3.860  17.318  0.0859  1.4687  0.6252
 6442SOL    HW230786   0.694   3.895  17.392 -0.0381  0.5238  0.5325
 6443SOL     OW30787   2.719   0.707   1.005  0.0211 -0.4887 -0.4498
 6443SOL    HW130788   2.646   0.758   1.041 -0.6695 -2.3529  0.7790
 6443SOL    HW230789   2.680   0.696   0.918  0.7121  3.0792 -1.2046
 6444SOL     OW30790   2.555   0.340   9.233  0.3245 -0.1077  0.2983
 6444SOL    HW130791   2.628   0.392   9.200 -0.2618  1.6964  1.9064
 6444SOL    HW230792   2.486   0.400   9.260  0.0091 -0.6316  0.6496
 6445SOL     OW30793   1.641   4.268   8.167 -0.2759  0.8347 -0.1156
 6445SOL    HW130794   1.633   4.242   8.259 -2.8102  0.2513 -0.5030
 6445SOL    HW230795   1.674   4.186   8.131  1.5443  0.5382  2.2463
 6446SOL     OW30796   4.112   1.213   3.269  0.3397  0.0363 -0.5048
 6446SOL    HW130797   4.174   1.173   3.208 -0.8501 -0.3221 -1.4715
 6446SOL    HW230798   4.166   1.287   3.296  0.9389 -0.4810 -0.2977
 6447SOL     OW30799   2.215   2.712   4.896 -0.5054 -0.2759  0.3507
 6447SOL    HW130800   2.253   2.705   4.984  0.1366  0.5550  0.1466
 6447SOL    HW230801   2.272   2.787   4.876 -0.1094 -0.6911 -0.0872
 6448SOL     OW30802   3.227   4.334   5.739 -0.0254  0.3936 -0.0098
 6448SOL    HW130803   3.277   4.297   5.812  1.0535  4.1455  1.1549
 6448SOL    HW230804   3.143   4.319   5.782  1.6525 -1.2795  2.6513
 6449SOL     OW30805   0.009   1.033   4.916  0.2332 -0.0883  0.5215
 6449SOL    HW130806   4.723   0.974   4.990  1.4588 -1.0423 -0.0450
 6449SOL    HW230807   4.716   1.121   4.951  1.6642  1.1200 -1.7515
 6450SOL     OW30808   3.791   4.458   4.654 -0.0646 -0.0289  0.2937
 6450SOL    HW130809   3.838   4.427   4.577  0.1507  0.4195  0.2435
 6450SOL    HW230810   3.734   4.526   4.618  0.2857 -0.2609 -0.6987
 6451SOL     OW30811   0.319   1.215  12.279 -0.6410  0.1502 -0.2854
 6451SOL    HW130812   0.298   1.268  12.202 -0.7253  0.3069 -0.1533
 6451SOL    HW230813   0.270   1.146  12.233 -0.4060  0.2099 -0.6251
 6452SOL     OW30814   4.454   0.682   7.303  0.1977 -0.3087 -0.5721
 6452SOL    HW130815   4.502   0.605   7.334 -0.7938  0.2513  2.3604
 6452SOL    HW230816   4.368   0.645   7.284 -0.0769 -0.5225  1.1035
 6453SOL     OW30817   1.991   2.659   3.547 -0.7770 -0.5139 -0.2598
 6453SOL    HW130818   2.010   2.583   3.602 -0.5179 -1.7608 -2.0837
 6453SOL    HW230819   1.992   2.625   3.458  0.5131 -1.8780  0.2711
 6454SOL     OW30820   1.215   0.939   0.391  0.3685  0.0519 -0.2076
 6454SOL    HW130821   1.303   0.934   0.351  0.8062  0.9476  0.6376
 6454SOL    HW230822   1.203   0.846   0.408  1.8605 -0.3567 -1.3021
 6455SOL     OW30823   3.683   1.592   6.012 -0.5368 -0.2789 -0.0144
 6455SOL    HW130824   3.737   1.612   5.935 -2.0579 -1.1045 -1.2787
 6455SOL    HW230825   3.754   1.584   6.076  0.1377  0.5513 -0.6421
 6456SOL     OW30826   2.222   3.246   9.892 -0.4960 -0.0352 -0.2546
 6456SOL    HW130827   2.309   3.248   9.931 -0.1989 -1.9092 -0.8266
 6456SOL    HW230828   2.203   3.153   9.900 -1.2467  0.0765 -0.7059
 6457SOL     OW30829   0.788   0.995   7.092 -0.2143  0.1969 -0.3514
 6457SOL    HW130830   0.774   1.089   7.102  0.7250  0.3086 -0.1187
 6457SOL    HW230831   0.816   0.962   7.177  0.5197 -2.6598 -1.7135
 6458SOL     OW30832   0.418   0.781   3.881  0.3767 -0.1292 -0.0391
 6458SOL    HW130833   0.366   0.713   3.838  1.3219 -1.2898  0.6520
 6458SOL    HW230834   0.340   0.828   3.909  0.6477  0.4880 -0.3360
 6459SOL     OW30835   0.757   1.555   8.127  0.1823 -0.4387 -0.0465
 6459SOL    HW130836   0.694   1.568   8.198  0.6042 -0.0601  0.2559
 6459SOL    HW230837   0.716   1.594   8.050  0.8582  0.9269  0.2889
 6460SOL     OW30838   0.551   4.639   5.998 -0.1346  0.1204  0.0329
 6460SOL    HW130839   0.507   4.556   6.019  0.7052 -0.7628 -1.7566
 6460SOL    HW230840   0.478   4.700   6.005 -0.1770 -0.1541  2.0892
 6461SOL     OW30841   3.554   2.874   4.136 -0.2213 -0.1491 -0.1277
 6461SOL    HW130842   3.545   2.969   4.125 -0.1794 -0.2885 -1.3707
 6461SOL    HW230843   3.610   2.885   4.213  0.7705  1.3208 -1.0502
 6462SOL     OW30844   3.827   1.344   7.601 -0.0449 -0.1071 -0.2208
 6462SOL    HW130845   3.870   1.429   7.593 -1.0751  0.3457 -0.8967
 6462SOL    HW230846   3.785   1.356   7.686  1.7504 -2.0797  0.9489
 6463SOL     OW30847   2.236   3.381  11.009 -0.7842 -0.1825  0.2340
 6463SOL    HW130848   2.149   3.359  11.043 -0.5052 -1.4865  0.0794
 6463SOL    HW230849   2.288   3.349  11.083  0.8153  3.4978  0.7008
 6464SOL     OW30850   4.433   4.281   9.327 -0.4880 -0.0000 -0.6874
 6464SOL    HW130851   4.445   4.186   9.335  1.1402  0.2735  0.1730
 6464SOL    HW230852   4.446   4.305   9.419  1.0213  1.0315 -1.1728
 6465SOL     OW30853   0.838   3.084  12.262  0.1218 -0.1967  0.4218
 6465SOL    HW130854   0.902   3.049  12.199 -0.8945 -0.8618 -0.2419
 6465SOL    HW230855   0.776   3.126  12.202  0.7472 -1.2462 -0.9697
 6466SOL     OW30856   4.481   3.047   3.512  0.3184  0.7517 -0.1622
 6466SOL    HW130857   4.511   3.099   3.587  1.2064 -0.7668  0.5362
 6466SOL    HW230858   4.397   3.020   3.550  2.5947  0.0435  4.4295
 6467SOL     OW30859   1.382   2.356   8.115  0.3061  0.3117  0.4145
 6467SOL    HW130860   1.362   2.311   8.197  0.0972  0.9895  0.7317
 6467SOL    HW230861   1.477   2.344   8.109  0.2058 -0.6227  0.6699
 6468SOL     OW30862   2.724   1.560   7.966 -0.2434 -0.4490 -0.6621
 6468SOL    HW130863   2.732   1.486   7.905  2.0004 -0.1497 -0.7403
 6468SOL    HW230864   2.632   1.553   7.989 -0.0057 -1.0999  0.0999
 6469SOL     OW30865   0.510   4.009  13.281  0.0274  0.2413  0.3428
 6469SOL    HW130866   0.469   3.972  13.358 -0.9474  0.6109 -0.0031
 6469SOL    HW230867   0.564   3.930  13.267 -0.1618  0.3832 -1.2134
 6470SOL     OW30868   0.898   2.729   2.954 -0.1989  0.5205  0.4909
 6470SOL    HW130869   0.886   2.639   2.923 -1.5690  1.7894 -2.6768
 6470SOL    HW230870   0.809   2.764   2.955 -0.2479  0.4656 -1.5355
 6471SOL     OW30871   2.145   3.059   3.301  0.1452 -0.0326 -0.1279
 6471SOL    HW130872   2.184   2.971   3.303  1.5561  0.6171  0.8956
 6471SOL    HW230873   2.185   3.104   3.376  2.0768 -0.9812 -0.5985
 6472SOL     OW30874   3.882   2.688   7.590 -0.4181 -0.4288 -0.1857
 6472SOL    HW130875   3.881   2.593   7.589 -1.1035 -0.4088 -1.7797
 6472SOL    HW230876   3.793   2.716   7.612 -0.9678 -1.1540 -1.4699
 6473SOL     OW30877   1.175   3.012   6.385 -0.1183  0.2135  0.3906
 6473SOL    HW130878   1.228   3.017   6.465 -1.7904  0.4287  1.4833
 6473SOL    HW230879   1.215   2.936   6.341  0.3788  0.3796  0.5605
 6474SOL     OW30880   1.548   1.881   3.453 -0.1639  0.6193 -0.3362
 6474SOL    HW130881   1.623   1.861   3.398 -2.2115 -2.8218 -1.9340
 6474SOL    HW230882   1.551   1.976   3.462  0.5624  0.7212 -1.6722
 6475SOL     OW30883   2.458   1.365  17.428 -0.2476  0.2564  0.4532
 6475SOL    HW130884   2.501   1.377  17.512 -1.6305 -3.3812  1.6643
 6475SOL    HW230885   2.416   1.450  17.413  2.5057  1.7266  1.1170
 6476SOL     OW30886   2.604   1.590  12.884 -0.1237 -0.2660  0.0512
 6476SOL    HW130887   2.686   1.629  12.853 -0.1241  0.2105  0.6393
 6476SOL    HW230888   2.638   1.513  12.929 -0.7175 -0.3882  0.2864
 6477SOL     OW30889   1.111   1.145   5.756  0.3360 -0.1481 -0.4262
 6477SOL    HW130890   1.168   1.176   5.686  1.7127  1.7232  1.5533
 6477SOL    HW230891   1.170   1.143   5.831 -1.2727  1.0178  0.8471
 6478SOL     OW30892   4.579   0.152   5.460  0.2228 -0.4222  0.1086
 6478SOL    HW130893   4.618   0.066   5.446 -0.7986 -0.8870  0.1510
 6478SOL    HW230894   4.657   0.205   5.479 -0.2787  0.0209  0.9353
 6479SOL     OW30895   3.918   2.707  17.378 -0.0617 -0.1307  0.1521
 6479SOL    HW130896   3.909   2.789  17.329  0.3920  0.5503  1.2118
 6479SOL    HW230897   3.907   2.638  17.313 -0.1266  0.3736 -0.3728
 6480SOL     OW30898   1.803   4.206  11.156 -0.0922  1.0590 -0.5227
 6480SOL    HW130899   1.897   4.194  11.165 -0.4741 -0.9493  0.7693
 6480SOL    HW230900   1.776   4.205  11.247 -2.3391 -0.0185 -1.2040
 6481SOL     OW30901   4.060   4.487  11.362 -0.3284  0.4611  0.4292
 6481SOL    HW130902   4.053   4.391  11.359 -1.9898  0.6576 -2.0470
 6481SOL    HW230903   3.972   4.521  11.347  0.6611  2.5429 -0.5498
 6482SOL     OW30904   1.508   1.798   8.658  0.1674 -0.4080  0.0196
 6482SOL    HW130905   1.449   1.870   8.635  1.9100  0.6297 -1.1668
 6482SOL    HW230906   1.462   1.724   8.619  0.3452  0.5823 -2.0736
 6483SOL     OW30907   3.497   4.541  14.291  0.1213 -0.1270  0.1548
 6483SOL    HW130908   3.503   4.446  14.288  0.0163 -0.0843 -1.3416
 6483SOL    HW230909   3.485   4.582  14.206 -1.2990  0.4819  0.6457
 6484SOL     OW30910   3.833   1.448   8.869 -0.4446  0.3464  0.3073
 6484SOL    HW130911   3.764   1.382   8.869  1.6162 -1.7881 -2.1125
 6484SOL    HW230912   3.793   1.507   8.805 -1.2368 -0.1343  0.3613
 6485SOL     OW30913   0.677   4.062  15.726  0.2466  0.0628  0.0200
 6485SOL    HW130914   0.740   4.002  15.686  0.9390 -0.3663  1.7378
 6485SOL    HW230915   0.607   4.077  15.663 -0.2266 -0.1878  0.4858
 6486SOL     OW30916   2.156   2.228   3.301 -0.2651 -0.2855 -0.0682
 6486SOL    HW130917   2.183   2.168   3.370 -0.7296  0.0478  0.4030
 6486SOL    HW230918   2.062   2.230   3.322 -0.4612 -1.8901 -0.7778
 6487SOL     OW30919   0.651   1.713   4.039  0.3147  0.2575 -0.3011
 6487SOL    HW130920   0.672   1.662   4.117 -0.5967 -0.2666 -0.4060
 6487SOL    HW230921   0.593   1.769   4.089 -0.2649 -1.4147  0.8789
 6488SOL     OW30922   3.239   1.243   1.977 -0.5587  0.5659  0.5417
 6488SOL    HW130923   3.230   1.171   2.038  0.6852 -1.3122 -1.4866
 6488SOL    HW230924   3.194   1.313   2.025  2.1822  1.3463  1.9307
 6489SOL     OW30925   1.336   3.668  15.990  0.1338 -0.3534 -0.2606
 6489SOL    HW130926   1.424   3.639  16.012 -0.2264 -0.3007  1.2639
 6489SOL    HW230927   1.289   3.591  15.960  0.3138 -0.3035 -0.6656
 6490SOL     OW30928   0.810   0.153   8.221 -0.8044  0.0858 -0.1786
 6490SOL    HW130929   0.894   0.183   8.257 -1.4428  1.8935 -0.1569
 6490SOL    HW230930   0.793   0.077   8.276  0.7447  1.1807  1.8300
 6491SOL     OW30931   0.292   0.326   1.538 -0.9342 -0.1367 -0.2019
 6491SOL    HW130932   0.238   0.310   1.461  0.6148  1.6946 -1.6954
 6491SOL    HW230933   0.364   0.367   1.489 -0.8049  0.4218  0.4535
 6492SOL     OW30934   3.245   2.224   4.408  0.2755 -0.4149  0.2275
 6492SOL    HW130935   3.299   2.201   4.333  0.8731 -0.5655  0.6998
 6492SOL    HW230936   3.158   2.213   4.370 -0.4727 -0.7263  1.9969
 6493SOL     OW30937   1.411   3.849   0.067 -0.0504  0.2712  0.3755
 6493SOL    HW130938   1.337   3.809   0.020 -0.2193 -0.6252  1.4194
 6493SOL    HW230939   1.374   3.856   0.155  1.8662 -1.2291  1.2959
 6494SOL     OW30940   1.758   3.724   7.170 -0.2403 -0.4744 -0.1697
 6494SOL    HW130941   1.727   3.646   7.123  0.4941 -0.5018 -0.6083
 6494SOL    HW230942   1.778   3.684   7.254  0.2132 -0.1583 -0.1257
 6495SOL     OW30943   0.096   4.503   6.457 -0.0749 -0.6277 -0.7297
 6495SOL    HW130944   0.045   4.485   6.537 -1.4101  0.8275 -1.2428
 6495SOL    HW230945   0.152   4.426   6.458  3.0876  1.6631  3.7311
 6496SOL     OW30946   1.168   4.020   4.612 -0.1629 -0.4951  0.0327
 6496SOL    HW130947   1.238   3.955   4.621  0.7246  0.4405 -0.0351
 6496SOL    HW230948   1.228   4.095   4.607  0.7572 -1.3075 -1.2465
 6497SOL     OW30949   3.266   0.715  14.897 -0.0165 -0.4113  0.2422
 6497SOL    HW130950   3.203   0.787  14.893 -0.0641 -0.4003  1.2432
 6497SOL    HW230951   3.347   0.765  14.888  0.0199 -0.5007  0.0867
 6498SOL     OW30952   0.707   2.231   5.978  0.5279 -0.0546  0.6160
 6498SOL    HW130953   0.683   2.253   6.068  1.0148  0.5442  0.5971
 6498SOL    HW230954   0.652   2.286   5.923  1.4505  0.3469  0.0956
 6499SOL     OW30955   2.833   1.077   4.778  0.0588 -0.5624 -0.2384
 6499SOL    HW130956   2.789   1.033   4.705  2.5106 -1.0627 -1.4025
 6499SOL    HW230957   2.781   1.157   4.791  0.0631 -0.8483  1.6097
 6500SOL     OW30958   0.543   2.040   4.894 -0.0417  0.0099 -0.7725
 6500SOL    HW130959   0.577   2.092   4.821 -0.0761  2.0640  0.6615
 6500SOL    HW230960   0.567   2.100   4.965 -2.0364  1.5596 -1.3797
 6501SOL     OW30961   4.178   3.056  15.351  0.1321 -0.2585 -0.9527
 6501SOL    HW130962   4.221   3.141  15.349  0.1356 -0.2527 -0.5317
 6501SOL    HW230963   4.193   3.033  15.442 -0.0326 -0.0240 -0.8667
 6502SOL     OW30964   3.757   1.231  11.233 -0.0025  0.6403  0.1320
 6502SOL    HW130965   3.685   1.252  11.175  0.5282  0.9218 -0.4256
 6502SOL    HW230966   3.827   1.233  11.168 -0.9776 -0.4741 -0.9568
 6503SOL     OW30967   2.465   2.570   0.406 -0.2262  0.0169 -0.5803
 6503SOL    HW130968   2.426   2.603   0.487  3.7652  1.4234  0.7818
 6503SOL    HW230969   2.511   2.646   0.371 -1.0334  0.5528 -0.4602
 6504SOL     OW30970   2.823   2.522   4.242  0.7931 -0.2732 -0.3704
 6504SOL    HW130971   2.771   2.598   4.214 -1.2362 -0.3453  3.1608
 6504SOL    HW230972   2.856   2.562   4.323  1.1702  0.0494 -0.6842
 6505SOL     OW30973   1.326   1.447   8.333  0.1439  0.3964 -0.0193
 6505SOL    HW130974   1.316   1.371   8.276 -0.5666 -0.7573  1.6625
 6505SOL    HW230975   1.255   1.417   8.389 -0.9115  2.7074 -0.1144
 6506SOL     OW30976   0.551   2.108   4.056 -0.2062 -0.0293 -0.1588
 6506SOL    HW130977   0.599   2.052   3.995 -1.6425 -1.0786 -0.3365
 6506SOL    HW230978   0.519   2.176   3.997 -2.4737 -0.1925  0.8626
 6507SOL     OW30979   4.614   2.381  11.956 -0.1068 -0.4843  0.1389
 6507SOL    HW130980   4.534   2.364  11.905 -0.0205  1.3506 -0.6197
 6507SOL    HW230981   4.579   2.424  12.034 -2.1398 -1.2213 -0.3608
 6508SOL     OW30982   2.417   2.348   3.273 -0.6608 -0.5154  0.1545
 6508SOL    HW130983   2.329   2.312   3.262 -0.5066 -0.3563 -1.5198
 6508SOL    HW230984   2.422   2.412   3.203 -1.8046 -0.6130 -0.0126
 6509SOL     OW30985   2.514   2.529   9.313 -0.4953  0.0742 -0.1281
 6509SOL    HW130986   2.552   2.467   9.250 -1.1222 -0.0438 -0.3928
 6509SOL    HW230987   2.522   2.467   9.385 -0.0891  1.5580  1.0826
 6510SOL     OW30988   4.361   1.729   3.766 -0.2243  0.5101 -0.1187
 6510SOL    HW130989   4.361   1.821   3.793 -0.6303 -0.4721  3.2322
 6510SOL    HW230990   4.324   1.684   3.841  0.9336 -1.0443 -0.4735
 6511SOL     OW30991   4.526   0.721   2.238  0.3588 -0.1564 -0.0044
 6511SOL    HW130992   4.568   0.650   2.189 -2.8195 -1.6473 -0.5494
 6511SOL    HW230993   4.560   0.799   2.194 -0.8350 -0.0252 -0.6779
 6512SOL     OW30994   3.876   0.126   9.369 -0.1128 -0.0792 -0.7142
 6512SOL    HW130995   3.877   0.080   9.453  2.6618  0.0408 -0.6932
 6512SOL    HW230996   3.898   0.214   9.399  2.3615 -0.1881 -2.2154
 6513SOL     OW30997   4.618   4.307   6.314  0.4182 -0.4745  0.2345
 6513SOL    HW130998   4.526   4.330   6.302 -0.0138 -1.8705  0.8423
 6513SOL    HW230999   4.650   4.381   6.365  1.6842 -0.3642 -0.7344
 6514SOL     OW31000   3.780   3.849   7.045  0.3149 -0.0091 -0.0473
 6514SOL    HW131001   3.778   3.763   7.003 -1.5746 -0.9153  1.8495
 6514SOL    HW231002   3.688   3.849   7.072  0.2832 -2.0134 -0.1582
 6515SOL     OW31003   4.007   4.422   7.352  0.7088  0.4159 -0.4120
 6515SOL    HW131004   4.073   4.357   7.373 -1.2611 -1.3296  0.3573
 6515SOL    HW231005   3.924   4.380   7.376 -0.4141  3.4959  1.1940
 6516SOL     OW31006   3.250   1.060   4.223 -0.3638 -0.3058 -0.0333
 6516SOL    HW131007   3.313   1.031   4.158 -0.1481 -2.3844  1.1070
 6516SOL    HW231008   3.202   0.982   4.251  1.8162 -1.8470 -0.6236
 6517SOL     OW31009   0.704   0.962   8.125  0.5621  0.1818  0.2453
 6517SOL    HW131010   0.641   0.932   8.060  2.3070 -1.3724 -0.7358
 6517SOL    HW231011   0.646   1.010   8.183  1.3057  1.1367  0.2076
 6518SOL     OW31012   4.418   0.368   8.540 -0.1110  0.4440  0.4815
 6518SOL    HW131013   4.415   0.464   8.545 -1.9384  0.4431 -0.6993
 6518SOL    HW231014   4.439   0.346   8.631  0.1173 -1.6664 -0.0905
 6519SOL     OW31015   4.197   0.680   8.210 -0.1761  0.3134 -0.2270
 6519SOL    HW131016   4.194   0.664   8.304  1.1159  0.9598 -0.0714
 6519SOL    HW231017   4.237   0.767   8.202  1.4438 -0.5432 -1.3710
 6520SOL     OW31018   2.363   3.980   0.809  0.4238 -0.3271 -0.1844
 6520SOL    HW131019   2.276   3.942   0.799  0.7229 -1.3366  0.9984
 6520SOL    HW231020   2.347   4.072   0.789  0.2701 -0.3383 -0.1146
 6521SOL     OW31021   4.229   2.333  10.356 -0.1329  0.6411  0.7436
 6521SOL    HW131022   4.191   2.395  10.418 -2.3866 -0.8784  0.8836
 6521SOL    HW231023   4.198   2.250  10.393 -0.1162  0.3379  0.0724
 6522SOL     OW31024   2.962   1.066   6.309 -0.0864  0.3562 -0.2716
 6522SOL    HW131025   3.007   1.118   6.243 -1.2130  1.6407 -0.0317
 6522SOL    HW231026   2.919   1.133   6.362 -1.2576 -0.0063 -0.7552
 6523SOL     OW31027   1.235   3.079  14.357  0.1195  0.1278 -0.5131
 6523SOL    HW131028   1.317   3.057  14.312 -0.2272 -1.3242 -0.3987
 6523SOL    HW231029   1.194   3.138  14.293  0.3167 -1.6058 -2.2445
 6524SOL     OW31030   3.560   0.420   8.783  0.1213  0.2418 -0.1000
 6524SOL    HW131031   3.644   0.409   8.827  0.8503  1.4375 -1.1939
 6524SOL    HW231032   3.559   0.330   8.752  0.7979  0.2181 -0.0536
 6525SOL     OW31033   0.708   3.413   8.812 -0.4070  0.1973 -0.1641
 6525SOL    HW131034   0.693   3.356   8.887 -1.7323 -1.9426 -2.0611
 6525SOL    HW231035   0.788   3.460   8.834 -0.4106  0.3351 -0.4364
 6526SOL     OW31036   2.543   0.703   4.925 -0.2787  0.5292  0.5653
 6526SOL    HW131037   2.631   0.673   4.899 -0.6586  0.9740 -1.2637
 6526SOL    HW231038   2.513   0.735   4.840  0.1522 -0.5532 -0.0008
 6527SOL     OW31039   0.714   1.058   1.352  0.0807 -0.3987 -0.0779
 6527SOL    HW131040   0.766   1.021   1.281 -0.4140 -1.4818  0.1266
 6527SOL    HW231041   0.635   1.004   1.354 -1.5384  1.8697 -1.7471
 6528SOL     OW31042   3.746   1.580  12.543  0.4409 -0.3120 -0.8100
 6528SOL    HW131043   3.787   1.532  12.471 -2.3079 -0.1001 -2.5480
 6528SOL    HW231044   3.824   1.632  12.563  0.6927 -0.9220 -0.2310
 6529SOL     OW31045   2.703   1.060  11.449 -0.4267 -0.3341 -0.2452
 6529SOL    HW131046   2.625   1.084  11.499  0.3025 -1.1827  1.3363
 6529SOL    HW231047   2.725   0.979  11.496  0.0702  0.0867  0.2524
 6530SOL     OW31048   3.431   2.080   3.326  0.6799  0.3704  0.7787
 6530SOL    HW131049   3.387   2.028   3.259  2.0056  0.4562 -0.1582
 6530SOL    HW231050   3.358   2.131   3.363  0.7167  1.6879 -0.9578
 6531SOL     OW31051   0.589   4.355  11.678 -0.7299  0.2743  0.1402
 6531SOL    HW131052   0.588   4.289  11.608 -0.6345 -0.4836  0.8462
 6531SOL    HW231053   0.681   4.383  11.673 -0.4537 -0.3770  1.4749
 6532SOL     OW31054   0.095   2.675  13.245  0.5575 -0.2885 -0.2813
 6532SOL    HW131055   0.114   2.601  13.304  0.9743  0.3579  0.3994
 6532SOL    HW231056   0.100   2.755  13.298  2.7769 -1.2977  1.0289
 6533SOL     OW31057   2.662   2.617   5.679 -0.3168 -0.2704 -0.0150
 6533SOL    HW131058   2.644   2.680   5.750  1.8957 -0.0793  0.3674
 6533SOL    HW231059   2.690   2.672   5.606  0.7883 -1.2009 -0.2969
 6534SOL     OW31060   2.342   0.706   8.119 -0.5892  0.2525  0.6814
 6534SOL    HW131061   2.431   0.735   8.137 -0.4026 -0.3687  0.7763
 6534SOL    HW231062   2.344   0.717   8.024 -1.3783 -0.4578  0.5752
 6535SOL     OW31063   2.827   4.622   2.335 -0.3480 -0.1115 -0.2360
 6535SOL    HW131064   2.921   4.604   2.333 -0.6700 -1.8381  0.1045
 6535SOL    HW231065   2.785   4.544   2.298 -1.6206  0.0016  0.9659
 6536SOL     OW31066   2.245   2.529   6.749 -0.2766  0.2149 -0.0158
 6536SOL    HW131067   2.194   2.586   6.692 -0.4241  0.4867  0.3902
 6536SOL    HW231068   2.212   2.556   6.834  2.8241  0.7926  1.0098
 6537SOL     OW31069   1.990   0.887   9.952  0.3092  0.0954 -0.0949
 6537SOL    HW131070   2.068   0.904  10.005  0.1521 -1.5287  0.6508
 6537SOL    HW231071   2.038   0.862   9.873  1.4068  0.1947  0.5347
 6538SOL     OW31072   1.970   0.343   2.037  0.2607 -0.4776 -0.4374
 6538SOL    HW131073   2.001   0.432   2.019 -0.8187  0.4465  2.2080
 6538SOL    HW231074   1.879   0.354   2.066  0.0212  0.0380 -1.3670
 6539SOL     OW31075   3.449   2.739   5.624 -0.4452  0.0718 -0.0048
 6539SOL    HW131076   3.402   2.820   5.603 -1.2614 -0.9530 -2.0834
 6539SOL    HW231077   3.435   2.701   5.538 -1.1287  1.0581 -0.3314
 6540SOL     OW31078   3.858   4.356   3.850  0.2762  0.6110 -0.2425
 6540SOL    HW131079   3.839   4.386   3.939  0.3127 -1.2826  0.4173
 6540SOL    HW231080   3.782   4.372   3.795 -2.4593 -3.2018  2.3672
 6541SOL     OW31081   1.545   3.874   5.042 -0.1975 -0.2150  0.0535
 6541SOL    HW131082   1.544   3.790   4.995 -0.0067 -0.5526  0.6511
 6541SOL    HW231083   1.552   3.842   5.132 -0.8142 -1.7068 -0.4365
 6542SOL     OW31084   1.873   4.376   8.567 -0.3923 -0.0718 -0.1930
 6542SOL    HW131085   1.851   4.315   8.638  1.1561  0.3687  0.6605
 6542SOL    HW231086   1.918   4.445   8.615 -0.3515 -1.1665  1.3384
 6543SOL     OW31087   1.204   0.820   3.198  0.0053 -0.0672  0.2331
 6543SOL    HW131088   1.277   0.823   3.136  1.6412  4.0946  2.3791
 6543SOL    HW231089   1.181   0.727   3.199 -1.1017  0.1899 -1.9512
 6544SOL     OW31090   3.739   4.114   6.678  1.1059 -0.1965  0.0455
 6544SOL    HW131091   3.785   4.094   6.759  1.8019  0.4365 -0.1875
 6544SOL    HW231092   3.750   4.209   6.670 -0.2911  0.0276  0.9758
 6545SOL     OW31093   0.552   1.904   4.225 -0.5013 -0.0928  0.2673
 6545SOL    HW131094   0.600   1.950   4.294 -2.0858  1.0912  0.5752
 6545SOL    HW231095   0.526   1.982   4.176 -0.3533 -0.8702 -1.0444
 6546SOL     OW31096   0.141   3.279  16.356 -0.0119 -0.0958 -0.5700
 6546SOL    HW131097   0.168   3.272  16.448 -2.7057 -1.6337  0.0844
 6546SOL    HW231098   0.142   3.374  16.353 -0.8977 -0.0491  0.9078
 6547SOL     OW31099   2.941   4.226  12.412  0.0092  0.2662  0.0139
 6547SOL    HW131100   2.858   4.226  12.365 -0.6665 -1.1710  1.2098
 6547SOL    HW231101   2.920   4.263  12.498 -3.3920  0.2537 -0.8255
 6548SOL     OW31102   0.021   1.148  11.901  0.0871 -0.1241 -0.2542
 6548SOL    HW131103   0.065   1.066  11.924  1.3322  0.4783 -0.4669
 6548SOL    HW231104   0.082   1.182  11.835 -1.3519  1.2376 -0.8850
 6549SOL     OW31105   4.496   0.995  10.550 -0.1516 -0.0239  0.3394
 6549SOL    HW131106   4.552   1.053  10.498  0.8917 -1.0025  0.3500
 6549SOL    HW231107   4.503   0.914  10.500  3.2943  0.8583 -0.6108
 6550SOL     OW31108   4.304   3.469   5.418  0.0504 -0.1974  0.0155
 6550SOL    HW131109   4.384   3.420   5.400  0.5506  0.3117  0.8437
 6550SOL    HW231110   4.310   3.539   5.352 -2.4642  1.1482  1.2423
 6551SOL     OW31111   0.522   4.578  10.677 -0.0648 -0.1874 -0.0297
 6551SOL    HW131112   0.548   4.640  10.609 -3.7041  1.2840 -0.0687
 6551SOL    HW231113   0.454   4.523  10.639  0.4204 -0.8984  0.1151
 6552SOL     OW31114   0.002   2.771   3.023 -0.6719  0.3552  0.7207
 6552SOL    HW131115   0.086   2.725   3.026 -0.4724  0.6684  0.0868
 6552SOL    HW231116   0.028   2.855   3.061  2.7773 -1.0119  1.3454
 6553SOL     OW31117   4.285   0.197   7.062 -0.3448 -0.2276 -0.3506
 6553SOL    HW131118   4.372   0.158   7.070  0.1442  1.2014  1.2646
 6553SOL    HW231119   4.253   0.192   7.152  1.0583 -1.8741  0.0634
 6554SOL     OW31120   4.292   0.813   4.180  0.2379 -0.0470  0.2118
 6554SOL    HW131121   4.367   0.867   4.154  0.5757 -0.5223  0.2064
 6554SOL    HW231122   4.226   0.836   4.114 -0.1854  2.3103  1.4718
 6555SOL     OW31123   2.882   2.836   3.988  0.4550  0.2915 -0.0259
 6555SOL    HW131124   2.872   2.899   4.059 -0.4692 -1.7113  1.6363
 6555SOL    HW231125   2.975   2.814   3.994  0.5446  1.3397  2.2008
 6556SOL     OW31126   0.425   2.052   3.749 -0.0540 -0.2786  0.0377
 6556SOL    HW131127   0.385   1.967   3.768 -1.5680  0.5217  0.4082
 6556SOL    HW231128   0.354   2.111   3.776 -0.3374 -0.4913 -0.2401
 6557SOL     OW31129   0.707   0.633   5.265 -0.1605 -0.1503  0.4282
 6557SOL    HW131130   0.736   0.720   5.290  0.4368  0.0198 -0.8413
 6557SOL    HW231131   0.779   0.600   5.211  0.1964  1.3786 -0.0170
 6558SOL     OW31132   4.405   2.960  12.599 -0.1201 -0.0668  0.3306
 6558SOL    HW131133   4.481   2.931  12.549 -0.3124  2.2212 -1.3011
 6558SOL    HW231134   4.421   2.923  12.686  1.8492  1.1664  0.4877
 6559SOL     OW31135   1.164   2.194   7.994 -0.1291 -0.2348  0.0843
 6559SOL    HW131136   1.246   2.238   8.017 -2.2234  1.4458  4.4645
 6559SOL    HW231137   1.189   2.118   8.047  0.2266  0.5608  1.0678
 6560SOL     OW31138   3.849   2.840   7.915 -0.2863  0.1346 -0.3699
 6560SOL    HW131139   3.761   2.847   7.952  0.1689  0.9130  0.5777
 6560SOL    HW231140   3.841   2.916   7.857 -1.1002  0.2680 -0.0850
 6561SOL     OW31141   4.612   3.604  16.513  0.5175  0.2276 -0.3013
 6561SOL    HW131142   4.553   3.598  16.588  1.0961 -0.6098  0.0853
 6561SOL    HW231143   4.585   3.529  16.460  0.6596 -0.9115  1.2322
 6562SOL     OW31144   2.230   2.144   4.967  0.2278 -0.2109  0.3348
 6562SOL    HW131145   2.279   2.201   5.026 -0.2001 -0.0350  0.5205
 6562SOL    HW231146   2.294   2.074   4.950 -0.7458 -1.3161  1.1952
 6563SOL     OW31147   2.839   0.755   2.681  0.0952 -0.1486 -0.1083
 6563SOL    HW131148   2.906   0.823   2.694 -0.4077  0.2997  0.1291
 6563SOL    HW231149   2.892   0.685   2.643 -1.4122 -0.7887 -1.0211
 6564SOL     OW31150   3.133   2.360  14.509 -0.0703 -0.1849 -0.4062
 6564SOL    HW131151   3.125   2.446  14.468 -1.9314 -0.2957 -0.3154
 6564SOL    HW231152   3.047   2.359  14.552  0.1826 -1.2862  0.0673
 6565SOL     OW31153   2.449   0.151  12.253 -0.2717 -0.7049 -0.2818
 6565SOL    HW131154   2.445   0.216  12.183  2.6555 -0.7436 -0.5071
 6565SOL    HW231155   2.542   0.142  12.274 -0.3593  1.8391  1.2329
 6566SOL     OW31156   4.463   2.425   9.429  0.0469 -0.5245 -0.6852
 6566SOL    HW131157   4.439   2.352   9.484  0.9770  0.6883  1.3403
 6566SOL    HW231158   4.409   2.415   9.350 -2.6621  2.2289  0.7964
 6567SOL     OW31159   0.781   2.205   3.639  0.3168 -0.0131  0.1513
 6567SOL    HW131160   0.700   2.167   3.604  1.4628  0.2536 -2.8190
 6567SOL    HW231161   0.835   2.150   3.583  0.9149  0.8331 -0.1131
 6568SOL     OW31162   0.217   1.211   5.342  0.1660  0.1475  0.3926
 6568SOL    HW131163   0.243   1.153   5.413 -1.0886 -1.6332 -0.5897
 6568SOL    HW231164   0.131   1.246   5.364  0.7512  1.8278  0.0257
 6569SOL     OW31165   2.393   4.691   8.137 -0.2345 -0.1772 -0.4198
 6569SOL    HW131166   2.395   4.645   8.221  0.8358  0.0942 -0.2864
 6569SOL    HW231167   2.405   4.623   8.070 -2.2917 -2.1251  1.1974
 6570SOL     OW31168   0.825   3.871   0.184 -0.5071  0.0116 -0.0812
 6570SOL    HW131169   0.849   3.885   0.093  1.2953 -0.9019  0.2404
 6570SOL    HW231170   0.912   3.862   0.222 -0.3674  1.7401  0.0076
 6571SOL     OW31171   0.918   4.446   6.400  0.1244 -0.0692 -0.5166
 6571SOL    HW131172   0.967   4.527   6.407 -1.6341  0.8606  1.1824
 6571SOL    HW231173   0.955   4.414   6.318  1.6154  1.0075 -0.2626
 6572SOL     OW31174   0.098   0.995  17.696 -0.0587 -0.9664 -0.3323
 6572SOL    HW131175   0.029   1.056  17.668  1.1194 -0.1543 -1.4703
 6572SOL    HW231176   0.178   1.048  17.689 -0.8535  0.4188  0.9645
 6573SOL     OW31177   3.159   4.672   1.808  0.2788  0.4084  0.2272
 6573SOL    HW131178   3.152   0.041   1.801  3.8017  0.7609  1.6902
 6573SOL    HW231179   3.245   4.654   1.846  0.1618 -3.0755 -1.1220
 6574SOL     OW31180   0.256   1.371  15.277  0.6030 -0.4127  0.2847
 6574SOL    HW131181   0.255   1.276  15.279  0.7460 -0.4214 -0.0005
 6574SOL    HW231182   0.347   1.391  15.301  0.1663  0.8407  0.9265
 6575SOL     OW31183   3.593   2.912   5.266 -0.3748  0.0007  0.3355
 6575SOL    HW131184   3.661   2.883   5.326 -1.3507 -1.2720  0.8251
 6575SOL    HW231185   3.566   2.999   5.296 -0.2089 -0.0090  0.5103
 6576SOL     OW31186   1.134   1.061  15.831 -0.5045 -0.0638 -0.2727
 6576SOL    HW131187   1.221   1.063  15.872  0.1394  2.1774 -1.7095
 6576SOL    HW231188   1.137   0.978  15.784 -1.6975 -0.5139  0.4641
 6577SOL     OW31189   2.628   3.346   8.887  0.0092  0.3814 -0.5897
 6577SOL    HW131190   2.612   3.402   8.963 -0.8891  0.1205 -0.5949
 6577SOL    HW231191   2.673   3.400   8.822 -0.4195  0.5223 -0.7637
 6578SOL     OW31192   3.994   1.632  12.241  0.5594  0.0929 -0.0969
 6578SOL    HW131193   4.062   1.695  12.215  2.1057 -2.0228 -1.1194
 6578SOL    HW231194   3.980   1.583  12.161 -1.8417  1.4397 -0.4964
 6579SOL     OW31195   4.434   3.115   7.223 -0.3360  0.0672 -0.5278
 6579SOL    HW131196   4.522   3.118   7.262 -0.2162  0.2691 -0.8174
 6579SOL    HW231197   4.395   3.190   7.268  2.0687  1.5353 -0.8889
 6580SOL     OW31198   4.691   2.072   3.370  0.0316 -0.1863  0.5002
 6580SOL    HW131199   0.038   2.012   3.380 -1.1495 -1.0532  3.8583
 6580SOL    HW231200   4.678   2.092   3.462  1.1296 -0.2782  0.6724
 6581SOL     OW31201   4.416   3.388   3.814  0.4314  0.0081 -0.3764
 6581SOL    HW131202   4.325   3.391   3.785  1.0825  0.3500 -2.3519
 6581SOL    HW231203   4.413   3.429   3.901 -0.8346 -1.9429  0.5127
 6582SOL     OW31204   1.703   4.041   8.046 -0.3230  0.1751  0.4042
 6582SOL    HW131205   1.731   4.046   7.954  0.4650  1.7582  0.7388
 6582SOL    HW231206   1.686   3.947   8.054  1.5313 -0.0282  1.6503
 6583SOL     OW31207   2.989   3.913   4.794 -0.1677  0.2733 -0.0021
 6583SOL    HW131208   2.920   3.867   4.842  0.3060  0.6706  1.0661
 6583SOL    HW231209   3.004   3.849   4.725 -0.3476 -0.1283  0.3332
 6584SOL     OW31210   1.447   1.704   3.635 -0.6035  0.0387 -0.5630
 6584SOL    HW131211   1.416   1.625   3.589  2.0347 -1.5082  0.3158
 6584SOL    HW231212   1.482   1.753   3.561 -0.3463 -1.0706 -1.1861
 6585SOL     OW31213   4.547   4.312  17.042  0.2545 -0.1431  0.0719
 6585SOL    HW131214   4.625   4.267  17.073 -0.9422 -2.3555 -0.1438
 6585SOL    HW231215   4.540   4.380  17.109  1.6797  0.4633 -0.3987
 6586SOL     OW31216   3.829   2.241   7.741  0.0936  0.1501  0.1953
 6586SOL    HW131217   3.847   2.186   7.817  0.6201 -0.5093 -0.4102
 6586SOL    HW231218   3.914   2.283   7.727  1.2585 -1.9500  1.0382
 6587SOL     OW31219   2.381   0.167   1.787  1.0827  0.8295  0.8195
 6587SOL    HW131220   2.305   0.143   1.734  0.7049  1.8407  0.9126
 6587SOL    HW231221   2.344   0.228   1.851  1.0645  0.7008  0.9320
 6588SOL     OW31222   2.050   0.819  16.693  0.3739  0.3341  0.3767
 6588SOL    HW131223   1.975   0.762  16.711  0.6545 -0.6792 -1.6251
 6588SOL    HW231224   2.078   0.783  16.609 -0.9670  0.4626 -0.1157
 6589SOL     OW31225   2.825   1.462   2.839 -0.5321  0.5904  0.0655
 6589SOL    HW131226   2.791   1.551   2.849 -1.0749  0.2362  1.4398
 6589SOL    HW231227   2.885   1.445   2.912 -0.2534 -2.0564 -0.7858
 6590SOL     OW31228   4.441   4.407   4.214 -0.1014  0.0507  0.3650
 6590SOL    HW131229   4.483   4.388   4.130 -2.1160 -3.4110  0.1573
 6590SOL    HW231230   4.409   4.496   4.198 -0.3248 -0.3891 -1.7226
 6591SOL     OW31231   4.414   1.402   5.005  0.3012 -0.1065  0.0817
 6591SOL    HW131232   4.463   1.445   4.935  0.9349  0.5584  0.9258
 6591SOL    HW231233   4.410   1.311   4.975  0.5073  0.4817 -1.7509
 6592SOL     OW31234   3.348   3.224   9.633 -0.1008  0.2754 -0.1669
 6592SOL    HW131235   3.257   3.193   9.639  0.4422 -1.0632  1.2940
 6592SOL    HW231236   3.323   3.304   9.588  1.3130  0.7551 -0.0708
 6593SOL     OW31237   3.595   4.540   7.754 -0.2717  0.3149 -0.2219
 6593SOL    HW131238   3.508   4.554   7.715 -0.0186  0.9052 -0.5731
 6593SOL    HW231239   3.615   4.461   7.704 -0.9284 -0.2565  0.4149
 6594SOL     OW31240   4.090   0.779   3.772 -0.0060  0.7001  0.9712
 6594SOL    HW131241   4.114   0.687   3.762  0.6904  0.9274  0.5768
 6594SOL    HW231242   4.174   0.825   3.783  0.4222  0.0398  0.4426
 6595SOL     OW31243   3.239   1.586   7.446  0.1461  0.2748  0.0932
 6595SOL    HW131244   3.310   1.523   7.433  0.3692  0.5192  0.1375
 6595SOL    HW231245   3.287   1.656   7.490  0.9399  0.4845 -1.0999
 6596SOL     OW31246   3.574   1.269   8.473 -0.1186 -0.4309 -0.2244
 6596SOL    HW131247   3.519   1.240   8.546  0.7528  2.0295  1.3837
 6596SOL    HW231248   3.582   1.190   8.418  2.3808 -0.2590 -0.0963
 6597SOL     OW31249   2.264   2.762   2.572  0.2402 -0.5015 -0.8324
 6597SOL    HW131250   2.271   2.818   2.495 -0.8925 -0.6598 -1.0556
 6597SOL    HW231251   2.193   2.702   2.547  1.8056 -3.2527  1.2945
 6598SOL     OW31252   0.938   3.169   8.155  0.3525 -0.0179 -0.0552
 6598SOL    HW131253   0.896   3.242   8.202 -0.6943 -1.4169  1.1790
 6598SOL    HW231254   0.864   3.122   8.116 -1.4985  2.7286  0.1147
 6599SOL     OW31255   2.742   1.649   6.730  0.1787 -0.3346 -0.5429
 6599SOL    HW131256   2.777   1.587   6.666  0.4012  0.1873 -0.9282
 6599SOL    HW231257   2.670   1.691   6.683 -2.8931 -1.8679  2.8167
 6600SOL     OW31258   0.658   1.796  13.412 -0.1366  0.0208 -0.1296
 6600SOL    HW131259   0.604   1.757  13.481 -0.6543 -0.2219 -0.6703
 6600SOL    HW231260   0.658   1.730  13.342 -0.1000  0.4453 -0.5291
 6601SOL     OW31261   0.053   0.586   3.073  0.3009 -0.2990 -0.9627
 6601SOL    HW131262   0.121   0.612   3.011 -0.2465  0.1513 -1.3709
 6601SOL    HW231263   0.075   0.494   3.085  0.6165  0.0259  0.9931
 6602SOL     OW31264   0.518   0.726   3.261 -0.7489  0.0046  0.3615
 6602SOL    HW131265   0.451   0.785   3.224  0.6318 -0.9880 -3.6649
 6602SOL    HW231266   0.503   0.647   3.210  0.4428  0.4637 -0.7062
 6603SOL     OW31267   3.101   0.039   9.917 -0.0214 -0.2920  0.1904
 6603SOL    HW131268   3.150   0.103   9.866 -1.2040  0.6252  0.1913
 6603SOL    HW231269   3.169   4.706   9.946 -0.3116 -0.1916  1.0970
 6604SOL     OW31270   4.093   2.324   0.292  0.5722 -0.6198  0.1802
 6604SOL    HW131271   4.031   2.294   0.358  0.0358 -1.1350 -0.5625
 6604SOL    HW231272   4.122   2.407   0.331 -1.2745 -0.3790  1.0279
 6605SOL     OW31273   3.879   1.973   5.400  0.1142  0.0028 -0.3684
 6605SOL    HW131274   3.884   1.968   5.496  0.6876 -0.6225 -0.4269
 6605SOL    HW231275   3.959   2.021   5.381  1.1079 -0.6259  2.1695
 6606SOL     OW31276   0.599   0.984   2.746 -0.2351  0.0453  0.3976
 6606SOL    HW131277   0.526   0.999   2.686  0.3950  0.4221 -0.2656
 6606SOL    HW231278   0.643   1.069   2.748 -0.2259  0.0481  0.1114
 6607SOL     OW31279   4.646   1.101   8.139  0.1089 -0.0426  0.1702
 6607SOL    HW131280   0.003   1.142   8.162 -0.3322  1.8739 -1.5896
 6607SOL    HW231281   4.588   1.133   8.209 -1.5729 -0.6444 -0.9438
 6608SOL     OW31282   2.897   3.899   8.166 -0.5131  0.0473 -0.2613
 6608SOL    HW131283   2.967   3.886   8.229 -0.8027  2.4366  0.5424
 6608SOL    HW231284   2.904   3.816   8.119  2.9922 -0.7856  1.7213
 6609SOL     OW31285   3.797   0.339  12.798  0.2498 -0.4393  0.2434
 6609SOL    HW131286   3.860   0.270  12.777 -1.2812 -2.0749  1.0355
 6609SOL    HW231287   3.807   0.408  12.733  1.5715 -0.0269  0.8953
 6610SOL     OW31288   4.175   2.708  15.738 -0.3524 -0.3416 -0.6145
 6610SOL    HW131289   4.086   2.687  15.709 -1.1933  0.3852  1.4469
 6610SOL    HW231290   4.200   2.625  15.778 -1.2040  0.1846  0.9973
 6611SOL     OW31291   0.967   0.897   5.848 -0.0644  0.1566 -0.4844
 6611SOL    HW131292   1.019   0.966   5.807  0.7530  1.1200  2.1592
 6611SOL    HW231293   1.033   0.847   5.896 -1.7156  1.3705  3.1051
 6612SOL     OW31294   4.109   4.422   4.147  0.0621 -0.0320 -0.0496
 6612SOL    HW131295   4.164   4.347   4.124  1.3707  1.2287 -1.0711
 6612SOL    HW231296   4.148   4.482   4.083  0.5389 -2.3557 -1.9468
 6613SOL     OW31297   0.725   0.618   2.323 -0.8627  0.5944 -0.3849
 6613SOL    HW131298   0.757   0.685   2.384  0.4413 -0.0206 -0.3978
 6613SOL    HW231299   0.798   0.557   2.326 -0.6950  0.8361  0.5875
 6614SOL     OW31300   1.246   2.650   6.906 -0.3864  0.3972 -0.4263
 6614SOL    HW131301   1.200   2.660   6.990  1.6786 -1.3189  0.9069
 6614SOL    HW231302   1.331   2.689   6.927 -0.2132 -0.9065  1.3359
 6615SOL     OW31303   0.957   1.511   0.173  0.1238  0.1536 -0.3125
 6615SOL    HW131304   1.049   1.513   0.201 -0.1140 -2.5957  0.7426
 6615SOL    HW231305   0.920   1.537   0.257 -0.5762  0.9931 -0.8833
 6616SOL     OW31306   0.691   4.708  15.217  0.0302 -0.3947 -0.5340
 6616SOL    HW131307   0.750   4.640  15.185 -0.3271 -0.1041 -1.7784
 6616SOL    HW231308   0.624   4.690  15.151 -0.4895 -2.0163  0.4320
 6617SOL     OW31309   0.107   1.441   4.875 -0.4392  0.4041  0.6371
 6617SOL    HW131310   0.073   1.411   4.960 -1.2429  1.2380  0.6122
 6617SOL    HW231311   0.128   1.353   4.844 -0.5495  0.1438  1.3019
 6618SOL     OW31312   4.460   0.367   7.867 -0.1465 -0.3801  0.3674
 6618SOL    HW131313   4.395   0.408   7.810 -0.0866 -0.5942  0.1457
 6618SOL    HW231314   4.543   0.375   7.819 -0.2545  2.0876  0.5837
 6619SOL     OW31315   2.664   2.254   9.988  0.6592  0.6163 -0.1500
 6619SOL    HW131316   2.717   2.201   9.929  0.3777 -0.1369  0.2637
 6619SOL    HW231317   2.729   2.320  10.011  0.1871 -0.1877  3.4902
 6620SOL     OW31318   3.696   0.436   2.190  0.3543  0.0576  0.7832
 6620SOL    HW131319   3.670   0.456   2.100  0.5240  0.2392  0.7729
 6620SOL    HW231320   3.782   0.401   2.167  0.9583  1.2311  1.2334
 6621SOL     OW31321   1.214   3.234   8.716 -0.7475  0.1301  0.3542
 6621SOL    HW131322   1.275   3.306   8.733  0.9830 -1.4025  0.7170
 6621SOL    HW231323   1.162   3.281   8.651 -0.4428 -1.4359 -1.0203
 6622SOL     OW31324   3.494   1.424   0.374 -0.1805 -0.2632  0.0483
 6622SOL    HW131325   3.559   1.494   0.377 -0.9782  0.3863  1.8877
 6622SOL    HW231326   3.482   1.423   0.279 -1.0225 -1.0384  0.1677
 6623SOL     OW31327   0.755   3.159   7.601  0.0128 -0.2910 -0.2902
 6623SOL    HW131328   0.732   3.130   7.513 -0.6562 -0.0923 -0.1750
 6623SOL    HW231329   0.713   3.245   7.605  0.5993  0.0270 -1.0453
 6624SOL     OW31330   4.675   1.181   4.616  0.2947 -0.1890 -0.3042
 6624SOL    HW131331   4.620   1.233   4.558  0.3148 -0.9191 -0.9739
 6624SOL    HW231332   4.605   1.166   4.679 -0.1490  1.8121 -0.3108
 6625SOL     OW31333   1.804   2.223   7.067 -0.5095 -0.3601 -0.0598
 6625SOL    HW131334   1.853   2.257   6.992 -0.5739  2.8403  1.3606
 6625SOL    HW231335   1.713   2.215   7.038 -0.6120  1.2799 -0.1642
 6626SOL     OW31336   1.669   3.216   1.800  0.1878  0.0656  0.4530
 6626SOL    HW131337   1.683   3.164   1.721 -0.8602  0.9853 -0.3309
 6626SOL    HW231338   1.756   3.239   1.831 -2.1073  5.2256  3.1218
 6627SOL     OW31339   3.323   2.989   9.021  0.0582 -0.1583  0.7283
 6627SOL    HW131340   3.267   3.031   9.086  0.2261  2.1508 -0.6413
 6627SOL    HW231341   3.261   2.978   8.949 -1.0155  0.3990  1.5766
 6628SOL     OW31342   1.607   0.585   7.452 -0.3870 -0.0535  0.0021
 6628SOL    HW131343   1.685   0.603   7.399 -0.7381  0.8780 -0.1959
 6628SOL    HW231344   1.623   0.491   7.462 -0.7543 -0.2271 -1.0695
 6629SOL     OW31345   4.112   0.555   2.498  0.0177 -0.1152  0.2990
 6629SOL    HW131346   4.042   0.492   2.517 -0.1164  0.4167  1.5606
 6629SOL    HW231347   4.071   0.628   2.451  1.4745  0.9012  0.6051
 6630SOL     OW31348   2.158   4.233  10.099  0.4203  0.3104  0.1694
 6630SOL    HW131349   2.106   4.311  10.122  0.5394  0.2978  0.4833
 6630SOL    HW231350   2.246   4.271  10.101  0.4823  0.2174 -0.9830
 6631SOL     OW31351   1.697   1.074   2.807 -0.0352 -0.4979  0.3183
 6631SOL    HW131352   1.714   1.141   2.740  0.2651 -0.7409  0.1484
 6631SOL    HW231353   1.764   1.009   2.784  0.4176 -0.4997  1.6531
 6632SOL     OW31354   0.527   4.233  10.164  0.3084 -0.1147  0.4957
 6632SOL    HW131355   0.450   4.185  10.134  1.0932 -0.4265 -1.0376
 6632SOL    HW231356   0.584   4.157  10.178 -1.6889 -1.5554  0.8596
 6633SOL     OW31357   1.022   4.136   3.034 -0.2243  0.1538  0.4162
 6633SOL    HW131358   1.005   4.146   2.940 -0.6979  1.8199  0.6761
 6633SOL    HW231359   0.930   4.142   3.062 -0.9641 -1.2455 -1.7366
 6634SOL     OW31360   4.721   3.611   8.766  0.3018  0.2300 -0.2101
 6634SOL    HW131361   4.718   3.573   8.854 -1.1878  1.6478  0.3536
 6634SOL    HW231362   4.718   3.703   8.792 -0.4421  0.2617 -0.4162
 6635SOL     OW31363   0.699   3.528   4.078 -0.1219 -0.4168  0.6144
 6635SOL    HW131364   0.684   3.517   3.984  0.6958  1.8191  0.2220
 6635SOL    HW231365   0.793   3.525   4.095  0.1637  1.2722 -0.6865
 6636SOL     OW31366   2.899   2.661   8.707 -0.3484  0.1513 -0.0237
 6636SOL    HW131367   2.861   2.685   8.791 -0.5439  0.2453 -0.1402
 6636SOL    HW231368   2.825   2.615   8.668  0.7100 -0.3012 -1.5000
 6637SOL     OW31369   0.859   4.174   2.259 -0.6553  0.2588 -0.4899
 6637SOL    HW131370   0.868   4.244   2.323 -2.7340 -1.3164  1.5052
 6637SOL    HW231371   0.942   4.188   2.213 -0.2092 -1.9472 -0.3355
 6638SOL     OW31372   1.735   2.219  12.013 -0.4362 -0.1987 -0.2254
 6638SOL    HW131373   1.831   2.218  12.010 -0.4715 -4.1442  0.0365
 6638SOL    HW231374   1.719   2.276  12.087 -0.7918  1.1461 -1.3416
 6639SOL     OW31375   1.133   1.032   3.402  0.7480  0.3053  0.9943
 6639SOL    HW131376   1.084   1.033   3.320 -0.3440  2.6223  1.6990
 6639SOL    HW231377   1.216   1.065   3.368  2.1882 -1.6267  2.6498
 6640SOL     OW31378   4.521   3.542   4.055  0.0348 -0.1959 -0.3100
 6640SOL    HW131379   4.435   3.583   4.061  0.6164  1.3213 -2.3042
 6640SOL    HW231380   4.543   3.535   4.148  1.2438  0.0531 -0.5715
 6641SOL     OW31381   4.404   3.681   4.849 -0.3077  0.0352  0.4440
 6641SOL    HW131382   4.499   3.672   4.844 -0.3526  0.6353 -1.4759
 6641SOL    HW231383   4.381   3.639   4.766  0.1325  0.3232  0.1791
 6642SOL     OW31384   0.185   0.126  16.548 -0.5041  0.2500  0.1242
 6642SOL    HW131385   0.166   0.190  16.617 -1.7965  0.0610 -0.0501
 6642SOL    HW231386   0.111   0.144  16.490 -1.6653 -3.1728  0.5899
 6643SOL     OW31387   3.411   2.219  14.131  0.0453 -0.6381 -0.0012
 6643SOL    HW131388   3.355   2.296  14.123 -1.9550 -2.0860 -0.0534
 6643SOL    HW231389   3.398   2.201  14.224  1.2620  0.9866  0.4670
 6644SOL     OW31390   4.661   1.464   5.204  0.0669  0.2196  0.5092
 6644SOL    HW131391   0.003   1.531   5.204  0.1559  0.1300  1.2294
 6644SOL    HW231392   4.581   1.514   5.216 -0.7435 -0.6994 -1.0801
 6645SOL     OW31393   0.302   2.623   5.136 -0.0984  0.6647 -0.2896
 6645SOL    HW131394   0.212   2.639   5.107 -0.6339 -0.8447  0.5873
 6645SOL    HW231395   0.326   2.714   5.155 -1.6089  1.0563 -0.2637
 6646SOL     OW31396   0.917   3.204  14.526 -0.4292 -0.2967 -0.1081
 6646SOL    HW131397   0.984   3.136  14.523  0.2470  0.2727  2.0052
 6646SOL    HW231398   0.969   3.258  14.586  1.7714 -2.0804 -0.4428
 6647SOL     OW31399   3.226   2.601   5.223  0.1824 -0.6228  0.8528
 6647SOL    HW131400   3.304   2.631   5.271  0.2273  2.0995 -0.9591
 6647SOL    HW231401   3.199   2.678   5.174 -0.5275 -1.7081 -0.4546
 6648SOL     OW31402   2.659   1.253   2.848 -0.2424 -0.6473 -0.1718
 6648SOL    HW131403   2.600   1.311   2.896  1.4076  0.5414  0.4295
 6648SOL    HW231404   2.723   1.322   2.832  0.8284 -2.4296 -3.5439
 6649SOL     OW31405   2.931   1.081   9.695 -0.3054  0.3389 -0.0941
 6649SOL    HW131406   2.976   1.154   9.738 -0.4286  0.7302 -0.6344
 6649SOL    HW231407   2.959   1.092   9.604 -0.4256 -0.1586 -0.1938
 6650SOL     OW31408   4.539   3.835   6.338 -0.1131 -0.0786  0.3112
 6650SOL    HW131409   4.475   3.776   6.300 -0.1987  0.9333 -1.0969
 6650SOL    HW231410   4.510   3.847   6.429  0.5221  0.4807  0.4429
 6651SOL     OW31411   3.775   3.365  16.969  0.2907  0.2608 -0.4161
 6651SOL    HW131412   3.734   3.397  17.049  1.5559  0.8997 -0.0190
 6651SOL    HW231413   3.835   3.436  16.945 -0.6178  1.1744  0.0139
 6652SOL     OW31414   0.007   3.011  13.106 -0.0720 -0.2094  0.2328
 6652SOL    HW131415   4.673   3.073  13.147  1.2397  0.1431  1.6187
 6652SOL    HW231416   0.067   3.069  13.060  0.3574 -1.4438 -0.7602
 6653SOL     OW31417   0.209   1.289  12.519  0.2929 -0.0641  0.0189
 6653SOL    HW131418   0.232   1.380  12.503 -2.0385  0.3926 -0.7851
 6653SOL    HW231419   0.243   1.261  12.434 -1.3688 -2.3875  0.0959
 6654SOL     OW31420   4.697   0.306   3.920 -0.8285  0.1617  0.0153
 6654SOL    HW131421   4.605   0.330   3.926 -1.0075 -0.2482 -1.0994
 6654SOL    HW231422   4.714   0.260   4.003 -0.2430  1.2534  0.4980
 6655SOL     OW31423   4.653   3.715   5.917 -0.4297 -0.3955 -0.5782
 6655SOL    HW131424   4.680   3.710   5.825  0.1656  0.0845 -0.4258
 6655SOL    HW231425   4.601   3.795   5.928 -0.1926 -0.6405  2.2802
 6656SOL     OW31426   3.270   2.174   4.909 -0.1550  0.0771  0.2567
 6656SOL    HW131427   3.308   2.258   4.883  0.6534 -0.8119 -1.4206
 6656SOL    HW231428   3.298   2.153   4.998 -0.3159 -0.7011  0.1153
 6657SOL     OW31429   1.544   3.425   7.179 -0.0586 -0.0572 -0.0153
 6657SOL    HW131430   1.550   3.404   7.272 -1.2399 -0.5511 -0.0496
 6657SOL    HW231431   1.465   3.479   7.179 -1.2593 -1.8027 -0.4044
 6658SOL     OW31432   0.245   4.516   4.659  0.0280  0.6689  0.6260
 6658SOL    HW131433   0.269   4.450   4.724 -2.1387 -0.3321  0.3976
 6658SOL    HW231434   0.288   4.589   4.702 -0.4352  0.1418  1.9633
 6659SOL     OW31435   1.801   2.319  10.769 -0.3004  0.2589 -0.5828
 6659SOL    HW131436   1.805   2.410  10.798  1.0466 -0.0762  0.2543
 6659SOL    HW231437   1.710   2.293  10.788 -1.5021  2.9021 -2.6023
 6660SOL     OW31438   2.554   2.754   4.930  0.3057 -0.3252 -0.7795
 6660SOL    HW131439   2.540   2.661   4.949 -0.8925 -0.3124 -1.5565
 6660SOL    HW231440   2.620   2.742   4.863  0.9588 -1.9429  0.1623
 6661SOL     OW31441   1.991   0.551   7.087 -0.2554 -0.0349  0.1644
 6661SOL    HW131442   2.013   0.566   6.995  0.2936 -2.7281 -0.1346
 6661SOL    HW231443   2.050   0.478   7.103 -0.5938 -0.5225 -0.7960
 6662SOL     OW31444   0.132   4.093   2.509 -0.3575  0.0688 -0.0542
 6662SOL    HW131445   0.046   4.103   2.548 -0.7069  2.6488 -1.4401
 6662SOL    HW231446   0.112   4.031   2.439  0.7226  0.1081 -0.4103
 6663SOL     OW31447   3.334   2.427  12.500  0.1077 -0.3483 -0.5158
 6663SOL    HW131448   3.327   2.519  12.477 -2.4589 -0.1657  0.9928
 6663SOL    HW231449   3.266   2.424  12.568  0.7516 -0.4701  0.1265
 6664SOL     OW31450   0.792   0.872   6.155  0.0728 -0.4947 -0.1166
 6664SOL    HW131451   0.864   0.818   6.122  1.1691  0.8334  0.1101
 6664SOL    HW231452   0.842   0.926   6.216  0.6805 -0.2429 -0.8391
 6665SOL     OW31453   3.415   4.626   5.421 -0.0656  0.0083 -0.0377
 6665SOL    HW131454   3.336   4.574   5.433 -0.2661  0.3184 -0.0205
 6665SOL    HW231455   3.476   4.555   5.398 -0.7728 -0.0173 -1.8158
 6666SOL     OW31456   4.457   4.104   5.556 -0.2891 -0.2992  0.0486
 6666SOL    HW131457   4.431   4.035   5.618  0.7468  0.1938  1.0286
 6666SOL    HW231458   4.459   4.055   5.474  3.4899 -1.8191  0.9997
 6667SOL     OW31459   3.713   1.704   7.459 -0.0708 -0.9645 -0.7782
 6667SOL    HW131460   3.804   1.683   7.478 -0.4994 -0.6974  1.6355
 6667SOL    HW231461   3.671   1.669   7.537 -1.9721  1.5475 -0.6603
 6668SOL     OW31462   4.312   4.429   7.974  0.2669  0.5074  0.0155
 6668SOL    HW131463   4.241   4.461   7.919 -1.7260 -0.4875  2.0139
 6668SOL    HW231464   4.376   4.500   7.969  1.2236 -0.2211  1.9137
 6669SOL     OW31465   2.774   1.924   4.062  0.3576  0.1748  0.5592
 6669SOL    HW131466   2.803   1.858   3.999 -0.3813  1.8976 -1.5976
 6669SOL    HW231467   2.858   1.948   4.100  0.1361  0.8292  0.6305
 6670SOL     OW31468   4.125   1.852   4.616 -0.3335  0.5232 -0.8180
 6670SOL    HW131469   4.109   1.936   4.573 -1.1334  0.3559 -0.8517
 6670SOL    HW231470   4.147   1.802   4.538  3.6413  2.2964 -0.8316
 6671SOL     OW31471   0.673   3.285  16.418 -0.0813 -0.2348 -0.1600
 6671SOL    HW131472   0.680   3.275  16.512  0.8850 -1.9111 -0.4185
 6671SOL    HW231473   0.714   3.201  16.397  1.0184 -0.2181  2.0103
 6672SOL     OW31474   2.549   4.425  15.607 -0.0076  0.3742 -0.6751
 6672SOL    HW131475   2.487   4.403  15.676  0.0272 -0.0123 -0.7683
 6672SOL    HW231476   2.588   4.339  15.594  0.3384  0.7153 -1.9474
 6673SOL     OW31477   2.988   3.743   0.314  0.0152  0.2086 -0.0657
 6673SOL    HW131478   3.002   3.779   0.226 -1.7719 -2.0179 -1.2765
 6673SOL    HW231479   2.912   3.787   0.352 -0.1525 -0.8719  0.8334
 6674SOL     OW31480   2.731   2.124   4.830  0.0692 -0.2407 -0.0389
 6674SOL    HW131481   2.822   2.100   4.851  0.2990  1.5417  1.0956
 6674SOL    HW231482   2.734   2.146   4.737  0.6165 -1.7934 -0.3810
 6675SOL     OW31483   2.970   3.248   6.685 -0.1404  0.2162  0.0160
 6675SOL    HW131484   3.001   3.173   6.736  0.5326  0.4709 -0.0308
 6675SOL    HW231485   2.987   3.315   6.751  0.4032  1.1192 -1.0511
 6676SOL     OW31486   0.499   3.425   3.273  0.0097 -0.4362 -0.1439
 6676SOL    HW131487   0.554   3.370   3.217 -0.4363  0.3783 -1.3904
 6676SOL    HW231488   0.567   3.480   3.312  1.1936 -3.4150  1.9592
 6677SOL     OW31489   4.063   3.051  14.574 -0.2466  0.3021 -0.2526
 6677SOL    HW131490   4.120   2.983  14.607 -0.8579  0.2389  0.6727
 6677SOL    HW231491   4.120   3.116  14.532 -0.9667 -0.6081 -2.6308
 6678SOL     OW31492   1.497   3.835   4.065 -0.3624 -0.5801 -0.0599
 6678SOL    HW131493   1.417   3.849   4.116  2.0893  1.6033  3.1368
 6678SOL    HW231494   1.555   3.895   4.111 -0.4501  0.9936 -2.0220
 6679SOL     OW31495   2.683   0.231   8.549  0.0916 -0.1998  0.1888
 6679SOL    HW131496   2.718   0.298   8.490  1.8813  0.0145  1.5309
 6679SOL    HW231497   2.681   0.155   8.490  4.1710  0.9840 -1.4844
 6680SOL     OW31498   1.828   2.343  10.051 -0.8373 -0.4941  0.4298
 6680SOL    HW131499   1.738   2.314  10.067 -1.0946 -0.2684 -0.6068
 6680SOL    HW231500   1.865   2.259  10.023  1.0600  0.9821 -1.5148
 6681SOL     OW31501   1.836   3.524  16.130 -0.1623 -0.2856 -0.1382
 6681SOL    HW131502   1.876   3.547  16.046 -0.5699  1.6259  0.1819
 6681SOL    HW231503   1.854   3.604  16.180 -0.3871 -1.0023  1.0829
 6682SOL     OW31504   3.645   4.446   5.375  0.3919 -0.0703 -0.7577
 6682SOL    HW131505   3.671   4.414   5.461 -0.7547 -2.4269 -1.3006
 6682SOL    HW231506   3.722   4.472   5.326  0.9247  0.2268  0.2384
 6683SOL     OW31507   4.400   3.886   8.490 -0.3639 -0.0665  0.0430
 6683SOL    HW131508   4.376   3.968   8.534  2.5427  1.4803 -1.2318
 6683SOL    HW231509   4.346   3.822   8.535  0.3688 -0.7282 -0.0217
 6684SOL     OW31510   0.656   2.309   2.663 -0.2559 -0.4423  0.7118
 6684SOL    HW131511   0.569   2.274   2.647 -0.3681  0.0528  0.2389
 6684SOL    HW231512   0.702   2.273   2.587 -1.6514  0.3421 -0.4988
 6685SOL     OW31513   1.950   0.555   4.231 -0.6806 -0.2986 -0.4121
 6685SOL    HW131514   1.898   0.534   4.154 -2.0424 -0.2075  0.4764
 6685SOL    HW231515   1.932   0.486   4.295 -1.0439  0.5908  0.4471
 6686SOL     OW31516   0.568   1.656  13.168 -0.0785 -0.5822 -0.6292
 6686SOL    HW131517   0.522   1.575  13.190  0.6519 -2.0694 -4.7669
 6686SOL    HW231518   0.546   1.671  13.076 -0.8784  1.2250 -0.1586
 6687SOL     OW31519   3.892   4.256   9.243  0.0219  0.0141  0.8489
 6687SOL    HW131520   3.881   4.349   9.260 -1.8538 -0.4878  2.4185
 6687SOL    HW231521   3.982   4.234   9.267  0.1267  0.3254  0.7457
 6688SOL     OW31522   4.570   4.147   8.352 -0.2807 -0.0557 -0.8006
 6688SOL    HW131523   4.482   4.118   8.326  0.3241 -1.4164 -1.3312
 6688SOL    HW231524   4.615   4.067   8.324 -0.8134 -1.0695  1.2807
 6689SOL     OW31525   0.071   2.034   3.012  0.0747  0.3397 -0.0206
 6689SOL    HW131526   0.111   1.960   3.059 -2.8421 -0.2323  1.5954
 6689SOL    HW231527   0.113   2.039   2.926  0.6626 -1.6348  0.1397
 6690SOL     OW31528   3.629   0.894  11.587  0.0146  0.0705  0.3009
 6690SOL    HW131529   3.718   0.905  11.553  0.1190 -1.1422  0.1968
 6690SOL    HW231530   3.626   0.806  11.624  1.7449  0.0154  0.3102
 6691SOL     OW31531   4.296   2.356   6.890 -0.6874 -0.0763 -0.5330
 6691SOL    HW131532   4.287   2.282   6.831  1.8205  0.6784 -1.8524
 6691SOL    HW231533   4.302   2.311   6.974 -1.7797  0.1319 -0.3426
 6692SOL     OW31534   3.112   2.143  12.640 -0.0748 -0.8526 -0.1767
 6692SOL    HW131535   3.132   2.121  12.549 -1.9956 -1.2679 -0.4855
 6692SOL    HW231536   3.092   2.059  12.681 -0.9534 -1.3299 -1.6014
 6693SOL     OW31537   0.172   1.600   4.663 -1.5171 -0.0587  0.4266
 6693SOL    HW131538   0.145   1.557   4.744 -1.8106  1.4683  1.1319
 6693SOL    HW231539   0.245   1.655   4.689 -1.5311  0.9237 -1.6034
 6694SOL     OW31540   2.190   1.853   2.843  0.1711  0.3881  0.5188
 6694SOL    HW131541   2.259   1.918   2.831  0.8639 -0.3670  0.4542
 6694SOL    HW231542   2.175   1.816   2.756  1.9026  0.6628  0.1115
 6695SOL     OW31543   1.365   2.745   1.749 -0.4490  0.0692  0.4820
 6695SOL    HW131544   1.326   2.768   1.833 -2.3140 -0.9716 -0.0939
 6695SOL    HW231545   1.292   2.770   1.692  1.2623  0.3780 -1.5663
 6696SOL     OW31546   3.412   0.651   7.360 -0.6282 -0.0970  1.1297
 6696SOL    HW131547   3.492   0.682   7.402  0.3156 -2.6895  1.2163
 6696SOL    HW231548   3.367   0.632   7.442 -1.1386 -1.8966  0.4143
 6697SOL     OW31549   0.967   2.623   8.601 -0.0900 -0.1559 -0.3878
 6697SOL    HW131550   0.995   2.604   8.512  0.5094 -2.2589  0.2647
 6697SOL    HW231551   0.883   2.577   8.602  0.9099 -1.9743 -0.5074
 6698SOL     OW31552   4.374   2.191   5.360 -0.2187  0.3276 -0.0092
 6698SOL    HW131553   4.448   2.162   5.412 -2.2249 -1.5091  1.8323
 6698SOL    HW231554   4.376   2.285   5.380 -0.7516  0.8153 -2.2230
 6699SOL     OW31555   0.806   2.551   5.420  0.1191 -0.0004  0.7807
 6699SOL    HW131556   0.764   2.589   5.343 -2.2111  0.6469  2.3590
 6699SOL    HW231557   0.779   2.614   5.487 -0.9802  0.7488 -0.3743
 6700SOL     OW31558   1.267   4.031   2.544  0.0317 -0.5332 -0.2429
 6700SOL    HW131559   1.313   3.954   2.513  0.6805  0.2676 -1.2681
 6700SOL    HW231560   1.313   4.101   2.497  2.1177 -0.6259  1.6758
 6701SOL     OW31561   0.736   2.784  16.414  0.2208  0.1923 -0.1040
 6701SOL    HW131562   0.644   2.756  16.423  0.2250 -0.4460 -2.0752
 6701SOL    HW231563   0.770   2.709  16.366  0.5446  0.8624 -0.9079
 6702SOL     OW31564   3.207   3.510  14.936  0.2080 -0.3376 -0.9697
 6702SOL    HW131565   3.177   3.473  15.019  1.1755 -0.4131 -0.6453
 6702SOL    HW231566   3.131   3.564  14.915  0.6924  0.1082 -1.5873
 6703SOL     OW31567   1.858   3.987  14.774  0.1561  0.5711 -0.1218
 6703SOL    HW131568   1.860   4.035  14.857  1.3380 -1.2494  0.9220
 6703SOL    HW231569   1.773   3.998  14.732  0.7019  0.4682 -1.2529
 6704SOL     OW31570   3.990   3.874   4.139  0.5428 -0.7117 -0.2163
 6704SOL    HW131571   4.048   3.927   4.194 -2.0343  0.7555  1.0602
 6704SOL    HW231572   4.009   3.901   4.049 -0.7236 -0.3796 -0.3817
 6705SOL     OW31573   1.828   2.022   0.314 -0.1444  0.4129 -0.1735
 6705SOL    HW131574   1.884   2.002   0.239  0.0350 -1.3227  0.4323
 6705SOL    HW231575   1.884   2.079   0.366  2.4671 -2.9808  0.6956
 6706SOL     OW31576   4.231   0.894   6.434  0.2744  0.2426 -0.5583
 6706SOL    HW131577   4.315   0.850   6.443  0.2315  0.5537  1.4924
 6706SOL    HW231578   4.191   0.885   6.521 -1.9933 -1.2860 -1.7555
 6707SOL     OW31579   1.730   1.727   1.351 -0.6623  0.3665  0.3358
 6707SOL    HW131580   1.728   1.745   1.445  0.2211  0.7405  0.2862
 6707SOL    HW231581   1.822   1.702   1.339 -0.1593  2.0604  0.6842
 6708SOL     OW31582   0.052   1.361   8.222  0.3173  1.0458 -0.2143
 6708SOL    HW131583   0.034   1.402   8.307  0.9180 -0.4785  0.6414
 6708SOL    HW231584   0.039   1.432   8.159 -4.3184 -0.2849 -0.7624
 6709SOL     OW31585   3.098   3.605   2.944  0.0964  0.9577  0.1518
 6709SOL    HW131586   3.079   3.691   2.983  1.8384  1.1900  0.4795
 6709SOL    HW231587   3.107   3.631   2.852  0.6675 -0.5359 -0.2123
 6710SOL     OW31588   1.740   3.103   6.997  0.0197 -0.0511 -0.0043
 6710SOL    HW131589   1.751   3.084   7.090 -0.9923 -0.6932 -0.0261
 6710SOL    HW231590   1.646   3.085   6.990 -0.1233  1.1894 -1.3562
 6711SOL     OW31591   3.369   0.383  14.639 -0.1970  0.0055 -0.4270
 6711SOL    HW131592   3.401   0.362  14.727  1.2388  3.0652 -0.2285
 6711SOL    HW231593   3.449   0.416  14.598  0.8368  0.4467  1.9636
 6712SOL     OW31594   1.525   1.387   3.134  0.2666  0.5460  0.1621
 6712SOL    HW131595   1.586   1.454   3.163  0.7665  0.2816 -0.2905
 6712SOL    HW231596   1.583   1.311   3.135 -1.7353 -0.9778  2.2404
 6713SOL     OW31597   2.769   0.518  11.977 -0.5660 -0.2931 -0.0829
 6713SOL    HW131598   2.706   0.516  12.049  0.4440 -0.1666  0.8119
 6713SOL    HW231599   2.786   0.612  11.978 -0.3081 -0.3362 -0.4368
 6714SOL     OW31600   2.012   0.481   9.584 -0.3137  0.7222  0.3470
 6714SOL    HW131601   1.961   0.561   9.592 -0.3116  0.6868  0.6926
 6714SOL    HW231602   2.005   0.450   9.674 -2.3869 -1.3560 -0.4948
 6715SOL     OW31603   2.493   0.068   2.233  0.4961 -0.1871  0.6604
 6715SOL    HW131604   2.420   0.127   2.253  0.4239  0.5543 -1.7190
 6715SOL    HW231605   2.494   0.047   2.139  0.3418 -1.8886  1.0396
 6716SOL     OW31606   3.119   1.131  17.390  0.3345 -0.6089 -0.0332
 6716SOL    HW131607   3.183   1.076  17.437 -0.3746 -2.2470 -1.0059
 6716SOL    HW231608   3.098   1.197  17.457 -0.1106 -2.0723  1.2644
 6717SOL     OW31609   2.991   4.523   9.456 -0.4025  0.2940 -0.0046
 6717SOL    HW131610   3.040   4.441   9.448  0.2876  0.7245 -0.1062
 6717SOL    HW231611   3.006   4.550   9.546  1.6104 -3.4022  0.7502
 6718SOL     OW31612   4.454   4.195   7.852 -0.0854 -0.0328 -0.3056
 6718SOL    HW131613   4.379   4.241   7.890 -0.3020 -0.1529 -0.5817
 6718SOL    HW231614   4.423   4.184   7.762  0.2400 -0.9345 -0.3101
 6719SOL     OW31615   2.595   0.888   3.546  0.2724 -0.1736  0.2792
 6719SOL    HW131616   2.563   0.872   3.634 -0.4828 -0.5901 -0.0755
 6719SOL    HW231617   2.520   0.858   3.496 -0.9208 -0.1234  2.0444
 6720SOL     OW31618   3.757   3.695   2.179 -0.1893  0.3558  0.3131
 6720SOL    HW131619   3.727   3.736   2.098 -1.3320 -1.4114 -0.1621
 6720SOL    HW231620   3.849   3.676   2.159  0.1788  1.3670  1.0147
 6721SOL     OW31621   1.052   3.449   9.804  0.2700  0.4034 -0.1450
 6721SOL    HW131622   1.130   3.472   9.753 -2.0080  2.2717 -2.7786
 6721SOL    HW231623   0.990   3.516   9.773 -1.4476 -1.2549 -0.2979
 6722SOL     OW31624   2.602   1.188   5.117  0.2476 -0.3159 -0.0731
 6722SOL    HW131625   2.575   1.100   5.090  0.4811  0.2790 -2.2381
 6722SOL    HW231626   2.628   1.224   5.033  0.0470  1.8985  0.8113
 6723SOL     OW31627   1.070   1.181   2.596 -0.0365 -0.1603 -0.0665
 6723SOL    HW131628   1.090   1.090   2.572  0.5033  0.5986 -2.4106
 6723SOL    HW231629   1.114   1.231   2.528 -0.5490 -2.7427 -2.2994
 6724SOL     OW31630   1.622   3.650  10.724  1.2969  0.3068 -0.3712
 6724SOL    HW131631   1.699   3.701  10.748  1.6003 -1.5317  2.5358
 6724SOL    HW231632   1.550   3.711  10.737  1.0309  0.4400 -2.5192
 6725SOL     OW31633   1.977   3.554  15.013  0.3606  0.3437 -0.3349
 6725SOL    HW131634   1.899   3.600  15.043 -0.6172 -1.8361  0.5149
 6725SOL    HW231635   2.007   3.612  14.943 -1.2789 -0.4739 -1.7083
 6726SOL     OW31636   1.990   1.204  14.465  0.0683  0.3287  1.1173
 6726SOL    HW131637   1.976   1.269  14.534 -0.9349 -0.2150  1.4286
 6726SOL    HW231638   1.953   1.122  14.496 -0.7472  0.1461 -0.3860
 6727SOL     OW31639   1.661   3.169   5.766 -0.2653 -0.0322 -0.0096
 6727SOL    HW131640   1.724   3.100   5.746 -1.4201 -1.2453  0.5466
 6727SOL    HW231641   1.590   3.140   5.709  0.4544  0.8792 -1.3558
 6728SOL     OW31642   3.796   2.740   2.004  0.3500  0.7271  0.1358
 6728SOL    HW131643   3.870   2.787   2.042  0.6094  0.2279  0.2465
 6728SOL    HW231644   3.734   2.763   2.074  0.4198  0.1925  0.3697
 6729SOL     OW31645   1.872   1.277   4.711  0.1308  0.2372  0.4518
 6729SOL    HW131646   1.928   1.339   4.664 -1.4203 -0.0895 -1.8719
 6729SOL    HW231647   1.826   1.228   4.642  0.0990 -0.0145  0.6503
 6730SOL     OW31648   4.066   0.317   7.654 -0.0360 -0.0860  0.1517
 6730SOL    HW131649   4.158   0.340   7.668  0.3255 -0.5397 -1.4841
 6730SOL    HW231650   4.052   0.382   7.585 -2.8021 -0.4660  0.3473
 6731SOL     OW31651   3.117   3.611   4.356  0.3155  0.5540  0.1774
 6731SOL    HW131652   3.204   3.632   4.390  0.4329 -0.7594  0.7093
 6731SOL    HW231653   3.131   3.620   4.262 -2.0039 -0.7197 -0.2822
 6732SOL     OW31654   3.711   3.647  11.973  0.1474  0.4954 -0.3473
 6732SOL    HW131655   3.638   3.635  12.034  0.9958  0.9021  0.7501
 6732SOL    HW231656   3.757   3.697  12.041  0.4493  0.1306 -0.2828
 6733SOL     OW31657   2.933   4.151   5.303 -0.2111  0.1257 -0.3516
 6733SOL    HW131658   2.975   4.130   5.219  2.4413  0.6234  0.8544
 6733SOL    HW231659   2.879   4.219   5.263 -0.7407  0.2636  0.6044
 6734SOL     OW31660   3.644   3.409  15.072  0.0696  0.0581  0.4663
 6734SOL    HW131661   3.579   3.368  15.015 -0.5548  0.3084  0.9967
 6734SOL    HW231662   3.608   3.495  15.092 -3.5385 -0.9707 -1.7040
 6735SOL     OW31663   4.230   2.922  10.546  0.0599  0.5936  0.2843
 6735SOL    HW131664   4.304   2.978  10.526 -0.0205  1.0069  1.1685
 6735SOL    HW231665   4.184   2.974  10.612 -0.2003  1.2600 -0.4324
 6736SOL     OW31666   3.081   0.647   3.214 -0.1282 -0.1702 -0.4442
 6736SOL    HW131667   3.149   0.591   3.176  1.2470  2.0429 -1.2730
 6736SOL    HW231668   3.002   0.607   3.178 -0.2846 -1.4475  1.3387
 6737SOL     OW31669   4.100   2.659  17.079 -0.6859  0.3083 -0.1851
 6737SOL    HW131670   4.154   2.581  17.075  1.5195  1.6677  2.7439
 6737SOL    HW231671   4.023   2.630  17.127 -0.5606  0.3198  0.0223
 6738SOL     OW31672   3.770   3.218   5.128  0.4479 -0.1272 -0.0458
 6738SOL    HW131673   3.739   3.167   5.053 -0.0891 -0.3661  0.3388
 6738SOL    HW231674   3.816   3.288   5.083  1.0577 -2.6125 -3.3006
 6739SOL     OW31675   4.430   4.619   5.906 -0.2200  0.5047 -0.2375
 6739SOL    HW131676   4.355   4.678   5.916  1.8260  3.3378 -1.5653
 6739SOL    HW231677   4.505   4.674   5.883  0.1122  0.0469 -0.2519
 6740SOL     OW31678   2.500   0.453  13.283  0.0935  0.0188  0.1873
 6740SOL    HW131679   2.583   0.419  13.314  1.4529 -0.0253 -3.5843
 6740SOL    HW231680   2.526   0.471  13.193  1.8470 -0.4735  0.6095
 6741SOL     OW31681   3.052   0.640   6.302  0.2357 -0.3882  0.1878
 6741SOL    HW131682   3.037   0.725   6.345 -1.8090  0.3884 -2.0972
 6741SOL    HW231683   2.969   0.596   6.322  0.2791 -0.6624 -0.2564
 6742SOL     OW31684   0.001   2.318   2.739  0.1993  0.4074 -0.7832
 6742SOL    HW131685   4.715   2.413   2.729  0.2197  0.5253  0.3054
 6742SOL    HW231686   4.636   2.291   2.752  1.0376 -1.4171  1.2526
 6743SOL     OW31687   2.090   0.148   6.816  0.2776 -0.2215  0.0645
 6743SOL    HW131688   2.156   0.195   6.867  0.3282 -1.3610  1.0467
 6743SOL    HW231689   2.028   0.220   6.805  0.4440 -0.0912 -0.0203
 6744SOL     OW31690   0.940   3.558   5.475 -0.2911  0.1231 -0.3802
 6744SOL    HW131691   0.994   3.636   5.458 -0.1333 -0.2211 -1.4465
 6744SOL    HW231692   1.008   3.498   5.443 -2.4833 -1.9295 -1.1883
 6745SOL     OW31693   3.423   1.487  16.664  0.1539  0.2918 -0.1426
 6745SOL    HW131694   3.473   1.503  16.744 -1.4696  0.6341  0.7966
 6745SOL    HW231695   3.338   1.469  16.703  0.5631 -0.8724  0.2097
 6746SOL     OW31696   2.982   0.234  14.364  0.0046 -0.4754  0.3035
 6746SOL    HW131697   3.053   0.207  14.422  2.1712  2.1513 -1.1128
 6746SOL    HW231698   2.921   0.267  14.430  0.2903  1.7858 -0.5494
 6747SOL     OW31699   0.060   0.299   5.546  0.4707  0.3023  0.3108
 6747SOL    HW131700   0.151   0.271   5.544  0.6967  0.9456  1.7848
 6747SOL    HW231701   0.068   0.356   5.622 -2.1745  0.1400  0.7119
 6748SOL     OW31702   4.448   3.875  16.913  0.1908 -0.1926 -0.2314
 6748SOL    HW131703   4.404   3.918  16.986 -1.4775  0.3372 -1.5549
 6748SOL    HW231704   4.526   3.931  16.913 -0.3279  0.5232 -0.1944
 6749SOL     OW31705   1.343   4.049   6.913 -0.4030  0.8567 -0.2954
 6749SOL    HW131706   1.406   4.115   6.881  1.3481 -1.2526 -1.2052
 6749SOL    HW231707   1.388   4.010   6.988  0.1265  0.1385 -0.9878
 6750SOL     OW31708   4.355   1.431  15.569  0.1063 -0.3912  0.2473
 6750SOL    HW131709   4.390   1.426  15.480  1.2891 -0.3323  0.7158
 6750SOL    HW231710   4.376   1.342  15.597  1.6630 -0.8471 -2.2980
 6751SOL     OW31711   2.274   1.858   0.701 -0.0135 -0.0097 -0.9467
 6751SOL    HW131712   2.268   1.952   0.721  1.8485  0.0861 -0.8107
 6751SOL    HW231713   2.259   1.824   0.789  0.1156  0.6317 -0.6757
 6752SOL     OW31714   3.021   3.361   8.652 -0.0587 -0.0784  0.1776
 6752SOL    HW131715   3.112   3.392   8.657  0.3007 -1.0706 -0.1943
 6752SOL    HW231716   2.982   3.411   8.724 -0.0779 -1.9238  1.4504
 6753SOL     OW31717   0.924   4.432   2.410 -0.3083 -0.3524  0.0920
 6753SOL    HW131718   0.957   4.486   2.483  0.9863 -1.0110 -0.0063
 6753SOL    HW231719   0.947   4.487   2.335 -0.1052  1.0286  1.1521
 6754SOL     OW31720   1.594   0.813  11.067 -0.3469  0.3004 -0.0102
 6754SOL    HW131721   1.679   0.852  11.045 -0.7902  2.8443  2.7331
 6754SOL    HW231722   1.560   0.798  10.979  1.3617  1.9285 -0.9541
 6755SOL     OW31723   4.692   0.260  10.838  0.2420 -0.6465  0.1466
 6755SOL    HW131724   4.685   0.318  10.914 -0.8010  1.6321 -1.6979
 6755SOL    HW231725   4.695   0.179  10.889 -1.2523 -0.3321  0.7433
 6756SOL     OW31726   4.001   4.004   5.640  0.1616 -0.2035 -0.6825
 6756SOL    HW131727   4.051   3.984   5.561  0.0409 -0.7656 -0.6205
 6756SOL    HW231728   3.922   3.959   5.610  0.6067 -2.3212  1.2634
 6757SOL     OW31729   2.110   2.544   1.803  0.1121 -0.0111 -0.7013
 6757SOL    HW131730   2.079   2.541   1.894 -1.1007 -2.1249 -1.1712
 6757SOL    HW231731   2.073   2.627   1.774  0.5626  0.6342  0.5862
 6758SOL     OW31732   2.888   2.962   9.189  0.2209 -0.0715 -0.6960
 6758SOL    HW131733   2.958   2.927   9.244 -0.2985 -2.2097 -1.4113
 6758SOL    HW231734   2.925   3.048   9.168 -1.2497  0.7627  0.1103
 6759SOL     OW31735   1.601   3.618   8.769 -0.0223  0.1065  0.0065
 6759SOL    HW131736   1.568   3.688   8.713  0.0300 -0.8490 -1.2067
 6759SOL    HW231737   1.680   3.586   8.727 -0.3474  1.0318 -1.2876
 6760SOL     OW31738   4.321   2.508  14.342  0.5022 -0.1817 -0.7168
 6760SOL    HW131739   4.257   2.573  14.314  2.0366  2.0513  1.0154
 6760SOL    HW231740   4.302   2.494  14.435  0.1125  0.1347 -0.7530
 6761SOL     OW31741   3.861   3.741   7.509 -0.4137 -0.0169 -0.0176
 6761SOL    HW131742   3.767   3.752   7.498 -0.6008 -1.1401  0.4578
 6761SOL    HW231743   3.893   3.776   7.425 -2.6859 -3.5389 -2.3522
 6762SOL     OW31744   1.872   0.590   2.677  0.2219 -0.3754 -0.5266
 6762SOL    HW131745   1.958   0.563   2.711 -0.0148  0.8259  1.0054
 6762SOL    HW231746   1.862   0.527   2.606 -2.1351 -0.5739 -0.0029
 6763SOL     OW31747   1.277   2.068   3.285  0.1765  0.0631 -0.4374
 6763SOL    HW131748   1.198   2.084   3.234 -0.9496 -1.3970  0.9004
 6763SOL    HW231749   1.255   1.987   3.330 -0.2780 -1.0659 -2.6657
 6764SOL     OW31750   0.809   0.676   7.888  0.2797 -0.5106  0.2817
 6764SOL    HW131751   0.816   0.649   7.796 -1.3064 -2.4431  0.7167
 6764SOL    HW231752   0.768   0.596   7.922  1.8207 -1.2102  0.4851
 6765SOL     OW31753   3.277   0.682  13.287  0.6203 -0.0749 -0.0734
 6765SOL    HW131754   3.347   0.687  13.221  0.8474 -0.1961  0.1570
 6765SOL    HW231755   3.226   0.749  13.243 -2.1222 -3.5069 -2.1216
 6766SOL     OW31756   0.773   0.647   5.561 -0.1136 -0.3734  0.2949
 6766SOL    HW131757   0.759   0.647   5.467  1.1084  0.5134  0.1096
 6766SOL    HW231758   0.868   0.660   5.562 -0.2283  0.4331 -0.0237
 6767SOL     OW31759   3.537   3.153   7.584 -0.5038  0.5701 -0.0396
 6767SOL    HW131760   3.506   3.183   7.670 -0.3483  1.2826 -0.2337
 6767SOL    HW231761   3.466   3.104   7.543 -2.0442  1.4139  1.6374
 6768SOL     OW31762   4.245   2.611   7.403  0.3956 -0.2029 -0.4340
 6768SOL    HW131763   4.216   2.588   7.492 -1.3949  1.6656 -0.5257
 6768SOL    HW231764   4.304   2.684   7.416 -0.6654  0.7871 -1.1767
 6769SOL     OW31765   4.281   0.974   3.553  0.6904 -0.1727 -0.0434
 6769SOL    HW131766   4.291   0.965   3.647  3.7223  1.2604 -0.2218
 6769SOL    HW231767   4.278   1.070   3.551 -1.0538 -0.2365 -0.9524
 6770SOL     OW31768   3.151   2.129  13.793  0.2274  0.0698 -0.1211
 6770SOL    HW131769   3.100   2.143  13.873 -0.2183 -0.5400 -0.2945
 6770SOL    HW231770   3.230   2.096  13.837  1.4874  2.1198 -0.8834
 6771SOL     OW31771   0.182   1.666   8.174  0.2940  0.1619  0.2801
 6771SOL    HW131772   0.243   1.738   8.194  0.2239  1.0052 -2.6224
 6771SOL    HW231773   0.132   1.708   8.104 -0.0139 -1.1530 -0.2687
 6772SOL     OW31774   2.280   2.612   9.649 -0.5356 -0.1943  0.2896
 6772SOL    HW131775   2.351   2.558   9.683 -0.8169 -0.2685  0.7586
 6772SOL    HW231776   2.232   2.535   9.621  1.5849 -1.5778  0.4630
 6773SOL     OW31777   2.665   4.618  16.463  0.4254 -0.2187  0.2593
 6773SOL    HW131778   2.608   4.553  16.505 -2.3219 -0.1730 -3.3787
 6773SOL    HW231779   2.709   4.569  16.395  0.5880 -0.0085  0.2117
 6774SOL     OW31780   4.141   2.386   4.392  0.4234  0.1412 -0.0647
 6774SOL    HW131781   4.059   2.391   4.342 -0.7050 -2.3615  1.5307
 6774SOL    HW231782   4.168   2.298   4.366  0.9967  0.7020 -1.3470
 6775SOL     OW31783   2.957   0.001   7.359  0.6856  0.0236 -0.4234
 6775SOL    HW131784   2.980   0.026   7.270 -0.0074  0.4830 -0.4721
 6775SOL    HW231785   3.002   4.643   7.353  0.3772 -0.3083  1.7998
 6776SOL     OW31786   3.930   0.367  13.050 -0.1201  0.4407 -0.1556
 6776SOL    HW131787   3.935   0.274  13.030 -0.8119  0.0625  1.4607
 6776SOL    HW231788   3.869   0.397  12.983  2.4994  0.3658 -2.5795
 6777SOL     OW31789   1.693   1.551  11.974  0.5273  0.0188  0.8154
 6777SOL    HW131790   1.639   1.621  12.011  1.6569  0.3943  1.7529
 6777SOL    HW231791   1.653   1.521  11.892  2.5195 -1.3160  0.3027
 6778SOL     OW31792   1.678   3.627   2.485  0.0130 -0.2545 -0.1515
 6778SOL    HW131793   1.761   3.657   2.448 -0.5675 -2.7245 -3.5101
 6778SOL    HW231794   1.708   3.591   2.568 -0.4439 -2.1809 -0.8103
 6779SOL     OW31795   2.191   2.946   0.686  0.6942 -0.0615 -0.6402
 6779SOL    HW131796   2.223   3.021   0.636 -1.0548  0.2225 -1.3299
 6779SOL    HW231797   2.242   2.950   0.767  2.5524 -0.1492 -1.8070
 6780SOL     OW31798   2.434   4.592   3.383  0.5115 -0.6534  0.0149
 6780SOL    HW131799   2.436   4.615   3.290 -0.0526 -1.5406 -0.2073
 6780SOL    HW231800   2.527   4.587   3.405  0.6236 -0.2863 -0.3873
 6781SOL     OW31801   1.849   0.819  14.009 -0.4351 -0.0062  0.5528
 6781SOL    HW131802   1.871   0.749  14.071 -0.8870  0.0973  0.8337
 6781SOL    HW231803   1.807   0.881  14.068 -1.6770 -1.2872  1.0352
 6782SOL     OW31804   1.044   1.410   0.783  0.1838 -0.2211  0.1759
 6782SOL    HW131805   1.134   1.404   0.817  0.4953  1.0640 -0.4309
 6782SOL    HW231806   1.056   1.432   0.691 -2.1067  0.2306 -0.0062
 6783SOL     OW31807   0.131   4.474  11.030 -0.3175 -0.0094  0.3595
 6783SOL    HW131808   0.186   4.492  11.107 -0.0191 -1.5926  0.5064
 6783SOL    HW231809   0.073   4.549  11.044  0.1967  0.0985  1.9063
 6784SOL     OW31810   3.452   2.495   9.529 -0.4835  0.0339 -0.3874
 6784SOL    HW131811   3.423   2.580   9.495 -2.9234 -1.5066 -2.1663
 6784SOL    HW231812   3.483   2.539   9.608  1.6861  0.5018 -1.4919
 6785SOL     OW31813   2.606   2.280   9.445 -0.6717 -0.0929  0.0688
 6785SOL    HW131814   2.585   2.283   9.352  1.6326  3.4254 -0.3003
 6785SOL    HW231815   2.628   2.187   9.447  0.7038  0.2739  1.7582
 6786SOL     OW31816   0.935   2.293   6.971  0.2087  0.5076 -0.3079
 6786SOL    HW131817   0.932   2.314   7.064  1.4877 -0.0671 -0.1375
 6786SOL    HW231818   1.019   2.248   6.962  1.1890  2.0169  1.2411
 6787SOL     OW31819   2.799   2.710   5.467 -0.2149 -0.1233 -0.1815
 6787SOL    HW131820   2.826   2.779   5.407 -2.0085  2.3136  1.8084
 6787SOL    HW231821   2.786   2.634   5.410  1.8421 -2.3213  2.2567
 6788SOL     OW31822   3.380   1.527   4.490  0.0206 -0.3464  0.0266
 6788SOL    HW131823   3.296   1.516   4.534 -2.0850 -0.4091 -4.0690
 6788SOL    HW231824   3.377   1.460   4.423 -0.8933 -1.9398  1.6617
 6789SOL     OW31825   2.385   3.428  17.583 -0.0809 -0.4378 -0.0773
 6789SOL    HW131826   2.429   3.458  17.504 -0.5898  0.7229  0.0796
 6789SOL    HW231827   2.360   3.510  17.626 -3.7695 -2.0518  0.8424
 6790SOL     OW31828   0.153   1.604   5.136 -0.5176 -0.2220  0.2346
 6790SOL    HW131829   0.199   1.614   5.219 -0.1200 -0.0573 -0.0005
 6790SOL    HW231830   0.194   1.673   5.084 -0.6697  0.4136  0.9602
 6791SOL     OW31831   2.349   3.017   2.932 -0.0879 -0.0446 -0.6927
 6791SOL    HW131832   2.389   3.038   3.016  0.0957 -0.6005 -0.6375
 6791SOL    HW231833   2.278   2.960   2.960 -0.8405  0.0186 -2.4551
 6792SOL     OW31834   1.638   2.351   8.532  0.1198  0.5341 -0.5262
 6792SOL    HW131835   1.625   2.343   8.438 -4.8778 -2.2863  0.4082
 6792SOL    HW231836   1.689   2.275   8.559 -4.8139 -2.5447  0.2529
 6793SOL     OW31837   4.257   3.239   7.818 -0.6464 -0.2539  0.1654
 6793SOL    HW131838   4.258   3.154   7.862 -1.4979 -1.5245 -2.3107
 6793SOL    HW231839   4.169   3.274   7.832 -0.8663 -0.1889 -1.3952
 6794SOL     OW31840   0.376   3.398  12.487  0.0735  0.1144 -0.3997
 6794SOL    HW131841   0.442   3.467  12.477  3.6486 -2.8650  2.9191
 6794SOL    HW231842   0.297   3.438  12.451  0.0585  0.6312  0.1897
 6795SOL     OW31843   2.922   3.961  12.523 -0.1345 -0.0607  0.2683
 6795SOL    HW131844   2.929   3.923  12.611  0.0180  1.3098  0.8533
 6795SOL    HW231845   2.878   4.045  12.536 -2.1465 -1.5212  2.9410
 6796SOL     OW31846   0.948   1.220  12.106 -0.3187  0.0164 -0.0361
 6796SOL    HW131847   0.969   1.128  12.090 -0.2561 -0.1475  1.0082
 6796SOL    HW231848   0.939   1.216  12.201 -0.3688 -2.6920 -0.1552
 6797SOL     OW31849   2.008   4.447   9.822 -0.4640 -0.2446  0.1781
 6797SOL    HW131850   2.085   4.427   9.769 -1.0801  1.5747 -1.3866
 6797SOL    HW231851   2.031   4.460   9.915 -0.1347  1.0706 -0.0894
 6798SOL     OW31852   0.028   3.341  13.863 -0.5002 -0.2168 -0.3756
 6798SOL    HW131853   0.097   3.314  13.923 -2.1140 -0.2735  1.4376
 6798SOL    HW231854   4.723   3.256  13.832 -3.4254  0.8560 -0.3790
 6799SOL     OW31855   1.615   2.222   6.031 -0.2653  0.2691 -0.5520
 6799SOL    HW131856   1.696   2.250   6.075  0.3150 -1.9121 -0.2251
 6799SOL    HW231857   1.583   2.150   6.085 -1.2825  0.8446 -0.3941
 6800SOL     OW31858   0.412   4.002   5.980 -0.2924  0.7598 -0.9493
 6800SOL    HW131859   0.458   4.066   6.036 -2.1844  2.0011 -0.8132
 6800SOL    HW231860   0.342   3.971   6.037  0.2823 -0.6878 -1.0299
 6801SOL     OW31861   2.889   0.141   5.903 -0.0468  0.2224 -0.9167
 6801SOL    HW131862   2.957   0.205   5.883  0.0334  0.5568  0.3776
 6801SOL    HW231863   2.811   0.189   5.874 -0.6415  0.7678  1.5450
 6802SOL     OW31864   0.175   4.014   8.337 -0.1073  0.1863  0.0182
 6802SOL    HW131865   0.187   3.937   8.393 -1.7474 -0.3267 -0.3421
 6802SOL    HW231866   0.257   4.061   8.350 -0.9642  1.9027 -0.7778
 6803SOL     OW31867   3.639   3.822   5.758  0.3193  0.3187  0.1321
 6803SOL    HW131868   3.645   3.915   5.777  0.8994  0.6670 -1.6934
 6803SOL    HW231869   3.552   3.823   5.718  0.3015  2.5493  0.2133
 6804SOL     OW31870   1.879   4.005   8.998  0.2843  0.0531  0.2828
 6804SOL    HW131871   1.824   4.072   9.038  0.2286  0.0107  0.2769
 6804SOL    HW231872   1.957   3.996   9.053  0.3156  1.5351  0.4694
 6805SOL     OW31873   4.123   0.440   1.838 -0.0265  0.2294 -0.2675
 6805SOL    HW131874   4.072   0.513   1.872  2.9366  1.7131  0.9325
 6805SOL    HW231875   4.197   0.487   1.799 -0.6558  0.7850 -0.7865
 6806SOL     OW31876   2.486   1.306   3.839 -0.3194  0.0020 -0.0875
 6806SOL    HW131877   2.561   1.350   3.877  0.2127 -1.3605  0.4397
 6806SOL    HW231878   2.492   1.340   3.749  1.2200 -1.9069 -0.7013
 6807SOL     OW31879   0.513   4.293   3.791 -0.5606 -0.0394 -0.0558
 6807SOL    HW131880   0.461   4.218   3.821  0.5463 -0.6524  0.3080
 6807SOL    HW231881   0.586   4.292   3.852 -0.8310 -0.0135  0.2658
 6808SOL     OW31882   2.744   1.388   4.531 -0.2484 -0.4156  0.4488
 6808SOL    HW131883   2.735   1.451   4.602 -0.1509 -1.1167  1.0784
 6808SOL    HW231884   2.840   1.389   4.534 -0.1552 -1.0559 -2.4171
 6809SOL     OW31885   2.324   4.247   7.605 -0.0357  0.0030 -0.1190
 6809SOL    HW131886   2.260   4.194   7.557 -1.0364  1.5976 -0.5707
 6809SOL    HW231887   2.399   4.249   7.545  1.3174 -1.7793  1.5491
 6810SOL     OW31888   4.667   4.619  13.976 -0.4773 -0.1642  0.0203
 6810SOL    HW131889   4.659   4.634  13.882  0.9148  0.3047 -0.0115
 6810SOL    HW231890   4.640   4.705  14.010  0.0575  0.3105 -0.7374
 6811SOL     OW31891   4.143   2.745  10.361  0.4953 -0.3234 -0.7413
 6811SOL    HW131892   4.140   2.666  10.415  2.6932 -0.1002 -0.3001
 6811SOL    HW231893   4.170   2.820  10.415 -3.1987  0.8140 -0.4581
 6812SOL     OW31894   4.548   4.553   3.581  0.1674  0.4571  0.4244
 6812SOL    HW131895   4.636   4.563   3.545 -0.6267 -0.3732 -1.8006
 6812SOL    HW231896   4.513   4.638   3.555  0.5440  1.0172  1.8091
 6813SOL     OW31897   0.970   4.105  10.592 -0.4063  0.0704  0.4836
 6813SOL    HW131898   0.963   4.082  10.685 -1.9645  3.5951  1.2263
 6813SOL    HW231899   1.059   4.140  10.584 -1.0865  1.9198  1.1024
 6814SOL     OW31900   4.529   4.394   2.749 -0.3544 -0.0413  0.1320
 6814SOL    HW131901   4.458   4.379   2.811  0.3940 -1.8719  0.5429
 6814SOL    HW231902   4.588   4.460   2.786 -0.0515  0.1782 -0.7493
 6815SOL     OW31903   2.330   3.855   2.688  0.0031  0.4426 -0.1115
 6815SOL    HW131904   2.353   3.763   2.703  1.0967  0.6272 -0.7326
 6815SOL    HW231905   2.235   3.845   2.679 -0.1230  2.2084 -0.7390
 6816SOL     OW31906   3.740   0.909  14.878  0.1220  0.0354  0.0871
 6816SOL    HW131907   3.814   0.941  14.826 -0.1196  1.4218  0.6006
 6816SOL    HW231908   3.785   0.837  14.921 -0.9522  0.5477  2.0753
 6817SOL     OW31909   4.409   4.641   3.126  0.9097 -0.0631  0.4924
 6817SOL    HW131910   4.320   4.641   3.089  1.4147 -2.6269 -0.7074
 6817SOL    HW231911   4.452   4.690   3.056 -0.5356 -0.9823 -1.0271
 6818SOL     OW31912   2.117   3.822  10.733 -1.0559  0.4497  0.4147
 6818SOL    HW131913   2.112   3.822  10.637 -0.9763 -0.6620  0.4089
 6818SOL    HW231914   2.091   3.735  10.765 -1.6943 -0.7874 -3.4698
 6819SOL     OW31915   1.441   1.402   6.027 -0.4572 -0.3049  0.3502
 6819SOL    HW131916   1.363   1.350   6.046 -0.1113 -0.3450  1.6390
 6819SOL    HW231917   1.493   1.393   6.106  0.0679 -0.2137  0.0129
 6820SOL     OW31918   0.203   3.642  12.427  0.0716  0.0247  0.2239
 6820SOL    HW131919   0.118   3.601  12.446 -0.6533  0.7610 -1.4333
 6820SOL    HW231920   0.189   3.722  12.479  0.9681  0.5731 -0.3806
 6821SOL     OW31921   2.408   1.724   6.078  0.2738  0.2105  0.1378
 6821SOL    HW131922   2.452   1.781   6.141  1.2072  0.2189 -0.5146
 6821SOL    HW231923   2.459   1.708   5.999  2.6785  0.6414  1.6112
 6822SOL     OW31924   4.257   3.662   9.316  0.3913 -0.4565  0.5983
 6822SOL    HW131925   4.334   3.693   9.362  1.8639  0.7385 -2.6481
 6822SOL    HW231926   4.219   3.610   9.387  1.6387 -1.0276  0.8386
 6823SOL     OW31927   1.034   1.944  10.347  0.5864 -0.0963 -0.7035
 6823SOL    HW131928   1.060   1.981  10.263  1.3404 -0.0789 -0.4630
 6823SOL    HW231929   0.951   1.897  10.337  1.7871 -1.9929 -1.7064
 6824SOL     OW31930   3.243   4.235   4.864  0.4091 -0.0913 -0.4171
 6824SOL    HW131931   3.217   4.327   4.875  2.1020  0.1810  1.2571
 6824SOL    HW231932   3.338   4.231   4.869  0.5039 -0.1408 -2.3927
 6825SOL     OW31933   2.982   2.087   9.374 -0.5568  0.1895 -0.2108
 6825SOL    HW131934   3.040   2.050   9.306  1.8819  2.3381  0.7000
 6825SOL    HW231935   3.019   2.168   9.409 -1.0854  0.2585  0.1754
 6826SOL     OW31936   2.091   3.349   7.290 -0.2119 -0.2419  0.4105
 6826SOL    HW131937   2.018   3.381   7.238  0.4226  1.9032  0.8144
 6826SOL    HW231938   2.107   3.417   7.356 -0.7484  0.3016 -0.0110
 6827SOL     OW31939   3.640   1.932   5.786  0.9426  0.2214  0.1795
 6827SOL    HW131940   3.601   1.971   5.864 -1.0058  1.1406 -1.2477
 6827SOL    HW231941   3.597   1.846   5.786 -0.1252  0.7418  2.3893
 6828SOL     OW31942   4.393   0.308   8.118 -0.1262 -0.1282 -0.3874
 6828SOL    HW131943   4.301   0.319   8.092  0.1663 -1.2736 -1.9590
 6828SOL    HW231944   4.429   0.317   8.029 -1.7262 -1.1802 -1.1615
 6829SOL     OW31945   2.342   1.563   1.542 -0.4919  0.6496  0.8219
 6829SOL    HW131946   2.298   1.582   1.459 -1.0602  0.0256  0.9842
 6829SOL    HW231947   2.414   1.626   1.534  1.1660 -1.0219  2.6248
 6830SOL     OW31948   2.484   3.939   2.209  0.2530 -0.0174 -0.9610
 6830SOL    HW131949   2.435   4.014   2.243  1.6589  2.4656 -4.3736
 6830SOL    HW231950   2.418   3.901   2.150 -2.4511  0.7140  1.6108
 6831SOL     OW31951   0.579   4.317   5.523  0.0505  0.0667 -0.4284
 6831SOL    HW131952   0.530   4.296   5.603 -3.7050  3.8694 -1.7863
 6831SOL    HW231953   0.620   4.400   5.546  0.2531 -0.9903  3.0980
 6832SOL     OW31954   3.946   1.813  14.502  0.5172 -0.9696  0.0679
 6832SOL    HW131955   3.894   1.760  14.442  1.2155 -0.5711 -0.8957
 6832SOL    HW231956   3.989   1.883  14.453 -1.3579 -0.9068 -1.4779
 6833SOL     OW31957   4.620   2.354  14.925 -0.5558 -0.8562  0.1461
 6833SOL    HW131958   4.588   2.374  14.837 -0.0103  1.2027  0.4248
 6833SOL    HW231959   4.607   2.261  14.943  1.2791 -1.1282  0.1193
 6834SOL     OW31960   4.043   3.167   7.621 -1.3392  0.2033  0.1718
 6834SOL    HW131961   3.979   3.132   7.558  1.1794 -1.4891 -1.4269
 6834SOL    HW231962   4.084   3.088   7.654 -0.8800 -0.2165 -1.3936
 6835SOL     OW31963   3.267   3.114   4.053  0.0486 -0.8465 -0.2816
 6835SOL    HW131964   3.286   3.107   3.960 -0.8949  0.2801 -0.5513
 6835SOL    HW231965   3.354   3.128   4.090  0.0630 -1.5474 -0.0371
 6836SOL     OW31966   1.917   3.372   4.963  0.1028  0.0391  0.6304
 6836SOL    HW131967   1.879   3.290   4.995  0.9812  0.1476  1.9295
 6836SOL    HW231968   1.839   3.428   4.960 -0.8683 -1.1346  3.9590
 6837SOL     OW31969   3.188   1.010   3.224 -0.2395 -0.2969  0.1411
 6837SOL    HW131970   3.206   1.005   3.130 -1.7116  3.6723 -0.3456
 6837SOL    HW231971   3.244   0.941   3.259 -0.1316 -0.7733 -0.9500
 6838SOL     OW31972   1.607   3.785   5.838  0.2346 -0.1083 -0.0269
 6838SOL    HW131973   1.656   3.855   5.794  1.4347  0.6703  2.5285
 6838SOL    HW231974   1.669   3.725   5.879 -1.8978 -3.2507 -1.4059
 6839SOL     OW31975   0.872   4.666   3.432  0.4658 -0.2516 -0.2553
 6839SOL    HW131976   0.901   4.602   3.497 -2.1457 -1.8975 -0.7340
 6839SOL    HW231977   0.832   4.600   3.375 -2.1572  0.3255  0.9353
 6840SOL     OW31978   2.066   4.561   1.363 -0.1442  0.0197 -0.1471
 6840SOL    HW131979   2.093   4.511   1.286 -1.2078 -1.8123  0.6423
 6840SOL    HW231980   1.973   4.545   1.344 -0.4141  0.1824  1.0229
 6841SOL     OW31981   2.711   4.018   8.021 -0.0349 -0.2569 -0.4563
 6841SOL    HW131982   2.637   3.958   8.012 -0.7100  0.4462  0.3439
 6841SOL    HW231983   2.762   3.965   8.082  0.8431 -0.6140 -1.5056
 6842SOL     OW31984   3.669   0.207   9.144  0.0314  0.2220  0.2913
 6842SOL    HW131985   3.727   0.250   9.081 -0.5097 -0.8115 -0.8918
 6842SOL    HW231986   3.716   0.230   9.224  0.6424 -2.3316  0.6516
 6843SOL     OW31987   1.188   0.879   9.872 -0.1381 -0.2682 -0.2573
 6843SOL    HW131988   1.242   0.944   9.828 -1.3672  2.1642  1.7961
 6843SOL    HW231989   1.123   0.858   9.805 -0.5454 -1.1241  0.4022
 6844SOL     OW31990   2.597   2.799   3.232  0.2885  0.6215 -0.0204
 6844SOL    HW131991   2.657   2.823   3.162 -0.8426  0.7894 -0.9332
 6844SOL    HW231992   2.655   2.745   3.284  1.2528  2.0219  0.3626
 6845SOL     OW31993   1.068   0.289  17.175  0.3669  0.1865  0.1330
 6845SOL    HW131994   1.146   0.312  17.125 -0.2183 -1.3797 -1.4884
 6845SOL    HW231995   0.999   0.284  17.108 -1.6558  1.5556  2.0920
 6846SOL     OW31996   2.892   3.450   5.821  0.1208 -0.1677 -0.2205
 6846SOL    HW131997   2.977   3.491   5.836 -0.0859 -0.1857  0.9665
 6846SOL    HW231998   2.902   3.435   5.727  0.6540 -1.7901  0.1010
 6847SOL     OW31999   2.439   0.731  16.283 -0.3471  0.0817 -0.2986
 6847SOL    HW132000   2.455   0.636  16.284  0.4647  0.2386  1.3801
 6847SOL    HW232001   2.530   0.756  16.298  0.2678 -1.0319 -2.1753
 6848SOL     OW32002   0.959   1.755   6.261 -0.5443 -0.2415  0.1187
 6848SOL    HW132003   0.975   1.664   6.286 -1.2128  0.2296  2.3240
 6848SOL    HW232004   0.886   1.779   6.318 -0.4562 -0.1355  0.1881
 6849SOL     OW32005   2.790   0.704   7.812  0.3946 -0.0411 -0.1081
 6849SOL    HW132006   2.831   0.767   7.871 -1.0376  0.8440 -0.0611
 6849SOL    HW232007   2.815   0.621   7.852 -0.4290 -1.6973 -3.0616
 6850SOL     OW32008   1.911   3.019   5.140 -0.2133 -0.1418 -0.0557
 6850SOL    HW132009   1.938   2.979   5.058 -1.8972 -1.8780  0.2401
 6850SOL    HW232010   1.842   2.956   5.161 -2.3329  1.7630 -1.2089
 6851SOL     OW32011   0.744   2.516   8.883 -0.1494 -0.2010  0.1924
 6851SOL    HW132012   0.824   2.477   8.848  1.5756 -0.3661  4.2306
 6851SOL    HW232013   0.711   2.443   8.936  0.6954  1.0359  2.4313
 6852SOL     OW32014   3.765   3.997   5.156  0.8580  0.1607 -0.4861
 6852SOL    HW132015   3.766   3.902   5.167  0.9418  0.0379 -1.5931
 6852SOL    HW232016   3.833   4.031   5.214  2.0081 -2.6469 -0.2081
 6853SOL     OW32017   0.661   1.061   6.823 -0.0513  0.1662  0.9641
 6853SOL    HW132018   0.567   1.079   6.816  0.4944  1.9399 -2.1497
 6853SOL    HW232019   0.660   1.002   6.898  1.2281  0.3803  1.1596
 6854SOL     OW32020   1.983   3.013  15.841 -1.0507  0.2434 -0.1592
 6854SOL    HW132021   1.971   2.982  15.751  3.3003 -0.6304 -0.4578
 6854SOL    HW232022   1.982   3.108  15.826 -0.2949  0.1736 -0.6715
 6855SOL     OW32023   0.232   3.309  16.058 -0.0047  0.6717 -0.1407
 6855SOL    HW132024   0.210   3.259  16.137  1.0764 -1.0652 -0.9243
 6855SOL    HW232025   0.146   3.334  16.023  0.0449  1.5338  0.3677
 6856SOL     OW32026   2.953   3.002   7.774 -0.2185  0.1101  0.2370
 6856SOL    HW132027   3.015   3.029   7.842 -0.0220  0.9571 -0.2745
 6856SOL    HW232028   2.876   2.998   7.831 -0.1643 -0.5878  0.2650
 6857SOL     OW32029   3.111   2.095  17.449  0.2077 -0.2141 -0.3146
 6857SOL    HW132030   3.054   2.091  17.373  2.1647  0.4199 -1.8229
 6857SOL    HW232031   3.083   2.172  17.498 -0.6662 -0.7389  0.0044
 6858SOL     OW32032   3.289   0.268  14.066 -0.4222 -0.1308  0.3534
 6858SOL    HW132033   3.305   0.335  14.000 -0.8980 -0.8356 -0.4812
 6858SOL    HW232034   3.365   0.272  14.124 -0.2617  0.4071  0.0981
 6859SOL     OW32035   2.985   1.125   2.796  0.3933 -0.1639 -0.4738
 6859SOL    HW132036   3.015   1.214   2.776 -2.7402  1.1132  0.4319
 6859SOL    HW232037   2.939   1.106   2.714  1.3936  0.0938 -1.0912
 6860SOL     OW32038   1.326   3.092  14.009  0.4808 -0.0236 -0.3596
 6860SOL    HW132039   1.245   3.112  14.055  1.2368  0.0290  0.9297
 6860SOL    HW232040   1.384   3.072  14.082 -0.2573  0.5647  0.3856
 6861SOL     OW32041   1.172   1.595   5.022 -0.1622 -0.1611  0.0493
 6861SOL    HW132042   1.252   1.542   5.023 -0.0175  0.0258 -1.2458
 6861SOL    HW232043   1.135   1.573   4.937 -0.2193 -0.7691  0.2380
 6862SOL     OW32044   0.589   0.970   4.573  0.2611  0.0729  0.1997
 6862SOL    HW132045   0.616   0.920   4.495 -1.3925 -1.1058  0.3811
 6862SOL    HW232046   0.544   1.044   4.531 -0.2191 -1.0874 -1.3255
 6863SOL     OW32047   1.111   4.230   2.157 -0.3037 -0.4301 -0.1283
 6863SOL    HW132048   1.146   4.242   2.069 -0.4107 -1.9024 -0.3818
 6863SOL    HW232049   1.157   4.297   2.206  0.0705  0.5076 -1.7581
 6864SOL     OW32050   2.166   0.831   9.733  0.4214  0.1208 -0.3850
 6864SOL    HW132051   2.194   0.803   9.646 -1.2378  4.0556 -2.1733
 6864SOL    HW232052   2.185   0.923   9.713 -0.9474  0.3503 -0.5861
 6865SOL     OW32053   0.738   3.005   2.194 -0.0575  0.2591 -0.7030
 6865SOL    HW132054   0.685   2.968   2.123 -1.2612 -0.0886  0.3790
 6865SOL    HW232055   0.692   3.087   2.213 -1.0662 -0.4282 -0.1531
 6866SOL     OW32056   0.575   4.218   8.757  0.5132 -0.0223  0.0878
 6866SOL    HW132057   0.500   4.251   8.807  0.3083  1.6954 -1.3779
 6866SOL    HW232058   0.652   4.223   8.813 -0.6762 -0.6610  1.8202
 6867SOL     OW32059   1.358   1.765   3.057  0.1145 -0.4612 -0.2164
 6867SOL    HW132060   1.331   1.723   3.138 -1.5829  1.5860  0.2787
 6867SOL    HW232061   1.359   1.689   2.999 -0.4812  0.4352 -1.3970
 6868SOL     OW32062   0.319   4.222   2.651  0.1901  0.0573  0.3434
 6868SOL    HW132063   0.252   4.174   2.603  0.9571  0.2299 -0.9107
 6868SOL    HW232064   0.363   4.266   2.579  2.0630 -2.6230 -0.1637
 6869SOL     OW32065   2.414   2.554  11.909 -0.1524  0.3446 -0.5033
 6869SOL    HW132066   2.467   2.601  11.844  0.9674 -0.8639 -0.4597
 6869SOL    HW232067   2.376   2.633  11.948 -1.7145 -1.6877  2.0979
 6870SOL     OW32068   4.411   3.538   2.175 -0.3701  0.0427  0.3621
 6870SOL    HW132069   4.410   3.613   2.234  0.1904  0.6916 -0.4519
 6870SOL    HW232070   4.331   3.550   2.123  0.6330  0.8074 -1.0043
 6871SOL     OW32071   1.881   3.355   6.931  0.3027 -0.1306 -0.5732
 6871SOL    HW132072   1.871   3.396   7.017  0.4691  0.2722 -0.7503
 6871SOL    HW232073   1.876   3.260   6.946  1.0621  0.0534  0.8232
 6872SOL     OW32074   4.662   4.130   2.689 -0.1959  0.3868  0.1307
 6872SOL    HW132075   4.675   4.219   2.720  0.9331  0.4908 -0.6392
 6872SOL    HW232076   4.566   4.131   2.684  0.0016  2.7765 -2.7989
 6873SOL     OW32077   1.332   1.138   6.432  0.5000 -0.6914  0.4276
 6873SOL    HW132078   1.352   1.174   6.345  1.5341  0.6495  1.2324
 6873SOL    HW232079   1.367   1.203   6.492  0.5250 -1.9142  1.7326
 6874SOL     OW32080   3.359   1.801   7.597 -0.0362  0.6514 -0.2083
 6874SOL    HW132081   3.272   1.832   7.625  1.1082 -0.0678  4.0763
 6874SOL    HW232082   3.375   1.736   7.665  0.4152  0.1653 -0.7823
 6875SOL     OW32083   2.985   3.356  10.442  0.3455 -0.1576  0.1778
 6875SOL    HW132084   2.929   3.280  10.429 -0.1448 -0.2398  2.6736
 6875SOL    HW232085   3.068   3.314  10.464  0.6938 -0.7397 -2.2616
 6876SOL     OW32086   3.566   2.708   6.776 -0.0158  0.0459  0.0779
 6876SOL    HW132087   3.515   2.711   6.694 -0.6991 -3.6056  0.3607
 6876SOL    HW232088   3.628   2.779   6.758  1.5894 -0.8052  2.2855
 6877SOL     OW32089   3.538   1.306  11.033 -0.2137  0.1679 -0.3659
 6877SOL    HW132090   3.585   1.356  10.967  1.6237 -0.4662  0.4693
 6877SOL    HW232091   3.471   1.274  10.973 -0.4450 -1.4977  0.7735
 6878SOL     OW32092   2.537   0.221  13.562  0.3459 -0.7823 -0.4396
 6878SOL    HW132093   2.607   0.268  13.516  2.5470 -0.1370  3.5916
 6878SOL    HW232094   2.524   0.294  13.623  1.4937 -2.6422  2.0261
 6879SOL     OW32095   0.628   2.835   8.144  0.0426  0.1191  0.0563
 6879SOL    HW132096   0.616   2.862   8.234 -0.1685 -0.1179  0.0994
 6879SOL    HW232097   0.549   2.783   8.127  0.0589 -0.0015  0.3511
 6880SOL     OW32098   4.673   1.250  11.159  0.6054 -0.1077  0.5646
 6880SOL    HW132099   0.005   1.284  11.227 -0.9596  0.6449  1.5440
 6880SOL    HW232100   4.715   1.273  11.076 -0.2195 -1.3563 -0.1976
 6881SOL     OW32101   0.302   1.770  17.464 -0.3321  0.3015  0.1460
 6881SOL    HW132102   0.391   1.796  17.439 -0.7065  1.6312  0.2442
 6881SOL    HW232103   0.319   1.746  17.556  0.3343 -1.0320 -0.3264
 6882SOL     OW32104   1.492   1.472   4.161  0.6169 -0.0036  0.1091
 6882SOL    HW132105   1.460   1.561   4.149  1.8377  0.2956 -0.8525
 6882SOL    HW232106   1.563   1.485   4.098  0.2090  0.6623 -0.2159
 6883SOL     OW32107   2.734   3.944   2.454  0.4986 -0.0956 -0.2971
 6883SOL    HW132108   2.761   4.035   2.442 -0.0154 -0.0660 -1.1989
 6883SOL    HW232109   2.716   3.909   2.367 -1.0727  0.0955 -0.0525
 6884SOL     OW32110   2.594   4.718   6.584  0.3358  0.2892 -0.2174
 6884SOL    HW132111   2.546   4.710   6.502 -0.9620 -1.3458  0.7087
 6884SOL    HW232112   2.559   4.642   6.630  0.5779 -1.0073 -2.1956
 6885SOL     OW32113   0.528   2.354   5.817  0.0574  0.3280  0.0214
 6885SOL    HW132114   0.474   2.323   5.744  1.8750 -2.9426  0.0454
 6885SOL    HW232115   0.522   2.446   5.793  0.4260 -0.0299 -1.4600
 6886SOL     OW32116   2.724   0.343  14.486 -0.1140 -0.1672 -0.1281
 6886SOL    HW132117   2.774   0.361  14.566 -3.3017  1.0651  1.5983
 6886SOL    HW232118   2.668   0.420  14.487 -1.2025 -0.9649  1.4098
 6887SOL     OW32119   0.169   4.515   0.579 -0.5988  0.2030 -0.0258
 6887SOL    HW132120   0.236   4.582   0.565 -0.3311  0.0439  0.5215
 6887SOL    HW232121   0.225   4.439   0.564 -0.3109  0.8266 -2.2226
 6888SOL     OW32122   1.090   2.569   4.086  0.1053 -0.2803  0.3479
 6888SOL    HW132123   1.035   2.585   4.162  1.5139  0.7353  1.1646
 6888SOL    HW232124   1.041   2.615   4.018 -2.0685 -2.7129  0.2569
 6889SOL     OW32125   0.213   3.899   7.414  0.0297  0.4350 -0.8247
 6889SOL    HW132126   0.162   3.884   7.493  1.7053 -2.7725 -0.3696
 6889SOL    HW232127   0.277   3.828   7.418 -0.2027  0.2866  0.0907
 6890SOL     OW32128   2.187   0.364   4.933 -0.0619  0.3546 -0.3998
 6890SOL    HW132129   2.225   0.276   4.927  0.7986  0.7937 -1.3474
 6890SOL    HW232130   2.266   0.417   4.947  0.2943  0.0086 -1.1092
 6891SOL     OW32131   0.869   3.140   0.522 -0.3794  0.3043  0.5894
 6891SOL    HW132132   0.881   3.234   0.510  1.2552 -0.0713 -0.6187
 6891SOL    HW232133   0.814   3.128   0.445  2.3765  0.8047 -1.4314
 6892SOL     OW32134   4.485   0.589   3.020  0.5331  0.4309 -0.6888
 6892SOL    HW132135   4.435   0.602   2.940 -1.6293 -1.2953  0.3708
 6892SOL    HW232136   4.473   0.668   3.073 -0.0817  0.9514 -1.6195
 6893SOL     OW32137   0.150   2.525  11.482  0.1511  0.1185 -0.3722
 6893SOL    HW132138   0.238   2.551  11.509  0.5807 -3.1988  1.5444
 6893SOL    HW232139   0.110   2.607  11.509 -0.1771 -0.0638 -0.3084
 6894SOL     OW32140   2.705   2.150   0.191  0.4813  0.3407 -0.2787
 6894SOL    HW132141   2.657   2.219   0.145 -0.4150  1.0658  1.7295
 6894SOL    HW232142   2.695   2.090   0.117  0.3121 -0.1108  0.1092
 6895SOL     OW32143   0.076   4.244   4.069  0.5718 -0.1921  0.2043
 6895SOL    HW132144   0.049   4.224   4.159 -1.2150  1.4572  0.0284
 6895SOL    HW232145   0.171   4.237   4.058  0.6361  1.7811 -0.3633
 6896SOL     OW32146   1.049   4.124   7.522 -0.8919  0.5876 -0.0097
 6896SOL    HW132147   1.111   4.079   7.579  1.2305  1.2980 -1.7418
 6896SOL    HW232148   1.051   4.217   7.546  2.6981 -0.2643  3.0475
 6897SOL     OW32149   2.097   0.695   5.201 -0.6531 -0.1593  0.0653
 6897SOL    HW132150   2.164   0.711   5.134  0.2238 -1.7611  0.5650
 6897SOL    HW232151   2.038   0.636   5.154  0.0216 -0.7779 -0.0141
 6898SOL     OW32152   4.572   4.028   1.810  0.5176 -0.8783 -0.5943
 6898SOL    HW132153   4.629   4.026   1.733 -1.3338  0.4425 -1.9834
 6898SOL    HW232154   4.559   4.120   1.833  1.0565 -0.6979 -1.0062
 6899SOL     OW32155   1.280   2.606   5.805 -0.5809  0.4638  0.3343
 6899SOL    HW132156   1.266   2.520   5.844 -2.1672  1.0224  1.0182
 6899SOL    HW232157   1.193   2.635   5.775 -0.7799  0.2078  0.6684
 6900SOL     OW32158   3.222   3.003   8.523 -0.0662 -0.0795 -0.3551
 6900SOL    HW132159   3.138   3.014   8.568  0.8651  0.9458  1.1511
 6900SOL    HW232160   3.259   2.938   8.583 -0.0692 -1.8669 -2.2952
 6901SOL     OW32161   2.836   1.529   6.124  0.4016 -0.3723 -0.2198
 6901SOL    HW132162   2.786   1.453   6.093  0.3295 -0.5434  0.3230
 6901SOL    HW232163   2.900   1.482   6.177  0.7789 -1.1453 -1.3618
 6902SOL     OW32164   2.439   2.772  17.064  0.1285 -0.4111 -0.3257
 6902SOL    HW132165   2.394   2.698  17.022 -1.2344  1.2684 -1.8125
 6902SOL    HW232166   2.499   2.798  16.995  1.6020  0.1023  1.1520
 6903SOL     OW32167   1.210   4.437   5.495 -0.1915 -0.0621  0.0347
 6903SOL    HW132168   1.228   4.363   5.437  0.1279 -0.5213  0.7196
 6903SOL    HW232169   1.296   4.451   5.534 -0.9495 -1.7876  2.3703
 6904SOL     OW32170   2.057   1.536  16.882 -0.6425  0.5779  0.3943
 6904SOL    HW132171   2.147   1.555  16.854  0.5095  0.9514  4.3348
 6904SOL    HW232172   2.004   1.521  16.804 -0.3952  2.7820 -0.2062
 6905SOL     OW32173   0.347   2.950   8.232 -0.9603  0.5009  0.6055
 6905SOL    HW132174   0.372   2.873   8.282 -0.8334  1.0774  1.4351
 6905SOL    HW232175   0.273   2.921   8.180 -0.3147 -0.8545  0.4424
 6906SOL     OW32176   1.665   1.162   3.985 -0.1674 -0.1453 -0.0124
 6906SOL    HW132177   1.723   1.087   3.998 -0.5953 -0.3324  0.8201
 6906SOL    HW232178   1.712   1.223   3.929  1.5147 -0.4657  1.0429
 6907SOL     OW32179   0.728   1.454  10.595  0.5083  0.1435  0.1460
 6907SOL    HW132180   0.797   1.441  10.531  1.3482  2.7099  0.5177
 6907SOL    HW232181   0.648   1.460  10.543  0.1002  0.8099  0.8446
 6908SOL     OW32182   1.946   3.927  15.997 -0.4609  0.2116  0.6106
 6908SOL    HW132183   2.015   3.861  15.986 -0.8221  0.4244 -3.2051
 6908SOL    HW232184   1.991   4.008  15.975 -0.6099 -0.1662 -1.1341
 6909SOL     OW32185   2.991   4.186   9.213 -0.2996 -0.4775  0.2639
 6909SOL    HW132186   2.956   4.274   9.202 -0.2749 -0.7945 -2.3481
 6909SOL    HW232187   3.065   4.202   9.272  1.0710 -1.4138 -1.2065
 6910SOL     OW32188   4.093   2.545   9.236  0.2291 -0.0643  0.2281
 6910SOL    HW132189   4.172   2.563   9.186 -0.4670  1.6198 -0.2378
 6910SOL    HW232190   4.054   2.485   9.172  1.0965 -0.2537 -0.1214
 6911SOL     OW32191   0.101   2.676  17.614  0.2924 -0.2487 -0.3623
 6911SOL    HW132192   0.176   2.736  17.617  0.4520 -0.4494 -0.3320
 6911SOL    HW232193   0.138   2.592  17.643 -0.1725 -0.3363 -0.0210
 6912SOL     OW32194   3.106   3.129  12.206  0.2239  0.3652 -0.1183
 6912SOL    HW132195   3.124   3.213  12.247 -3.2215  0.2491  1.6455
 6912SOL    HW232196   3.137   3.137  12.116  1.0542  0.5067  0.1736
 6913SOL     OW32197   1.817   2.280   2.981  0.4004  0.5003 -0.1943
 6913SOL    HW132198   1.908   2.305   2.993  1.0698 -1.3443 -1.5473
 6913SOL    HW232199   1.792   2.232   3.060  0.0213 -0.3261 -0.8115
 6914SOL     OW32200   1.070   0.192   7.223 -0.2194 -0.0244  0.0953
 6914SOL    HW132201   1.100   0.214   7.135  1.6111 -1.2544  0.4066
 6914SOL    HW232202   1.121   0.256   7.273 -0.8100 -0.1676  0.8734
 6915SOL     OW32203   0.603   1.778   4.852 -0.3125 -0.1810  0.4726
 6915SOL    HW132204   0.577   1.865   4.883 -0.8328 -1.2897  3.1401
 6915SOL    HW232205   0.698   1.785   4.862 -0.3796  0.5060  0.6588
 6916SOL     OW32206   0.282   1.159  17.645 -0.1437  0.6242  0.3040
 6916SOL    HW132207   0.268   1.252  17.664  0.9442  0.8414  0.0341
 6916SOL    HW232208   0.342   1.166  17.570  1.8392 -0.8457  1.7642
 6917SOL     OW32209   2.758   3.851   2.195 -0.1642  0.0858 -0.2208
 6917SOL    HW132210   2.668   3.883   2.192 -0.4967 -0.6977  1.3154
 6917SOL    HW232211   2.770   3.811   2.109  0.0845 -0.0425 -0.1285
 6918SOL     OW32212   0.624   1.549   3.174 -0.0883  0.1690 -0.4363
 6918SOL    HW132213   0.719   1.534   3.178  0.4243  3.2939 -0.5590
 6918SOL    HW232214   0.596   1.468   3.215 -1.1857  0.8155  0.0679
 6919SOL     OW32215   3.276   3.436   5.226  0.3825  0.1918  0.6826
 6919SOL    HW132216   3.316   3.350   5.242  0.3891  0.1652  0.5200
 6919SOL    HW232217   3.188   3.425   5.262  0.5202  0.3556  1.0684
 6920SOL     OW32218   0.490   4.598  13.768  0.1486  0.1975  0.7660
 6920SOL    HW132219   0.490   4.635  13.680 -1.5948 -1.0740  0.2328
 6920SOL    HW232220   0.571   4.634  13.802  1.1446 -2.5024  1.2931
 6921SOL     OW32221   4.421   1.120   2.439  0.4713 -0.3149 -0.0358
 6921SOL    HW132222   4.465   1.197   2.473  0.6567  0.6178 -2.3450
 6921SOL    HW232223   4.373   1.144   2.359 -0.6175 -1.3890  0.2848
 6922SOL     OW32224   2.951   2.764   5.936 -0.1736  0.5097  0.7896
 6922SOL    HW132225   2.969   2.781   5.844  0.6757  0.1763  0.8854
 6922SOL    HW232226   2.861   2.738   5.920 -0.2036  1.7577 -1.0582
 6923SOL     OW32227   1.337   1.431   0.930 -0.5884  0.1663 -0.1404
 6923SOL    HW132228   1.324   1.340   0.958 -2.7664  0.4470 -0.2536
 6923SOL    HW232229   1.422   1.454   0.968 -0.2671 -3.1928  1.1750
 6924SOL     OW32230   0.311   4.586  16.409  0.2543 -0.4714  0.4836
 6924SOL    HW132231   0.402   4.560  16.401 -0.6137 -3.0522 -1.1233
 6924SOL    HW232232   0.259   4.509  16.434 -0.1137 -0.4116 -0.1130
 6925SOL     OW32233   0.795   1.254   6.009  0.6648 -0.3298  0.3418
 6925SOL    HW132234   0.872   1.311   6.001 -0.2818  0.8702 -0.1750
 6925SOL    HW232235   0.726   1.307   6.049 -0.6692 -0.6125 -1.5822
 6926SOL     OW32236   2.262   2.668   9.124 -0.2261  0.0201  0.0177
 6926SOL    HW132237   2.184   2.688   9.073 -0.4616 -2.3216 -0.5660
 6926SOL    HW232238   2.263   2.572   9.128  2.8773 -0.0387 -1.7864
 6927SOL     OW32239   4.265   1.052  13.989  0.0793 -0.2311 -0.2402
 6927SOL    HW132240   4.254   1.003  14.071  1.4635  0.1761  0.1873
 6927SOL    HW232241   4.355   1.040  13.962  0.2549 -2.4281  1.2812
 6928SOL     OW32242   1.522   1.965   1.800  0.1108 -0.1183 -0.4742
 6928SOL    HW132243   1.450   2.026   1.786 -0.1080 -0.2919 -0.1141
 6928SOL    HW232244   1.595   2.019   1.770 -0.0343  0.5207  0.3077
 6929SOL     OW32245   2.695   4.533   6.913 -1.0144 -0.3607  0.0395
 6929SOL    HW132246   2.638   4.457   6.919 -1.5384 -0.1664 -2.2721
 6929SOL    HW232247   2.648   4.582   6.980  0.2277 -1.5590  1.7929
 6930SOL     OW32248   0.796   3.742  15.169 -0.6573  0.1013  0.0102
 6930SOL    HW132249   0.809   3.733  15.074 -1.2560 -0.3913 -0.0268
 6930SOL    HW232250   0.704   3.768  15.175 -0.6495 -0.1806  1.2157
 6931SOL     OW32251   3.396   2.560  16.029 -0.1974 -0.5061 -0.2777
 6931SOL    HW132252   3.433   2.612  16.100 -0.2256 -0.8308 -0.0216
 6931SOL    HW232253   3.359   2.624  15.968 -0.6508 -0.5515 -0.0537
 6932SOL     OW32254   1.795   1.552   1.716  0.0684  0.1868 -0.1733
 6932SOL    HW132255   1.739   1.537   1.792  0.5157 -1.4382 -0.1579
 6932SOL    HW232256   1.765   1.637   1.685 -0.7240 -0.4285 -1.0936
 6933SOL     OW32257   0.944   2.621   1.217  0.0174 -0.0370  0.2850
 6933SOL    HW132258   0.978   2.609   1.305 -0.8558  0.8593  0.7466
 6933SOL    HW232259   0.984   2.544   1.177  2.7777  2.1538 -1.2104
 6934SOL     OW32260   3.009   0.723  15.584  0.0165 -0.1720 -0.4297
 6934SOL    HW132261   3.037   0.815  15.578 -1.0104  0.1101 -0.9208
 6934SOL    HW232262   2.943   0.718  15.653 -0.6076 -1.2828 -1.1284
 6935SOL     OW32263   2.130   2.861   9.588  0.0904  0.0466  0.3011
 6935SOL    HW132264   2.073   2.853   9.664 -2.6662 -1.5157 -1.9440
 6935SOL    HW232265   2.168   2.773   9.585 -0.1337 -0.0128 -0.7248
 6936SOL     OW32266   2.403   3.106   5.160 -0.4359  0.5907  0.1302
 6936SOL    HW132267   2.468   3.131   5.225 -1.1044 -0.8784  1.3766
 6936SOL    HW232268   2.327   3.100   5.219  0.1374  0.2783  0.8383
 6937SOL     OW32269   1.713   0.908   7.385  0.6662 -0.0683 -0.1084
 6937SOL    HW132270   1.782   0.860   7.340  1.6447 -0.4875  1.8522
 6937SOL    HW232271   1.749   0.911   7.474  0.0883 -0.0715  0.1251
 6938SOL     OW32272   2.418   2.124   9.905 -0.3212 -0.0172 -0.5293
 6938SOL    HW132273   2.420   2.153   9.814  0.6765  1.4615 -0.0439
 6938SOL    HW232274   2.505   2.155   9.929  0.4130 -1.7129 -0.9715
 6939SOL     OW32275   1.060   3.788   8.678  0.1698 -0.1270 -0.0344
 6939SOL    HW132276   1.112   3.795   8.599 -0.3279  1.9176 -0.1890
 6939SOL    HW232277   0.980   3.763   8.632 -1.7650  1.7307  2.2784
 6940SOL     OW32278   3.892   0.918   6.549  0.4070 -0.1872 -0.2525
 6940SOL    HW132279   3.896   0.881   6.637 -0.4994  1.4277  0.4761
 6940SOL    HW232280   3.987   0.929   6.545  0.3430  0.8303  0.8073
 6941SOL     OW32281   4.598   1.566   5.485  0.1212  0.1052 -0.0752
 6941SOL    HW132282   4.621   1.657   5.470 -1.1038  0.2562 -1.0115
 6941SOL    HW232283   4.594   1.571   5.581  1.2504 -1.6319  0.0690
 6942SOL     OW32284   4.425   0.016   3.816  0.0115 -0.3868 -0.3679
 6942SOL    HW132285   4.418   0.035   3.723 -2.6619  1.4213  0.1770
 6942SOL    HW232286   4.349   4.686   3.827 -0.8023  0.1940 -3.0321
 6943SOL     OW32287   0.800   2.766   0.525 -0.0233 -0.0677  0.5570
 6943SOL    HW132288   0.792   2.834   0.457 -1.7320 -1.1168 -0.2900
 6943SOL    HW232289   0.894   2.765   0.544  0.1640 -0.4829 -0.3678
 6944SOL     OW32290   1.185   4.466   6.635  0.8562  0.1651  0.0579
 6944SOL    HW132291   1.179   4.454   6.730 -1.0351  0.4136 -0.0228
 6944SOL    HW232292   1.279   4.477   6.623  0.6625  2.9716  1.0457
 6945SOL     OW32293   4.262   4.349   5.690  0.1233  0.5307 -0.5901
 6945SOL    HW132294   4.269   4.440   5.721 -0.6846  0.2543  0.3919
 6945SOL    HW232295   4.197   4.312   5.749  0.3154  1.4735  0.2138
 6946SOL     OW32296   1.853   3.554   2.735 -0.4703  0.2560 -0.1192
 6946SOL    HW132297   1.807   3.518   2.811  1.6705  0.4938  1.3204
 6946SOL    HW232298   1.928   3.496   2.718  1.0528  2.0021  0.5738
 6947SOL     OW32299   0.494   2.497   2.906 -0.0152  0.5589  0.0565
 6947SOL    HW132300   0.490   2.592   2.894  1.7452  0.5626 -0.4538
 6947SOL    HW232301   0.409   2.467   2.876 -0.0082 -1.4225  2.0416
 6948SOL     OW32302   0.236   2.201  15.375  0.1384 -0.2106 -0.7537
 6948SOL    HW132303   0.325   2.178  15.401  0.3669 -0.8009 -2.0160
 6948SOL    HW232304   0.231   2.164  15.286 -1.9417 -1.8518  0.0466
 6949SOL     OW32305   0.361   4.115   4.049  0.2909 -0.2480 -0.6173
 6949SOL    HW132306   0.321   4.098   3.964 -0.0263 -0.6990 -0.3838
 6949SOL    HW232307   0.332   4.037   4.098  1.8235 -0.4767 -0.0937
 6950SOL     OW32308   3.702   3.953   8.447  0.0854 -0.4776  0.6005
 6950SOL    HW132309   3.792   3.952   8.414  0.5604 -3.2411  1.9385
 6950SOL    HW232310   3.661   4.017   8.389 -1.5559 -0.9743  1.2102
 6951SOL     OW32311   1.577   3.232   3.692 -0.4780 -0.3937  0.4995
 6951SOL    HW132312   1.593   3.301   3.627  0.4339 -0.4552  0.6664
 6951SOL    HW232313   1.488   3.253   3.720 -0.1702 -0.9475  1.8860
 6952SOL     OW32314   2.350   4.511  11.224 -0.3013  0.0001  0.4519
 6952SOL    HW132315   2.385   4.600  11.209 -4.2666  1.6678  1.1442
 6952SOL    HW232316   2.374   4.463  11.145 -0.6856  0.0886  0.2814
 6953SOL     OW32317   1.121   2.341   8.989  0.1553 -0.1784  0.1287
 6953SOL    HW132318   1.077   2.337   9.074 -1.2465 -2.1396 -0.6810
 6953SOL    HW232319   1.200   2.383   9.022  0.2682  0.1703 -0.5615
 6954SOL     OW32320   3.435   4.654   8.113 -0.0048 -0.0997  0.1571
 6954SOL    HW132321   3.461   4.600   8.188 -0.5947 -1.3137 -0.5213
 6954SOL    HW232322   3.515   4.651   8.061 -0.9575 -0.7848 -1.2518
 6955SOL     OW32323   3.827   0.709   7.221  0.0741  0.1122  0.6032
 6955SOL    HW132324   3.832   0.749   7.308  1.6339  2.8930 -0.7595
 6955SOL    HW232325   3.819   0.616   7.244 -1.0480 -0.4138 -1.8834
 6956SOL     OW32326   0.256   2.071   4.208 -0.5697 -0.2961  0.9124
 6956SOL    HW132327   0.286   1.996   4.156 -2.6972  0.9761 -2.1909
 6956SOL    HW232328   0.208   2.121   4.142  0.1475 -0.5927  0.1575
 6957SOL     OW32329   0.742   1.437   5.028  0.0527 -0.3643 -0.6927
 6957SOL    HW132330   0.808   1.368   5.037  1.2561  0.9192  0.2845
 6957SOL    HW232331   0.788   1.518   5.046 -1.8419  1.0676 -2.3048
 6958SOL     OW32332   2.855   1.888   8.034  0.6155  0.2909  0.3044
 6958SOL    HW132333   2.896   1.815   8.081  1.5528 -0.6838 -2.0212
 6958SOL    HW232334   2.819   1.847   7.956  0.3778  0.6532  0.2213
 6959SOL     OW32335   0.931   3.768   8.267  0.3366 -0.2190 -0.2959
 6959SOL    HW132336   0.922   3.805   8.179  1.5764 -0.4932 -0.5306
 6959SOL    HW232337   0.841   3.755   8.299  0.5724  1.6907  1.1844
 6960SOL     OW32338   0.755   1.486  12.564  0.1424 -0.3547 -0.5536
 6960SOL    HW132339   0.823   1.513  12.501  3.1324 -0.2891  2.6669
 6960SOL    HW232340   0.673   1.512  12.523  0.4020  2.4577  0.7163
 6961SOL     OW32341   0.638   3.231   3.158 -0.1378 -0.2299 -0.1859
 6961SOL    HW132342   0.618   3.194   3.072  1.3252  3.6748 -2.1809
 6961SOL    HW232343   0.629   3.157   3.218 -1.1479  0.5777  0.6678
 6962SOL     OW32344   1.508   2.157   3.397 -0.5948  0.0508  0.1344
 6962SOL    HW132345   1.422   2.123   3.370 -0.2925  0.6050 -1.5091
 6962SOL    HW232346   1.487   2.243   3.435  0.3502 -0.0275  0.8224
 6963SOL     OW32347   1.791   1.689   2.530 -0.3191 -0.0685 -0.5198
 6963SOL    HW132348   1.748   1.722   2.609  1.4755 -0.4738  0.6157
 6963SOL    HW232349   1.713   1.672   2.477 -1.3801  0.0117  1.0042
 6964SOL     OW32350   3.573   2.822   7.922  0.3380 -0.5512  0.5789
 6964SOL    HW132351   3.521   2.855   7.996  0.5136  1.1246 -0.0379
 6964SOL    HW232352   3.532   2.860   7.845 -0.4025  0.4467  1.4639
 6965SOL     OW32353   4.175   2.515   7.680 -0.1805  0.1201  0.3031
 6965SOL    HW132354   4.098   2.504   7.625  1.9452  0.7743 -2.8043
 6965SOL    HW232355   4.142   2.472   7.759 -1.0168  3.7574  1.9229
 6966SOL     OW32356   2.023   2.948   8.793 -0.4829  0.0919  0.2611
 6966SOL    HW132357   2.093   2.998   8.835 -2.2071  0.2106  3.0081
 6966SOL    HW232358   1.954   3.013   8.807  0.3652  1.4763 -2.0582
 6967SOL     OW32359   1.359   4.631  15.261  0.2647  0.3436 -0.9257
 6967SOL    HW132360   1.363   4.545  15.218 -3.1742  0.0120 -0.5610
 6967SOL    HW232361   1.269   4.658  15.244  0.3375  1.7219  0.8836
 6968SOL     OW32362   0.049   0.658   4.487 -0.0718  0.2840 -0.6744
 6968SOL    HW132363   0.126   0.715   4.476  0.4982 -0.6397 -1.4901
 6968SOL    HW232364   0.041   0.616   4.402 -0.8487 -1.1072  0.0942
 6969SOL     OW32365   4.612   0.192   2.775 -0.3377  0.0374 -0.6086
 6969SOL    HW132366   4.640   0.264   2.832  0.0740 -0.6135  0.0246
 6969SOL    HW232367   4.566   0.243   2.709 -0.3024 -0.7842 -1.2651
 6970SOL     OW32368   0.740   1.811  12.403 -0.1620  0.1943 -0.0471
 6970SOL    HW132369   0.683   1.751  12.354 -0.7448  0.5529  0.2021
 6970SOL    HW232370   0.822   1.762  12.401 -1.4404 -1.9374 -0.2989
 6971SOL     OW32371   3.298   4.573   9.985  0.1351 -0.4037 -0.5634
 6971SOL    HW132372   3.234   4.512  10.020  1.0415 -0.1600  1.5609
 6971SOL    HW232373   3.363   4.507   9.962 -0.9444 -1.3408 -0.8806
 6972SOL     OW32374   0.991   4.054   6.183  0.8227  0.1060  0.6258
 6972SOL    HW132375   1.025   3.966   6.166 -0.6084  0.0263 -1.7923
 6972SOL    HW232376   0.949   4.082   6.102  0.1848 -0.6037  0.7084
 6973SOL     OW32377   2.858   4.112   8.356 -0.0345  0.0941  0.8771
 6973SOL    HW132378   2.870   4.096   8.263  1.3356  2.0253  0.7450
 6973SOL    HW232379   2.939   4.086   8.401  0.1261 -1.4169 -0.2724
 6974SOL     OW32380   1.770   1.064   1.451 -0.6091  0.3518 -0.3260
 6974SOL    HW132381   1.735   1.001   1.514  0.3412 -0.6039 -0.7504
 6974SOL    HW232382   1.791   1.006   1.378 -1.8577  0.8912 -1.1024
 6975SOL     OW32383   3.281   0.507   8.302  0.6770  0.2250 -0.5470
 6975SOL    HW132384   3.278   0.412   8.314 -0.8162  0.5799  1.7164
 6975SOL    HW232385   3.365   0.506   8.255  0.6283  0.1621 -0.6328
 6976SOL     OW32386   3.392   4.471  17.058  0.8176 -0.0345  0.5747
 6976SOL    HW132387   3.434   4.399  17.106 -1.5700 -2.8191 -1.4617
 6976SOL    HW232388   3.433   4.467  16.972  0.8868  1.7659  0.5281
 6977SOL     OW32389   3.428   2.135   7.970  0.2746  0.0815 -0.5280
 6977SOL    HW132390   3.419   2.040   7.962 -2.4052  0.2669  0.2831
 6977SOL    HW232391   3.381   2.157   8.051  2.7190 -1.3672  1.3024
 6978SOL     OW32392   0.232   3.959   6.177  0.2815 -0.1539  0.0606
 6978SOL    HW132393   0.191   4.045   6.168 -0.7614 -0.8089 -1.3943
 6978SOL    HW232394   0.156   3.904   6.158  0.5539 -0.9372  1.2055
 6979SOL     OW32395   2.722   2.967   2.515 -0.0204 -0.3579  0.0069
 6979SOL    HW132396   2.706   3.004   2.429 -2.2913  0.2625  0.6870
 6979SOL    HW232397   2.732   3.046   2.570  0.1316 -1.4478  1.5488
 6980SOL     OW32398   1.289   3.093  16.174  0.5620 -0.1266  0.2507
 6980SOL    HW132399   1.197   3.084  16.200  0.8826  1.2778  1.8823
 6980SOL    HW232400   1.314   3.169  16.226 -2.1305  0.6044  0.4779
 6981SOL     OW32401   2.554   4.216  16.101 -0.0223  0.1258  0.6189
 6981SOL    HW132402   2.533   4.309  16.111 -0.2145  0.3286 -1.6527
 6981SOL    HW232403   2.639   4.208  16.058 -0.3711  0.9756 -0.2331
 6982SOL     OW32404   3.910   1.909   6.383  0.4633 -0.0002 -0.2290
 6982SOL    HW132405   3.857   1.929   6.460  1.3146  1.5019 -0.0175
 6982SOL    HW232406   3.966   1.986   6.370 -1.2842  1.0263 -1.7339
 6983SOL     OW32407   3.428   0.450  15.315  0.2222  0.8841 -0.4948
 6983SOL    HW132408   3.335   0.474  15.313  0.0045  0.1374  1.4805
 6983SOL    HW232409   3.474   0.529  15.345  1.5713  0.0157 -0.3164
 6984SOL     OW32410   1.277   3.484   9.665 -0.6909 -0.2542 -0.1337
 6984SOL    HW132411   1.300   3.576   9.654  1.4143 -0.8508 -0.6985
 6984SOL    HW232412   1.307   3.448   9.582 -0.0446 -1.0148  0.4330
 6985SOL     OW32413   2.077   1.137   5.497 -0.2259 -0.3130 -0.4453
 6985SOL    HW132414   2.065   1.170   5.586 -2.6458 -1.8633 -0.1932
 6985SOL    HW232415   2.000   1.172   5.452  0.4159  0.9685 -0.5533
 6986SOL     OW32416   0.444   3.203   4.568 -0.3257  0.1548 -0.0153
 6986SOL    HW132417   0.472   3.160   4.487  1.9407 -0.1967  0.9546
 6986SOL    HW232418   0.526   3.247   4.588 -2.1515  0.8541  6.1204
 6987SOL     OW32419   1.083   2.218   6.672  0.1256  0.6107  0.5379
 6987SOL    HW132420   1.139   2.172   6.609 -1.4811 -0.3220 -0.2049
 6987SOL    HW232421   1.141   2.275   6.723  0.0006  2.7194 -1.6702
 6988SOL     OW32422   3.276   0.926  17.216 -0.1503  0.3304 -0.5182
 6988SOL    HW132423   3.242   0.847  17.175  2.4596  0.2297 -2.5097
 6988SOL    HW232424   3.201   0.985  17.229 -0.3927  0.3768 -2.1977
 6989SOL     OW32425   2.548   4.015   9.172 -0.2697 -0.2356 -0.5002
 6989SOL    HW132426   2.540   3.940   9.230 -1.4535 -0.8819 -1.4883
 6989SOL    HW232427   2.618   4.067   9.210 -0.1742  0.5851 -1.7923
 6990SOL     OW32428   0.594   1.505   5.256 -0.7609 -0.3780  0.1883
 6990SOL    HW132429   0.647   1.492   5.178 -0.1900  4.0083 -0.1650
 6990SOL    HW232430   0.601   1.420   5.300 -1.1248 -0.4818  0.0462
 6991SOL     OW32431   1.046   2.090   1.685 -0.1290 -0.0750  0.4544
 6991SOL    HW132432   1.104   2.024   1.647 -1.1249 -0.2556 -0.7328
 6991SOL    HW232433   0.962   2.089   1.640  0.3177 -2.1796 -0.3323
 6992SOL     OW32434   0.537   4.206   4.217  0.1456 -0.0792 -0.2155
 6992SOL    HW132435   0.562   4.117   4.240 -1.6018  0.3800  3.4295
 6992SOL    HW232436   0.493   4.188   4.134 -0.4883 -0.1117  0.1282
 6993SOL     OW32437   3.181   0.265   2.451  0.4837  0.5393  0.0974
 6993SOL    HW132438   3.257   0.322   2.436  1.4061 -0.3676  1.4242
 6993SOL    HW232439   3.133   0.277   2.368 -0.7158  1.9330  0.9873
 6994SOL     OW32440   4.628   1.058  10.782  0.2298  0.0394 -0.5389
 6994SOL    HW132441   4.573   1.029  10.710 -1.6100 -2.0183  1.6901
 6994SOL    HW232442   4.612   0.989  10.847  1.8188 -1.1910 -1.4550
 6995SOL     OW32443   4.197   4.690   8.672  0.4454 -0.3763 -0.6087
 6995SOL    HW132444   4.161   0.049   8.647  0.2643 -0.2509  0.0820
 6995SOL    HW232445   4.177   4.635   8.597 -1.0601  1.1788 -1.3185
 6996SOL     OW32446   4.283   4.399   6.004  0.0852 -0.6334 -0.1772
 6996SOL    HW132447   4.351   4.436   5.948 -0.3608 -2.0952 -1.6872
 6996SOL    HW232448   4.225   4.475   5.994  1.2239 -0.0845 -2.3934
 6997SOL     OW32449   2.757   4.121   4.228 -0.7440 -0.1939  0.5157
 6997SOL    HW132450   2.712   4.192   4.274  1.8860  0.9335  1.3294
 6997SOL    HW232451   2.792   4.164   4.150  1.6050 -1.3017  0.9508
 6998SOL     OW32452   3.096   4.317   1.535 -0.0818  0.4909  0.0510
 6998SOL    HW132453   3.031   4.303   1.603 -2.5518  1.3391 -2.1283
 6998SOL    HW232454   3.165   4.347   1.594  0.2119 -0.6291  0.2718
 6999SOL     OW32455   4.725   1.320   5.460 -0.3384  0.4791 -0.4945
 6999SOL    HW132456   4.650   1.270   5.492  0.7354 -1.4067 -0.9584
 6999SOL    HW232457   4.682   1.404   5.444  1.2456  1.6511  1.4553
 7000SOL     OW32458   3.212   4.703  11.568  0.3218 -0.2654  0.2849
 7000SOL    HW132459   3.129   4.726  11.610 -0.2029 -1.6943  0.0173
 7000SOL    HW232460   3.261   4.664  11.640 -0.1605  1.1181  1.3612
 7001SOL     OW32461   0.977   3.482   8.276 -0.2293 -0.7600  0.4245
 7001SOL    HW132462   0.932   3.567   8.273  1.2808  0.0144 -0.1720
 7001SOL    HW232463   1.067   3.513   8.268 -0.9854  1.1154 -0.8605
 7002SOL     OW32464   2.667   2.172   2.068  0.6753 -0.0212 -0.1859
 7002SOL    HW132465   2.661   2.262   2.036 -1.5078 -0.0596  0.0901
 7002SOL    HW232466   2.581   2.170   2.111  0.2961  0.1219 -0.9341
 7003SOL     OW32467   0.056   0.822  15.539 -0.5268 -0.2626 -0.5589
 7003SOL    HW132468   0.151   0.813  15.527 -0.4709  2.1304 -1.8761
 7003SOL    HW232469   0.063   0.902  15.590  0.3834 -1.4606  1.2196
 7004SOL     OW32470   3.260   2.652  12.359  0.4943  0.4285 -0.2183
 7004SOL    HW132471   3.213   2.614  12.284  3.0900 -1.8237 -0.7366
 7004SOL    HW232472   3.261   2.740  12.323  1.2483  0.9840  1.1558
 7005SOL     OW32473   4.484   0.349   9.276  0.2878 -0.1074 -0.4245
 7005SOL    HW132474   4.511   0.306   9.357  0.1879 -0.4638 -0.5805
 7005SOL    HW232475   4.518   0.437   9.289  1.4117 -0.5395 -0.4484
 7006SOL     OW32476   2.438   2.333   5.173 -0.3687 -0.1318  0.4721
 7006SOL    HW132477   2.420   2.329   5.267 -1.5067  0.2651  0.2734
 7006SOL    HW232478   2.510   2.270   5.176  1.5969  2.0852 -0.1489
 7007SOL     OW32479   4.004   3.040  10.681  0.0011  0.1699 -0.1524
 7007SOL    HW132480   4.030   3.094  10.756  0.3347 -1.1501  0.6929
 7007SOL    HW232481   3.953   2.972  10.726  0.5965 -1.6802 -2.2446
 7008SOL     OW32482   2.949   2.665   6.335  0.3718  0.0622 -0.1178
 7008SOL    HW132483   2.959   2.609   6.412 -3.6984  0.9810  1.1048
 7008SOL    HW232484   2.927   2.750   6.373 -0.0052 -0.3370  0.5655
 7009SOL     OW32485   4.329   3.428   8.866 -0.0930 -0.1011 -0.1282
 7009SOL    HW132486   4.377   3.405   8.786  1.6965 -0.9136  1.1960
 7009SOL    HW232487   4.346   3.522   8.877  1.3233  0.0526 -3.4603
 7010SOL     OW32488   2.606   1.986   0.405  0.0985  0.4530 -0.2944
 7010SOL    HW132489   2.653   2.040   0.341  2.3737 -2.1003 -0.7929
 7010SOL    HW232490   2.533   1.948   0.357  1.0226  1.4789 -2.5227
 7011SOL     OW32491   2.236   1.856  11.646  0.6896  0.1182  0.6440
 7011SOL    HW132492   2.216   1.847  11.553  0.4754 -0.5706  0.7575
 7011SOL    HW232493   2.283   1.940  11.651 -1.5829  1.6291 -3.0537
 7012SOL     OW32494   0.737   3.578  11.990 -0.5759 -0.0812 -0.6247
 7012SOL    HW132495   0.645   3.552  11.990 -0.5849 -0.0843  1.0387
 7012SOL    HW232496   0.726   3.672  12.006  2.9465 -0.0424  1.5900
 7013SOL     OW32497   3.978   4.356   5.471 -0.3143  0.5684 -0.3326
 7013SOL    HW132498   3.906   4.295   5.454 -0.2855  0.8998 -1.6849
 7013SOL    HW232499   3.940   4.431   5.425 -0.1949  1.8182  1.6230
 7014SOL     OW32500   2.958   0.900   6.787 -0.8343 -0.2818  0.3841
 7014SOL    HW132501   3.016   0.829   6.759  0.1663  0.4739  0.5066
 7014SOL    HW232502   2.994   0.913   6.875  0.8917  0.8477 -0.4871
 7015SOL     OW32503   0.296   2.524   6.482 -0.4576 -0.1395 -0.1603
 7015SOL    HW132504   0.245   2.456   6.436 -0.2488  1.4115 -2.7067
 7015SOL    HW232505   0.253   2.538   6.566 -0.9761  0.8951 -0.6050
 7016SOL     OW32506   1.653   2.534   7.655 -0.8350 -0.0193  0.2884
 7016SOL    HW132507   1.561   2.555   7.667 -0.6770  1.2845 -0.8326
 7016SOL    HW232508   1.634   2.446   7.622  0.5677 -0.1616 -0.1533
 7017SOL     OW32509   1.534   2.850   4.115 -0.0720 -0.3670 -0.6440
 7017SOL    HW132510   1.463   2.890   4.164  1.5447 -0.1644  1.5440
 7017SOL    HW232511   1.603   2.915   4.130 -0.8317  0.0160  1.1978
 7018SOL     OW32512   3.977   2.879   9.492 -0.3915 -0.1133 -0.0694
 7018SOL    HW132513   4.048   2.880   9.427 -0.8673  0.0983 -0.5837
 7018SOL    HW232514   4.013   2.825   9.562 -1.9706 -0.7949  0.1983
 7019SOL     OW32515   1.493   4.414   4.182 -0.2237 -0.4754 -0.1668
 7019SOL    HW132516   1.547   4.367   4.245 -0.0984 -0.2703 -0.1185
 7019SOL    HW232517   1.555   4.421   4.109 -0.2334 -2.7492 -0.3922
 7020SOL     OW32518   0.139   0.020   7.340 -0.4260  0.0322 -0.2023
 7020SOL    HW132519   0.128   0.084   7.411  1.5914  0.8977 -0.6671
 7020SOL    HW232520   0.196   4.686   7.387  0.0887  0.7451  0.0923
 7021SOL     OW32521   1.327   2.263   8.405  0.4246  0.3823  0.2109
 7021SOL    HW132522   1.234   2.277   8.389  0.0464 -0.0198  2.0063
 7021SOL    HW232523   1.356   2.337   8.459  1.0382 -0.9523  1.7126
 7022SOL     OW32524   4.107   2.547   6.844  0.2436  0.0433  0.4125
 7022SOL    HW132525   4.175   2.484   6.819  2.7807  2.4217  1.3160
 7022SOL    HW232526   4.159   2.587   6.914 -1.0384  0.2548  1.2542
 7023SOL     OW32527   3.431   3.611  14.100 -0.5358 -0.3493 -0.9674
 7023SOL    HW132528   3.500   3.652  14.152 -0.7144 -1.5800  0.2369
 7023SOL    HW232529   3.459   3.651  14.018  1.5254 -0.5624 -0.3721
 7024SOL     OW32530   3.742   2.074   3.643  0.2266 -0.5488  0.0134
 7024SOL    HW132531   3.767   2.166   3.636 -1.3054 -0.3036 -2.3170
 7024SOL    HW232532   3.743   2.042   3.553  1.4747 -0.5409  0.0328
 7025SOL     OW32533   0.392   3.696   2.346  0.2067  0.0671  0.1546
 7025SOL    HW132534   0.360   3.773   2.300  0.9605  1.7855  2.5169
 7025SOL    HW232535   0.310   3.650   2.365 -1.4125  1.6459 -2.9377
 7026SOL     OW32536   3.986   2.488   0.856  0.0905 -0.0887  1.1463
 7026SOL    HW132537   4.035   2.546   0.798 -0.4849  0.6169  1.3697
 7026SOL    HW232538   4.034   2.405   0.860 -0.1283 -0.2909 -0.4714
 7027SOL     OW32539   1.365   3.513   2.423  0.0381  0.3363  0.1960
 7027SOL    HW132540   1.353   3.595   2.471  1.1510  0.0789  0.9065
 7027SOL    HW232541   1.299   3.457   2.464  1.2072  0.3510  2.1218
 7028SOL     OW32542   3.920   0.714   4.287  0.5225  0.2699  0.1558
 7028SOL    HW132543   3.825   0.707   4.274  0.9352 -0.9302 -2.2568
 7028SOL    HW232544   3.920   0.683   4.377 -1.2664 -1.3999 -0.4022
 7029SOL     OW32545   4.118   3.341   9.011  0.4476  0.1333 -0.4703
 7029SOL    HW132546   4.194   3.382   8.969  2.4043 -2.7070  0.2937
 7029SOL    HW232547   4.081   3.421   9.048  0.5585  0.7014 -1.5867
 7030SOL     OW32548   1.211   4.584   3.009 -0.1075  0.3826  0.0762
 7030SOL    HW132549   1.138   4.529   3.037 -0.1872  0.1498 -0.6066
 7030SOL    HW232550   1.243   4.555   2.924 -1.7815  0.3676 -0.5614
 7031SOL     OW32551   0.815   1.453   1.605  0.3125  0.4923 -0.7751
 7031SOL    HW132552   0.811   1.543   1.573 -1.2746  0.4304 -0.7612
 7031SOL    HW232553   0.863   1.424   1.528  0.5039  1.2640 -0.9455
 7032SOL     OW32554   2.194   1.344  17.623 -0.1277 -0.0733  0.2694
 7032SOL    HW132555   2.213   1.436  17.603 -0.7438 -0.4297 -1.9985
 7032SOL    HW232556   2.200   1.301  17.538  1.7388 -0.7601  0.7440
 7033SOL     OW32557   2.754   0.947   6.139 -0.8603  0.0059  0.4765
 7033SOL    HW132558   2.826   1.001   6.172  0.7921  0.1456 -3.4081
 7033SOL    HW232559   2.755   0.956   6.044  1.2036  0.3744  0.5409
 7034SOL     OW32560   1.987   2.406  14.092 -0.4327  0.0144  0.0331
 7034SOL    HW132561   2.073   2.384  14.057 -0.1977  1.5051 -0.3515
 7034SOL    HW232562   1.942   2.405  14.008 -0.8740  0.3115  0.2635
 7035SOL     OW32563   0.933   0.348   6.986 -0.4733 -0.1731  0.4078
 7035SOL    HW132564   0.987   0.408   6.934 -2.1335 -2.3348 -3.8251
 7035SOL    HW232565   0.915   0.401   7.063  0.3794 -0.1295  0.5793
 7036SOL     OW32566   4.009   4.570   5.785 -0.1450  0.1898  0.3275
 7036SOL    HW132567   3.955   4.621   5.725 -0.9322 -0.3069  0.6019
 7036SOL    HW232568   4.089   4.589   5.736 -0.7802  1.7582 -0.0851
 7037SOL     OW32569   4.178   4.025   3.585 -0.0128  0.5302 -0.0241
 7037SOL    HW132570   4.146   4.115   3.572  0.6666  0.4306 -2.3786
 7037SOL    HW232571   4.256   4.032   3.530  1.5208 -2.2195  1.8436
 7038SOL     OW32572   1.038   0.630   5.585 -0.4446  0.5542 -0.0926
 7038SOL    HW132573   1.049   0.540   5.617  2.0237  0.3252 -1.6171
 7038SOL    HW232574   1.110   0.675   5.628 -1.1436  0.8934  0.7189
 7039SOL     OW32575   4.140   3.157   2.306 -0.3711 -0.0696  0.3101
 7039SOL    HW132576   4.105   3.074   2.338 -0.9014  0.1760  0.3660
 7039SOL    HW232577   4.107   3.221   2.369 -0.6903 -0.5947  0.6705
 7040SOL     OW32578   1.554   1.527   2.726  0.0102  0.4762  0.1172
 7040SOL    HW132579   1.505   1.522   2.644 -1.5242 -1.6950  1.1723
 7040SOL    HW232580   1.605   1.607   2.710 -2.0949  2.0867  1.3619
 7041SOL     OW32581   1.298   0.321   6.143 -0.0154 -0.9436  0.5680
 7041SOL    HW132582   1.204   0.328   6.124 -0.2930 -1.1657  1.8483
 7041SOL    HW232583   1.298   0.321   6.239  1.4037 -1.2591  0.5599
 7042SOL     OW32584   1.801   1.650   0.801 -0.2088 -0.0862 -0.2805
 7042SOL    HW132585   1.877   1.702   0.827 -0.7248 -0.0778  1.2255
 7042SOL    HW232586   1.733   1.717   0.793  0.2375  0.2664 -1.1349
 7043SOL     OW32587   1.299   3.844   5.938  1.0090  0.1909 -0.0937
 7043SOL    HW132588   1.384   3.878   5.909  1.0667 -0.3844 -0.5876
 7043SOL    HW232589   1.250   3.830   5.857  0.9441  1.5744 -0.2946
 7044SOL     OW32590   4.643   0.869  17.151  0.1173  0.6861 -0.6273
 7044SOL    HW132591   4.673   0.782  17.126 -1.3908  0.0947 -0.4318
 7044SOL    HW232592   4.622   0.919  17.073  2.0790 -0.1535 -1.6771
 7045SOL     OW32593   4.090   0.147  13.208 -0.1235  0.2009 -0.1440
 7045SOL    HW132594   4.128   0.233  13.188 -0.3898  0.0828 -1.1490
 7045SOL    HW232595   4.087   0.146  13.304 -0.1519 -2.4068 -0.1829
 7046SOL     OW32596   1.386   3.783  12.267  0.4214 -0.5531  0.3759
 7046SOL    HW132597   1.445   3.854  12.240 -0.7055  0.0026 -0.6303
 7046SOL    HW232598   1.307   3.831  12.288  0.1832 -1.0712  0.6540
 7047SOL     OW32599   3.770   4.195   4.973  0.7336 -0.1169 -0.1500
 7047SOL    HW132600   3.792   4.164   4.885 -1.0380 -0.1156 -0.5956
 7047SOL    HW232601   3.761   4.114   5.023  1.3352  0.4521  0.8926
 7048SOL     OW32602   0.572   0.634   4.139 -0.1585  0.6377 -0.2966
 7048SOL    HW132603   0.478   0.625   4.123  0.2200 -1.7643 -1.1286
 7048SOL    HW232604   0.611   0.572   4.077 -0.0778  0.4620 -0.0724
 7049SOL     OW32605   2.048   0.740  16.426 -0.5388  0.0800  0.0892
 7049SOL    HW132606   2.098   0.658  16.420  1.4135  1.3519 -1.1830
 7049SOL    HW232607   2.108   0.811  16.404 -1.3488  0.9093  0.5455
 7050SOL     OW32608   0.935   1.546   7.269  0.3450  0.6630  0.0444
 7050SOL    HW132609   0.884   1.552   7.188 -0.6054  1.4513  0.6953
 7050SOL    HW232610   0.982   1.468   7.240  0.2171  1.2172 -1.6592
 7051SOL     OW32611   1.200   0.978   7.824  1.1819  0.5686 -0.0552
 7051SOL    HW132612   1.130   0.929   7.868  0.0405  0.3667 -2.1278
 7051SOL    HW232613   1.256   1.000   7.898  2.1815  2.2644 -1.3189
 7052SOL     OW32614   2.416   0.503   5.531 -0.0364  0.1574 -0.3812
 7052SOL    HW132615   2.396   0.595   5.548 -1.3399 -0.2683  0.4644
 7052SOL    HW232616   2.339   0.469   5.485 -2.7889  1.1705  3.3699
 7053SOL     OW32617   0.163   4.532   9.209 -0.3601 -0.1986 -0.3705
 7053SOL    HW132618   0.125   4.490   9.286 -0.0957  1.7631  0.8274
 7053SOL    HW232619   0.174   4.620   9.245 -1.3481 -0.0723 -0.3728
 7054SOL     OW32620   3.649   3.500   7.204 -0.7028  0.5902 -0.0835
 7054SOL    HW132621   3.556   3.513   7.187 -0.8399  1.9845  1.6858
 7054SOL    HW232622   3.658   3.583   7.251 -0.5333  1.0629 -0.9417
 7055SOL     OW32623   3.583   3.971   7.486 -0.2077 -0.2327  0.1991
 7055SOL    HW132624   3.658   4.001   7.537 -0.6531 -0.2185  0.8581
 7055SOL    HW232625   3.524   4.045   7.500  1.2557  0.9250  0.2263
 7056SOL     OW32626   1.436   3.524  12.754 -0.2512  0.8410 -0.1164
 7056SOL    HW132627   1.509   3.569  12.797  0.5833 -2.2006  1.6716
 7056SOL    HW232628   1.439   3.557  12.664 -0.4010  1.3347  0.0631
 7057SOL     OW32629   4.680   0.107   6.674 -0.2800  0.0036 -0.0959
 7057SOL    HW132630   4.724   0.154   6.745  1.1885 -1.7624  0.1336
 7057SOL    HW232631   4.647   0.030   6.721  0.2991 -0.2774 -0.1610
 7058SOL     OW32632   2.989   1.852   1.369  0.5942 -0.2831  0.0038
 7058SOL    HW132633   3.079   1.881   1.385 -0.6782  3.8148 -0.2474
 7058SOL    HW232634   2.999   1.789   1.297 -0.1710  0.8203 -1.0735
 7059SOL     OW32635   0.236   4.257   7.615  0.5806  0.4766  0.2328
 7059SOL    HW132636   0.143   4.271   7.634  0.3254  0.1148 -0.7445
 7059SOL    HW232637   0.285   4.301   7.685 -0.8391  0.0461  1.5152
 7060SOL     OW32638   2.724   2.993   7.964 -0.3879 -0.2114 -0.5540
 7060SOL    HW132639   2.744   3.044   8.042  2.2286  0.6514 -1.7842
 7060SOL    HW232640   2.630   3.003   7.977 -0.2602  1.2474 -0.7799
 7061SOL     OW32641   0.702   2.905   3.186 -0.1871  0.7001 -0.5807
 7061SOL    HW132642   0.705   2.888   3.092 -0.0420 -0.8998 -0.2975
 7061SOL    HW232643   0.790   2.939   3.207 -0.7831  1.4751  0.6601
 7062SOL     OW32644   0.193   0.250   5.993  0.4816 -0.2305  0.0386
 7062SOL    HW132645   0.199   0.267   6.087  0.8502 -0.2506  0.0177
 7062SOL    HW232646   0.221   0.158   5.998  1.4574  0.1478  1.6232
 7063SOL     OW32647   2.468   0.433   4.988 -0.1867 -0.0413  0.1434
 7063SOL    HW132648   2.490   0.432   5.081 -0.2123 -2.5516  0.1147
 7063SOL    HW232649   2.509   0.514   4.957 -0.3665 -0.5190 -1.3207
 7064SOL     OW32650   1.840   4.286   2.492  0.2796  0.2124  0.4443
 7064SOL    HW132651   1.854   4.192   2.504 -0.9292 -0.2045 -1.4271
 7064SOL    HW232652   1.853   4.290   2.398 -1.8758  2.0162  0.2107
 7065SOL     OW32653   3.806   3.040  12.505 -0.5925 -0.1826 -0.3027
 7065SOL    HW132654   3.816   3.011  12.415 -0.4222 -0.3311 -0.2368
 7065SOL    HW232655   3.784   3.133  12.502  1.3124  0.1151 -4.1928
 7066SOL     OW32656   0.578   3.556  14.510 -0.0574 -0.1272 -0.1916
 7066SOL    HW132657   0.530   3.603  14.578 -2.1362 -2.3049 -0.1314
 7066SOL    HW232658   0.508   3.533  14.449  2.1431 -3.7865 -1.3635
 7067SOL     OW32659   0.781   1.359  14.863 -0.1122  0.0008 -0.4316
 7067SOL    HW132660   0.825   1.274  14.873  2.2754  1.2785 -0.1440
 7067SOL    HW232661   0.714   1.339  14.799 -1.2572 -0.0525  0.7816
 7068SOL     OW32662   2.906   0.246   7.460  0.1555  0.4492 -0.1706
 7068SOL    HW132663   2.823   0.277   7.422  0.4887  2.0743  0.4338
 7068SOL    HW232664   2.904   0.165   7.410  0.1679 -0.0147  0.5760
 7069SOL     OW32665   2.231   2.614   5.144  0.4088  0.1288 -0.0209
 7069SOL    HW132666   2.309   2.577   5.184  0.5100  1.6762  1.2011
 7069SOL    HW232667   2.172   2.539   5.133  2.2384 -1.0764 -1.5294
 7070SOL     OW32668   4.473   2.333   2.405 -0.5525  0.3121 -0.4931
 7070SOL    HW132669   4.511   2.338   2.317 -0.2912 -3.9835 -0.6596
 7070SOL    HW232670   4.529   2.270   2.450 -0.8648 -0.1288 -0.7147
 7071SOL     OW32671   3.879   0.255   4.262 -0.2723  0.3690  0.3186
 7071SOL    HW132672   3.906   0.164   4.271  0.5343  0.6919  1.2400
 7071SOL    HW232673   3.787   0.230   4.251  0.3290 -1.2248 -0.9336
 7072SOL     OW32674   0.102   4.155   3.549  0.0530 -0.0003 -0.4218
 7072SOL    HW132675   0.152   4.198   3.480  0.6874 -1.4828 -0.8803
 7072SOL    HW232676   0.039   4.100   3.503  0.2950 -0.5982 -0.0491
 7073SOL     OW32677   2.791   1.746   7.256  0.1672  0.3171  0.3788
 7073SOL    HW132678   2.814   1.662   7.217  2.4383  0.9482  0.3382
 7073SOL    HW232679   2.750   1.789   7.181  0.6356 -0.4372 -0.3009
 7074SOL     OW32680   2.494   2.104   8.728 -0.1565  0.1940  0.4573
 7074SOL    HW132681   2.485   2.017   8.691  1.9518 -0.7595  2.1916
 7074SOL    HW232682   2.513   2.166   8.657  1.7235  0.9893  1.6564
 7075SOL     OW32683   2.373   2.162   8.964 -0.0138  0.7608 -0.7067
 7075SOL    HW132684   2.330   2.076   8.959  0.5067  0.5186 -1.0622
 7075SOL    HW232685   2.432   2.150   8.890  3.0575  2.1500  1.5625
 7076SOL     OW32686   3.397   2.954   2.147 -0.5061 -0.3409  0.6104
 7076SOL    HW132687   3.383   2.923   2.058 -0.6825 -0.1033  0.5548
 7076SOL    HW232688   3.310   2.951   2.186 -1.0083  1.4417 -0.3825
 7077SOL     OW32689   4.441   3.919  17.257 -0.4091  0.5458  0.3184
 7077SOL    HW132690   4.388   3.984  17.212 -1.2147 -0.2806  0.0794
 7077SOL    HW232691   4.509   3.981  17.284  1.0333 -1.1270  0.5226
 7078SOL     OW32692   0.621   3.338  17.350 -0.5330 -0.8341 -0.0659
 7078SOL    HW132693   0.681   3.322  17.278  0.3250 -2.0841  0.9210
 7078SOL    HW232694   0.575   3.255  17.365 -2.9535  0.8485  2.0684
 7079SOL     OW32695   2.077   0.508  10.803  0.6203 -0.2812 -0.0436
 7079SOL    HW132696   2.060   0.572  10.734 -1.1584 -1.8153 -1.0202
 7079SOL    HW232697   2.052   0.555  10.882 -1.1431  0.5602 -1.1136
 7080SOL     OW32698   1.044   2.680  13.165  0.2788 -0.3029 -0.1222
 7080SOL    HW132699   1.131   2.709  13.139 -0.3247  0.1950 -1.5974
 7080SOL    HW232700   1.064   2.589  13.189  3.0649  0.1442 -0.8253
 7081SOL     OW32701   4.165   4.333   8.628 -0.3096  0.2586  0.1839
 7081SOL    HW132702   4.216   4.375   8.559  1.5487 -0.1054  1.3504
 7081SOL    HW232703   4.230   4.274   8.664  0.7817  1.8116  0.7845
 7082SOL     OW32704   1.060   3.573   3.925 -0.0025  0.0855 -0.4771
 7082SOL    HW132705   1.055   3.483   3.892  0.4770  0.0634 -0.4914
 7082SOL    HW232706   1.155   3.586   3.925 -0.0567  0.2899 -3.8047
 7083SOL     OW32707   4.694   3.928   6.686 -0.2246  0.0988 -0.0628
 7083SOL    HW132708   0.058   3.932   6.654  0.1674 -0.2168  1.0011
 7083SOL    HW232709   4.648   4.002   6.647  1.3884  0.6886 -0.8490
 7084SOL     OW32710   3.909   2.234   8.517 -0.8145 -0.5083 -0.2965
 7084SOL    HW132711   3.854   2.182   8.458 -1.9430  0.2325  0.1079
 7084SOL    HW232712   3.861   2.317   8.513 -0.6368 -0.3732  0.4778
 7085SOL     OW32713   3.245   1.559   0.328 -0.0545  0.1609 -0.7474
 7085SOL    HW132714   3.232   1.594   0.416  0.1937 -1.4844 -0.0477
 7085SOL    HW232715   3.330   1.515   0.329  0.3941  1.0317 -1.1309
 7086SOL     OW32716   3.964   2.505   4.948  0.1235  0.2032 -0.1219
 7086SOL    HW132717   4.004   2.443   4.887  0.0281  1.7594 -1.7758
 7086SOL    HW232718   4.003   2.485   5.033  1.3087  0.5363 -0.5844
 7087SOL     OW32719   3.390   1.403   7.352  0.1457 -0.3246  0.0499
 7087SOL    HW132720   3.484   1.384   7.347  0.1978  0.1349 -0.8450
 7087SOL    HW232721   3.359   1.413   7.262  0.0197 -3.4971 -0.2421
 7088SOL     OW32722   4.685   4.347   8.676 -0.3554 -0.3339  0.1376
 7088SOL    HW132723   0.043   4.309   8.701 -0.5102 -0.4701  0.4578
 7088SOL    HW232724   4.718   4.424   8.631 -1.8585  0.5671  0.5886
 7089SOL     OW32725   0.147   3.723   9.851  0.0566  0.5149  0.2089
 7089SOL    HW132726   0.172   3.681   9.934  1.6066 -0.8467 -0.9457
 7089SOL    HW232727   0.054   3.702   9.848  0.0600  0.5292 -0.0140
 7090SOL     OW32728   3.215   2.562  17.547  0.3330  0.5959  0.1490
 7090SOL    HW132729   3.186   2.622  17.616  1.2210  0.8370  0.3125
 7090SOL    HW232730   3.287   2.602  17.499 -0.9841  1.4587 -1.1152
 7091SOL     OW32731   2.494   2.108   4.398 -0.3863  0.0034 -0.3602
 7091SOL    HW132732   2.515   2.034   4.341 -2.5008  2.2692 -4.0805
 7091SOL    HW232733   2.436   2.154   4.337 -1.9062  1.3362  2.0792
 7092SOL     OW32734   4.229   0.445   2.149 -0.5057 -0.0293  0.2230
 7092SOL    HW132735   4.214   0.532   2.186  1.8779 -0.0986  1.3129
 7092SOL    HW232736   4.283   0.468   2.074  1.2385 -0.2788  1.4186
 7093SOL     OW32737   4.646   2.821   9.756  0.1082 -0.2835  0.8072
 7093SOL    HW132738   4.714   2.829   9.823  0.3199 -0.2639  0.5900
 7093SOL    HW232739   4.580   2.869   9.806 -1.0183 -1.2509  0.2661
 7094SOL     OW32740   3.202   3.384  12.258  0.0378  0.2860  0.0270
 7094SOL    HW132741   3.176   3.454  12.198  2.4713  2.3303  1.3979
 7094SOL    HW232742   3.275   3.348  12.206 -1.2633 -0.3754 -1.3482
 7095SOL     OW32743   3.934   3.709  13.825  0.3385  0.0942 -0.1596
 7095SOL    HW132744   3.871   3.718  13.754 -0.4713 -0.0118  0.5515
 7095SOL    HW232745   3.883   3.652  13.882  0.4906 -0.9116 -1.0367
 7096SOL     OW32746   1.534   2.014   6.683 -0.4547 -0.1345 -0.1950
 7096SOL    HW132747   1.496   2.003   6.770  1.3545 -1.3089  0.4477
 7096SOL    HW232748   1.478   2.090   6.663 -1.8707 -1.1018  0.0895
 7097SOL     OW32749   4.724   2.981   2.633  0.5039 -0.2019 -0.7040
 7097SOL    HW132750   4.669   3.048   2.594  1.8196  1.3347  0.0930
 7097SOL    HW232751   0.070   2.977   2.570  0.3415 -0.4592 -0.8719
 7098SOL     OW32752   2.687   1.355   8.269  0.3147  0.1239  0.1520
 7098SOL    HW132753   2.751   1.404   8.217  2.5658 -0.9639  1.8881
 7098SOL    HW232754   2.737   1.282   8.307  0.1716 -0.0267  0.0539
 7099SOL     OW32755   3.932   1.490   0.865 -0.1081 -0.1874 -0.2550
 7099SOL    HW132756   4.017   1.531   0.878 -0.1595 -0.2858  0.3651
 7099SOL    HW232757   3.961   1.400   0.875  1.9021  0.4844  0.0276
 7100SOL     OW32758   2.868   0.917   3.631 -0.4642 -0.0843 -0.2069
 7100SOL    HW132759   2.780   0.897   3.600 -1.1408 -0.7455  2.0936
 7100SOL    HW232760   2.916   0.866   3.566 -1.9443 -1.2976 -0.3489
 7101SOL     OW32761   2.026   0.754   2.248  0.4099  0.1526 -0.2403
 7101SOL    HW132762   1.932   0.768   2.262  0.5615  0.5581  0.3661
 7101SOL    HW232763   2.027   0.798   2.163 -1.5923 -3.4564 -2.1466
 7102SOL     OW32764   0.220   3.810   5.393 -0.0396 -0.2145 -0.1127
 7102SOL    HW132765   0.156   3.861   5.442 -0.2174 -1.2292  0.6891
 7102SOL    HW232766   0.289   3.783   5.453  0.2858 -0.2398 -0.4968
 7103SOL     OW32767   1.690   4.204   6.190  0.4776 -0.2977  0.5478
 7103SOL    HW132768   1.783   4.189   6.172  1.1293  1.9398  1.9665
 7103SOL    HW232769   1.659   4.273   6.132 -0.1129 -0.5060  0.6112
 7104SOL     OW32770   0.835   1.792  17.213 -0.3824  0.2208  0.0611
 7104SOL    HW132771   0.880   1.856  17.159 -0.2924 -1.0330 -1.3545
 7104SOL    HW232772   0.747   1.822  17.190 -1.1961 -2.5827 -0.5961
 7105SOL     OW32773   4.100   0.687   9.317 -0.4844  0.0931  0.1474
 7105SOL    HW132774   4.156   0.638   9.377 -0.2236  0.1488 -0.0536
 7105SOL    HW232775   4.096   0.620   9.250 -0.3449  0.9169 -0.6868
 7106SOL     OW32776   0.226   3.758  16.218  0.4339 -0.1471  0.3142
 7106SOL    HW132777   0.250   3.727  16.131 -0.4816  1.3402 -0.4780
 7106SOL    HW232778   0.183   3.843  16.209  1.4551  0.1548 -1.7161
 7107SOL     OW32779   3.083   0.503   4.977 -0.2042  0.4896  0.2589
 7107SOL    HW132780   3.050   0.508   4.887 -1.4999 -1.3071  0.6339
 7107SOL    HW232781   3.159   0.444   4.972  0.4391  1.4877 -1.7822
 7108SOL     OW32782   3.113   3.548  12.023 -0.2755 -0.2797 -0.6181
 7108SOL    HW132783   3.075   3.626  11.984  1.1717  0.0366 -1.4036
 7108SOL    HW232784   3.204   3.553  11.992 -0.4687  0.1851 -1.1147
 7109SOL     OW32785   1.058   0.756   4.062  0.3436  0.0873 -0.4437
 7109SOL    HW132786   1.016   0.769   4.147 -0.2449 -0.9267 -0.5888
 7109SOL    HW232787   1.088   0.847   4.049 -1.4800  0.8968  1.0043
 7110SOL     OW32788   1.360   2.505   4.053  0.2488  0.3043 -0.0804
 7110SOL    HW132789   1.270   2.519   4.082 -0.5077 -0.6978 -1.9472
 7110SOL    HW232790   1.353   2.566   3.980  0.3874  0.3368 -0.0663
 7111SOL     OW32791   0.793   2.610  13.551  0.0596  0.5928 -0.2244
 7111SOL    HW132792   0.806   2.704  13.563 -1.1157  0.5554  1.3933
 7111SOL    HW232793   0.787   2.610  13.455 -2.3280 -5.7653 -0.0468
 7112SOL     OW32794   1.766   1.747   6.382  0.1839 -0.4071 -0.0604
 7112SOL    HW132795   1.812   1.665   6.402 -1.1668 -0.7166  1.7189
 7112SOL    HW232796   1.827   1.814   6.414  0.6344 -0.5521 -0.6169
 7113SOL     OW32797   1.325   4.031   3.808 -0.3467  0.5479  0.2310
 7113SOL    HW132798   1.368   4.015   3.724  0.8390  1.5825  0.6463
 7113SOL    HW232799   1.261   3.961   3.793 -0.0397 -0.2521  2.5710
 7114SOL     OW32800   2.374   2.896   4.187  0.3810  0.3000  0.1836
 7114SOL    HW132801   2.295   2.872   4.138  0.1627  1.8194 -0.2172
 7114SOL    HW232802   2.442   2.841   4.148  0.0030 -1.4849  2.0702
 7115SOL     OW32803   2.529   1.715   7.161  0.4600 -0.2111  0.1891
 7115SOL    HW132804   2.462   1.754   7.105  1.9495  0.3771 -1.1771
 7115SOL    HW232805   2.589   1.684   7.093 -0.6664 -0.4745 -0.6942
 7116SOL     OW32806   3.550   4.582   2.903 -0.4207  0.2440 -0.4498
 7116SOL    HW132807   3.603   4.625   2.971  1.3716 -2.5676 -0.0528
 7116SOL    HW232808   3.539   4.497   2.946 -2.1096  0.2574 -0.8822
 7117SOL     OW32809   1.612   3.995   2.469 -0.5434  1.0789 -0.3098
 7117SOL    HW132810   1.634   4.020   2.558 -1.2009  2.0204 -0.4040
 7117SOL    HW232811   1.544   4.062   2.454 -1.3286  0.1203 -1.0538
 7118SOL     OW32812   2.874   2.829   1.042 -0.0108 -0.2530  0.8796
 7118SOL    HW132813   2.870   2.918   1.009  2.2260 -0.4513  0.0733
 7118SOL    HW232814   2.926   2.842   1.122  1.2273  1.0096 -0.1316
 7119SOL     OW32815   2.418   4.483   6.237  0.6223 -0.3255  0.1226
 7119SOL    HW132816   2.447   4.480   6.145  1.8681 -0.7993  0.5243
 7119SOL    HW232817   2.323   4.479   6.230  0.6898  0.0355 -1.0961
 7120SOL     OW32818   2.265   3.869   5.939 -0.4033 -0.3654  0.5022
 7120SOL    HW132819   2.286   3.786   5.897  1.8928  1.7279 -2.4456
 7120SOL    HW232820   2.199   3.832   5.998  0.5579 -0.8068  1.2932
 7121SOL     OW32821   0.435   0.895   5.370  0.0883 -0.4973  0.3906
 7121SOL    HW132822   0.509   0.856   5.417 -0.2290  0.4172  1.6539
 7121SOL    HW232823   0.357   0.877   5.421 -0.2341 -0.3922 -0.0630
 7122SOL     OW32824   0.155   0.077  17.367 -0.5455  0.4092 -0.1670
 7122SOL    HW132825   0.129   0.138  17.436  1.6230  1.9671 -0.7167
 7122SOL    HW232826   0.114   0.117  17.291  0.5116  3.2107  0.7456
 7123SOL     OW32827   2.985   0.844   8.674  0.1079  0.7548 -0.5480
 7123SOL    HW132828   2.988   0.935   8.705 -1.8828  1.1770 -1.6092
 7123SOL    HW232829   2.994   0.787   8.750  1.5093  2.5716  0.6591
 7124SOL     OW32830   2.405   2.013   3.153  0.2353 -0.3359 -0.0963
 7124SOL    HW132831   2.405   1.928   3.109 -1.0123 -0.4000  0.0202
 7124SOL    HW232832   2.438   2.078   3.091 -0.8180 -0.2666 -0.5839
 7125SOL     OW32833   0.910   4.701   4.603  0.1200 -0.4037 -0.6472
 7125SOL    HW132834   0.998   4.701   4.641 -1.0158 -0.7785  1.9294
 7125SOL    HW232835   0.864   4.642   4.662  2.0080 -0.9242  0.3093
 7126SOL     OW32836   1.913   0.868   5.295  0.1610 -0.0447  0.0346
 7126SOL    HW132837   1.866   0.863   5.212 -2.3771  0.4723  1.4474
 7126SOL    HW232838   1.994   0.826   5.267  0.2359 -0.2851  0.6145
 7127SOL     OW32839   3.888   3.341   4.882 -0.0408 -0.7687 -0.6744
 7127SOL    HW132840   3.953   3.279   4.915 -0.6148 -0.6420  0.6847
 7127SOL    HW232841   3.857   3.289   4.808  1.3019  1.6445 -2.9267
 7128SOL     OW32842   0.360   1.497  16.326 -0.3407  0.0344  0.1050
 7128SOL    HW132843   0.301   1.571  16.342 -0.6730 -0.1772 -0.1509
 7128SOL    HW232844   0.310   1.427  16.368 -0.9787 -0.6045 -1.7570
 7129SOL     OW32845   3.009   0.213   3.641 -0.4739 -0.4117  0.2628
 7129SOL    HW132846   2.963   0.219   3.558  0.1313 -1.5935 -0.1604
 7129SOL    HW232847   3.022   0.306   3.659 -1.5193  0.2620 -2.6021
 7130SOL     OW32848   2.872   2.873   6.506 -0.1844 -0.0096 -0.4306
 7130SOL    HW132849   2.923   2.954   6.509 -1.2407  0.6233  0.2208
 7130SOL    HW232850   2.865   2.850   6.599  0.6040  2.2215  0.1686
 7131SOL     OW32851   0.524   2.915   3.399 -0.1222  0.0939  0.7326
 7131SOL    HW132852   0.590   2.932   3.332 -1.6558 -1.4781 -1.1764
 7131SOL    HW232853   0.456   2.958   3.348  0.8256  1.8681  0.9399
 7132SOL     OW32854   1.634   0.336   0.096 -0.0521  1.3736  0.0381
 7132SOL    HW132855   1.553   0.385   0.107 -1.1776 -0.3117 -0.6089
 7132SOL    HW232856   1.616   0.304   0.007  0.4483 -1.7021  1.0180
 7133SOL     OW32857   3.472   4.030   4.416  0.0356 -0.2567  0.5491
 7133SOL    HW132858   3.498   3.971   4.345  0.2960 -0.8889  1.1760
 7133SOL    HW232859   3.536   4.100   4.405  1.7254 -2.1453 -1.6988
 7134SOL     OW32860   0.144   2.337  11.818  0.4030  0.0438 -0.3456
 7134SOL    HW132861   0.131   2.256  11.769  3.1784 -0.4824 -0.2127
 7134SOL    HW232862   0.057   2.352  11.857 -0.0068 -1.6329 -0.5831
 7135SOL     OW32863   2.389   2.252  15.971 -0.6248  0.0574  0.3430
 7135SOL    HW132864   2.380   2.253  15.876  1.0494  4.2657  0.2419
 7135SOL    HW232865   2.441   2.329  15.994  1.1296 -0.8213 -0.6512
 7136SOL     OW32866   3.350   1.980  12.047 -0.7424 -0.0682  0.3626
 7136SOL    HW132867   3.386   2.034  11.977 -1.5226  0.0892  0.0919
 7136SOL    HW232868   3.288   2.045  12.079  1.6683  0.6501  3.5683
 7137SOL     OW32869   3.596   0.550   5.876 -0.0592 -0.1095  0.4050
 7137SOL    HW132870   3.623   0.463   5.846  1.4919 -0.6067  3.1921
 7137SOL    HW232871   3.502   0.532   5.869 -0.4819  2.9386 -1.9473
 7138SOL     OW32872   1.486   1.350   9.752 -0.3160 -0.1652 -0.0984
 7138SOL    HW132873   1.429   1.405   9.806  0.9687  0.5128  0.5896
 7138SOL    HW232874   1.469   1.263   9.789  2.2531 -1.2251 -1.4041
 7139SOL     OW32875   0.763   2.881  13.164 -0.1877  0.0882 -0.2225
 7139SOL    HW132876   0.698   2.946  13.189 -2.7011 -2.9512  1.1206
 7139SOL    HW232877   0.769   2.825  13.241 -3.0670  1.1634  0.7709
 7140SOL     OW32878   1.530   3.493   9.812 -0.0743 -0.1452 -0.0053
 7140SOL    HW132879   1.549   3.586   9.814 -0.3713 -0.0495 -1.4254
 7140SOL    HW232880   1.453   3.499   9.755  0.0832 -0.7757 -0.2818
 7141SOL     OW32881   0.581   1.387  10.245  0.5138 -0.4803  0.0058
 7141SOL    HW132882   0.569   1.453  10.313  0.2369  1.1737 -1.6232
 7141SOL    HW232883   0.661   1.424  10.207  0.7338 -2.0471 -1.0460
 7142SOL     OW32884   1.964   4.415   6.655 -0.0003 -0.0624  0.1733
 7142SOL    HW132885   1.974   4.459   6.739  0.1977  2.5610 -1.2087
 7142SOL    HW232886   1.992   4.480   6.591  1.0417  1.2438  1.9638
 7143SOL     OW32887   2.164   2.920  16.133 -0.4012  0.4014 -0.2006
 7143SOL    HW132888   2.213   2.889  16.210 -0.9424  3.2490  1.2914
 7143SOL    HW232889   2.156   3.014  16.147 -4.2415  0.1106 -0.6369
 7144SOL     OW32890   0.524   3.862  12.152 -0.4634 -0.1452  0.0417
 7144SOL    HW132891   0.431   3.841  12.149 -0.4054 -0.1835 -1.4113
 7144SOL    HW232892   0.528   3.913  12.233 -2.6213  0.5491 -0.3028
 7145SOL     OW32893   0.175   4.567   2.174  0.3739 -0.0818  0.2382
 7145SOL    HW132894   0.205   4.572   2.083 -2.5038 -1.1248 -0.7509
 7145SOL    HW232895   0.208   4.480   2.196 -0.3319 -0.4621 -0.1962
 7146SOL     OW32896   1.849   4.442  17.495  0.1871  0.5111  0.4856
 7146SOL    HW132897   1.816   4.528  17.520  0.9258  0.8741  0.2213
 7146SOL    HW232898   1.860   4.395  17.578  0.5262  0.6842  0.5404
 7147SOL     OW32899   1.954   1.357   8.929  0.6504 -0.2057 -0.7627
 7147SOL    HW132900   1.999   1.278   8.958  1.6581  1.2488  1.6405
 7147SOL    HW232901   2.012   1.413   8.981  1.3524 -2.3696  0.7911
 7148SOL     OW32902   3.046   1.507   5.053  0.5598 -0.1041  0.4293
 7148SOL    HW132903   3.136   1.507   5.020  1.2873  0.6622  2.4751
 7148SOL    HW232904   3.033   1.413   5.039  0.2565 -0.0147  0.0906
 7149SOL     OW32905   3.479   3.245   8.844 -0.6636  0.5673 -0.0677
 7149SOL    HW132906   3.471   3.161   8.800  0.0356  0.9734 -0.9819
 7149SOL    HW232907   3.518   3.219   8.927 -0.7727  2.0462  0.4570
 7150SOL     OW32908   1.332   2.579   7.950  0.3129 -0.5396  0.6537
 7150SOL    HW132909   1.378   2.641   8.007  2.0410 -1.5317  0.3149
 7150SOL    HW232910   1.349   2.505   8.007 -2.7402 -0.1716  2.0368
 7151SOL     OW32911   1.012   1.537   6.849  0.2335 -0.3719  0.1715
 7151SOL    HW132912   1.001   1.606   6.784 -0.7007 -1.3159 -0.6653
 7151SOL    HW232913   1.101   1.510   6.826 -0.7435 -2.0429 -1.6562
 7152SOL     OW32914   2.291   3.229   3.500  0.3089  0.4093  0.6640
 7152SOL    HW132915   2.372   3.252   3.454 -0.1958  0.5522 -0.1569
 7152SOL    HW232916   2.261   3.316   3.526 -0.1055  1.0213 -1.8123
 7153SOL     OW32917   0.861   4.073   4.024  0.0043  0.3828 -0.4069
 7153SOL    HW132918   0.916   4.012   3.974 -0.2351  0.9553 -1.3704
 7153SOL    HW232919   0.929   4.118   4.073  0.2456 -3.0509  2.4206
 7154SOL     OW32920   3.727   2.994   7.679  0.5666 -0.0283 -0.4025
 7154SOL    HW132921   3.669   3.066   7.653  3.0852  2.6019  1.2891
 7154SOL    HW232922   3.667   2.920   7.674 -0.4351  0.8412 -1.2691
 7155SOL     OW32923   4.519   3.732   6.761 -0.4376 -0.1896 -0.9447
 7155SOL    HW132924   4.570   3.651   6.758 -0.0817  0.0605 -1.5717
 7155SOL    HW232925   4.584   3.797   6.736  0.4373 -0.2109  1.3057
 7156SOL     OW32926   2.981   2.555   6.565 -0.4910  0.4169  0.1799
 7156SOL    HW132927   2.994   2.563   6.659  0.3133  0.3016  0.0818
 7156SOL    HW232928   3.029   2.473   6.551 -0.5848  0.5076 -0.6725
 7157SOL     OW32929   3.660   0.303   0.662 -0.4397  0.4965  0.4270
 7157SOL    HW132930   3.574   0.264   0.674 -0.8329  0.0872 -3.5736
 7157SOL    HW232931   3.664   0.342   0.749  1.1183 -0.8889  0.9723
 7158SOL     OW32932   4.246   0.131   1.089  0.9803  0.3734 -0.0237
 7158SOL    HW132933   4.266   0.040   1.065  1.3937  0.6264 -0.6436
 7158SOL    HW232934   4.283   0.140   1.177  0.0962 -0.9213  0.4809
 7159SOL     OW32935   2.298   2.688  15.439  0.2275  0.7499 -0.2178
 7159SOL    HW132936   2.331   2.696  15.528 -1.0854 -0.0544  0.3346
 7159SOL    HW232937   2.362   2.625  15.404 -0.3240  1.6327 -2.8055
 7160SOL     OW32938   0.351   2.841   5.789  0.6851 -0.1110  0.2016
 7160SOL    HW132939   0.286   2.847   5.859  0.9916 -2.3626  0.6811
 7160SOL    HW232940   0.429   2.828   5.844  1.9904  1.5479 -1.2467
 7161SOL     OW32941   3.671   1.752   8.371 -0.0252  0.4432 -0.2113
 7161SOL    HW132942   3.620   1.680   8.408  0.7309  0.1713  0.3156
 7161SOL    HW232943   3.686   1.806   8.449 -1.5039  1.2594 -0.5060
 7162SOL     OW32944   0.804   2.959   7.770 -0.1375 -0.1903 -0.6655
 7162SOL    HW132945   0.895   2.943   7.748  0.3659  0.4177  0.9502
 7162SOL    HW232946   0.790   3.037   7.716 -1.5335  0.5688  0.7774
 7163SOL     OW32947   2.280   3.824   8.065  0.4604 -0.5126 -0.1540
 7163SOL    HW132948   2.201   3.864   8.027  2.0941  1.1442 -1.8342
 7163SOL    HW232949   2.268   3.823   8.160 -1.7774 -0.9972 -0.4466
 7164SOL     OW32950   3.037   4.428  12.847 -0.1382 -0.2263  0.5713
 7164SOL    HW132951   3.090   4.481  12.787 -0.3777 -0.2435  0.3427
 7164SOL    HW232952   3.101   4.396  12.911 -1.7895  0.8309  2.7545
 7165SOL     OW32953   1.583   2.419   3.585  0.2689 -0.4846 -0.4155
 7165SOL    HW132954   1.573   2.498   3.638 -0.7388  0.7850 -2.4779
 7165SOL    HW232955   1.625   2.462   3.510 -1.7284  2.3978  0.0982
 7166SOL     OW32956   2.348   2.047  14.122 -0.3584  0.6517 -0.0542
 7166SOL    HW132957   2.435   2.015  14.145 -0.4006  0.6932  0.1588
 7166SOL    HW232958   2.332   1.964  14.077  1.3191  1.0402 -1.3718
 7167SOL     OW32959   2.567   0.572  12.196 -0.4051  0.3084 -0.2214
 7167SOL    HW132960   2.540   0.552  12.286 -0.5614 -3.5729 -1.1097
 7167SOL    HW232961   2.565   0.667  12.209  1.4076  0.8554 -3.9033
 7168SOL     OW32962   1.802   2.082  12.890  0.1533 -0.8227  0.5263
 7168SOL    HW132963   1.882   2.061  12.938  0.0397 -1.0653  0.6137
 7168SOL    HW232964   1.818   2.169  12.855  0.8377 -1.7257 -1.4348
 7169SOL     OW32965   0.712   1.151   1.869  0.0185  0.1977  0.4631
 7169SOL    HW132966   0.760   1.120   1.793 -2.8833 -0.2582 -1.1696
 7169SOL    HW232967   0.778   1.131   1.936  0.8479  1.0445 -0.1011
 7170SOL     OW32968   3.799   1.654   4.444  0.4419  0.3829  0.0933
 7170SOL    HW132969   3.893   1.669   4.429  0.4955  0.7744  0.8377
 7170SOL    HW232970   3.758   1.673   4.360 -0.8881 -2.9003 -0.0144
 7171SOL     OW32971   2.893   3.842   6.983  0.2578  0.3822 -0.3064
 7171SOL    HW132972   2.852   3.917   7.025 -2.1183 -0.4979 -1.0806
 7171SOL    HW232973   2.872   3.854   6.890 -0.7885 -0.6192 -0.2031
 7172SOL     OW32974   3.607   1.073   5.865 -0.2020  0.3628 -0.0337
 7172SOL    HW132975   3.638   1.017   5.793 -0.9262 -1.2145  0.8909
 7172SOL    HW232976   3.669   1.145   5.872  0.3157 -0.2000  1.0943
 7173SOL     OW32977   3.957   1.095   7.548 -0.2184 -0.4035  0.5893
 7173SOL    HW132978   3.998   1.104   7.634 -0.1244  3.1536  0.1807
 7173SOL    HW232979   3.890   1.162   7.553  1.1202  0.8978  1.2076
 7174SOL     OW32980   3.051   2.536  13.165 -0.0027  0.2008  0.0704
 7174SOL    HW132981   3.034   2.615  13.217  1.3939 -1.6660  3.3572
 7174SOL    HW232982   2.971   2.484  13.177  0.6496 -0.6012  0.9648
 7175SOL     OW32983   4.247   3.898   8.134  0.0186 -0.1060  0.6782
 7175SOL    HW132984   4.327   3.925   8.091 -1.5631 -0.2110 -2.3365
 7175SOL    HW232985   4.252   3.803   8.120  0.6020 -0.2326  1.7712
 7176SOL     OW32986   1.745   4.225  14.959  0.0784  0.1453  0.5224
 7176SOL    HW132987   1.823   4.279  14.946 -0.0606 -0.1231 -1.4821
 7176SOL    HW232988   1.710   4.248  14.873 -2.4415  0.9261  1.7575
 7177SOL     OW32989   0.440   0.807  11.814 -0.0896 -0.2720  0.6689
 7177SOL    HW132990   0.449   0.899  11.793 -2.0287  0.3671  2.6046
 7177SOL    HW232991   0.387   0.796  11.735 -0.6849 -0.9067  1.1560
 7178SOL     OW32992   0.249   0.330  17.437  0.5548 -0.3471  0.1830
 7178SOL    HW132993   0.272   0.366  17.522  1.0265 -2.5078  0.9690
 7178SOL    HW232994   0.196   0.401  17.398 -0.4188 -0.9397  0.4243
 7179SOL     OW32995   2.040   1.568   2.264  0.1558  0.1198  0.6432
 7179SOL    HW132996   2.112   1.521   2.306 -0.2148 -0.9320  0.1129
 7179SOL    HW232997   1.973   1.499   2.274  1.9409 -1.5588  0.9723
 7180SOL     OW32998   2.001   4.060   2.151  0.0150 -0.6635 -0.1542
 7180SOL    HW132999   2.015   4.061   2.057  0.0628 -0.6422 -0.1470
 7180SOL    HW233000   1.909   4.086   2.145  0.3093  0.5456  0.4543
 7181SOL     OW33001   3.380   3.705   2.238  0.2870  0.2786 -0.0520
 7181SOL    HW133002   3.419   3.618   2.246  0.2526  0.4715  2.4591
 7181SOL    HW233003   3.441   3.743   2.302  0.4167 -1.2501  0.7580
 7182SOL     OW33004   3.031   2.411   4.785  0.4949  0.1296 -0.4373
 7182SOL    HW133005   3.073   2.438   4.866  0.9769  0.1254 -0.6839
 7182SOL    HW233006   3.094   2.400   4.713  0.2926 -2.9657 -0.1337
 7183SOL     OW33007   3.055   0.523  15.872 -0.3167 -0.7678 -0.8534
 7183SOL    HW133008   3.139   0.507  15.917 -1.4941 -2.4750  0.7869
 7183SOL    HW233009   3.040   0.602  15.923 -1.6896 -0.1018 -2.3163
 7184SOL     OW33010   1.667   3.330   6.214  0.2163  0.4450 -0.5098
 7184SOL    HW133011   1.747   3.381   6.228 -0.5615  1.2261  1.0202
 7184SOL    HW233012   1.609   3.356   6.286 -0.4150 -0.8444 -0.5509
 7185SOL     OW33013   4.262   3.261   5.794 -0.7616  0.0990 -0.4700
 7185SOL    HW133014   4.265   3.352   5.824 -1.2348 -0.1304  0.2795
 7185SOL    HW233015   4.205   3.279   5.719  0.3461 -2.8919 -2.0290
 7186SOL     OW33016   2.281   0.309   6.952 -0.3637 -0.5092 -0.3295
 7186SOL    HW133017   2.322   0.252   7.017  1.7813  0.2898 -0.9906
 7186SOL    HW233018   2.354   0.363   6.922 -0.8574  0.2311 -0.2214
 7187SOL     OW33019   4.375   1.644  10.618  1.0953  0.3133  0.6609
 7187SOL    HW133020   4.381   1.690  10.535 -1.3181 -3.6093 -1.6772
 7187SOL    HW233021   4.306   1.579  10.605  1.0594 -0.1328  2.9607
 7188SOL     OW33022   0.336   3.614   3.144  0.1763  0.0909 -0.4643
 7188SOL    HW133023   0.405   3.674   3.172  0.2211  0.3286 -1.0981
 7188SOL    HW233024   0.371   3.537   3.190 -0.6976  0.1508  0.2931
 7189SOL     OW33025   3.143   0.086   6.320  0.2594 -0.5499  0.3535
 7189SOL    HW133026   3.104   0.124   6.399 -1.2393 -2.4128  0.5239
 7189SOL    HW233027   3.066   0.087   6.264 -0.9513  0.9027  2.0548
 7190SOL     OW33028   2.288   3.559   4.233  0.0859  0.0827 -0.8433
 7190SOL    HW133029   2.272   3.472   4.195 -0.0332 -0.9225  1.5541
 7190SOL    HW233030   2.221   3.553   4.300  0.0734  1.8326 -0.7041
 7191SOL     OW33031   3.255   2.414   6.437  0.1540  0.2044  0.5082
 7191SOL    HW133032   3.307   2.494   6.437 -2.8653  2.1398  2.1381
 7191SOL    HW233033   3.212   2.421   6.351  0.8989 -2.8915 -0.1096
 7192SOL     OW33034   3.274   0.764  13.601 -0.1365 -0.1674 -0.0627
 7192SOL    HW133035   3.327   0.834  13.641  0.5238 -0.2702 -0.7573
 7192SOL    HW233036   3.195   0.810  13.575  1.0688  0.9676 -1.7702
 7193SOL     OW33037   1.507   1.998  12.755  0.2120  1.1053 -0.1625
 7193SOL    HW133038   1.458   1.927  12.714 -0.3809  1.2738  0.2522
 7193SOL    HW233039   1.554   2.033  12.679  1.6847  2.5153  1.3862
 7194SOL     OW33040   1.707   1.637   7.206 -0.4138 -0.2002  0.3381
 7194SOL    HW133041   1.678   1.727   7.221 -0.7079 -0.2245 -0.1002
 7194SOL    HW233042   1.795   1.659   7.174 -1.5299  2.1506 -1.0751
 7195SOL     OW33043   2.239   1.339   2.146  0.0089 -0.2802  0.6181
 7195SOL    HW133044   2.175   1.268   2.151 -2.5798  1.9055 -1.0830
 7195SOL    HW233045   2.244   1.370   2.237  0.5855  1.4001  0.0129
 7196SOL     OW33046   2.851   2.619   9.172 -0.7030 -0.2254  0.3632
 7196SOL    HW133047   2.890   2.702   9.146  0.4660 -0.7298  0.4871
 7196SOL    HW233048   2.923   2.565   9.139  0.2833  1.9955 -1.0917
 7197SOL     OW33049   3.494   0.773   2.558 -0.3121 -0.1248 -0.2566
 7197SOL    HW133050   3.405   0.788   2.525 -0.6003  0.4398  0.7863
 7197SOL    HW233051   3.531   0.745   2.475  1.6538 -1.2670  1.0241
 7198SOL     OW33052   4.410   2.853   3.974  0.1886 -0.7704  0.0559
 7198SOL    HW133053   4.494   2.841   3.930  1.2079  1.9957  1.2321
 7198SOL    HW233054   4.352   2.834   3.900  2.0463 -2.8997 -0.8184
 7199SOL     OW33055   4.571   2.137  15.234 -0.2907  0.3175  0.0754
 7199SOL    HW133056   4.626   2.118  15.158 -0.3859  1.9475 -0.3884
 7199SOL    HW233057   4.483   2.113  15.205 -1.4274  0.5937  3.2954
 7200SOL     OW33058   0.843   3.628  11.438 -0.1885  0.0060 -0.1802
 7200SOL    HW133059   0.781   3.665  11.376 -0.2942 -0.3038 -0.2592
 7200SOL    HW233060   0.917   3.687  11.428 -1.6789  1.8398 -0.3572
 7201SOL     OW33061   3.238   4.360  13.020  0.6534  0.2533 -0.4295
 7201SOL    HW133062   3.280   4.444  13.035 -0.4184  0.5796  0.7999
 7201SOL    HW233063   3.316   4.306  13.007 -0.4204 -0.9053 -2.1019
 7202SOL     OW33064   1.778   3.978  15.171 -0.4326  0.1294  0.3437
 7202SOL    HW133065   1.793   4.051  15.112  2.6908  0.3719  1.3889
 7202SOL    HW233066   1.855   3.983  15.228  0.1119 -0.3643 -0.3476
 7203SOL     OW33067   4.238   2.244   1.887  1.0146 -0.2070  0.1597
 7203SOL    HW133068   4.244   2.152   1.865 -0.4766  0.0617 -1.3611
 7203SOL    HW233069   4.239   2.233   1.982  3.2783 -0.1945  0.1343
 7204SOL     OW33070   3.346   0.327  12.647  0.8108  0.0553 -0.7480
 7204SOL    HW133071   3.252   0.347  12.647  0.4481 -1.6141 -1.2435
 7204SOL    HW233072   3.379   0.404  12.601 -0.2038  0.2653 -1.1185
 7205SOL     OW33073   2.669   0.609   3.823 -0.0921  0.2579 -0.4567
 7205SOL    HW133074   2.608   0.682   3.811  2.5531  2.5345 -0.1384
 7205SOL    HW233075   2.746   0.656   3.789  0.2466 -0.6410 -0.9369
 7206SOL     OW33076   1.572   0.051   6.910  0.6746 -0.4334 -0.2386
 7206SOL    HW133077   1.562   0.074   6.817  0.3370 -0.1911 -0.1446
 7206SOL    HW233078   1.666   0.034   6.914  1.0904  1.8953 -0.3295
 7207SOL     OW33079   2.522   4.656   5.396  0.0749  0.3568 -0.0065
 7207SOL    HW133080   2.586   4.600   5.352 -1.0525 -2.6096  2.1835
 7207SOL    HW233081   2.469   4.585   5.431 -2.5446  0.8543 -2.9721
 7208SOL     OW33082   1.341   3.939   6.313 -0.0314 -0.1024 -0.4343
 7208SOL    HW133083   1.385   3.858   6.340  1.9132  0.7803 -0.9753
 7208SOL    HW233084   1.258   3.908   6.277  0.7010 -0.7120 -1.6110
 7209SOL     OW33085   1.007   3.171   7.004 -0.6222 -0.8911 -0.0478
 7209SOL    HW133086   0.973   3.247   6.957 -1.1420 -0.5786  0.8440
 7209SOL    HW233087   1.102   3.180   6.993 -0.5095 -0.6765  1.0622
 7210SOL     OW33088   4.149   0.805   2.681  0.9193  0.1851 -0.2497
 7210SOL    HW133089   4.160   0.741   2.611 -0.1837 -0.8899  0.5438
 7210SOL    HW233090   4.115   0.752   2.754  2.5906 -1.8405 -0.9372
 7211SOL     OW33091   3.904   1.759   8.211 -0.7825 -0.2115 -0.1034
 7211SOL    HW133092   3.823   1.756   8.261 -1.0892 -2.2051 -0.7427
 7211SOL    HW233093   3.915   1.854   8.203  1.7744 -0.3146  1.9599
 7212SOL     OW33094   1.997   0.366  11.377 -0.8320 -0.1277  0.4053
 7212SOL    HW133095   2.082   0.378  11.420 -1.7268  0.1678  2.1156
 7212SOL    HW233096   2.028   0.308  11.308  0.8481  0.0040  1.0367
 7213SOL     OW33097   4.522   2.260   1.644 -0.0875 -0.3370  0.4799
 7213SOL    HW133098   4.532   2.336   1.587  1.2552 -2.0312 -1.5735
 7213SOL    HW233099   4.570   2.190   1.600 -0.9752 -0.4018 -0.3932
 7214SOL     OW33100   0.236   1.209  11.665 -0.1213 -0.0942 -0.3662
 7214SOL    HW133101   0.206   1.293  11.630 -0.8172  0.9726  2.8680
 7214SOL    HW233102   0.323   1.210  11.625  0.8125 -0.0955  1.6683
 7215SOL     OW33103   0.448   3.678   1.021  0.3682  0.0072  0.2476
 7215SOL    HW133104   0.443   3.751   0.959  1.9656 -0.7869 -0.8298
 7215SOL    HW233105   0.361   3.692   1.059  0.8053  0.4684  1.0876
 7216SOL     OW33106   3.792   3.920   4.412 -0.4405  0.1130 -0.1326
 7216SOL    HW133107   3.789   3.912   4.507 -0.6463 -0.3177 -0.1751
 7216SOL    HW233108   3.853   3.851   4.383 -1.3865  0.1394 -2.1727
 7217SOL     OW33109   4.444   1.851   9.890  0.1039  0.0540  0.6458
 7217SOL    HW133110   4.484   1.830   9.806 -2.1286  0.6752 -0.5753
 7217SOL    HW233111   4.509   1.912   9.927  0.6260 -0.3278  0.3551
 7218SOL     OW33112   4.619   3.062   8.254  0.7037  0.6016  0.1244
 7218SOL    HW133113   4.614   2.972   8.222  1.2184  0.9587 -0.9700
 7218SOL    HW233114   4.702   3.060   8.300  0.0173 -1.6437  1.2446
 7219SOL     OW33115   4.249   0.281   4.415  0.2721 -0.4425 -0.1655
 7219SOL    HW133116   4.340   0.311   4.414  0.3427 -0.7063 -1.5969
 7219SOL    HW233117   4.241   0.244   4.503 -1.0572 -0.6361 -0.3604
 7220SOL     OW33118   0.342   1.621   5.349  0.8226  0.4384  0.4675
 7220SOL    HW133119   0.302   1.564   5.415 -0.2855 -1.5196 -1.8983
 7220SOL    HW233120   0.435   1.599   5.346  1.0523  1.4109  0.3862
 7221SOL     OW33121   4.563   0.294   4.851  0.1136 -0.4565  0.0931
 7221SOL    HW133122   4.645   0.316   4.808 -0.6131  1.3160 -0.3685
 7221SOL    HW233123   4.519   0.240   4.786  1.1273 -0.0207 -0.9422
 7222SOL     OW33124   0.407   0.279   5.823  1.1365 -0.2094 -0.1425
 7222SOL    HW133125   0.455   0.347   5.870  1.4520 -0.1371 -0.5724
 7222SOL    HW233126   0.335   0.274   5.885  1.0248  0.3076 -0.2329
 7223SOL     OW33127   0.057   3.977  12.910 -0.0683 -0.5460  0.4049
 7223SOL    HW133128   0.137   4.027  12.894 -1.0863  0.7897 -0.6009
 7223SOL    HW233129   4.712   4.041  12.900  1.4754  0.7962 -1.8833
 7224SOL     OW33130   4.316   0.247   1.866  0.1006 -0.2504 -0.0265
 7224SOL    HW133131   4.301   0.167   1.917  1.8640 -0.8176 -0.3790
 7224SOL    HW233132   4.231   0.275   1.832 -0.3761 -1.5042  0.1354
 7225SOL     OW33133   0.076   3.076  11.147 -0.5508  0.6538  0.0960
 7225SOL    HW133134   0.142   3.142  11.123 -2.1793  2.2733  0.0822
 7225SOL    HW233135   0.123   3.010  11.199 -0.3417  0.0156 -0.9092
 7226SOL     OW33136   4.101   4.558   8.259 -0.4124 -0.1154 -0.1150
 7226SOL    HW133137   4.167   4.622   8.284  1.5754 -1.5450 -1.7232
 7226SOL    HW233138   4.160   4.484   8.243 -1.4708 -1.2294  1.0948
 7227SOL     OW33139   3.181   2.338  17.182 -0.4526  0.0529 -0.2746
 7227SOL    HW133140   3.162   2.269  17.246  1.6389  1.1120  1.4783
 7227SOL    HW233141   3.105   2.345  17.124  0.5262 -0.8086 -1.6842
 7228SOL     OW33142   2.231   0.952   5.359 -0.5064  0.9015 -0.2222
 7228SOL    HW133143   2.168   1.021   5.383  0.2806  1.4663  0.2259
 7228SOL    HW233144   2.290   1.014   5.317 -1.2009 -0.5165 -3.2525
 7229SOL     OW33145   3.371   3.681  13.283 -0.2994 -0.3771 -0.3883
 7229SOL    HW133146   3.410   3.623  13.218  1.9795 -0.6968  1.2345
 7229SOL    HW233147   3.443   3.746  13.284 -0.6544 -0.0129  1.0032
 7230SOL     OW33148   0.149   2.803   8.469  0.3079  0.2488 -0.3032
 7230SOL    HW133149   0.237   2.778   8.442 -0.5090 -3.2633  0.3200
 7230SOL    HW233150   0.150   2.899   8.465  0.5683  0.2543 -0.0644
 7231SOL     OW33151   4.352   1.815   5.519  0.4642 -0.2688  0.1629
 7231SOL    HW133152   4.274   1.759   5.512 -0.6747  1.2008  1.0881
 7231SOL    HW233153   4.365   1.853   5.432  1.4463 -1.1562 -0.0772
 7232SOL     OW33154   3.812   2.797   7.333  0.5424  0.0716 -0.2725
 7232SOL    HW133155   3.825   2.750   7.416  2.4744  0.8988 -0.1006
 7232SOL    HW233156   3.890   2.852   7.337  0.5529 -0.0192  0.7939
 7233SOL     OW33157   0.094   1.267  10.903  0.0899 -0.5586 -0.6424
 7233SOL    HW133158   0.036   1.200  10.865 -0.9547  0.1842 -0.3575
 7233SOL    HW233159   0.172   1.261  10.848  0.1253  1.5698 -0.8097
 7234SOL     OW33160   4.259   3.614   4.089 -0.1021  0.0042 -0.3257
 7234SOL    HW133161   4.173   3.627   4.049 -0.8281 -0.3683  1.0810
 7234SOL    HW233162   4.234   3.570   4.171  2.0890  0.6890  0.7065
 7235SOL     OW33163   0.431   0.924  10.093  0.0739  0.2804 -0.0643
 7235SOL    HW133164   0.442   0.838  10.135 -0.4979  0.7281  1.0026
 7235SOL    HW233165   0.512   0.967  10.120  0.3214  0.6647 -1.4372
 7236SOL     OW33166   4.599   1.142  14.864 -0.4198 -0.1200  0.0344
 7236SOL    HW133167   4.637   1.218  14.909 -1.4609  0.4487 -0.0299
 7236SOL    HW233168   4.676   1.096  14.832  0.3742  0.0748  1.6491
 7237SOL     OW33169   2.277   0.207  12.480 -0.0297  0.3769 -0.3711
 7237SOL    HW133170   2.316   0.194  12.394  0.7021 -0.7372  0.1159
 7237SOL    HW233171   2.291   0.118  12.513 -0.1598  0.5433  0.1367
 7238SOL     OW33172   2.460   0.533   8.659  0.1510 -0.0911  0.3086
 7238SOL    HW133173   2.392   0.599   8.645  1.1515  0.4494 -1.9486
 7238SOL    HW233174   2.523   0.548   8.588  3.0728 -0.8051  2.7313
 7239SOL     OW33175   2.959   2.327  11.996 -0.1922  0.5085  0.2274
 7239SOL    HW133176   2.869   2.298  11.981 -0.2282  0.9130 -0.3546
 7239SOL    HW233177   2.952   2.420  11.974 -1.5567  0.4010  0.2208
 7240SOL     OW33178   1.458   3.914   7.106  0.0374 -0.1432  0.1598
 7240SOL    HW133179   1.485   3.842   7.049  1.0481  1.0060 -0.8175
 7240SOL    HW233180   1.538   3.955   7.136  0.8165 -2.3646  1.1418
 7241SOL     OW33181   2.646   3.003   0.743  0.2195  0.3235 -0.1354
 7241SOL    HW133182   2.708   3.013   0.816  0.1925 -1.1526  0.0782
 7241SOL    HW233183   2.616   2.913   0.749  2.9752 -0.5645  0.3467
 7242SOL     OW33184   1.554   0.955   4.870 -0.4603  0.5739  0.1544
 7242SOL    HW133185   1.584   0.911   4.790 -3.2834 -0.3662 -0.3761
 7242SOL    HW233186   1.511   1.034   4.837 -1.4383  0.0835  0.2459
 7243SOL     OW33187   1.227   3.015  15.005  0.2961 -0.3510  0.7296
 7243SOL    HW133188   1.253   2.925  15.023  2.2377 -0.2716 -1.7854
 7243SOL    HW233189   1.156   3.001  14.943  1.3107  1.1970 -0.8005
 7244SOL     OW33190   2.174   1.764   0.152  0.3095 -0.2636 -0.3830
 7244SOL    HW133191   2.137   1.693   0.100  0.9757 -0.9402  0.0665
 7244SOL    HW233192   2.098   1.818   0.172  0.0050 -1.4609  1.6439
 7245SOL     OW33193   2.107   1.295  17.328  0.1091 -0.2071  0.1634
 7245SOL    HW133194   2.046   1.263  17.262 -1.8052 -1.4441  2.5450
 7245SOL    HW233195   2.137   1.383  17.304 -1.3167  0.8272  2.2066
 7246SOL     OW33196   3.297   3.130   3.784 -0.0530  0.7916 -0.1524
 7246SOL    HW133197   3.247   3.064   3.736 -0.5425  0.3095  1.0131
 7246SOL    HW233198   3.288   3.211   3.733 -0.3544  0.2495 -0.9561
 7247SOL     OW33199   3.858   3.042   9.213 -0.4004 -0.0871  0.5345
 7247SOL    HW133200   3.883   2.951   9.195 -0.7211 -0.4767  2.0887
 7247SOL    HW233201   3.937   3.096   9.210  1.8783 -3.3169  1.5990
 7248SOL     OW33202   4.405   0.014  10.252 -0.0701 -0.1872  0.5401
 7248SOL    HW133203   4.333   4.688  10.287 -0.0433  0.4328  1.5348
 7248SOL    HW233204   4.424   0.072  10.326 -0.9472 -0.1330  0.7227
 7249SOL     OW33205   3.168   4.006   5.507  0.2617 -0.1903  0.3404
 7249SOL    HW133206   3.211   4.090   5.491  1.8970 -1.1977 -0.6086
 7249SOL    HW233207   3.107   4.008   5.432  0.9562  0.5860 -0.1984
 7250SOL     OW33208   1.389   2.012   6.173  0.6346 -0.2452  0.6034
 7250SOL    HW133209   1.301   2.009   6.135  0.7805 -0.2112  0.2614
 7250SOL    HW233210   1.392   1.919   6.194 -1.7876 -0.3389  0.5793
 7251SOL     OW33211   3.861   2.685  13.158  0.2335  0.3632 -0.0259
 7251SOL    HW133212   3.831   2.707  13.071 -1.5724  0.9054  0.7378
 7251SOL    HW233213   3.854   2.589  13.163 -0.5525  0.4804  1.3308
 7252SOL     OW33214   1.595   3.878  14.714 -0.2888 -0.1917  0.2516
 7252SOL    HW133215   1.500   3.871  14.712 -0.3189 -0.1269  1.3348
 7252SOL    HW233216   1.603   3.937  14.639 -0.0494  2.0334  2.0040
 7253SOL     OW33217   1.504   2.893  16.242  0.2122  0.4684 -0.0497
 7253SOL    HW133218   1.450   2.950  16.187  0.0392 -0.9883 -1.3879
 7253SOL    HW233219   1.444   2.884  16.316 -0.1338 -1.5584 -0.5694
 7254SOL     OW33220   0.547   3.993   4.808  0.1246 -0.8426 -0.2317
 7254SOL    HW133221   0.569   3.952   4.891 -1.4833  1.6167  1.4011
 7254SOL    HW233222   0.613   4.059   4.828 -1.4614  0.2204  1.4137
 7255SOL     OW33223   1.711   3.454  12.954  0.3178 -0.3561 -1.3156
 7255SOL    HW133224   1.675   3.532  12.912 -1.3766  0.2212  1.1810
 7255SOL    HW233225   1.791   3.436  12.905 -0.9495 -1.8152 -2.8192
 7256SOL     OW33226   2.536   4.443   6.575 -0.4756  0.2300  0.2437
 7256SOL    HW133227   2.595   4.435   6.500 -0.3340 -0.2370  0.4098
 7256SOL    HW233228   2.535   4.350   6.598  0.2428 -0.2572 -1.6979
 7257SOL     OW33229   0.065   2.437   3.062 -0.1702 -0.7093  0.1234
 7257SOL    HW133230   0.017   2.371   3.111 -2.3127  0.7304 -0.0399
 7257SOL    HW233231   0.000   2.448   2.992 -0.1979 -2.0200 -0.0641
 7258SOL     OW33232   3.446   3.324   2.559 -0.0764 -0.1184 -0.6792
 7258SOL    HW133233   3.366   3.313   2.508 -1.1082 -1.4035  1.2322
 7258SOL    HW233234   3.419   3.398   2.614  2.7100 -0.7813  1.5681
 7259SOL     OW33235   0.051   2.005   5.879  0.2386  0.1974  0.3325
 7259SOL    HW133236   4.705   1.971   5.826 -0.3611  0.9199  0.6899
 7259SOL    HW233237   0.091   2.071   5.823  2.9157 -0.9002  0.9279
 7260SOL     OW33238   4.344   3.819  11.392  0.1382 -0.5486  0.1953
 7260SOL    HW133239   4.303   3.901  11.365 -0.4602 -0.8864  0.0905
 7260SOL    HW233240   4.438   3.827  11.376  0.1827  1.4446  1.5107
 7261SOL     OW33241   1.801   4.700  15.822 -0.1574 -0.2416 -0.1077
 7261SOL    HW133242   1.865   4.682  15.753 -1.0775  1.2647 -1.3505
 7261SOL    HW233243   1.744   4.623  15.815 -2.6387  1.6944 -1.3511
 7262SOL     OW33244   1.386   1.209   3.624  0.0810  0.6836 -0.1614
 7262SOL    HW133245   1.405   1.123   3.585 -1.3878  0.8802 -1.3306
 7262SOL    HW233246   1.351   1.183   3.710 -0.0926  0.3112 -0.3422
 7263SOL     OW33247   0.864   1.674   5.111 -0.3542 -0.3184  0.6462
 7263SOL    HW133248   0.918   1.635   5.179  0.1657  0.3485  0.6143
 7263SOL    HW233249   0.804   1.728   5.161 -0.0517 -0.6133  1.3184
 7264SOL     OW33250   3.390   0.761   6.889 -0.1081 -0.3621 -0.0479
 7264SOL    HW133251   3.478   0.794   6.870  0.5146 -2.0249 -0.0494
 7264SOL    HW233252   3.411   0.700   6.960  0.5138 -2.1019 -1.7063
 7265SOL     OW33253   0.163   1.401   5.656 -0.4061  0.3042  0.0643
 7265SOL    HW133254   0.128   1.345   5.725 -1.9430  0.3146 -0.7004
 7265SOL    HW233255   0.123   1.367   5.576 -1.2699 -0.2687  0.7354
 7266SOL     OW33256   2.204   1.065  17.454  0.1731 -0.1775  0.2853
 7266SOL    HW133257   2.187   1.153  17.419  2.0360 -0.1280 -0.4662
 7266SOL    HW233258   2.186   1.069  17.548  0.2627 -0.6764  0.3243
 7267SOL     OW33259   2.770   2.238   5.924  0.2772 -0.0108 -0.2327
 7267SOL    HW133260   2.834   2.306   5.901 -0.6232 -0.1511 -3.1874
 7267SOL    HW233261   2.791   2.168   5.862 -3.3138 -1.0572 -0.2306
 7268SOL     OW33262   0.089   4.232  17.158  0.0784  0.1995 -0.4687
 7268SOL    HW133263   0.184   4.227  17.149  0.2632  1.3251  0.8042
 7268SOL    HW233264   0.062   4.153  17.206 -1.0099  2.1725  2.1620
 7269SOL     OW33265   3.976   0.008   4.339 -0.0366  0.1246 -0.0869
 7269SOL    HW133266   4.025   4.696   4.412 -0.0321  1.9637  0.8793
 7269SOL    HW233267   4.052   0.022   4.282 -1.7890 -1.8149 -2.9155
 7270SOL     OW33268   2.141   4.149   7.422  0.0830  0.0381  0.3133
 7270SOL    HW133269   2.156   4.232   7.378  0.7062 -1.2840 -1.9650
 7270SOL    HW233270   2.063   4.119   7.375  0.1101 -1.0081  0.9216
 7271SOL     OW33271   1.078   2.613   9.177 -0.0172  0.0660  0.4987
 7271SOL    HW133272   1.130   2.689   9.205  1.4588 -0.2361 -1.3650
 7271SOL    HW233273   1.063   2.649   9.089  0.0889 -1.1542 -0.0236
 7272SOL     OW33274   1.751   3.863   6.581  0.0520 -0.3135 -0.0760
 7272SOL    HW133275   1.694   3.812   6.522  0.2402  1.0642 -1.4582
 7272SOL    HW233276   1.720   3.952   6.565 -0.6411 -0.1956  1.9704
 7273SOL     OW33277   1.304   2.491   6.210 -0.1683 -0.4544  0.2073
 7273SOL    HW133278   1.389   2.535   6.212 -0.6065  0.3931  0.1308
 7273SOL    HW233279   1.256   2.520   6.288  1.1984 -0.4217  1.0314
 7274SOL     OW33280   2.593   0.238   3.384  0.3262  0.0959  0.0252
 7274SOL    HW133281   2.515   0.185   3.368  1.0422 -0.6645 -0.9337
 7274SOL    HW233282   2.560   0.307   3.441 -0.8757  0.1726 -0.7749
 7275SOL     OW33283   1.684   4.150  17.464  0.1632 -0.2355  0.4148
 7275SOL    HW133284   1.639   4.162  17.381  0.2447 -1.8105  0.1467
 7275SOL    HW233285   1.707   4.242  17.478  2.2801 -0.5768 -0.7760
 7276SOL     OW33286   3.117   3.442   7.555  0.3678 -0.0811 -0.3197
 7276SOL    HW133287   3.183   3.383   7.519  0.4993  1.0516 -1.9267
 7276SOL    HW233288   3.172   3.492   7.616  0.8032  0.3901 -1.1016
 7277SOL     OW33289   4.515   2.173   4.088  0.1313 -0.1047  0.2290
 7277SOL    HW133290   4.481   2.249   4.040 -0.0791  1.6252  3.1542
 7277SOL    HW233291   4.498   2.104   4.023 -0.5443 -1.7564  2.1858
 7278SOL     OW33292   2.209   2.442   6.461 -0.0636  0.2546 -0.1406
 7278SOL    HW133293   2.121   2.412   6.439  0.2864 -1.5801  0.8738
 7278SOL    HW233294   2.225   2.392   6.542  1.4872  0.7125 -0.1742
 7279SOL     OW33295   0.230   3.997   7.940  0.4222  0.2025 -0.2888
 7279SOL    HW133296   0.252   3.958   7.856 -3.6365  0.1216 -1.3480
 7279SOL    HW233297   0.313   3.999   7.987  0.6322 -0.1920 -0.6495
 7280SOL     OW33298   0.036   1.861   0.540  0.0529 -0.1987  0.4358
 7280SOL    HW133299   0.092   1.871   0.463  0.1648  0.5030  0.6091
 7280SOL    HW233300   0.055   1.941   0.590 -1.4261  0.4761 -0.0575
 7281SOL     OW33301   1.996   3.432   3.577  0.0863 -0.1229 -0.0014
 7281SOL    HW133302   2.054   3.483   3.520  2.2374 -1.2351  1.1745
 7281SOL    HW233303   1.988   3.479   3.660 -1.5873  2.2058 -1.4609
 7282SOL     OW33304   4.629   2.564  10.476  0.3531  0.2152 -0.0171
 7282SOL    HW133305   4.549   2.602  10.511 -0.8729 -2.5331  0.2237
 7282SOL    HW233306   4.585   2.527  10.400 -1.3838  0.3697  0.9214
 7283SOL     OW33307   4.226   4.142   5.934  0.2129  0.4178  0.2922
 7283SOL    HW133308   4.222   4.097   6.019 -0.2931  1.6656  0.9285
 7283SOL    HW233309   4.244   4.231   5.965  1.5139  0.4171 -0.4583
 7284SOL     OW33310   0.795   1.927  10.883  0.6136 -0.3704  0.0244
 7284SOL    HW133311   0.764   1.903  10.971  0.2602 -0.1221 -0.0334
 7284SOL    HW233312   0.778   1.850  10.829  1.3270  0.5356 -1.5030
 7285SOL     OW33313   3.418   2.087   9.818 -0.5555 -0.4014  0.0831
 7285SOL    HW133314   3.416   2.136   9.735  0.2234 -1.4296 -0.5386
 7285SOL    HW233315   3.327   2.062   9.832 -0.6861 -0.2035 -0.3939
 7286SOL     OW33316   4.217   3.994   7.239 -0.1084  0.4815 -0.1043
 7286SOL    HW133317   4.280   4.065   7.227 -0.0474  0.1014 -2.0431
 7286SOL    HW233318   4.273   3.921   7.267  0.8205  0.9682 -0.6720
 7287SOL     OW33319   1.401   0.815   5.949  0.2784 -0.5516  0.0633
 7287SOL    HW133320   1.493   0.788   5.953  0.3574 -0.0061  1.9209
 7287SOL    HW233321   1.363   0.728   5.938  1.2720 -0.9790  0.0597
 7288SOL     OW33322   3.416   3.079   9.363 -0.2751  0.9616  0.1311
 7288SOL    HW133323   3.472   3.093   9.287 -0.1494 -1.2796 -0.1918
 7288SOL    HW233324   3.332   3.095   9.319 -0.8084  0.0464  0.8096
 7289SOL     OW33325   4.266   1.136   7.474  0.1193 -0.4264 -0.4430
 7289SOL    HW133326   4.186   1.179   7.504  0.4919 -2.2523  3.2111
 7289SOL    HW233327   4.238   1.083   7.400 -0.4361  0.7366 -1.0537
 7290SOL     OW33328   2.253   2.905  15.861 -0.2141 -0.1652  0.4418
 7290SOL    HW133329   2.238   2.910  15.956 -0.7794  0.5623  0.3150
 7290SOL    HW233330   2.163   2.926  15.834  0.4031 -0.1030 -1.5443
 7291SOL     OW33331   0.463   3.880   3.183 -0.5073  0.0240 -0.5464
 7291SOL    HW133332   0.541   3.851   3.231 -1.3851 -0.9198  0.3007
 7291SOL    HW233333   0.434   3.946   3.245  0.1978 -1.3426  1.2261
 7292SOL     OW33334   4.273   4.221   5.057  0.0612 -0.2614  0.3459
 7292SOL    HW133335   4.279   4.314   5.076  0.8324 -0.6176  1.8688
 7292SOL    HW233336   4.348   4.212   4.998 -0.5794 -0.8839 -0.3750
 7293SOL     OW33337   2.079   4.385   9.387 -0.6034 -0.0262  0.2710
 7293SOL    HW133338   2.002   4.400   9.442  0.3651  0.8044  1.3895
 7293SOL    HW233339   2.086   4.290   9.377 -1.0261 -0.0319  0.0453
 7294SOL     OW33340   2.817   4.043   7.146 -0.0195  0.5707 -0.3700
 7294SOL    HW133341   2.787   4.125   7.186 -2.2221 -1.0712  1.3408
 7294SOL    HW233342   2.746   3.989   7.181  1.7437  0.0561  2.4509
 7295SOL     OW33343   4.231   0.962   5.813  0.3674 -0.2569 -0.2710
 7295SOL    HW133344   4.142   0.969   5.849 -0.3750 -0.7022 -2.0328
 7295SOL    HW233345   4.252   0.871   5.833  1.3601  0.2458  0.9907
 7296SOL     OW33346   3.231   3.021   2.777  0.8018  0.4636 -0.2387
 7296SOL    HW133347   3.315   3.069   2.775  0.4185  1.2684  3.1638
 7296SOL    HW233348   3.264   2.931   2.774  0.9145  0.5327 -1.1692
 7297SOL     OW33349   0.711   2.703   6.391 -0.2059 -0.6038  0.1583
 7297SOL    HW133350   0.803   2.730   6.394 -0.6387  0.8637  0.6149
 7297SOL    HW233351   0.681   2.793   6.378 -1.0980 -1.4409 -3.3329
 7298SOL     OW33352   1.463   1.855   2.388  0.0347  0.4423 -0.2365
 7298SOL    HW133353   1.387   1.871   2.333 -0.7281  0.2192  0.7418
 7298SOL    HW233354   1.527   1.925   2.377 -0.2196  0.5930 -0.7623
 7299SOL     OW33355   3.179   4.222   4.206  0.2862  0.1214 -0.1962
 7299SOL    HW133356   3.246   4.281   4.171  0.0788  0.6051  0.2140
 7299SOL    HW233357   3.106   4.284   4.203  0.2970  0.2474  1.9150
 7300SOL     OW33358   2.491   2.471   8.674  0.1594  0.2913 -0.7610
 7300SOL    HW133359   2.441   2.553   8.679 -1.7550 -1.0006  1.3039
 7300SOL    HW233360   2.421   2.414   8.706  0.2445 -0.3559 -1.7263
 7301SOL     OW33361   1.013   1.018   3.165  0.2488 -0.0388 -0.2930
 7301SOL    HW133362   0.931   0.992   3.121 -0.1254  0.1406  0.2923
 7301SOL    HW233363   1.078   0.950   3.151 -0.7663 -1.2345  0.8503
 7302SOL     OW33364   4.176   0.212   5.216 -0.6563 -0.2042 -0.5648
 7302SOL    HW133365   4.179   0.282   5.281  0.7601 -1.4287  0.6931
 7302SOL    HW233366   4.176   0.262   5.135  0.9550 -0.1281 -0.5211
 7303SOL     OW33367   3.180   4.360  10.092 -0.2137 -0.1061 -0.3149
 7303SOL    HW133368   3.134   4.360  10.176  2.8609 -1.9347  1.3922
 7303SOL    HW233369   3.219   4.273  10.090 -1.8153 -0.7286 -3.9978
 7304SOL     OW33370   2.788   0.240   1.967  0.1220 -0.3871 -0.2600
 7304SOL    HW133371   2.715   0.299   1.949 -1.9845 -2.3280  1.8957
 7304SOL    HW233372   2.781   0.226   2.061  0.6961 -0.7112 -0.2673
 7305SOL     OW33373   3.809   0.034   1.455  0.0893  0.1667 -0.4129
 7305SOL    HW133374   3.853   4.697   1.513 -1.6684 -0.1339  0.6103
 7305SOL    HW233375   3.878   0.094   1.426 -0.7705  3.1218  3.6029
 7306SOL     OW33376   4.279   4.319   8.237 -0.2396 -0.1227 -0.2861
 7306SOL    HW133377   4.370   4.347   8.250 -0.8543  0.3529  3.0064
 7306SOL    HW233378   4.263   4.344   8.146  0.4822 -0.9007 -0.6293
 7307SOL     OW33379   0.271   0.651   9.515  0.3659  0.2722  0.3493
 7307SOL    HW133380   0.318   0.568   9.519  1.9019  1.0566 -1.9236
 7307SOL    HW233381   0.265   0.657   9.420 -0.5336  1.0854  0.4486
 7308SOL     OW33382   0.908   2.832  17.466  0.2993 -0.2344 -0.3111
 7308SOL    HW133383   0.956   2.834  17.549 -0.5546  0.2164  0.1810
 7308SOL    HW233384   0.851   2.755  17.474  0.9781 -0.6067  1.0256
 7309SOL     OW33385   2.073   1.104   9.021  0.0886 -0.2746  0.2603
 7309SOL    HW133386   2.112   1.019   8.997 -0.3521 -0.5405  0.4860
 7309SOL    HW233387   2.152   1.138   9.064  1.1537 -0.2819 -1.7001
 7310SOL     OW33388   0.491   2.518  13.394 -0.0474 -0.2211  0.0637
 7310SOL    HW133389   0.440   2.439  13.409 -2.2034  1.2281  0.3675
 7310SOL    HW233390   0.516   2.535  13.485 -3.1915  2.4949  0.4556
 7311SOL     OW33391   3.658   4.268   8.532  0.5020 -0.2350  0.7677
 7311SOL    HW133392   3.750   4.252   8.510 -0.5075 -1.3061 -2.7051
 7311SOL    HW233393   3.678   4.318   8.611  2.1936 -0.5420  0.5224
 7312SOL     OW33394   4.372   2.722   6.457  0.3634 -0.5930 -0.3997
 7312SOL    HW133395   4.443   2.721   6.520  1.2533 -3.4391 -1.4794
 7312SOL    HW233396   4.378   2.635   6.419 -1.5573 -0.9953  0.2387
 7313SOL     OW33397   4.383   3.411  12.256  0.0524  0.1769 -0.8007
 7313SOL    HW133398   4.293   3.424  12.287 -0.2809 -2.0783 -0.8553
 7313SOL    HW233399   4.415   3.496  12.223 -2.4098  2.1016  1.7707
 7314SOL     OW33400   2.510   1.042   5.525  0.0097 -0.1511 -0.4098
 7314SOL    HW133401   2.525   1.133   5.551 -0.1168  0.2631 -1.7625
 7314SOL    HW233402   2.466   1.062   5.442 -0.9540  1.1593  0.4071
 7315SOL     OW33403   1.746   2.833  16.346  0.1986  0.0628  0.0458
 7315SOL    HW133404   1.651   2.844  16.347  0.4354  2.1092  1.5823
 7315SOL    HW233405   1.761   2.856  16.255 -0.3855  0.4727  0.0499
 7316SOL     OW33406   4.356   1.715   3.253 -0.1449 -0.1922 -0.1135
 7316SOL    HW133407   4.413   1.678   3.185 -0.1831  1.3241 -0.9736
 7316SOL    HW233408   4.413   1.790   3.269 -0.2142 -0.3124  0.6991
 7317SOL     OW33409   0.361   2.663   7.302  0.3510  0.4006  0.0899
 7317SOL    HW133410   0.428   2.604   7.267  1.5845 -0.5441  4.0894
 7317SOL    HW233411   0.402   2.707   7.376 -0.4503  0.2813  0.5977
 7318SOL     OW33412   2.212   0.122   2.778  0.2331  0.1056  1.0562
 7318SOL    HW133413   2.122   0.098   2.755  0.3026  1.3555 -0.5729
 7318SOL    HW233414   2.223   0.202   2.726 -1.4230 -0.5188 -0.2354
 7319SOL     OW33415   3.242   4.521   2.624 -0.1074 -0.1522  0.2279
 7319SOL    HW133416   3.248   4.603   2.574  1.9543  0.6690  1.8427
 7319SOL    HW233417   3.312   4.471   2.583 -0.1709 -0.7346  0.8362
 7320SOL     OW33418   2.857   3.452   8.404  0.1154 -0.2680 -0.1676
 7320SOL    HW133419   2.931   3.406   8.444  0.7655  2.0365  1.3297
 7320SOL    HW233420   2.809   3.377   8.370  1.5712 -0.6602 -1.3685
 7321SOL     OW33421   3.056   3.930   9.643 -0.1040 -0.2379  0.1298
 7321SOL    HW133422   3.070   3.851   9.695  1.1859  0.0764  0.2765
 7321SOL    HW233423   2.981   3.911   9.587  1.1195  2.3534 -2.4073
 7322SOL     OW33424   3.044   2.888   3.023  0.1749  0.2347 -0.0293
 7322SOL    HW133425   3.054   2.905   3.116 -1.3685  1.7351 -0.1525
 7322SOL    HW233426   3.136   2.883   2.996  0.0152  0.4566 -0.6115
 7323SOL     OW33427   0.961   0.020   7.938  0.2617  0.4452 -0.1563
 7323SOL    HW133428   1.048   0.059   7.925 -0.6831  3.1343  1.5274
 7323SOL    HW233429   0.967   0.009   8.032 -0.0805  1.2726 -0.0298
 7324SOL     OW33430   1.896   0.401   9.363 -0.3137  0.3376 -0.0158
 7324SOL    HW133431   1.910   0.309   9.385 -2.0506  0.3740  1.2650
 7324SOL    HW233432   1.961   0.435   9.424  1.3994 -0.4136 -1.4214
 7325SOL     OW33433   3.947   4.250   0.703  0.3187 -0.3267  0.0266
 7325SOL    HW133434   3.884   4.273   0.772  0.4796  0.8731 -0.2237
 7325SOL    HW233435   4.022   4.251   0.763 -0.0513  0.3192  0.4825
 7326SOL     OW33436   3.357   1.238   5.750 -0.7421  0.5368 -0.2213
 7326SOL    HW133437   3.317   1.320   5.781  0.5364  0.9641  0.2912
 7326SOL    HW233438   3.438   1.227   5.800 -0.7583 -1.9311 -0.7355
 7327SOL     OW33439   0.921   4.432   7.155 -0.6031  0.2721  0.2547
 7327SOL    HW133440   0.909   4.500   7.089  0.2801 -0.2447 -0.4370
 7327SOL    HW233441   0.849   4.446   7.216 -0.0300  0.9117  0.7951
 7328SOL     OW33442   3.169   4.204  15.595 -0.6102  0.0182  0.2537
 7328SOL    HW133443   3.198   4.125  15.640 -1.4937 -1.1698 -1.2760
 7328SOL    HW233444   3.248   4.229  15.546  0.3667  0.7597  2.1998
 7329SOL     OW33445   0.311   2.051  17.544  0.3311 -1.0228  0.1197
 7329SOL    HW133446   0.400   2.016  17.542  1.0246  0.6506  1.5136
 7329SOL    HW233447   0.329   2.140  17.512  1.6853 -0.6159  2.0091
 7330SOL     OW33448   1.292   3.220   3.806 -0.3791 -0.6935 -0.0154
 7330SOL    HW133449   1.306   3.128   3.785  3.5978  0.1534 -1.0388
 7330SOL    HW233450   1.281   3.219   3.901  0.4345 -0.4836  0.0792
 7331SOL     OW33451   0.590   3.568   6.242  0.2795  0.0905  0.4418
 7331SOL    HW133452   0.534   3.490   6.237  0.1386  0.3628 -1.9281
 7331SOL    HW233453   0.605   3.594   6.152  1.1506  0.2441  0.6308
 7332SOL     OW33454   0.554   1.919  11.913 -0.1435  0.2197 -0.0642
 7332SOL    HW133455   0.467   1.914  11.872  0.6910  0.2287 -1.8645
 7332SOL    HW233456   0.550   2.003  11.959  1.3096  0.8208 -1.0297
 7333SOL     OW33457   1.310   1.029   3.015 -0.2733 -0.9349  0.2179
 7333SOL    HW133458   1.340   0.992   2.931 -1.3950  2.2949 -1.5834
 7333SOL    HW233459   1.251   1.099   2.987  0.7565 -0.7408 -1.4822
 7334SOL     OW33460   2.935   3.948   7.655  0.1059 -0.0563 -0.2534
 7334SOL    HW133461   2.965   3.950   7.746 -0.6057  0.7653 -0.0370
 7334SOL    HW233462   2.849   3.907   7.657 -0.0603  0.2799 -0.4231
 7335SOL     OW33463   3.226   4.591   6.583  0.1411  0.0484 -0.0555
 7335SOL    HW133464   3.156   4.537   6.547  1.0696 -0.9540 -0.3775
 7335SOL    HW233465   3.265   4.634   6.506  1.5282 -0.7921  0.1649
 7336SOL     OW33466   0.735   4.169   2.585  0.1682 -0.3524  0.1549
 7336SOL    HW133467   0.819   4.138   2.617  0.3394 -0.4896 -0.4347
 7336SOL    HW233468   0.712   4.109   2.514  1.2852 -1.1907  0.5133
 7337SOL     OW33469   2.143   3.380   1.847 -1.0096  0.1938  0.4223
 7337SOL    HW133470   2.142   3.437   1.924  0.3406  2.1977 -1.0356
 7337SOL    HW233471   2.238   3.376   1.834 -0.7967  0.6174  1.8295
 7338SOL     OW33472   1.702   0.026   3.707  0.3462  0.3573 -0.6521
 7338SOL    HW133473   1.698   0.121   3.707 -0.0883  0.3328  0.0728
 7338SOL    HW233474   1.791   0.009   3.737  0.1963 -2.1752 -1.6209
 7339SOL     OW33475   1.933   2.616   8.658  0.2685  1.0702 -0.1471
 7339SOL    HW133476   1.926   2.546   8.594 -0.4161  1.5748 -0.6172
 7339SOL    HW233477   1.963   2.691   8.606 -0.4885  1.6954  0.3114
 7340SOL     OW33478   2.220   2.294  14.001  0.1372 -0.1792 -0.3574
 7340SOL    HW133479   2.261   2.211  14.024  0.2413 -0.5201 -1.8052
 7340SOL    HW233480   2.248   2.300  13.910 -1.3599 -0.4481 -0.8324
 7341SOL     OW33481   4.417   1.044  16.752  0.3317 -0.0872  0.1739
 7341SOL    HW133482   4.339   0.998  16.720  0.7563 -0.8249  0.2128
 7341SOL    HW233483   4.402   1.126  16.704 -3.5052 -1.3692 -0.8553
 7342SOL     OW33484   3.044   0.786  15.097 -0.5497  0.3648 -0.0444
 7342SOL    HW133485   2.983   0.713  15.083 -2.5235  1.4630  2.8983
 7342SOL    HW233486   3.043   0.839  15.017 -0.5856 -0.3887 -0.5472
 7343SOL     OW33487   3.759   1.699   9.221 -0.1550 -0.3269  0.2512
 7343SOL    HW133488   3.789   1.679   9.132 -0.5520  0.6886 -0.1129
 7343SOL    HW233489   3.671   1.732   9.204 -0.0760 -0.3522 -0.2258
 7344SOL     OW33490   1.718   3.639  12.613 -0.4765 -0.3058  0.6541
 7344SOL    HW133491   1.633   3.634  12.570  0.2764  2.2136 -1.1055
 7344SOL    HW233492   1.702   3.655  12.706  3.6206  0.2647  1.2587
 7345SOL     OW33493   1.487   3.171   2.790 -0.4980  0.0763  0.2058
 7345SOL    HW133494   1.394   3.171   2.765 -0.0646 -1.0498 -1.3797
 7345SOL    HW233495   1.492   3.266   2.780  0.9510  0.0213  0.4428
 7346SOL     OW33496   0.099   2.536  12.143  0.0292  0.4798  0.4702
 7346SOL    HW133497   0.116   2.451  12.102  0.6496  1.0970 -0.5475
 7346SOL    HW233498   0.036   2.557  12.074  1.3054 -0.3571 -0.9491
 7347SOL     OW33499   4.444   1.831   6.783  0.2547  0.8180 -0.1661
 7347SOL    HW133500   4.397   1.785   6.853  0.7094 -1.2696 -1.2553
 7347SOL    HW233501   4.496   1.758   6.750  0.5620  0.7312  0.4952
 7348SOL     OW33502   1.319   4.566   4.337  0.4827  0.4532 -0.3379
 7348SOL    HW133503   1.373   4.640   4.362  1.0904 -0.4624  1.0257
 7348SOL    HW233504   1.384   4.510   4.295 -0.4745 -1.9521  1.3749
 7349SOL     OW33505   3.698   2.847   1.514  0.7425 -0.0101  0.2494
 7349SOL    HW133506   3.725   2.784   1.580  1.0581 -0.4169 -0.2745
 7349SOL    HW233507   3.711   2.803   1.430  0.9138 -0.7119  0.6519
 7350SOL     OW33508   2.318   3.916   3.291  0.4644 -0.1751  0.0381
 7350SOL    HW133509   2.377   3.895   3.218  1.7571 -0.8434  1.2694
 7350SOL    HW233510   2.255   3.976   3.250 -0.3275  0.7617  2.6293
 7351SOL     OW33511   0.461   2.410   5.216  0.6717  0.2755 -0.4153
 7351SOL    HW133512   0.394   2.478   5.204 -0.4951 -1.0735 -1.6133
 7351SOL    HW233513   0.462   2.407   5.312  1.4613 -0.7698 -0.4635
 7352SOL     OW33514   1.615   4.102   6.597  0.1592 -0.5604  0.4928
 7352SOL    HW133515   1.551   4.084   6.528 -1.8642 -1.2069  2.5350
 7352SOL    HW233516   1.595   4.195   6.607  0.8715 -0.3891  0.2486
 7353SOL     OW33517   0.921   3.604   8.847  0.4823  0.3410  0.4146
 7353SOL    HW133518   0.958   3.690   8.824 -1.3542  0.8209 -0.7139
 7353SOL    HW233519   0.963   3.588   8.932 -1.1141 -1.1850  0.9000
 7354SOL     OW33520   3.442   1.220   6.325  0.2380  0.1399 -0.5322
 7354SOL    HW133521   3.369   1.282   6.317 -1.1936 -1.4592  0.0099
 7354SOL    HW233522   3.446   1.188   6.235  1.4016 -3.8947  0.9372
 7355SOL     OW33523   0.569   0.026  11.592  0.8525 -0.1737  0.8099
 7355SOL    HW133524   0.523   0.109  11.600  1.9278  0.5221 -0.2566
 7355SOL    HW233525   0.536   4.698  11.664  1.4008 -1.3381  0.1930
 7356SOL     OW33526   4.211   1.571   0.344  0.2962 -0.0229 -0.6768
 7356SOL    HW133527   4.153   1.621   0.402  0.5157  0.3737 -0.7941
 7356SOL    HW233528   4.209   1.480   0.373 -2.2969  1.1841  3.0341
 7357SOL     OW33529   2.601   3.689   0.884 -0.1966 -0.0172  0.1893
 7357SOL    HW133530   2.510   3.666   0.904  0.1322  0.5068  2.2783
 7357SOL    HW233531   2.619   3.763   0.942  2.5494 -1.2251  0.8501
 7358SOL     OW33532   2.431   3.433   3.853  0.0856  0.5403 -0.0840
 7358SOL    HW133533   2.466   3.496   3.790 -0.0165  1.4063  0.7217
 7358SOL    HW233534   2.483   3.454   3.930 -0.6647  1.0354  0.2930
 7359SOL     OW33535   1.028   2.992   9.403 -0.2876 -0.2954 -0.4060
 7359SOL    HW133536   1.083   2.946   9.466  1.1017  0.2963 -1.1755
 7359SOL    HW233537   0.944   3.001   9.448 -0.1435  0.0457 -0.2025
 7360SOL     OW33538   2.842   1.132   3.033  0.2012 -0.1834 -0.1816
 7360SOL    HW133539   2.766   1.165   2.986 -1.3119 -1.5969  1.2714
 7360SOL    HW233540   2.889   1.114   2.952 -0.1443  1.1198 -0.6816
 7361SOL     OW33541   1.394   4.592  14.184  0.6231 -0.2077 -0.0990
 7361SOL    HW133542   1.419   4.613  14.094  1.2280  0.4528  0.2237
 7361SOL    HW233543   1.459   4.636  14.239 -0.2323  0.4129  0.4157
 7362SOL     OW33544   4.056   3.283   4.184 -0.1878  0.5024  0.0096
 7362SOL    HW133545   3.995   3.313   4.116 -0.0042  1.0133  0.0699
 7362SOL    HW233546   3.990   3.263   4.251  1.0971  0.8046  1.3491
 7363SOL     OW33547   3.450   2.755   8.543 -0.5523 -0.1972 -0.0229
 7363SOL    HW133548   3.522   2.695   8.559  0.5358  1.0522 -0.2553
 7363SOL    HW233549   3.409   2.760   8.630 -3.2933 -1.4495 -1.2287
 7364SOL     OW33550   1.102   1.413   2.998 -0.0212 -0.0961  0.2588
 7364SOL    HW133551   1.184   1.460   2.983 -0.0715  0.3716  1.4196
 7364SOL    HW233552   1.125   1.330   2.957 -1.1369  0.1165 -0.8029
 7365SOL     OW33553   3.647   4.512   9.308 -0.2500  0.1940  0.1169
 7365SOL    HW133554   3.716   4.515   9.375 -0.0818 -1.2727  0.0152
 7365SOL    HW233555   3.563   4.523   9.352 -1.1807 -2.0746 -1.0595
 7366SOL     OW33556   3.827   4.062   7.623  0.6329 -0.2613 -0.0624
 7366SOL    HW133557   3.866   4.034   7.706 -0.8725 -1.4129  0.2657
 7366SOL    HW233558   3.901   4.068   7.563  2.0551 -0.5642  1.6620
 7367SOL     OW33559   1.656   2.341   6.367 -0.2062  0.7873 -0.2269
 7367SOL    HW133560   1.679   2.257   6.328 -0.5085  1.3698 -1.6309
 7367SOL    HW233561   1.560   2.340   6.364 -0.1965 -1.1734 -0.2309
 7368SOL     OW33562   0.357   4.519   3.866  0.5480  0.1120  0.2497
 7368SOL    HW133563   0.444   4.498   3.833  1.1248  1.6710  0.7701
 7368SOL    HW233564   0.370   4.483   3.954  0.4939  0.7300  0.5147
 7369SOL     OW33565   0.090   3.979   3.144 -0.0847 -0.6846  0.1240
 7369SOL    HW133566   0.139   4.060   3.161 -0.6541 -0.2642 -0.1999
 7369SOL    HW233567   0.045   3.974   3.229 -0.3416 -4.3484 -0.2643
 7370SOL     OW33568   2.518   3.768   7.498 -0.0877  0.3505  0.1693
 7370SOL    HW133569   2.431   3.807   7.511 -0.2912  0.9181 -3.0329
 7370SOL    HW233570   2.559   3.796   7.580 -1.9762  0.7672  0.9808
 7371SOL     OW33571   0.374   4.115  17.398 -0.5912  0.2439 -0.8070
 7371SOL    HW133572   0.380   4.201  17.440  0.1890 -1.9412  3.5421
 7371SOL    HW233573   0.432   4.133  17.324  0.5094  0.5301  0.1059
 7372SOL     OW33574   4.052   2.181   4.996  1.2796  0.1273 -0.3675
 7372SOL    HW133575   4.024   2.093   5.021  0.5552  0.7146  0.8416
 7372SOL    HW233576   4.148   2.185   4.999  1.1530  1.8892  1.0118
 7373SOL     OW33577   1.644   1.586   5.112  0.4961  0.5626  0.3475
 7373SOL    HW133578   1.564   1.574   5.164  1.8770 -1.4831  1.9884
 7373SOL    HW233579   1.641   1.502   5.066 -0.4402 -0.3842  2.1130
 7374SOL     OW33580   1.943   3.977   5.308  0.2957  0.5222 -0.2145
 7374SOL    HW133581   1.930   3.961   5.401  0.3579  1.1073 -0.1084
 7374SOL    HW233582   1.928   4.071   5.304  2.5054  0.8818 -0.3029
 7375SOL     OW33583   2.327   2.935   4.472  0.4650 -0.5961 -0.2404
 7375SOL    HW133584   2.412   2.894   4.488  0.6632 -0.2055 -0.2827
 7375SOL    HW233585   2.322   2.914   4.378  1.8646 -0.7381 -0.2886
 7376SOL     OW33586   0.586   4.509  14.859 -0.4120 -0.0395  0.0064
 7376SOL    HW133587   0.562   4.583  14.913 -1.5402 -0.4623  0.0808
 7376SOL    HW233588   0.503   4.506  14.812  1.2520  0.1789 -2.9164
 7377SOL     OW33589   1.219   3.131   2.724 -0.0361  0.0136 -0.3600
 7377SOL    HW133590   1.189   3.043   2.747 -1.8274  0.8327  0.4368
 7377SOL    HW233591   1.185   3.131   2.635  0.1998 -0.5251 -0.4456
 7378SOL     OW33592   4.036   1.260   3.594 -0.1447 -0.2834 -0.2234
 7378SOL    HW133593   4.073   1.308   3.519 -0.3465 -0.8835 -0.7043
 7378SOL    HW233594   3.961   1.216   3.555  0.8286 -2.6678  0.6450
 7379SOL     OW33595   3.756   1.655   3.516 -0.1998 -0.5214 -0.7460
 7379SOL    HW133596   3.722   1.566   3.526 -3.4104  0.7072 -0.7081
 7379SOL    HW233597   3.828   1.633   3.457  1.2001 -0.4812  0.9677
 7380SOL     OW33598   3.527   1.709  12.647 -0.2901  0.0421 -0.7854
 7380SOL    HW133599   3.586   1.654  12.595  0.5848 -1.3297  1.6563
 7380SOL    HW233600   3.517   1.653  12.724  1.1491  1.8793  0.7063
 7381SOL     OW33601   2.073   1.704   3.914  0.0701  0.2055 -0.0889
 7381SOL    HW133602   2.115   1.621   3.891 -2.6066 -1.4157  0.7596
 7381SOL    HW233603   2.146   1.755   3.948  0.7051 -0.8238  0.1092
 7382SOL     OW33604   3.972   1.302   4.649  0.2168  0.4745 -0.6169
 7382SOL    HW133605   4.023   1.380   4.670  0.4983  0.0112  0.4268
 7382SOL    HW233606   3.892   1.332   4.691  0.4847  1.3880 -0.7671
 7383SOL     OW33607   3.423   0.532   5.120  0.3701 -0.2971  0.3884
 7383SOL    HW133608   3.379   0.454   5.085 -1.2103  0.3536  0.9434
 7383SOL    HW233609   3.386   0.528   5.208  0.4301  2.6989  0.5343
 7384SOL     OW33610   3.191   1.635   5.718  0.2415 -0.4728  0.3554
 7384SOL    HW133611   3.123   1.666   5.777 -1.3841 -0.2012 -1.6459
 7384SOL    HW233612   3.142   1.572   5.665  0.2468 -0.0133 -0.1992
 7385SOL     OW33613   2.687   4.428   8.926 -0.2603 -0.2554  0.0159
 7385SOL    HW133614   2.703   4.406   9.017 -0.9767 -0.5264  0.0778
 7385SOL    HW233615   2.706   4.521   8.917  1.5203 -0.7210 -1.0198
 7386SOL     OW33616   4.705   1.941   6.810 -0.2170  0.5194  0.6850
 7386SOL    HW133617   4.706   2.037   6.817 -1.2709  0.6424 -0.8800
 7386SOL    HW233618   4.613   1.921   6.828 -0.2976  0.3519  0.0883
 7387SOL     OW33619   3.750   2.595   4.140  0.3808  0.1631  0.1889
 7387SOL    HW133620   3.681   2.565   4.081  0.9561 -0.7278 -0.0453
 7387SOL    HW233621   3.700   2.594   4.222 -2.1927  1.2150 -1.3969
 7388SOL     OW33622   1.840   3.392   8.336 -0.4742 -0.3950  0.1441
 7388SOL    HW133623   1.934   3.407   8.342 -0.6468 -0.5399  3.3456
 7388SOL    HW233624   1.813   3.319   8.392 -1.5112  0.5366  0.8647
 7389SOL     OW33625   1.195   2.877   0.995  0.2172  0.0517 -0.6434
 7389SOL    HW133626   1.259   2.815   0.961 -0.4994 -1.6305  1.0293
 7389SOL    HW233627   1.222   2.949   0.939 -0.1858 -0.2465 -1.2173
 7390SOL     OW33628   3.252   0.772  15.273 -0.0920 -0.3071 -0.2595
 7390SOL    HW133629   3.313   0.842  15.295 -2.2525  1.0815  1.2396
 7390SOL    HW233630   3.207   0.801  15.193  0.5069  0.8641 -0.1676
 7391SOL     OW33631   0.796   3.786  14.870  0.7192  0.4325  0.2429
 7391SOL    HW133632   0.802   3.842  14.793 -0.1318 -0.0208 -0.1456
 7391SOL    HW233633   0.830   3.704  14.833  1.5004  1.4538 -1.3035
 7392SOL     OW33634   2.851   1.519   4.783  0.2781 -0.0678  0.6977
 7392SOL    HW133635   2.791   1.587   4.813 -0.7734 -0.7570  0.1709
 7392SOL    HW233636   2.914   1.514   4.854  0.0142 -0.6557  0.8931
 7393SOL     OW33637   2.204   2.326  16.882 -0.0453 -0.5077 -0.3003
 7393SOL    HW133638   2.248   2.252  16.925 -0.7234 -0.2994  0.7415
 7393SOL    HW233639   2.139   2.287  16.824 -0.1678 -0.2493 -0.3339
 7394SOL     OW33640   0.853   4.417  11.721  0.1565  0.1430  0.4012
 7394SOL    HW133641   0.926   4.372  11.764 -0.5477  2.5350  4.1256
 7394SOL    HW233642   0.891   4.503  11.700  0.0309 -0.0627 -0.6283
 7395SOL     OW33643   0.540   2.804  13.326 -0.5269 -0.8988 -0.4322
 7395SOL    HW133644   0.546   2.726  13.381 -2.9965 -1.1825 -0.5620
 7395SOL    HW233645   0.605   2.859  13.369 -0.6980 -1.6723  0.8135
 7396SOL     OW33646   2.748   2.135   7.861 -0.0780  0.2078  0.4092
 7396SOL    HW133647   2.840   2.143   7.885  0.6014 -3.4786 -0.8122
 7396SOL    HW233648   2.756   2.098   7.772  0.2557 -1.5023  1.1406
 7397SOL     OW33649   3.971   0.434   1.004 -0.0294 -0.1317 -0.1013
 7397SOL    HW133650   3.895   0.481   0.970 -1.4205 -0.8754  1.9352
 7397SOL    HW233651   4.044   0.496   1.006 -1.7682  1.8931 -0.5573
 7398SOL     OW33652   4.325   2.927   6.277 -0.4330 -0.3203  0.1520
 7398SOL    HW133653   4.312   2.854   6.337 -2.8268  0.4422  0.5727
 7398SOL    HW233654   4.380   2.989   6.325 -2.1674  1.3483  0.0156
 7399SOL     OW33655   1.497   1.837   5.912 -0.4388 -0.3656 -0.4059
 7399SOL    HW133656   1.571   1.814   5.968 -2.0165  2.6942  2.9233
 7399SOL    HW233657   1.447   1.756   5.912  3.5800 -2.8596 -2.1193
 7400SOL     OW33658   0.228   4.062   4.714 -0.4454  0.0749 -0.1594
 7400SOL    HW133659   0.306   4.055   4.769 -1.6607  0.2518  1.5816
 7400SOL    HW233660   0.225   3.979   4.667 -0.8607  0.6421 -1.1433
 7401SOL     OW33661   1.943   3.368   4.453 -0.2471  0.3240 -0.7544
 7401SOL    HW133662   1.997   3.353   4.531  0.5514  2.8645 -0.8331
 7401SOL    HW233663   1.971   3.288   4.408 -0.0167  0.1955 -0.3869
 7402SOL     OW33664   2.823   2.649   9.444 -0.3426  0.0834 -0.1790
 7402SOL    HW133665   2.891   2.717   9.443  0.0225 -0.2763 -0.0365
 7402SOL    HW233666   2.806   2.632   9.351 -0.3433 -2.1038  0.2098
 7403SOL     OW33667   0.337   3.467   9.362 -0.0386 -0.9363  0.0975
 7403SOL    HW133668   0.352   3.395   9.422 -1.7159  0.1261  1.7888
 7403SOL    HW233669   0.422   3.509   9.354 -0.7872  0.5954  0.0964
 7404SOL     OW33670   3.144   3.263   7.805  0.0686 -0.1025 -0.1921
 7404SOL    HW133671   3.049   3.276   7.805  0.0836  0.0290 -2.2334
 7404SOL    HW233672   3.158   3.328   7.736  1.3804  1.0415  1.1656
 7405SOL     OW33673   1.729   1.825   2.130  0.2734 -0.8125  0.1546
 7405SOL    HW133674   1.684   1.890   2.077 -0.2892 -1.6682 -0.4104
 7405SOL    HW233675   1.775   1.879   2.195  1.2143 -1.2765 -0.1203
 7406SOL     OW33676   0.380   0.922   9.520  0.0500  0.6152 -0.0205
 7406SOL    HW133677   0.387   0.930   9.615 -0.1345  0.6750 -0.0114
 7406SOL    HW233678   0.308   0.860   9.510  1.0836 -0.8668  1.8632
 7407SOL     OW33679   2.957   3.291   7.385  0.1969  0.0940  0.6598
 7407SOL    HW133680   2.973   3.342   7.465 -2.9010  1.2594  0.5401
 7407SOL    HW233681   2.955   3.201   7.417  0.5195  0.6363  2.2129
 7408SOL     OW33682   4.111   2.116  12.331 -0.1842 -0.0756 -0.1968
 7408SOL    HW133683   4.103   2.077  12.418 -0.1335  0.0675 -0.1282
 7408SOL    HW233684   4.113   2.209  12.351 -0.0690  0.2577 -1.8368
 7409SOL     OW33685   0.971   0.927   2.439  0.6360  0.1882  0.6828
 7409SOL    HW133686   0.945   0.862   2.503  0.3417 -1.0794 -0.7225
 7409SOL    HW233687   0.888   0.951   2.398  0.8007 -1.1805 -0.4669
 7410SOL     OW33688   1.897   3.152   4.703  0.5580  0.0535  0.4115
 7410SOL    HW133689   1.932   3.085   4.645 -0.4906  0.6057 -0.8632
 7410SOL    HW233690   1.970   3.215   4.707 -0.8671  1.7664 -0.4892
 7411SOL     OW33691   0.125   2.410   7.890 -0.4632  0.1928  0.2770
 7411SOL    HW133692   0.110   2.504   7.897  1.7495  0.5936 -0.3656
 7411SOL    HW233693   0.155   2.413   7.799  1.5008 -1.6185  0.8730
 7412SOL     OW33694   4.324   1.822   4.433 -0.1403  0.4784 -0.0093
 7412SOL    HW133695   4.333   1.749   4.494 -1.9643  0.1444 -0.1424
 7412SOL    HW233696   4.381   1.892   4.464  0.1074  1.1704 -1.9896
 7413SOL     OW33697   2.221   2.327   1.383 -0.3503 -0.1783 -0.1934
 7413SOL    HW133698   2.300   2.305   1.333 -0.1836  3.6869 -1.5950
 7413SOL    HW233699   2.184   2.239   1.378  0.4462 -0.5144 -0.2979
 7414SOL     OW33700   1.081   0.980   3.655 -0.5072 -0.0688  0.1932
 7414SOL    HW133701   1.152   0.917   3.642 -0.1954  0.3046  0.1017
 7414SOL    HW233702   1.077   1.017   3.567 -0.5739 -3.1441 -1.1064
 7415SOL     OW33703   2.211   4.390  12.014  0.5931  0.1711  0.0433
 7415SOL    HW133704   2.293   4.360  11.975  1.3392  0.9190  1.0575
 7415SOL    HW233705   2.208   4.475  11.970  0.3141 -0.9410 -2.1072
 7416SOL     OW33706   0.228   4.212   3.158 -0.2253 -0.5275 -0.8945
 7416SOL    HW133707   0.219   4.234   3.065 -1.1559  2.7494 -0.0423
 7416SOL    HW233708   0.146   4.241   3.198  0.0534 -0.5717 -0.2960
 7417SOL     OW33709   3.925   1.624   7.964 -0.3347 -0.0848  0.3860
 7417SOL    HW133710   3.945   1.654   8.053 -2.4043 -0.3686  0.9489
 7417SOL    HW233711   3.865   1.696   7.946  0.6360  0.6086 -0.0703
 7418SOL     OW33712   3.506   1.377  10.760  0.3518  0.1925 -0.2649
 7418SOL    HW133713   3.426   1.386  10.811 -1.8436 -0.7011 -3.5860
 7418SOL    HW233714   3.480   1.410  10.674  0.3641 -1.2916 -0.8348
 7419SOL     OW33715   2.527   2.947   7.716 -0.0179  0.3602 -0.7174
 7419SOL    HW133716   2.496   2.954   7.806  0.8705  0.3907 -0.4214
 7419SOL    HW233717   2.615   2.984   7.716 -0.2618  0.9710 -3.2852
 7420SOL     OW33718   4.349   2.537   2.802 -0.0489 -0.0819 -0.8488
 7420SOL    HW133719   4.334   2.554   2.709 -1.9977  2.0658 -0.1539
 7420SOL    HW233720   4.258   2.535   2.830  0.3822 -0.8733  0.4587
 7421SOL     OW33721   4.632   1.027   5.629  0.1800  0.0974  0.3453
 7421SOL    HW133722   4.712   1.032   5.682  0.5125  0.0027 -0.1476
 7421SOL    HW233723   4.594   0.941   5.649  2.0662 -0.4601  1.6473
 7422SOL     OW33724   3.748   1.031  13.535  0.4648  0.1435 -0.1417
 7422SOL    HW133725   3.655   1.036  13.557  0.6828  0.4656  0.7346
 7422SOL    HW233726   3.793   1.051  13.617  3.7259  1.3721 -2.2287
 7423SOL     OW33727   0.472   1.755   1.282  0.2232 -0.3378 -0.2988
 7423SOL    HW133728   0.471   1.784   1.191  0.7146 -0.5220 -0.3662
 7423SOL    HW233729   0.407   1.804   1.333 -1.3178 -2.6395 -0.0976
 7424SOL     OW33730   1.556   2.269  10.856 -0.0567  0.3567  0.2865
 7424SOL    HW133731   1.572   2.305  10.943 -1.8805 -1.2156  1.2478
 7424SOL    HW233732   1.468   2.234  10.866 -0.2487  0.7725  0.0361
 7425SOL     OW33733   1.210   1.465   4.667 -0.2129  0.1157 -0.1334
 7425SOL    HW133734   1.182   1.433   4.582 -0.7746  0.1533  0.0358
 7425SOL    HW233735   1.135   1.420   4.706  0.3747 -0.5698  0.2202
 7426SOL     OW33736   3.586   2.452   5.683 -0.8132  0.4711 -0.3602
 7426SOL    HW133737   3.601   2.358   5.677 -1.2390  0.2310  2.3645
 7426SOL    HW233738   3.491   2.461   5.689 -0.6437  0.0947  2.8969
 7427SOL     OW33739   3.832   1.197   7.231 -0.3889 -0.1499 -0.0884
 7427SOL    HW133740   3.827   1.133   7.302  1.1499  2.6759  2.5653
 7427SOL    HW233741   3.773   1.268   7.256 -0.6061  1.2267 -4.6129
 7428SOL     OW33742   2.262   1.420   5.419  0.7631  0.2187 -0.1992
 7428SOL    HW133743   2.331   1.458   5.475  0.9232 -1.8442  1.0234
 7428SOL    HW233744   2.180   1.427   5.467  0.6335 -1.5281 -0.1721
 7429SOL     OW33745   1.175   0.357   3.515 -0.2109  0.0423 -0.1191
 7429SOL    HW133746   1.191   0.295   3.444  0.9080 -0.3643  0.4776
 7429SOL    HW233747   1.187   0.444   3.476  1.9504 -0.2388 -0.0684
 7430SOL     OW33748   4.351   0.598  10.024 -0.0717 -0.6292 -0.1442
 7430SOL    HW133749   4.373   0.557  10.107 -3.5824 -1.8905  0.1577
 7430SOL    HW233750   4.381   0.688  10.035 -1.0267 -0.3463  0.1873
 7431SOL     OW33751   2.932   2.682   0.069 -0.3449  0.1938  0.3684
 7431SOL    HW133752   2.905   2.738   0.142  0.1866  0.4931  0.3369
 7431SOL    HW233753   3.019   2.716   0.048  0.6022 -2.4938 -0.1232
 7432SOL     OW33754   2.841   3.549   2.126  0.4681  0.1187  0.1482
 7432SOL    HW133755   2.931   3.525   2.105  1.7748  3.3957  1.8424
 7432SOL    HW233756   2.814   3.613   2.060 -2.9908 -1.7068 -0.1939
 7433SOL     OW33757   0.289   2.119   5.458 -0.5547 -0.3654  0.3387
 7433SOL    HW133758   0.261   2.110   5.367 -0.2922 -0.3412  0.2562
 7433SOL    HW233759   0.266   2.028   5.477 -0.8147 -0.2592  0.5488
 7434SOL     OW33760   2.676   2.941   6.300  0.3151 -0.5049 -0.3320
 7434SOL    HW133761   2.765   2.907   6.300  1.5460  2.7840  1.0966
 7434SOL    HW233762   2.645   2.895   6.378  1.7075 -0.6445  0.1289
 7435SOL     OW33763   3.241   0.179   8.202 -0.6163  0.2336  0.7209
 7435SOL    HW133764   3.330   0.144   8.195 -1.9019 -1.8308 -5.0615
 7435SOL    HW233765   3.241   0.196   8.296  1.8650  0.3980  0.6902
 7436SOL     OW33766   2.760   3.085  14.377 -0.4946 -0.3139  0.2707
 7436SOL    HW133767   2.668   3.081  14.403  0.0641  1.8846  2.6095
 7436SOL    HW233768   2.806   3.036  14.446 -0.5222 -1.0128 -0.2083
 7437SOL     OW33769   0.758   0.450   7.365 -0.0790 -0.1832  0.4523
 7437SOL    HW133770   0.805   0.499   7.298  0.9711 -0.6528  0.8523
 7437SOL    HW233771   0.722   0.377   7.314  0.8176 -1.1656  1.2113
 7438SOL     OW33772   1.438   0.720   0.179  0.8949  0.4808  0.1954
 7438SOL    HW133773   1.473   0.708   0.267 -1.4773  2.0111  1.3605
 7438SOL    HW233774   1.410   0.631   0.159  2.1689  0.5374 -1.8904
 7439SOL     OW33775   0.046   1.585   6.814  1.1839 -0.2559  0.2061
 7439SOL    HW133776   4.693   1.608   6.765  1.5904  0.6047 -0.0382
 7439SOL    HW233777   0.005   1.541   6.889 -1.0712  2.1048  0.3588
 7440SOL     OW33778   0.916   3.388  14.289 -0.0633  0.2098  0.0970
 7440SOL    HW133779   0.914   3.340  14.371 -1.0986  2.8266  1.6194
 7440SOL    HW233780   1.009   3.397  14.273  0.3377 -1.4275  1.5617
 7441SOL     OW33781   4.322   3.340   9.586 -0.6692 -0.0082  0.5561
 7441SOL    HW133782   4.288   3.268   9.533  2.2163 -1.7254  1.0591
 7441SOL    HW233783   4.397   3.353   9.529 -0.3656 -1.4090  0.6372
 7442SOL     OW33784   3.239   1.794  15.453 -0.1083 -0.2354  0.7920
 7442SOL    HW133785   3.228   1.876  15.406 -0.1477 -1.0107 -0.5679
 7442SOL    HW233786   3.333   1.776  15.447  0.6751  3.4473  2.0117
 7443SOL     OW33787   4.261   3.628   7.520 -0.1963  0.4339 -0.4691
 7443SOL    HW133788   4.337   3.607   7.466 -0.4240 -0.5958 -0.3768
 7443SOL    HW233789   4.186   3.594   7.471  1.9674 -2.4824 -1.7356
 7444SOL     OW33790   3.144   2.188  11.803 -0.2113  0.2103  0.1502
 7444SOL    HW133791   3.118   2.260  11.861 -1.3569  0.8624 -1.1871
 7444SOL    HW233792   3.221   2.238  11.774 -0.7428  1.8815  1.5967
 7445SOL     OW33793   4.289   1.262   9.673 -0.5869  0.5370 -0.8788
 7445SOL    HW133794   4.274   1.271   9.767  2.4001  0.8272 -0.4333
 7445SOL    HW233795   4.271   1.169   9.661 -2.5264  0.5541  1.9110
 7446SOL     OW33796   1.721   2.672   5.982 -0.4764  0.4795  0.0576
 7446SOL    HW133797   1.750   2.709   5.899  0.6305  1.9325  1.0806
 7446SOL    HW233798   1.766   2.588   5.994 -0.0451  0.6635 -0.2899
 7447SOL     OW33799   3.491   2.315  13.282 -0.4518 -0.3461  0.1085
 7447SOL    HW133800   3.522   2.227  13.261  1.5577 -0.0249  1.7317
 7447SOL    HW233801   3.503   2.359  13.197  1.0756 -1.3755 -0.2230
 7448SOL     OW33802   1.346   3.950  13.013 -0.1132 -0.1177  0.2450
 7448SOL    HW133803   1.376   4.030  13.057 -3.4976  0.6054  1.2648
 7448SOL    HW233804   1.418   3.892  13.039 -0.3716 -0.1643  0.8601
 7449SOL     OW33805   0.917   3.653  13.718 -0.2145 -0.0643 -0.1060
 7449SOL    HW133806   0.852   3.716  13.747 -2.6368 -2.1121 -1.1415
 7449SOL    HW233807   0.942   3.619  13.804  1.2210  0.1898 -0.4235
 7450SOL     OW33808   2.656   1.066  12.562  0.0352  0.1680 -0.3154
 7450SOL    HW133809   2.724   1.099  12.622 -0.2351 -0.7222  0.4858
 7450SOL    HW233810   2.646   0.983  12.608 -2.7231  0.7820  0.1640
 7451SOL     OW33811   1.096   0.677   1.417  0.1452 -0.4048 -0.3910
 7451SOL    HW133812   1.165   0.695   1.482 -1.1482  0.2331  0.8023
 7451SOL    HW233813   1.108   0.584   1.399 -0.4357 -0.3722 -0.8994
 7452SOL     OW33814   4.648   0.048   2.543 -0.1953 -0.0966 -0.5907
 7452SOL    HW133815   4.633   0.143   2.543 -0.2784 -0.1137 -1.5168
 7452SOL    HW233816   4.666   0.053   2.637  1.5041  2.0414 -1.0143
 7453SOL     OW33817   4.305   0.174   6.627 -0.3361 -0.6378  0.0689
 7453SOL    HW133818   4.300   0.249   6.687  2.7598 -0.7630  0.5157
 7453SOL    HW233819   4.262   0.105   6.677 -0.6974 -0.7786 -0.4425
 7454SOL     OW33820   0.483   0.024   8.304 -0.1150 -0.4149  0.5038
 7454SOL    HW133821   0.444   4.715   8.384 -0.8084 -0.1634  0.2672
 7454SOL    HW233822   0.568   0.033   8.347  0.1002 -0.3992  0.0786
 7455SOL     OW33823   3.258   2.504   3.969  0.4892  0.4052 -0.4725
 7455SOL    HW133824   3.246   2.465   3.882 -3.0299 -2.0477  1.0955
 7455SOL    HW233825   3.169   2.487   4.002  0.9780 -2.4696 -0.5964
 7456SOL     OW33826   0.253   1.138   3.901  0.5331 -0.0314  0.4016
 7456SOL    HW133827   0.177   1.137   3.960 -0.9526 -1.6287 -1.5263
 7456SOL    HW233828   0.238   1.059   3.849  0.5841  1.2802 -1.6260
 7457SOL     OW33829   1.448   4.203   2.376  0.4002  0.1374  0.1494
 7457SOL    HW133830   1.434   4.225   2.284  1.9810 -1.2328 -0.4335
 7457SOL    HW233831   1.467   4.289   2.413 -0.5995  1.5260 -2.6001
 7458SOL     OW33832   1.765   2.295   6.676 -0.0661 -0.3208  0.3184
 7458SOL    HW133833   1.686   2.245   6.694 -1.3666  2.2673  1.7533
 7458SOL    HW233834   1.713   2.372   6.654 -1.2415 -1.1153  0.3155
 7459SOL     OW33835   4.636   3.033  12.225  0.2523 -0.0215  0.4167
 7459SOL    HW133836   4.548   3.053  12.257 -0.5910 -1.0547 -1.2390
 7459SOL    HW233837   4.687   3.052  12.303 -1.7195  3.1103  0.9596
 7460SOL     OW33838   2.001   1.031   7.936 -0.5757 -0.2422 -0.0512
 7460SOL    HW133839   1.988   1.079   8.018  0.2919  1.5847 -0.9754
 7460SOL    HW233840   1.963   0.944   7.947 -1.9630  0.4953  1.0776
 7461SOL     OW33841   3.429   3.493   4.000  0.4767 -0.7062  0.4168
 7461SOL    HW133842   3.436   3.477   3.906  1.4971  0.6450  0.2682
 7461SOL    HW233843   3.522   3.501   4.021  1.1018  0.6316 -2.8168
 7462SOL     OW33844   1.714   0.327   3.345  0.1469 -0.5355  0.4402
 7462SOL    HW133845   1.665   0.375   3.412  0.5613  0.1485  0.2645
 7462SOL    HW233846   1.637   0.298   3.297 -0.4474  0.7504  0.6041
 7463SOL     OW33847   3.163   0.395   6.661 -0.1567  0.5917  0.0009
 7463SOL    HW133848   3.174   0.316   6.714  1.3873 -0.5900 -2.0472
 7463SOL    HW233849   3.145   0.373   6.569  0.4983  0.1084 -0.0142
 7464SOL     OW33850   3.835   3.767   6.004 -0.0357  0.2014 -0.3922
 7464SOL    HW133851   3.769   3.775   5.935 -0.5677  0.6592  0.1764
 7464SOL    HW233852   3.908   3.822   5.974  1.4171 -0.4447  2.0022
 7465SOL     OW33853   0.317   4.665   7.548  0.5769  0.5171  0.1617
 7465SOL    HW133854   0.346   0.027   7.528 -0.9335  0.9495 -0.1771
 7465SOL    HW233855   0.284   4.666   7.637  0.4606 -1.1366  0.1337
 7466SOL     OW33856   3.195   4.311   6.373  0.0387 -0.5894 -0.3498
 7466SOL    HW133857   3.271   4.339   6.322  0.1654  1.1735  0.8199
 7466SOL    HW233858   3.244   4.293   6.453  0.3512 -0.8871 -0.6129
 7467SOL     OW33859   3.595   1.300   8.852  0.2499  0.1766  0.6501
 7467SOL    HW133860   3.553   1.238   8.913 -0.8935  0.7510  0.4449
 7467SOL    HW233861   3.581   1.251   8.771 -1.1299 -1.4078  1.8191
 7468SOL     OW33862   0.271   0.765   4.362 -0.0624 -0.4950 -0.0594
 7468SOL    HW133863   0.305   0.836   4.307 -4.0354  0.1784 -1.5835
 7468SOL    HW233864   0.282   0.679   4.321 -1.4109  0.4980 -2.4763
 7469SOL     OW33865   1.079   3.500   5.013 -0.1493 -0.5656  0.2099
 7469SOL    HW133866   1.141   3.571   5.028 -1.6052  0.8280 -0.3186
 7469SOL    HW233867   1.068   3.505   4.918 -3.0470 -1.2705  0.4927
 7470SOL     OW33868   2.890   0.964   2.029 -0.1333  0.0873  0.1405
 7470SOL    HW133869   2.842   0.904   2.085 -1.5700 -0.9030 -2.1591
 7470SOL    HW233870   2.901   0.923   1.943  1.4459  0.6008  0.0897
 7471SOL     OW33871   1.273   2.867   3.384  0.9639  0.2088  0.4855
 7471SOL    HW133872   1.259   2.854   3.290 -2.5114  1.6562  0.7758
 7471SOL    HW233873   1.292   2.781   3.420  0.8638 -0.1009 -0.2049
 7472SOL     OW33874   4.459   0.986   4.025  0.1900  0.4471 -0.1034
 7472SOL    HW133875   4.522   0.930   4.071 -0.7329 -1.7547 -1.5048
 7472SOL    HW233876   4.490   1.070   4.058 -0.3288  0.1142  1.2444
 7473SOL     OW33877   3.011   1.717   7.827  0.3880  0.3527 -0.1033
 7473SOL    HW133878   2.919   1.740   7.813  0.3036  0.1618  0.1381
 7473SOL    HW233879   3.050   1.786   7.773 -1.8947  0.4107 -1.6698
 7474SOL     OW33880   0.765   4.160   5.949 -0.4449  0.2940  0.7537
 7474SOL    HW133881   0.785   4.071   5.923 -1.7088  0.9208 -2.3457
 7474SOL    HW233882   0.698   4.168   6.017 -0.8623  0.6907  0.2956
 7475SOL     OW33883   1.762   3.767  15.630  0.1590 -0.9752  0.2336
 7475SOL    HW133884   1.742   3.695  15.690 -1.0161  0.0085  1.0540
 7475SOL    HW233885   1.832   3.729  15.578 -0.3928  0.3283 -1.4718
 7476SOL     OW33886   2.035   2.425   5.143  0.1491  0.5784 -0.2704
 7476SOL    HW133887   1.944   2.455   5.144 -0.5346 -1.5253  0.5821
 7476SOL    HW233888   2.039   2.410   5.048  1.6820 -1.2017  0.0884
 7477SOL     OW33889   3.039   2.589   3.229 -0.1425 -0.1149  0.3685
 7477SOL    HW133890   3.044   2.625   3.141  2.3330  0.3582  0.7006
 7477SOL    HW233891   2.999   2.505   3.207 -1.7363  0.7425  0.0345
 7478SOL     OW33892   1.663   2.526   7.019 -0.4983 -0.4535  0.1677
 7478SOL    HW133893   1.627   2.582   6.950 -2.7640  0.0531  1.7492
 7478SOL    HW233894   1.656   2.439   6.981  0.6143 -0.6406  0.3700
 7479SOL     OW33895   1.370   4.067   5.510 -0.1212 -0.0712  0.6821
 7479SOL    HW133896   1.442   4.017   5.548 -0.1888 -0.1981  0.6449
 7479SOL    HW233897   1.308   4.010   5.555  1.9912 -2.2830  0.7794
 7480SOL     OW33898   3.096   0.185   5.176 -0.0860 -0.6020 -0.3343
 7480SOL    HW133899   3.137   0.245   5.114  1.8650  0.0155  1.5641
 7480SOL    HW233900   3.001   0.190   5.165 -0.5097 -0.1683  3.6862
 7481SOL     OW33901   1.579   0.192  14.776 -0.4692  0.5406 -0.1537
 7481SOL    HW133902   1.595   0.098  14.788 -2.4455  0.3989  1.3308
 7481SOL    HW233903   1.652   0.238  14.817 -0.3680 -2.1951  2.7094
 7482SOL     OW33904   1.875   3.757   8.855  0.3791  0.1876 -0.0935
 7482SOL    HW133905   1.906   3.693   8.919 -0.2622  1.3727  1.3999
 7482SOL    HW233906   1.867   3.834   8.911 -0.7561  0.0488 -0.0689
 7483SOL     OW33907   2.980   2.745   7.656 -0.1711  0.3683 -0.2747
 7483SOL    HW133908   2.962   2.832   7.691 -0.6258 -1.3176  3.7392
 7483SOL    HW233909   2.895   2.702   7.644  0.1596 -0.7331  1.2826
 7484SOL     OW33910   1.936   3.293  15.933  0.2524 -0.0602  0.0987
 7484SOL    HW133911   1.953   3.376  15.978  0.2279  1.0119 -1.8267
 7484SOL    HW233912   1.892   3.328  15.855  0.5864 -1.6522 -0.8038
 7485SOL     OW33913   3.067   0.346  15.240  0.3180  0.1303 -0.0130
 7485SOL    HW133914   3.114   0.343  15.157  1.4885 -2.6897  0.7794
 7485SOL    HW233915   3.070   0.435  15.277 -3.3402 -0.6104  2.0193
 7486SOL     OW33916   2.445   1.533   8.329  0.3053  0.2524  0.1347
 7486SOL    HW133917   2.525   1.489   8.300 -0.0315 -0.8673  0.9031
 7486SOL    HW233918   2.466   1.569   8.416 -1.7288  0.4656  0.5528
 7487SOL     OW33919   3.791   0.349   8.909 -0.9080 -0.3271 -0.2099
 7487SOL    HW133920   3.858   0.416   8.922 -0.0769 -1.1109 -0.5384
 7487SOL    HW233921   3.838   0.274   8.873 -0.7799  0.2323 -1.2045
 7488SOL     OW33922   0.886   3.092   8.785 -0.0741 -0.0221 -0.3895
 7488SOL    HW133923   0.817   3.103   8.850 -0.3860  1.0402 -0.8990
 7488SOL    HW233924   0.969   3.124   8.820 -0.2616 -0.2670  0.2887
 7489SOL     OW33925   3.705   2.142   3.353 -0.2014  0.9291  0.1926
 7489SOL    HW133926   3.612   2.123   3.340  0.2614 -1.2909  0.0707
 7489SOL    HW233927   3.738   2.054   3.333 -0.8649  0.4393  1.2461
 7490SOL     OW33928   3.392   3.141  11.867  0.3503  0.0766  0.0679
 7490SOL    HW133929   3.390   3.046  11.860 -0.8145  0.0388  0.9189
 7490SOL    HW233930   3.466   3.164  11.811  1.8808 -1.8269  1.3057
 7491SOL     OW33931   3.640   0.483   6.311  0.4545  0.0646 -0.2949
 7491SOL    HW133932   3.566   0.544   6.310  0.6518  0.3203  0.5646
 7491SOL    HW233933   3.710   0.532   6.352  0.8396  0.8473 -1.8917
 7492SOL     OW33934   1.823   0.379   6.113 -0.2406 -0.1896 -0.7523
 7492SOL    HW133935   1.835   0.440   6.040  0.9280 -0.3708 -0.7092
 7492SOL    HW233936   1.915   0.369   6.135 -0.3397  1.2826  0.3695
 7493SOL     OW33937   2.251   0.434  12.294  0.3454 -0.4320 -0.5372
 7493SOL    HW133938   2.248   0.404  12.203 -1.1493  1.2788 -1.0524
 7493SOL    HW233939   2.343   0.455  12.306 -0.1123  0.6454  1.1258
 7494SOL     OW33940   3.911   1.522   1.823 -0.1581  0.7534  0.4464
 7494SOL    HW133941   3.903   1.512   1.728  0.4343  1.1773  0.3505
 7494SOL    HW233942   3.822   1.547   1.846  0.7134  1.6990  2.8184
 7495SOL     OW33943   2.462   2.221   2.962 -0.4310 -0.4169 -0.0973
 7495SOL    HW133944   2.553   2.249   2.973 -0.1619 -1.1596 -0.3906
 7495SOL    HW233945   2.429   2.286   2.900  1.4111  1.3725  0.8170
 7496SOL     OW33946   2.415   1.054   1.153 -0.6164  0.0630  0.4661
 7496SOL    HW133947   2.483   1.111   1.117 -0.6343 -0.7692 -0.8780
 7496SOL    HW233948   2.334   1.094   1.119 -0.5000  1.6074  1.9895
 7497SOL     OW33949   3.282   3.565   5.002  0.6026  0.2097 -0.4740
 7497SOL    HW133950   3.279   3.527   5.090 -0.1673  1.0382 -0.1411
 7497SOL    HW233951   3.361   3.524   4.968  0.4086 -1.5018  1.1256
 7498SOL     OW33952   1.648   0.313   9.334  0.1495 -0.3459  0.0561
 7498SOL    HW133953   1.636   0.292   9.427  1.1783  1.4937  0.6122
 7498SOL    HW233954   1.724   0.373   9.334  0.5852 -0.8977  1.2829
 7499SOL     OW33955   0.929   2.854   6.426 -0.2113 -0.4592 -0.3580
 7499SOL    HW133956   0.880   2.936   6.428 -0.3753 -0.4888 -3.2297
 7499SOL    HW233957   1.017   2.893   6.430 -0.6774  0.8717 -2.7080
 7500SOL     OW33958   0.732   4.446   4.625 -0.1012 -0.0521 -0.0600
 7500SOL    HW133959   0.807   4.390   4.606 -0.0251  0.2431 -0.6140
 7500SOL    HW233960   0.669   4.414   4.560  0.5544  0.6382 -1.0358
 7501SOL     OW33961   2.355   3.596   5.014  0.2658  0.0658  0.4135
 7501SOL    HW133962   2.333   3.683   4.980  0.6373 -0.3603 -0.9017
 7501SOL    HW233963   2.313   3.542   4.947  1.7604 -1.3020  0.5764
 7502SOL     OW33964   3.899   2.885   3.400  0.1928  0.2008  0.2299
 7502SOL    HW133965   3.987   2.885   3.362 -0.4570 -0.1299 -1.2663
 7502SOL    HW233966   3.892   2.798   3.438 -1.9771  0.8662  1.3804
 7503SOL     OW33967   4.241   3.769   6.864  0.3802 -0.0269  0.2179
 7503SOL    HW133968   4.184   3.720   6.804  0.5870  0.2511 -0.2061
 7503SOL    HW233969   4.322   3.725   6.838 -0.6921 -0.2174 -2.8492
 7504SOL     OW33970   3.826   1.904   3.356  0.2990 -0.1217  0.2691
 7504SOL    HW133971   3.796   1.813   3.360 -0.8118  0.1678 -1.7413
 7504SOL    HW233972   3.904   1.896   3.301  0.4442 -2.2483  0.7585
 7505SOL     OW33973   3.550   3.729   4.879 -0.0802  0.0231 -0.5274
 7505SOL    HW133974   3.638   3.694   4.865  0.7588  1.8270  0.2133
 7505SOL    HW233975   3.499   3.659   4.838  0.5892  0.9280 -2.8738
 7506SOL     OW33976   1.438   2.609  12.398 -0.2497 -0.4430  0.5287
 7506SOL    HW133977   1.451   2.704  12.393  2.1673 -0.8554 -1.2416
 7506SOL    HW233978   1.348   2.602  12.369 -0.0513 -1.8026  0.2366
 7507SOL     OW33979   1.996   4.723   6.604 -0.0487  0.0919  0.3770
 7507SOL    HW133980   2.055   0.057   6.650  1.5671  0.3277 -1.9568
 7507SOL    HW233981   2.053   4.676   6.543 -0.8197  1.1712 -1.2067
 7508SOL     OW33982   3.246   2.678   6.790 -0.0896  0.1747 -0.5092
 7508SOL    HW133983   3.283   2.761   6.820 -2.8922  1.7325 -1.3674
 7508SOL    HW233984   3.156   2.710   6.802  0.3973  0.7698  1.5065
 7509SOL     OW33985   3.402   4.365   4.122  0.1393 -0.0517  0.3773
 7509SOL    HW133986   3.449   4.322   4.051  0.0189  0.5949 -0.0937
 7509SOL    HW233987   3.473   4.371   4.185 -0.2829  1.3758  0.7247
 7510SOL     OW33988   4.559   0.321   2.497  0.1317 -0.2384 -0.2695
 7510SOL    HW133989   4.622   0.387   2.467  0.5441 -0.4993  0.0167
 7510SOL    HW233990   4.482   0.372   2.473 -0.3652 -0.4112  0.9312
 7511SOL     OW33991   0.138   1.548  10.814 -0.0028 -0.3427 -0.3893
 7511SOL    HW133992   0.085   1.624  10.838 -0.5777 -1.2050  1.0195
 7511SOL    HW233993   0.071   1.481  10.804 -0.8113  0.1038  1.9475
 7512SOL     OW33994   0.959   4.195  13.098 -0.0216 -0.3450 -0.0386
 7512SOL    HW133995   0.991   4.281  13.073 -0.0734 -0.2741  0.1390
 7512SOL    HW233996   1.001   4.191  13.184 -1.6857  1.0789  0.8287
 7513SOL     OW33997   1.879   0.312   6.770  0.0319  0.3714  0.2300
 7513SOL    HW133998   1.945   0.379   6.792  1.7309 -0.2595 -2.9070
 7513SOL    HW233999   1.848   0.341   6.684 -1.7065  0.6241  0.9410
 7514SOL     OW34000   1.633   0.819   0.018 -0.2224 -0.0374  0.6340
 7514SOL    HW134001   1.594   0.823  17.636 -0.3161 -1.2759  0.6307
 7514SOL    HW234002   1.566   0.780   0.075  0.3740 -0.3340  1.1318
 7515SOL     OW34003   3.151   4.520   5.966  0.1825 -0.3044 -0.4027
 7515SOL    HW134004   3.129   4.428   5.978 -1.3497  0.0823 -0.2683
 7515SOL    HW234005   3.070   4.557   5.931 -0.5224 -1.0324  0.4934
 7516SOL     OW34006   0.018   0.137  16.876  0.4549  0.4965 -0.0383
 7516SOL    HW134007   4.654   0.151  16.847  0.8507  0.6902 -1.1591
 7516SOL    HW234008   0.018   0.050  16.916 -1.7188 -0.3432 -1.8557
 7517SOL     OW34009   3.571   2.041   9.024 -0.7564 -0.6080 -0.2628
 7517SOL    HW134010   3.656   1.999   9.014 -0.3896  0.3375 -1.0852
 7517SOL    HW234011   3.534   2.041   8.936  0.1807 -0.7659 -0.6539
 7518SOL     OW34012   1.393   1.530   8.616 -0.2491  0.3184  0.0479
 7518SOL    HW134013   1.473   1.480   8.601 -0.0625 -0.2383  2.9600
 7518SOL    HW234014   1.337   1.497   8.546 -0.9036  2.7809 -0.5982
 7519SOL     OW34015   2.553   4.459   5.973  0.0100 -0.0139 -0.0315
 7519SOL    HW134016   2.490   4.418   5.914  0.3909 -0.9112  0.1887
 7519SOL    HW234017   2.630   4.413   5.941 -0.4694 -0.8303 -0.0112
 7520SOL     OW34018   1.360   1.276  13.376 -0.5768  0.8056 -0.0382
 7520SOL    HW134019   1.309   1.256  13.455 -2.2737 -0.9653 -1.5823
 7520SOL    HW234020   1.318   1.354  13.338 -0.9914  0.5402 -0.1141
 7521SOL     OW34021   2.649   0.345   3.812 -0.9298 -0.2691  0.0639
 7521SOL    HW134022   2.645   0.440   3.819 -1.5365 -0.2463 -0.6443
 7521SOL    HW234023   2.572   0.330   3.757  0.1853  2.2540 -2.1594
 7522SOL     OW34024   0.449   2.989   3.674 -0.2942  0.0906 -0.6088
 7522SOL    HW134025   0.483   3.000   3.586  1.3641  1.9767  0.2720
 7522SOL    HW234026   0.359   2.965   3.653  0.0084 -0.2357 -1.5277
 7523SOL     OW34027   0.800   2.603   3.489 -0.4200  0.4398 -0.2789
 7523SOL    HW134028   0.788   2.607   3.394  0.3065 -0.4621 -0.4105
 7523SOL    HW234029   0.877   2.547   3.489 -1.5069 -1.0691 -0.9713
 7524SOL     OW34030   3.311   4.131   7.556  0.1314 -0.4413  0.1065
 7524SOL    HW134031   3.249   4.059   7.547  0.7105 -1.0799  1.1621
 7524SOL    HW234032   3.293   4.161   7.645  0.5542 -0.1461  0.0919
 7525SOL     OW34033   1.834   0.947  11.017  0.1524  0.0151 -0.0792
 7525SOL    HW134034   1.914   0.992  11.044 -0.1051  1.0227 -1.0124
 7525SOL    HW234035   1.836   0.952  10.921  2.1448  0.4592 -0.0097
 7526SOL     OW34036   1.791   2.941  16.719  0.4212 -0.6480  0.1496
 7526SOL    HW134037   1.813   2.995  16.644  0.7391 -1.8670 -0.6286
 7526SOL    HW234038   1.699   2.961  16.740  1.0482  1.8158  0.4413
 7527SOL     OW34039   3.009   0.533   6.991 -0.1258 -0.2211 -0.4586
 7527SOL    HW134040   3.010   0.629   6.993  0.9303 -0.1680 -3.4392
 7527SOL    HW234041   2.946   0.513   6.921  0.0812 -1.3352 -0.3249
 7528SOL     OW34042   1.283   2.386   3.563  0.5572 -0.2164  0.4346
 7528SOL    HW134043   1.350   2.454   3.564 -0.1752  0.4941  1.9947
 7528SOL    HW234044   1.327   2.325   3.623 -0.0078  0.8889  1.9921
 7529SOL     OW34045   4.178   1.712   3.520 -0.4997  0.3822  1.2962
 7529SOL    HW134046   4.216   1.732   3.435  0.5633  0.4274  1.7850
 7529SOL    HW234047   4.224   1.777   3.573  0.1308 -0.6976  2.0929
 7530SOL     OW34048   0.993   1.951  14.033 -0.1372  0.2166 -0.3697
 7530SOL    HW134049   0.927   2.011  14.067 -0.2535 -1.5341  2.4629
 7530SOL    HW234050   1.039   2.006  13.970  1.8311 -0.4405  0.5133
 7531SOL     OW34051   0.228   1.495   4.071  0.0673 -0.3509 -0.4923
 7531SOL    HW134052   0.169   1.423   4.094  0.7871 -1.1928 -1.3041
 7531SOL    HW234053   0.190   1.539   3.995 -0.5017 -1.0754 -0.6318
 7532SOL     OW34054   3.013   1.145   5.928  0.1925  0.5612  0.1825
 7532SOL    HW134055   3.023   1.177   5.838  1.1012 -0.2208  0.0146
 7532SOL    HW234056   2.973   1.060   5.912  1.3117 -0.1060  1.0466
 7533SOL     OW34057   1.475   2.081  16.791  0.0867  0.1556 -0.2462
 7533SOL    HW134058   1.562   2.064  16.755  1.6639  0.4590  3.4350
 7533SOL    HW234059   1.492   2.129  16.872 -0.9835  2.0875 -1.1606
 7534SOL     OW34060   3.972   0.868   5.910  0.5342 -0.1715 -0.0676
 7534SOL    HW134061   3.972   0.951   5.958 -0.7257 -0.0396 -0.2907
 7534SOL    HW234062   3.880   0.842   5.912 -0.0321  1.5682 -3.6542
 7535SOL     OW34063   1.106   2.043   6.143 -0.0654  0.0922  0.0686
 7535SOL    HW134064   1.070   2.066   6.228 -2.1269 -2.5914 -0.0548
 7535SOL    HW234065   1.027   2.010   6.100 -0.2924  1.4700 -0.5652
 7536SOL     OW34066   0.036   3.646   3.097  0.5655  0.2366  0.1767
 7536SOL    HW134067   0.132   3.651   3.095  0.5501  0.3638 -0.4217
 7536SOL    HW234068   0.023   3.554   3.074 -1.0633  0.9979 -1.8682
 7537SOL     OW34069   1.358   0.204   6.739 -0.2934 -0.1292 -0.1704
 7537SOL    HW134070   1.383   0.292   6.711 -0.3965  0.4834  1.7051
 7537SOL    HW234071   1.350   0.170   6.649 -1.8271 -0.4835  0.0924
 7538SOL     OW34072   3.769   3.745  13.617  0.2913 -0.1861  0.2091
 7538SOL    HW134073   3.681   3.714  13.595 -0.5516  2.8873 -0.6288
 7538SOL    HW234074   3.816   3.725  13.537 -0.6968 -1.1852 -0.1243
 7539SOL     OW34075   3.524   3.620   1.113 -0.0168  0.5662 -0.0561
 7539SOL    HW134076   3.606   3.588   1.151 -2.3313 -1.7866  3.0293
 7539SOL    HW234077   3.523   3.713   1.135  1.2704 -0.2124  3.4201
 7540SOL     OW34078   2.723   0.478   2.235  0.5716  0.3569 -0.0476
 7540SOL    HW134079   2.682   0.455   2.319  1.2769 -1.8318 -0.3115
 7540SOL    HW234080   2.665   0.437   2.172 -0.1170  0.5652  0.4479
 7541SOL     OW34081   2.662   0.954   8.347  0.6873  0.0489  0.2895
 7541SOL    HW134082   2.625   0.989   8.428 -3.4500 -4.5419  0.3756
 7541SOL    HW234083   2.724   0.888   8.378  0.2363 -0.3549  0.3425
 7542SOL     OW34084   0.956   2.363  10.284 -0.0976  0.4457 -0.2449
 7542SOL    HW134085   0.899   2.297  10.244  0.0631  0.8116 -1.0765
 7542SOL    HW234086   0.902   2.440  10.302 -0.6930 -0.6291  2.5381
 7543SOL     OW34087   0.556   2.355  15.125  0.5703 -0.4457  0.6065
 7543SOL    HW134088   0.475   2.396  15.155  0.6782 -0.4668  0.9268
 7543SOL    HW234089   0.594   2.403  15.052 -1.3623  2.5829  1.5968
 7544SOL     OW34090   2.892   4.392   8.724  0.1186  0.0094  0.1793
 7544SOL    HW134091   2.849   4.455   8.666 -2.9796  0.0437  2.4897
 7544SOL    HW234092   2.818   4.372   8.781 -0.1021  0.9412  0.2164
 7545SOL     OW34093   3.050   1.617   9.146  0.1350  0.1932  0.4509
 7545SOL    HW134094   3.107   1.592   9.219 -1.3681 -0.4935  1.3906
 7545SOL    HW234095   2.991   1.684   9.183 -0.6185  1.2071 -2.6063
 7546SOL     OW34096   4.293   3.631   8.161  0.1128 -0.8976  0.3384
 7546SOL    HW134097   4.283   3.541   8.193  1.4275 -0.4920  1.9222
 7546SOL    HW234098   4.380   3.651   8.197  0.1660  0.3662 -0.4896
 7547SOL     OW34099   0.617   3.594  17.453 -0.6223 -0.3650 -0.3465
 7547SOL    HW134100   0.638   3.511  17.410  3.3747  0.2067  0.4975
 7547SOL    HW234101   0.543   3.626  17.401 -0.0197  1.5005 -0.0656
 7548SOL     OW34102   0.853   4.287   8.447  0.6948 -0.1661 -0.3249
 7548SOL    HW134103   0.863   4.218   8.382  1.4643  0.2791 -0.6791
 7548SOL    HW234104   0.807   4.228   8.507  2.8841  0.1290  1.6399
 7549SOL     OW34105   2.267   3.488   6.187 -0.5314 -0.5798 -0.0153
 7549SOL    HW134106   2.236   3.448   6.106 -2.2368  1.3034 -0.3200
 7549SOL    HW234107   2.350   3.445   6.204 -0.1340 -0.8030 -2.6463
 7550SOL     OW34108   3.681   1.443   1.219 -0.3257  0.5523 -0.3353
 7550SOL    HW134109   3.681   1.486   1.134  3.1080  3.6897  1.2401
 7550SOL    HW234110   3.637   1.517   1.262 -0.5427  0.9600 -1.2545
 7551SOL     OW34111   4.148   1.119  12.525 -0.4131  0.3721 -0.4278
 7551SOL    HW134112   4.206   1.093  12.597 -1.9592  0.9300  1.0144
 7551SOL    HW234113   4.066   1.146  12.565  0.7618  2.8796  0.2711
 7552SOL     OW34114   0.639   0.043   6.539 -0.0512 -0.1166  0.0131
 7552SOL    HW134115   0.622   0.027   6.632  0.9343 -0.8872  0.0600
 7552SOL    HW234116   0.699   4.695   6.528 -1.4400 -0.8758 -2.3610
 7553SOL     OW34117   2.065   1.063   1.775  0.1700  0.5200  0.1100
 7553SOL    HW134118   1.990   1.071   1.834 -1.1716  2.5203 -1.8253
 7553SOL    HW234119   2.066   0.969   1.757  0.0445  0.0264  2.7610
 7554SOL     OW34120   1.957   2.697   5.209 -0.2738  0.8057  0.7032
 7554SOL    HW134121   1.919   2.659   5.288 -0.7322 -2.3274 -1.0272
 7554SOL    HW234122   2.048   2.668   5.213 -0.6287 -0.4820 -0.4325
 7555SOL     OW34123   1.907   0.369   4.460 -0.5516  0.2481  0.3569
 7555SOL    HW134124   1.956   0.397   4.537  1.2628 -0.7243 -0.4480
 7555SOL    HW234125   1.817   0.395   4.479 -1.4588 -2.3407 -0.3317
 7556SOL     OW34126   4.575   1.617   5.763  0.3079 -0.1818 -0.4757
 7556SOL    HW134127   4.632   1.650   5.832  1.8890 -2.4556 -0.6682
 7556SOL    HW234128   4.553   1.530   5.799 -1.1348  0.6431  0.6622
 7557SOL     OW34129   1.106   4.512  14.393  0.2034 -0.4405 -0.5939
 7557SOL    HW134130   1.198   4.521  14.419 -0.3129  1.3658  0.5636
 7557SOL    HW234131   1.093   4.418  14.376 -1.6464 -0.1572 -0.7048
 7558SOL     OW34132   1.923   3.055   6.668 -0.2040 -0.0611  0.4441
 7558SOL    HW134133   1.943   3.068   6.575  0.2990  1.3185  0.7459
 7558SOL    HW234134   1.867   3.131   6.684 -1.6459 -0.3302 -3.2519
 7559SOL     OW34135   2.146   4.152   8.706 -0.1527  0.4083  0.6299
 7559SOL    HW134136   2.056   4.175   8.728 -0.0156  1.5468  0.0431
 7559SOL    HW234137   2.196   4.205   8.769 -1.5445  2.4256  0.0287
 7560SOL     OW34138   0.168   3.551   6.272 -0.2829 -0.3786 -1.0366
 7560SOL    HW134139   0.103   3.501   6.223 -0.5999 -0.0204 -0.9778
 7560SOL    HW234140   0.134   3.637   6.248 -0.9447 -0.5505 -0.6928
 7561SOL     OW34141   0.093   1.292   3.044 -0.0469  0.5364 -0.2126
 7561SOL    HW134142   0.186   1.288   3.020 -0.3859  0.4642 -1.4876
 7561SOL    HW234143   0.075   1.199   3.056 -0.0960  0.5074 -0.5306
 7562SOL     OW34144   0.831   3.562   0.165  0.2419  0.3985  0.0497
 7562SOL    HW134145   0.898   3.594   0.105 -1.6684  1.0022 -1.7503
 7562SOL    HW234146   0.846   3.467   0.169 -2.0808 -0.0136 -0.9190
 7563SOL     OW34147   0.857   3.497   2.847  0.5609 -0.2989 -0.0815
 7563SOL    HW134148   0.940   3.477   2.891  1.0908  1.3010 -0.3565
 7563SOL    HW234149   0.835   3.584   2.880 -1.7941 -1.2020  0.7893
 7564SOL     OW34150   2.263   4.440  12.972 -0.6277 -0.1537 -0.0789
 7564SOL    HW134151   2.352   4.456  13.004 -1.1953 -0.6937  1.7659
 7564SOL    HW234152   2.235   4.524  13.008 -2.6411 -0.0417 -1.9217
 7565SOL     OW34153   2.968   2.203   2.714  0.4699  0.4761  0.3260
 7565SOL    HW134154   3.037   2.155   2.669 -0.5221  0.6855 -1.4029
 7565SOL    HW234155   2.969   2.280   2.657 -2.2603  0.5553  0.3558
 7566SOL     OW34156   2.039   2.459   1.221 -0.0902  0.0539 -0.4162
 7566SOL    HW134157   2.052   2.538   1.273  0.1984  0.4917 -1.1433
 7566SOL    HW234158   2.102   2.398   1.258  0.2584  0.3372 -0.5402
 7567SOL     OW34159   2.277   1.599   1.262 -0.5679 -0.4898 -0.6194
 7567SOL    HW134160   2.320   1.653   1.196 -2.7554 -0.4366 -1.9841
 7567SOL    HW234161   2.188   1.602   1.228 -0.7504 -0.3207 -0.1215
 7568SOL     OW34162   1.950   0.093   2.707 -0.4609 -0.1900 -0.2084
 7568SOL    HW134163   1.873   0.151   2.710  0.2791  0.9299 -3.3019
 7568SOL    HW234164   1.916   0.027   2.768 -1.0531 -0.1246 -0.4734
 7569SOL     OW34165   4.142   4.159   0.917 -0.1462 -0.5645  0.3225
 7569SOL    HW134166   4.209   4.201   0.865  1.0459  0.0178  2.3326
 7569SOL    HW234167   4.136   4.212   0.997 -0.6968 -0.2259  0.0550
 7570SOL     OW34168   3.692   2.084   2.921 -0.2283 -0.0343  0.1656
 7570SOL    HW134169   3.655   2.091   3.009 -0.0321 -0.6263  0.2941
 7570SOL    HW234170   3.650   2.002   2.898  1.0610 -0.0232 -2.1676
 7571SOL     OW34171   1.821   0.651  14.845 -0.5520 -0.1337 -0.3607
 7571SOL    HW134172   1.792   0.564  14.871  1.1908 -0.7515 -0.5174
 7571SOL    HW234173   1.885   0.625  14.779  0.3194 -0.7981  0.7463
 7572SOL     OW34174   3.935   3.999   6.500 -0.3792  0.0951  0.5056
 7572SOL    HW134175   3.855   4.043   6.529  0.8205  1.7395  1.3025
 7572SOL    HW234176   3.983   4.079   6.479 -0.3327  0.0844  0.5731
 7573SOL     OW34177   2.776   3.401   3.160  0.2541  0.4442  0.0549
 7573SOL    HW134178   2.867   3.422   3.140 -0.1276  0.3429 -1.8459
 7573SOL    HW234179   2.757   3.321   3.111 -1.1757  0.2164  0.9970
 7574SOL     OW34180   1.357   4.189   6.647  0.1598  0.7144 -0.1682
 7574SOL    HW134181   1.330   4.255   6.712 -1.7887 -0.5957  0.3658
 7574SOL    HW234182   1.392   4.246   6.579  1.5156 -0.5068 -0.4922
 7575SOL     OW34183   0.954   3.835   8.004 -0.2959 -0.2388 -0.0129
 7575SOL    HW134184   1.047   3.823   8.026 -0.6834 -1.6503  0.9260
 7575SOL    HW234185   0.940   3.744   7.976  1.9014 -0.2504 -1.0264
 7576SOL     OW34186   4.580   0.744  15.688 -0.4094 -0.1306 -0.3540
 7576SOL    HW134187   4.646   0.792  15.639 -2.2450  0.2086 -2.5363
 7576SOL    HW234188   4.618   0.660  15.663  0.0811  0.5541 -1.9181
 7577SOL     OW34189   3.283   4.361   3.754  0.2431  0.2992  0.4244
 7577SOL    HW134190   3.239   4.388   3.673  1.4971 -2.1355 -1.0644
 7577SOL    HW234191   3.232   4.285   3.781  1.3329 -0.0580  1.4847
 7578SOL     OW34192   1.890   4.365  11.641 -0.1838  0.3232  0.4221
 7578SOL    HW134193   1.860   4.403  11.558  0.1841  1.6207  0.8906
 7578SOL    HW234194   1.964   4.424  11.655 -1.5363  2.4394 -1.5132
 7579SOL     OW34195   2.828   1.082   1.550  0.3467 -0.4092  0.1413
 7579SOL    HW134196   2.844   1.168   1.588  0.1586 -0.3408  0.0658
 7579SOL    HW234197   2.734   1.093   1.539  0.2737 -0.5156  0.6702
 7580SOL     OW34198   0.482   2.496   1.614 -0.0379  0.1035 -0.2800
 7580SOL    HW134199   0.548   2.535   1.557  0.4818 -1.4928 -0.7607
 7580SOL    HW234200   0.533   2.428   1.658  1.1842  1.6563  0.7633
 7581SOL     OW34201   1.582   0.313   9.600 -0.5878  0.1192  0.0975
 7581SOL    HW134202   1.519   0.264   9.652 -0.2907  0.3477  0.6769
 7581SOL    HW234203   1.534   0.396   9.598  0.1834  0.5548 -0.4612
 7582SOL     OW34204   1.861   0.339  14.668  0.3820  0.0565 -0.0639
 7582SOL    HW134205   1.895   0.428  14.666  1.1360 -0.2378 -0.6030
 7582SOL    HW234206   1.805   0.347  14.745  1.8625  4.0398  0.6001
 7583SOL     OW34207   0.591   0.117   5.695  0.1739 -0.6428  0.3185
 7583SOL    HW134208   0.663   0.172   5.663 -0.4340  0.7098  1.3060
 7583SOL    HW234209   0.526   0.180   5.727  0.5325  0.0207 -0.2425
 7584SOL     OW34210   2.238   0.315   2.577 -0.0126 -0.4979 -0.1247
 7584SOL    HW134211   2.168   0.378   2.559  1.4743  1.2954  0.3578
 7584SOL    HW234212   2.239   0.259   2.499  0.8991 -1.2720  0.4404
 7585SOL     OW34213   2.054   1.538   4.581  0.2739 -0.2648 -0.0283
 7585SOL    HW134214   2.133   1.529   4.529  0.5697  2.3145 -0.0236
 7585SOL    HW234215   2.029   1.627   4.555  0.7343  0.6517  2.6322
 7586SOL     OW34216   4.073   0.776   6.918  0.0783 -0.5989  0.0945
 7586SOL    HW134217   4.139   0.712   6.944  1.1233  1.1058  1.7360
 7586SOL    HW234218   4.020   0.794   6.996  2.0020 -1.8361  1.6929
 7587SOL     OW34219   3.321   2.869   4.555  0.3586 -0.4254  0.8544
 7587SOL    HW134220   3.243   2.901   4.600 -0.5975  0.8120 -1.6629
 7587SOL    HW234221   3.366   2.952   4.540 -0.3085  0.0925  1.6992
 7588SOL     OW34222   0.817   0.694   1.611  0.3088  0.0002 -0.4114
 7588SOL    HW134223   0.885   0.698   1.544  1.3958 -1.3211  0.6126
 7588SOL    HW234224   0.738   0.676   1.560  0.3950 -0.3149 -0.4388
 7589SOL     OW34225   2.399   4.658  15.582  0.1134 -0.1016 -0.5394
 7589SOL    HW134226   2.443   4.574  15.584  1.8329  0.9080  3.2961
 7589SOL    HW234227   2.320   4.633  15.631 -0.4320  1.5256 -0.5864
 7590SOL     OW34228   1.629   1.329   2.205  0.2467 -0.6142 -0.1964
 7590SOL    HW134229   1.697   1.347   2.270  0.3987 -0.7061 -0.3297
 7590SOL    HW234230   1.629   1.404   2.146  0.2977  0.3577  1.0266
 7591SOL     OW34231   3.293   0.782   5.170 -0.6957 -0.1987 -0.5096
 7591SOL    HW134232   3.338   0.708   5.129  0.6646 -0.8808  2.1848
 7591SOL    HW234233   3.262   0.826   5.091  0.2664  2.0691  0.3962
 7592SOL     OW34234   3.326   1.901  17.442  0.1454 -0.6700 -0.3171
 7592SOL    HW134235   3.371   1.921  17.524 -0.0412 -0.3008 -0.3067
 7592SOL    HW234236   3.256   1.965  17.454 -0.6891 -1.2238 -2.2708
 7593SOL     OW34237   0.002   3.582   1.806 -0.2342 -0.3786  0.0576
 7593SOL    HW134238   4.670   3.506   1.795 -1.3154  0.6103 -1.0475
 7593SOL    HW234239   4.707   3.636   1.730  2.4282  0.2138 -0.2437
 7594SOL     OW34240   0.225   0.375   7.729 -0.2540 -0.6382 -0.2097
 7594SOL    HW134241   0.307   0.329   7.717  1.1869  1.4324  1.7410
 7594SOL    HW234242   0.227   0.392   7.823 -0.4480  1.8520 -0.6407
 7595SOL     OW34243   0.040   1.035  15.716 -0.6319  0.2558 -0.4628
 7595SOL    HW134244   0.001   1.094  15.780 -1.4356  0.4076 -1.1134
 7595SOL    HW234245   0.119   1.018  15.769 -1.1428 -0.6727 -0.0036
 7596SOL     OW34246   3.318   2.872  12.155 -0.2544  0.8140  0.1119
 7596SOL    HW134247   3.262   2.908  12.224  0.8647  0.9850  0.9317
 7596SOL    HW234248   3.395   2.926  12.174 -0.3390  0.1996  2.2722
 7597SOL     OW34249   3.575   3.882   1.158  0.4478  0.3252 -0.2128
 7597SOL    HW134250   3.559   3.929   1.240 -0.3651 -0.0600 -0.1518
 7597SOL    HW234251   3.564   3.953   1.095 -3.7024  0.6959  0.9461
 7598SOL     OW34252   4.374   0.937   1.593 -0.1783  0.5710  0.0270
 7598SOL    HW134253   4.304   0.950   1.529 -0.4238  0.4277  0.2650
 7598SOL    HW234254   4.352   0.858   1.642  1.4876  0.4937  0.6294
 7599SOL     OW34255   2.319   1.888   8.943  0.1391  0.5708 -0.3065
 7599SOL    HW134256   2.295   1.868   9.034 -0.9311 -1.7589 -1.0779
 7599SOL    HW234257   2.232   1.883   8.904  0.0634  0.4596 -0.1239
 7600SOL     OW34258   4.259   2.825  16.136 -0.1606 -0.5180  0.8250
 7600SOL    HW134259   4.313   2.844  16.060 -1.8520  0.1677 -0.2040
 7600SOL    HW234260   4.189   2.890  16.124  1.4984  0.8448 -1.2758
 7601SOL     OW34261   1.655   1.171   5.796  0.0938 -0.2463 -0.1117
 7601SOL    HW134262   1.722   1.120   5.842 -1.3004 -2.3050 -0.3213
 7601SOL    HW234263   1.575   1.130   5.829 -0.1069  0.2382  0.0029
 7602SOL     OW34264   4.613   4.667   2.894 -0.0102  0.0957  0.6731
 7602SOL    HW134265   4.594   0.029   2.862  0.5927  0.5526  1.5902
 7602SOL    HW234266   4.702   4.649   2.862 -0.4800  1.3148 -1.3122
 7603SOL     OW34267   2.570   1.922   6.220 -0.2268  0.0210  0.0768
 7603SOL    HW134268   2.659   1.943   6.193 -0.9092  2.8724  0.0846
 7603SOL    HW234269   2.587   1.845   6.274  0.0626 -0.3111 -0.4876
 7604SOL     OW34270   1.739   0.284   5.814  0.2252  0.1767  0.5103
 7604SOL    HW134271   1.677   0.268   5.885  0.1904 -0.7997  0.2653
 7604SOL    HW234272   1.811   0.223   5.828 -0.2895 -0.9834 -1.7702
 7605SOL     OW34273   2.425   2.699   3.004  0.2010  0.1137  0.4711
 7605SOL    HW134274   2.482   2.775   2.986 -0.6233  0.1506 -1.9940
 7605SOL    HW234275   2.481   2.637   3.051  1.0372  0.8081  0.4103
 7606SOL     OW34276   0.421   0.902   4.153 -0.6707 -0.1671 -0.2354
 7606SOL    HW134277   0.453   0.822   4.111 -0.3172 -0.0490 -0.1932
 7606SOL    HW234278   0.478   0.971   4.119 -0.9108  1.4061  2.5461
 7607SOL     OW34279   3.730   4.537   8.661  0.3141 -0.0364  0.4335
 7607SOL    HW134280   3.757   4.553   8.570 -1.7597 -3.7857 -0.8401
 7607SOL    HW234281   3.802   4.496   8.707  1.5268  3.2423  1.4819
 7608SOL     OW34282   4.275   3.188  12.556 -0.0455 -0.5868  0.3171
 7608SOL    HW134283   4.329   3.115  12.585 -2.2573 -1.4441  2.3127
 7608SOL    HW234284   4.281   3.243  12.634 -1.0519 -1.1742  0.8008
 7609SOL     OW34285   3.603   2.451   8.278  0.1888 -0.7317  0.0639
 7609SOL    HW134286   3.571   2.390   8.211  0.6517 -0.1725 -0.6690
 7609SOL    HW234287   3.552   2.530   8.260 -0.0839 -1.3019 -1.6677
 7610SOL     OW34288   4.535   1.332   3.008 -0.5436  0.0537  0.9289
 7610SOL    HW134289   4.533   1.295   2.919  0.5173  0.8068  0.5939
 7610SOL    HW234290   4.628   1.314   3.023 -0.6505  0.2026  1.7778
 7611SOL     OW34291   2.509   1.775   5.713 -1.0077 -0.0664  0.2265
 7611SOL    HW134292   2.536   1.784   5.621 -0.9743 -0.1596  0.2270
 7611SOL    HW234293   2.432   1.832   5.707 -0.5733  0.4895 -0.0826
 7612SOL     OW34294   1.974   3.291   5.717 -0.1505 -0.0622 -0.5651
 7612SOL    HW134295   1.982   3.205   5.674  0.0472  0.6692 -2.0072
 7612SOL    HW234296   1.887   3.314   5.686 -0.6091  0.4238  1.1239
 7613SOL     OW34297   4.592   2.373  15.376  0.3844 -0.2942 -0.9122
 7613SOL    HW134298   4.602   2.292  15.326  0.0764 -0.3712 -0.8516
 7613SOL    HW234299   4.634   2.434  15.316 -1.2821  2.3337  0.5969
 7614SOL     OW34300   0.388   2.135   4.522 -0.2654  0.0034 -0.0598
 7614SOL    HW134301   0.359   2.079   4.449  1.1630  0.8355 -1.2612
 7614SOL    HW234302   0.483   2.126   4.518 -0.4107 -1.5442 -0.0493
 7615SOL     OW34303   2.659   1.131  13.578 -0.4226 -0.4335 -0.1510
 7615SOL    HW134304   2.658   1.225  13.596  1.2527 -0.7676  1.8180
 7615SOL    HW234305   2.639   1.099  13.666 -2.5408  0.9278 -0.1505
 7616SOL     OW34306   3.981   1.258   1.957 -0.4461  0.1559 -0.4631
 7616SOL    HW134307   3.889   1.286   1.954  0.0224  1.6741 -0.3481
 7616SOL    HW234308   4.027   1.327   1.909 -0.8587 -0.7799 -2.2050
 7617SOL     OW34309   0.436   0.348   4.444  1.1785  0.2570 -0.6688
 7617SOL    HW134310   0.518   0.335   4.396  2.4587  2.2076  0.9793
 7617SOL    HW234311   0.454   0.431   4.488 -2.2646 -0.7140  2.5859
 7618SOL     OW34312   0.910   0.850   5.299  0.2455 -0.7489  0.0188
 7618SOL    HW134313   0.969   0.915   5.337 -0.0703  0.1343 -0.9978
 7618SOL    HW234314   0.912   0.890   5.212 -0.5887  0.5364  0.5957
 7619SOL     OW34315   4.291   3.589   6.105 -0.3889  0.0011  0.9036
 7619SOL    HW134316   4.278   3.495   6.100  0.8693 -0.1233  0.0972
 7619SOL    HW234317   4.319   3.591   6.196  0.4183  1.9704  0.6164
 7620SOL     OW34318   1.293   0.089   3.404 -0.1551  0.1151  0.1031
 7620SOL    HW134319   1.251   0.154   3.347  3.8259 -0.0338 -2.9793
 7620SOL    HW234320   1.375   0.083   3.355  0.1652 -4.6599  1.2123
 7621SOL     OW34321   0.768   1.162   3.363  0.0804 -0.3778  0.1404
 7621SOL    HW134322   0.747   1.075   3.398 -1.9682  0.2398  0.3936
 7621SOL    HW234323   0.853   1.143   3.323 -1.1087  1.2219 -3.1534
 7622SOL     OW34324   0.431   0.267   7.527  0.1792 -0.6422  0.4285
 7622SOL    HW134325   0.504   0.206   7.517 -0.1677 -0.9055 -0.5017
 7622SOL    HW234326   0.377   0.261   7.448  0.4041  0.8886  0.1648
 7623SOL     OW34327   2.774   1.237   6.022  0.3117  0.0523 -0.2372
 7623SOL    HW134328   2.700   1.202   5.972  2.2496 -1.1283 -2.2991
 7623SOL    HW234329   2.856   1.200   5.987  0.0795  1.0925 -1.8916
 7624SOL     OW34330   0.041   4.618  10.789 -0.1462  0.5105  0.1990
 7624SOL    HW134331   0.114   4.676  10.767  0.4250 -1.0488 -2.0828
 7624SOL    HW234332   0.040   4.630  10.884 -3.2322  0.6268  0.1493
 7625SOL     OW34333   4.718   0.339   8.062  0.2572  0.4088  0.2736
 7625SOL    HW134334   0.014   0.432   8.058  0.4918  0.4253  1.8885
 7625SOL    HW234335   4.624   0.340   8.077  0.1160 -1.7575 -0.4940
 7626SOL     OW34336   0.543   2.877   1.538 -0.4140  0.3419  1.3906
 7626SOL    HW134337   0.464   2.874   1.483  0.5369  0.4876 -0.0006
 7626SOL    HW234338   0.601   2.863   1.463 -0.5516  0.0705  1.3346
 7627SOL     OW34339   1.284   4.067  13.640 -0.5772 -0.4126  0.1048
 7627SOL    HW134340   1.276   4.065  13.545 -1.0576  0.5751  0.1299
 7627SOL    HW234341   1.198   4.027  13.654  0.0795 -1.8217  0.0858
 7628SOL     OW34342   1.399   4.361  12.258  0.8540  0.2453  0.1880
 7628SOL    HW134343   1.413   4.450  12.227  0.0986  0.6979  1.1486
 7628SOL    HW234344   1.323   4.339  12.204  1.1543 -0.6690  0.1343
 7629SOL     OW34345   2.764   0.032   7.943  0.2085  0.3142  0.3660
 7629SOL    HW134346   2.761   4.682   8.001 -2.0435  0.7970  0.8456
 7629SOL    HW234347   2.815   4.726   7.869  2.2131  0.4747  1.6474
 7630SOL     OW34348   0.347   2.428  11.962 -0.2433 -0.1511  0.6039
 7630SOL    HW134349   0.279   2.387  11.908  0.7627 -1.3150  0.2337
 7630SOL    HW234350   0.324   2.516  11.932 -1.1106 -0.4223  0.4556
 7631SOL     OW34351   3.770   4.545   6.317 -0.5429  0.7893 -0.4440
 7631SOL    HW134352   3.816   4.539   6.401 -1.4272  0.8399  0.0440
 7631SOL    HW234353   3.819   4.606   6.262 -0.9259  0.8916 -0.6724
 7632SOL     OW34354   4.296   1.165   9.067  0.0729 -0.7136 -0.2293
 7632SOL    HW134355   4.222   1.224   9.055  0.5719 -0.1365 -0.4623
 7632SOL    HW234356   4.291   1.155   9.162  2.6349  0.9961  0.0924
 7633SOL     OW34357   0.278   3.239   1.577 -0.1465 -0.0784  0.0582
 7633SOL    HW134358   0.228   3.266   1.654 -2.1879 -2.0313 -0.5608
 7633SOL    HW234359   0.341   3.177   1.613 -0.3771 -0.8329 -0.8164
 7634SOL     OW34360   2.789   0.653   5.785  0.4760  0.0307  0.7233
 7634SOL    HW134361   2.839   0.614   5.856 -1.0580 -0.5329  1.4909
 7634SOL    HW234362   2.855   0.655   5.715  0.5761 -0.5179  0.8031
 7635SOL     OW34363   0.601   2.442  10.350  0.1428 -0.5983  0.1934
 7635SOL    HW134364   0.690   2.473  10.367 -0.4423  2.4116 -2.2862
 7635SOL    HW234365   0.545   2.502  10.400  3.5325  1.2392  1.7534
 7636SOL     OW34366   0.099   0.304   9.297  0.5289 -0.3416  0.2174
 7636SOL    HW134367   0.044   0.329   9.224 -1.7740 -1.0637  1.6957
 7636SOL    HW234368   0.067   0.358   9.369 -0.2334 -2.1349  1.2467
 7637SOL     OW34369   2.119   1.549   8.600  0.2755 -0.4556 -0.4296
 7637SOL    HW134370   2.157   1.541   8.513 -2.1807 -0.8343 -1.4493
 7637SOL    HW234371   2.127   1.644   8.613 -0.1755 -0.5520  0.5611
 7638SOL     OW34372   0.864   4.515   9.360  0.1304  0.4508 -1.0209
 7638SOL    HW134373   0.894   4.582   9.299 -2.7305  0.5558 -2.3465
 7638SOL    HW234374   0.947   4.470   9.369 -1.3128 -1.7669  1.1392
 7639SOL     OW34375   3.131   3.744   9.843  0.5464 -0.1144 -0.2801
 7639SOL    HW134376   3.162   3.653   9.842 -0.7662 -0.5600 -0.7249
 7639SOL    HW234377   3.211   3.790   9.866 -0.2507  0.4745  1.3299
 7640SOL     OW34378   3.267   2.459   3.708 -0.0667 -0.0417 -0.4453
 7640SOL    HW134379   3.265   2.482   3.616  1.4876 -0.1050 -0.4968
 7640SOL    HW234380   3.361   2.444   3.723 -0.0346 -1.0400 -1.6455
 7641SOL     OW34381   4.421   0.510   4.967 -0.7966  0.1661  0.3521
 7641SOL    HW134382   4.481   0.442   4.938  0.4735  0.4636  2.3079
 7641SOL    HW234383   4.401   0.546   4.881 -0.8421 -1.3684 -0.2778
 7642SOL     OW34384   2.574   1.968  12.463 -0.1140  0.3926 -0.1596
 7642SOL    HW134385   2.666   1.958  12.436  0.1533  1.8571  0.1920
 7642SOL    HW234386   2.544   1.877  12.461  1.2258 -0.0229 -1.6259
 7643SOL     OW34387   2.404   4.275  11.350  0.5613  0.3645  0.0222
 7643SOL    HW134388   2.492   4.247  11.376  0.1324 -0.4179  0.6176
 7643SOL    HW234389   2.414   4.360  11.307 -0.8243  1.3236  1.5557
 7644SOL     OW34390   4.064   4.193  10.166 -0.1900  0.1679  0.1086
 7644SOL    HW134391   4.058   4.210  10.260 -1.7373 -1.0301  0.2272
 7644SOL    HW234392   4.017   4.269  10.132 -0.9642 -0.2089  0.3326
 7645SOL     OW34393   3.022   0.489  11.799  0.6162 -0.0276  0.0717
 7645SOL    HW134394   2.950   0.506  11.860  0.4341 -0.9232  0.1138
 7645SOL    HW234395   2.992   0.533  11.719  0.8257  1.3622  0.7605
 7646SOL     OW34396   3.429   3.804   6.480  0.3937 -0.1738 -0.6365
 7646SOL    HW134397   3.470   3.884   6.447 -0.8621  0.5864 -0.3466
 7646SOL    HW234398   3.336   3.823   6.468  0.2959 -0.4200 -0.2799
 7647SOL     OW34399   2.299   3.242   8.033 -0.2699 -0.1419 -0.0721
 7647SOL    HW134400   2.321   3.305   7.964 -0.2776  2.1501  1.9963
 7647SOL    HW234401   2.219   3.199   8.002  1.0418 -0.7407 -2.6036
 7648SOL     OW34402   2.020   2.696  16.062  0.3036 -0.2877  0.6695
 7648SOL    HW134403   2.075   2.774  16.061  0.8165 -0.6102  3.4104
 7648SOL    HW234404   2.079   2.630  16.025 -1.3600 -1.6495  0.4205
 7649SOL     OW34405   3.498   2.858   9.752 -0.2184 -0.0250 -0.3495
 7649SOL    HW134406   3.514   2.772   9.714 -0.4812  0.3619 -1.3529
 7649SOL    HW234407   3.438   2.830   9.821 -0.9615 -0.7129 -1.2747
 7650SOL     OW34408   3.201   0.323  16.419 -0.1842  0.4234 -0.6519
 7650SOL    HW134409   3.131   0.263  16.447  1.4559 -0.4377  1.5841
 7650SOL    HW234410   3.156   0.366  16.346 -0.5930  0.4349 -0.3934
 7651SOL     OW34411   4.185   1.922   5.245 -0.6427  0.7707  0.2040
 7651SOL    HW134412   4.203   2.010   5.275  0.6782  0.0211  1.5869
 7651SOL    HW234413   4.092   1.921   5.222 -0.7482 -0.7103  0.6321
 7652SOL     OW34414   2.929   3.297   3.796 -0.6688 -0.0471  0.6086
 7652SOL    HW134415   2.994   3.343   3.850  0.1319 -1.0160  0.4744
 7652SOL    HW234416   2.867   3.267   3.862 -0.5870 -1.0031  0.2483
 7653SOL     OW34417   1.443   4.075  10.150 -0.2858  0.4185  0.3090
 7653SOL    HW134418   1.494   4.083  10.230 -0.0486 -1.1999  0.3314
 7653SOL    HW234419   1.462   4.162  10.115  1.1393  0.4761  1.2199
 7654SOL     OW34420   3.625   0.619   3.209 -0.5037  0.0605  0.5623
 7654SOL    HW134421   3.622   0.597   3.302 -1.3023 -0.0733  0.5019
 7654SOL    HW234422   3.627   0.715   3.211  0.0204  0.0719 -0.7089
 7655SOL     OW34423   3.298   3.032   7.481  0.4701  0.5525  0.1684
 7655SOL    HW134424   3.312   2.940   7.459 -1.5073  0.0935  0.8403
 7655SOL    HW234425   3.204   3.048   7.465 -0.0263 -1.7569  0.8036
 7656SOL     OW34426   2.624   3.855  13.561  0.2794  0.2183  0.6384
 7656SOL    HW134427   2.546   3.899  13.529  0.0337 -0.2101  0.6522
 7656SOL    HW234428   2.682   3.848  13.485  0.4003  0.9867  0.6607
 7657SOL     OW34429   4.454   2.151  14.885 -0.7292 -0.3210  0.4997
 7657SOL    HW134430   4.438   2.109  14.969  0.0889  0.7533  1.1901
 7657SOL    HW234431   4.386   2.218  14.887  0.2369  0.6945 -0.6913
 7658SOL     OW34432   2.933   0.808  12.848  0.3495 -0.0256  0.0681
 7658SOL    HW134433   2.925   0.822  12.753  0.0360 -1.5617 -0.1442
 7658SOL    HW234434   2.880   0.728  12.852  0.5887 -0.0959  1.7113
 7659SOL     OW34435   1.081   4.311   6.179 -0.0020  0.0529  0.3966
 7659SOL    HW134436   1.078   4.215   6.175 -1.1291  0.0196  2.2264
 7659SOL    HW234437   1.157   4.327   6.235  0.0245  0.3861  0.2640
 7660SOL     OW34438   3.317   3.773   7.305  0.1293 -0.5720  0.4556
 7660SOL    HW134439   3.230   3.767   7.265  0.3530  2.3942 -0.4516
 7660SOL    HW234440   3.291   3.813   7.388  0.3742 -1.5217  0.9944
 7661SOL     OW34441   2.504   2.361  15.016  0.1711 -0.4528  0.5975
 7661SOL    HW134442   2.417   2.391  14.990 -0.6186  0.0905  3.8984
 7661SOL    HW234443   2.517   2.286  14.958  0.1291 -0.1083  0.1325
 7662SOL     OW34444   4.030   2.139   6.876  0.4146 -0.1851 -0.6153
 7662SOL    HW134445   3.957   2.081   6.856 -0.8492  0.8533  1.0098
 7662SOL    HW234446   4.010   2.214   6.821  0.0804  1.8699  2.3247
 7663SOL     OW34447   1.471   4.390   5.515 -0.5304 -0.4866 -0.0218
 7663SOL    HW134448   1.474   4.391   5.420 -0.6545 -0.3767 -0.0245
 7663SOL    HW234449   1.521   4.470   5.534  0.9696 -0.9080 -2.2975
 7664SOL     OW34450   0.903   3.157   5.405 -0.2115  0.1031 -0.0798
 7664SOL    HW134451   0.924   3.068   5.377 -0.5610 -0.3307  1.0625
 7664SOL    HW234452   0.939   3.216   5.338  0.5473 -0.6911 -0.3610
 7665SOL     OW34453   4.667   1.328  10.664 -0.2542  0.0810  0.3352
 7665SOL    HW134454   0.034   1.349  10.671 -0.4198  1.2649 -1.0660
 7665SOL    HW234455   4.665   1.236  10.693 -1.4156 -0.7191 -2.3160
 7666SOL     OW34456   2.735   1.868   4.689 -0.2045 -0.6929  0.1034
 7666SOL    HW134457   2.707   1.813   4.615 -3.2714 -0.5944  1.1844
 7666SOL    HW234458   2.808   1.909   4.643 -0.6385 -0.0474 -0.0146
 7667SOL     OW34459   1.984   4.295   1.401 -0.4803  0.0157 -0.2038
 7667SOL    HW134460   2.073   4.297   1.439 -0.5932  1.4997 -0.0232
 7667SOL    HW234461   1.945   4.348   1.471 -0.1482  1.9837 -1.5039
 7668SOL     OW34462   0.683   0.646  11.805 -0.0913 -0.2618 -0.2280
 7668SOL    HW134463   0.607   0.688  11.845  1.8614  4.6375 -1.7495
 7668SOL    HW234464   0.682   0.674  11.714  1.2642  1.8353  0.4060
 7669SOL     OW34465   2.452   2.619  10.932  0.2116 -0.3846  0.4557
 7669SOL    HW134466   2.510   2.568  10.875 -0.0672  0.8961 -0.9521
 7669SOL    HW234467   2.522   2.659  10.984 -0.4431  1.1229  0.1772
 7670SOL     OW34468   3.790   0.468  13.269  0.2757 -0.3494  0.0732
 7670SOL    HW134469   3.839   0.413  13.207 -1.5896 -0.0507 -1.6570
 7670SOL    HW234470   3.711   0.490  13.219  0.5223 -1.3454 -0.7564
 7671SOL     OW34471   3.395   1.520   5.437 -0.2799 -0.1530  0.2557
 7671SOL    HW134472   3.417   1.454   5.503  1.4513  0.7443  0.5632
 7671SOL    HW234473   3.347   1.460   5.380  1.1011 -0.6429 -0.3858
 7672SOL     OW34474   1.008   0.078  14.035  0.1218 -0.4745  0.1003
 7672SOL    HW134475   1.082   0.019  14.035  0.9950  0.6259  1.1516
 7672SOL    HW234476   1.052   0.161  14.052  0.5376 -0.7460  0.3298
 7673SOL     OW34477   2.783   2.158   8.736 -0.8119 -0.2880 -0.0511
 7673SOL    HW134478   2.723   2.169   8.663 -0.3304  2.7481 -0.0070
 7673SOL    HW234479   2.793   2.245   8.775  1.5426 -0.1022 -1.0136
 7674SOL     OW34480   1.141   3.780   7.458  0.3835 -0.1432 -0.4210
 7674SOL    HW134481   1.046   3.787   7.466  0.2413 -0.6016 -1.7739
 7674SOL    HW234482   1.159   3.738   7.542 -1.3055 -0.7995 -0.3977
 7675SOL     OW34483   0.809   1.590   3.524 -0.3752 -0.0414  0.4408
 7675SOL    HW134484   0.722   1.567   3.489 -0.2994  2.1996 -1.2245
 7675SOL    HW234485   0.840   1.500   3.540  4.1144  0.9885 -2.6863
 7676SOL     OW34486   4.390   3.588   2.929  0.2887  0.3538  0.4571
 7676SOL    HW134487   4.484   3.594   2.943  0.3453 -0.2618  0.3522
 7676SOL    HW234488   4.389   3.593   2.834 -0.0709 -0.4600  0.4163
 7677SOL     OW34489   0.582   1.010  12.063  0.5586 -0.0896  0.0373
 7677SOL    HW134490   0.551   0.919  12.066 -0.0553  0.1135 -0.3921
 7677SOL    HW234491   0.571   1.050  11.977  1.3629  0.3763  0.1469
 7678SOL     OW34492   1.289   0.933   2.503  0.7719  0.5949  0.4758
 7678SOL    HW134493   1.259   0.893   2.585 -0.2092  1.8015  0.7127
 7678SOL    HW234494   1.378   0.959   2.529  0.7185  1.3034 -0.0379
 7679SOL     OW34495   4.118   1.382   4.063  0.1547 -0.5313  0.3746
 7679SOL    HW134496   4.135   1.289   4.049  0.6857 -0.4646  0.5902
 7679SOL    HW234497   4.083   1.412   3.979 -1.0068 -4.2508 -0.4596
 7680SOL     OW34498   2.842   2.182   6.444  0.0159 -0.9245  0.5318
 7680SOL    HW134499   2.755   2.142   6.431  0.8774 -1.9102 -2.1699
 7680SOL    HW234500   2.842   2.189   6.540  0.3044  0.3884  0.4256
 7681SOL     OW34501   1.995   4.490   5.220 -0.2370  0.6405  0.1624
 7681SOL    HW134502   1.920   4.461   5.273  0.0376  0.7034  0.5888
 7681SOL    HW234503   2.043   4.408   5.207 -1.2285  0.4265 -2.1473
 7682SOL     OW34504   3.050   2.299   7.045  0.1057 -0.2623 -0.1199
 7682SOL    HW134505   3.103   2.319   7.122  0.6945  0.7191 -0.7760
 7682SOL    HW234506   2.977   2.358   7.062  0.3749 -0.1775  0.7400
 7683SOL     OW34507   3.025   0.032  16.873  0.0295 -0.9290 -0.0742
 7683SOL    HW134508   3.048   4.709  16.794 -1.2505 -2.4502  0.4853
 7683SOL    HW234509   3.111   0.054  16.908  0.5011 -2.1151 -0.4809
 7684SOL     OW34510   4.197   1.529   6.014 -0.5310  0.1465  0.1764
 7684SOL    HW134511   4.229   1.548   5.926 -0.6599  1.5924  0.4393
 7684SOL    HW234512   4.261   1.463   6.040  0.0521 -0.3714 -2.5844
 7685SOL     OW34513   0.013   3.293   5.499 -0.2592 -0.2800  0.1339
 7685SOL    HW134514   0.083   3.351   5.528  0.3843  0.0385 -2.0649
 7685SOL    HW234515   4.676   3.329   5.562 -0.8500 -0.8316 -0.1321
 7686SOL     OW34516   2.752   1.948   2.846  0.2603  0.0085  0.1870
 7686SOL    HW134517   2.758   1.998   2.927  0.3683  0.1555  0.0884
 7686SOL    HW234518   2.713   1.996   2.773 -2.1636  0.0083  1.4837
 7687SOL     OW34519   0.846   1.742  17.478  0.7524  0.3799 -0.2477
 7687SOL    HW134520   0.910   1.672  17.479  0.1461 -0.1441  1.7007
 7687SOL    HW234521   0.830   1.744  17.384  0.6435  0.1405 -0.2340
 7688SOL     OW34522   3.003   4.064   1.760 -0.3348  0.2083 -0.5513
 7688SOL    HW134523   3.044   4.139   1.803  0.7405  0.0899 -1.3595
 7688SOL    HW234524   2.994   3.989   1.819 -1.2287 -1.1659 -2.4104
 7689SOL     OW34525   3.600   0.463   6.656 -0.0413  0.6612  0.0442
 7689SOL    HW134526   3.579   0.546   6.613  0.9034  0.5231 -0.7086
 7689SOL    HW234527   3.651   0.489   6.733  1.0405 -4.2043  0.9713
 7690SOL     OW34528   2.469   3.586   2.718 -0.0707  0.7073 -0.2349
 7690SOL    HW134529   2.532   3.609   2.649 -0.0227  0.8975 -0.1280
 7690SOL    HW234530   2.459   3.492   2.702 -4.2933  0.8236  1.7645
 7691SOL     OW34531   1.527   1.994   3.025 -0.1073 -0.1212 -0.3443
 7691SOL    HW134532   1.537   2.001   3.120  0.9092  2.0472 -0.6253
 7691SOL    HW234533   1.497   1.903   3.028 -0.8371  0.0922 -1.0722
 7692SOL     OW34534   4.156   1.041   6.150  0.1556 -0.3526  0.0921
 7692SOL    HW134535   4.171   0.953   6.115 -1.5479 -0.2938 -0.7871
 7692SOL    HW234536   4.162   1.019   6.243  3.0636  0.5560  0.0986
 7693SOL     OW34537   2.578   1.144   9.071  0.1560 -0.1326 -0.2732
 7693SOL    HW134538   2.634   1.220   9.054 -0.4313  0.4010  0.2104
 7693SOL    HW234539   2.617   1.116   9.153 -2.3649  1.3635  1.4303
 7694SOL     OW34540   4.253   0.346  11.159 -0.4346  0.1102 -0.1997
 7694SOL    HW134541   4.287   0.292  11.230  1.7299  1.7982  0.0711
 7694SOL    HW234542   4.161   0.330  11.141 -0.2189 -0.2993 -0.9302
 7695SOL     OW34543   2.211   3.478   2.111 -0.0344 -0.0059  0.1059
 7695SOL    HW134544   2.282   3.535   2.082  3.0223 -3.2525  1.2924
 7695SOL    HW234545   2.256   3.394   2.106  1.2224  0.6957 -0.3694
 7696SOL     OW34546   3.058   2.829  14.493  0.6001  0.2655  0.1484
 7696SOL    HW134547   3.086   2.914  14.459 -2.2669  1.3521  0.5409
 7696SOL    HW234548   3.013   2.859  14.572  0.4107 -0.3686  0.2800
 7697SOL     OW34549   3.388   1.265   3.793  0.2031 -0.2905  0.3476
 7697SOL    HW134550   3.356   1.352   3.818  2.0296  0.9377 -1.5319
 7697SOL    HW234551   3.442   1.290   3.718  0.4936  1.3293  1.0951
 7698SOL     OW34552   1.081   1.506   6.288 -0.1729  0.3788  0.1361
 7698SOL    HW134553   1.176   1.495   6.291 -0.3390 -1.3970 -1.4811
 7698SOL    HW234554   1.043   1.514   6.376 -2.0299 -2.7049 -0.3917
 7699SOL     OW34555   1.389   4.226   7.325  0.5395  0.1603  0.8389
 7699SOL    HW134556   1.357   4.191   7.241  1.1786 -0.7517  0.9751
 7699SOL    HW234557   1.311   4.274   7.354  0.8766  0.6732  0.8989
 7700SOL     OW34558   4.701   3.704  14.119 -0.1572 -0.2092  0.2326
 7700SOL    HW134559   4.720   3.794  14.093 -0.2855 -0.6815 -1.5425
 7700SOL    HW234560   4.614   3.684  14.085 -0.0766  0.2209 -0.2322
 7701SOL     OW34561   0.665   3.244  12.108  0.1282  0.1060  0.4314
 7701SOL    HW134562   0.609   3.320  12.125 -1.1765 -0.4558 -1.2915
 7701SOL    HW234563   0.607   3.173  12.081 -0.2364  0.3539  0.5630
 7702SOL     OW34564   4.233   4.203   4.068  0.1787  0.3194  0.7397
 7702SOL    HW134565   4.316   4.232   4.030  0.3855 -1.0291  0.1546
 7702SOL    HW234566   4.213   4.137   4.002 -0.5588  0.9689  0.3213
 7703SOL     OW34567   0.718   3.563  13.562 -0.2271  0.5904  0.6415
 7703SOL    HW134568   0.681   3.502  13.626 -4.8633  1.4807 -1.1766
 7703SOL    HW234569   0.786   3.606  13.613 -0.8856  0.5663  1.5567
 7704SOL     OW34570   3.619   0.050   3.085  0.1294 -0.0893 -0.5001
 7704SOL    HW134571   3.700   0.100   3.093  0.6224 -0.8748 -0.6828
 7704SOL    HW234572   3.586   0.043   3.175  0.5089  2.5084 -0.1634
 7705SOL     OW34573   3.282   3.441   9.476  0.0011 -0.4805  0.7647
 7705SOL    HW134574   3.334   3.452   9.396 -1.3580 -0.7520 -0.1567
 7705SOL    HW234575   3.245   3.529   9.475  0.8031 -0.1518 -0.2522
 7706SOL     OW34576   3.164   0.193  14.582 -0.6848 -0.2521  0.2416
 7706SOL    HW134577   3.214   0.129  14.530 -1.2573  0.4863 -1.2067
 7706SOL    HW234578   3.235   0.237  14.629  0.4482 -1.7781 -0.0134
 7707SOL     OW34579   3.289   1.496   4.079 -0.5495  0.5410 -0.3764
 7707SOL    HW134580   3.317   1.407   4.100 -1.0323  0.2708 -0.8877
 7707SOL    HW234581   3.363   1.519   4.023 -0.3898 -1.9323 -1.1715
 7708SOL     OW34582   4.202   2.835   8.692  0.1847  0.3020 -0.1537
 7708SOL    HW134583   4.130   2.834   8.755  1.9623 -0.4345  1.8359
 7708SOL    HW234584   4.266   2.776   8.731 -0.7767 -0.5513  0.1422
 7709SOL     OW34585   0.280   0.017   6.118 -0.4421  0.0963 -0.1866
 7709SOL    HW134586   0.211   4.681   6.140  1.2476 -1.0393  1.9375
 7709SOL    HW234587   0.312   0.029   6.208  2.5586  1.1801 -1.4261
 7710SOL     OW34588   4.379   2.511   2.003  0.1932 -0.4126 -0.2508
 7710SOL    HW134589   4.330   2.487   1.924  0.6013 -0.9845 -0.3348
 7710SOL    HW234590   4.445   2.443   1.993 -0.4645 -1.1516  0.4370
 7711SOL     OW34591   3.599   3.714   1.928 -0.1266 -0.6573 -0.0953
 7711SOL    HW134592   3.657   3.778   1.886 -0.2094 -1.6725 -1.7266
 7711SOL    HW234593   3.520   3.767   1.936 -0.0415 -0.9984  3.0523
 7712SOL     OW34594   3.962   3.295   6.549 -0.8138 -0.2035  0.0322
 7712SOL    HW134595   3.970   3.288   6.644  1.2456 -0.6443 -0.1650
 7712SOL    HW234596   3.938   3.387   6.554 -1.1559 -0.3783  1.6569
 7713SOL     OW34597   1.189   4.181   2.806  0.3299 -0.8310  0.5050
 7713SOL    HW134598   1.174   4.149   2.718  4.2207  2.6704 -1.4335
 7713SOL    HW234599   1.226   4.267   2.788 -2.0700 -0.1065 -0.9042
 7714SOL     OW34600   3.907   2.932  17.230  0.2366 -0.6339  0.1115
 7714SOL    HW134601   3.954   3.013  17.208  0.3857 -0.9539 -0.7361
 7714SOL    HW234602   3.818   2.965  17.239  0.4484  0.2519 -0.9528
 7715SOL     OW34603   1.888   0.509   5.868 -0.8151  0.0319 -0.0797
 7715SOL    HW134604   1.886   0.576   5.799 -0.1837 -0.0869 -0.2114
 7715SOL    HW234605   1.817   0.454   5.833 -0.7213  0.2082 -0.5503
 7716SOL     OW34606   1.703   3.632  14.828 -0.7978  0.5889 -0.0870
 7716SOL    HW134607   1.656   3.684  14.763  1.1458  3.0514  0.5025
 7716SOL    HW234608   1.714   3.692  14.901  0.7712  0.4383 -0.1928
 7717SOL     OW34609   0.316   2.686  11.799 -0.2260 -0.1631 -0.0867
 7717SOL    HW134610   0.346   2.643  11.719 -0.5105 -0.1486 -0.2017
 7717SOL    HW234611   0.233   2.729  11.779 -0.2633 -0.6044 -0.9004
 7718SOL     OW34612   1.982   2.218   2.203  0.2637 -0.4268  0.1233
 7718SOL    HW134613   2.045   2.245   2.270  0.4115  2.4670 -1.1611
 7718SOL    HW234614   2.038   2.250   2.132  0.6131 -0.3056  0.4552
 7719SOL     OW34615   2.333   1.070   3.084 -0.3818  0.2758 -0.4695
 7719SOL    HW134616   2.398   1.009   3.118  2.2275  4.5162  2.1335
 7719SOL    HW234617   2.368   1.075   2.995 -0.1225 -0.2316 -0.3968
 7720SOL     OW34618   0.109   3.571   7.457  0.1685  0.0572 -0.0977
 7720SOL    HW134619   0.030   3.590   7.508 -0.0815 -1.0255 -0.0762
 7720SOL    HW234620   0.095   3.636   7.388  0.7058 -0.0803 -0.3359
 7721SOL     OW34621   1.210   2.399   5.978  0.4505 -0.0275 -0.3279
 7721SOL    HW134622   1.242   2.423   6.065  1.9624 -0.5868 -0.7343
 7721SOL    HW234623   1.126   2.359   5.997  0.9239 -2.2654 -2.8996
 7722SOL     OW34624   2.479   3.030   8.564  0.0959  0.1435  0.2068
 7722SOL    HW134625   2.422   3.055   8.637 -0.3794  4.2653 -1.5751
 7722SOL    HW234626   2.560   3.009   8.611 -1.0180 -2.2741  1.0602
 7723SOL     OW34627   3.929   2.774   9.176 -0.0661  0.5301 -0.2085
 7723SOL    HW134628   3.986   2.705   9.211  0.6505  0.4561 -1.5216
 7723SOL    HW234629   3.865   2.709   9.145  3.0775 -1.4081 -2.7092
 7724SOL     OW34630   0.971   4.663   8.656 -0.6095  0.5428  0.2283
 7724SOL    HW134631   0.918   4.706   8.589 -1.3787 -0.0355  0.4628
 7724SOL    HW234632   0.942   4.722   8.725  0.2717  1.2857 -0.0469
 7725SOL     OW34633   3.381   1.953  13.029  0.1002 -0.1899  0.9060
 7725SOL    HW134634   3.419   1.910  12.952  0.2631  1.5425  0.0202
 7725SOL    HW234635   3.398   2.046  13.012 -0.6681 -0.4949 -1.4967
 7726SOL     OW34636   0.423   1.835   7.747 -0.0523 -0.0143  0.3411
 7726SOL    HW134637   0.451   1.907   7.803  1.3167  1.0076 -1.6652
 7726SOL    HW234638   0.381   1.888   7.680  4.0010  0.6577 -1.7216
 7727SOL     OW34639   3.728   2.705  16.026 -0.0646  0.1087 -0.6167
 7727SOL    HW134640   3.688   2.742  15.948  1.7966 -0.8724 -2.0412
 7727SOL    HW234641   3.759   2.782  16.073  1.0267 -2.1381  2.3909
 7728SOL     OW34642   1.100   0.923   8.254 -0.1515  0.7644 -0.4120
 7728SOL    HW134643   1.142   0.882   8.330  0.0219 -0.0525 -0.9512
 7728SOL    HW234644   1.011   0.897   8.277 -0.3946 -0.0571 -2.3085
 7729SOL     OW34645   2.538   1.753   5.160 -0.2796 -0.2393  0.4615
 7729SOL    HW134646   2.625   1.751   5.121 -0.0452  1.1656  0.8821
 7729SOL    HW234647   2.508   1.671   5.122  0.5416 -0.6719  0.7574
 7730SOL     OW34648   0.995   0.697  12.830  0.7768  0.5965  0.4706
 7730SOL    HW134649   0.921   0.695  12.768  1.1616 -1.2471  0.0696
 7730SOL    HW234650   1.037   0.612  12.817 -0.2486  0.3233 -1.0624
 7731SOL     OW34651   1.625   0.753  15.843 -0.8021  0.1568 -0.4310
 7731SOL    HW134652   1.694   0.738  15.779 -1.8403 -0.5073 -1.3877
 7731SOL    HW234653   1.559   0.699  15.801 -1.2397 -0.5418  1.1435
 7732SOL     OW34654   1.031   0.351   4.735 -0.3415  0.2813 -0.5890
 7732SOL    HW134655   1.014   0.444   4.719 -2.7250 -0.7765 -4.3350
 7732SOL    HW234656   0.974   0.311   4.669  0.5374 -2.3182  0.2363
 7733SOL     OW34657   2.445   1.455  14.889  0.6271 -0.0957  0.5967
 7733SOL    HW134658   2.392   1.399  14.944  0.6840 -0.1052  0.6409
 7733SOL    HW234659   2.372   1.503  14.848  1.3060 -0.7652 -1.4142
 7734SOL     OW34660   3.345   3.649  11.508  0.8053  0.4549  0.1298
 7734SOL    HW134661   3.285   3.670  11.437  1.2313 -0.8361 -0.6057
 7734SOL    HW234662   3.291   3.683  11.580  0.7116 -0.8804  0.6940
 7735SOL     OW34663   2.599   1.648   4.608 -0.2405 -0.3251 -0.3408
 7735SOL    HW134664   2.529   1.592   4.642  0.9694 -0.8402  1.3288
 7735SOL    HW234665   2.583   1.650   4.514  0.7777  4.4623 -0.4128
 7736SOL     OW34666   0.760   4.236   8.949  0.3242 -0.0657  0.2866
 7736SOL    HW134667   0.694   4.210   9.013  1.0215  0.5919  1.2749
 7736SOL    HW234668   0.796   4.312   8.994 -1.1138 -0.3344  1.8938
 7737SOL     OW34669   3.576   0.671  11.758  0.5828  0.0990 -0.8523
 7737SOL    HW134670   3.601   0.584  11.728 -1.8234  0.0571 -2.7548
 7737SOL    HW234671   3.645   0.674  11.824 -1.0382  0.8550  0.7987
 7738SOL     OW34672   0.553   1.340   2.372 -0.8143 -0.3842 -0.6232
 7738SOL    HW134673   0.550   1.411   2.435  3.4763  0.1018 -0.9341
 7738SOL    HW234674   0.548   1.393   2.293  0.4327 -0.0245 -0.4693
 7739SOL     OW34675   4.072   4.241  12.717 -0.2071 -0.0828  0.1721
 7739SOL    HW134676   4.117   4.238  12.632  0.3918  2.3188  0.3869
 7739SOL    HW234677   4.080   4.329  12.754  0.4418  0.4777 -1.2909
 7740SOL     OW34678   0.585   1.650   1.967  0.4513 -0.5151 -0.6627
 7740SOL    HW134679   0.652   1.715   1.945  0.6666 -0.5158 -0.0221
 7740SOL    HW234680   0.612   1.578   1.910  2.4978  0.3901 -0.8320
 7741SOL     OW34681   0.403   3.033  14.293 -0.3697 -0.0818 -0.1116
 7741SOL    HW134682   0.431   3.120  14.264  0.4304 -1.2546 -2.8201
 7741SOL    HW234683   0.308   3.032  14.276  0.0683 -0.0008 -2.5265
 7742SOL     OW34684   1.948   0.207  14.966  0.4809 -0.3532 -0.0843
 7742SOL    HW134685   1.873   0.265  14.976  0.9589  0.3804 -0.7573
 7742SOL    HW234686   1.914   0.127  15.006 -1.5212  1.0795  1.0748
 7743SOL     OW34687   3.079   2.721  12.583  0.0082  0.5108 -0.3698
 7743SOL    HW134688   3.120   2.670  12.513  0.4127  0.7288 -0.2936
 7743SOL    HW234689   3.025   2.782  12.532  2.3155  0.1133 -3.3501
 7744SOL     OW34690   1.752   0.858   1.684  0.0573 -0.4256 -0.1769
 7744SOL    HW134691   1.847   0.843   1.681  0.5034  2.0735  1.5529
 7744SOL    HW234692   1.729   0.823   1.598 -1.5767 -0.6070  0.3302
 7745SOL     OW34693   1.119   3.794  12.992  0.0164 -0.2376  0.1343
 7745SOL    HW134694   1.194   3.854  12.987 -0.3090  0.1881  0.3712
 7745SOL    HW234695   1.145   3.734  13.061 -0.1723 -0.6669 -0.1618
 7746SOL     OW34696   2.032   4.633   4.066  0.1347 -0.2860 -0.0268
 7746SOL    HW134697   2.027   4.631   4.161 -0.1774 -0.0030 -0.0375
 7746SOL    HW234698   2.052   4.726   4.051 -0.4406 -0.1682 -0.0857
 7747SOL     OW34699   2.038   2.859  14.461 -0.1379 -0.2772 -0.3594
 7747SOL    HW134700   1.985   2.827  14.388  2.1023 -2.2528 -1.1086
 7747SOL    HW234701   1.972   2.844  14.528 -2.3354  1.8093 -2.0728
 7748SOL     OW34702   3.887   2.233  17.244 -0.5783 -0.4819 -0.1649
 7748SOL    HW134703   3.903   2.303  17.307  0.7867 -1.8672  1.0449
 7748SOL    HW234704   3.844   2.277  17.171 -2.2167  0.6057  1.4798
 7749SOL     OW34705   0.047   2.619  15.433 -0.2095 -0.1621  0.1836
 7749SOL    HW134706   4.691   2.630  15.481  0.2376  0.5916  0.7697
 7749SOL    HW234707   0.004   2.625  15.347  0.6222  1.3261 -0.1268
 7750SOL     OW34708   0.725   2.449   1.952 -0.1691  0.9170 -0.0495
 7750SOL    HW134709   0.735   2.415   1.864 -0.5567  1.2208 -0.2101
 7750SOL    HW234710   0.817   2.452   1.979  0.2619 -0.0833 -1.4491
 7751SOL     OW34711   0.694   3.620   8.289 -0.4763  0.4732 -0.0765
 7751SOL    HW134712   0.675   3.527   8.304 -0.9080  0.8348  1.6551
 7751SOL    HW234713   0.645   3.671   8.354 -0.3026  1.9930 -1.1497
 7752SOL     OW34714   1.625   2.273  12.268 -0.6696  0.6885 -0.4037
 7752SOL    HW134715   1.680   2.341  12.307  2.4080 -2.1333  0.2159
 7752SOL    HW234716   1.618   2.211  12.340  1.5615  1.0554  0.1335
 7753SOL     OW34717   3.511   1.532   8.064 -0.2633 -0.7545 -0.1015
 7753SOL    HW134718   3.583   1.494   8.115 -0.3380 -2.8694 -1.5932
 7753SOL    HW234719   3.481   1.603   8.120 -1.3483 -1.7052  0.5236
 7754SOL     OW34720   4.178   2.213   5.616  0.2297 -0.0285 -0.2674
 7754SOL    HW134721   4.252   2.259   5.576  0.7220 -0.7059 -0.1451
 7754SOL    HW234722   4.156   2.271   5.688  0.0877  0.1159 -0.4274
 7755SOL     OW34723   2.228   0.945   3.952 -0.3891  0.2894  0.2844
 7755SOL    HW134724   2.286   0.892   4.007 -0.5705 -0.4782 -0.2600
 7755SOL    HW234725   2.158   0.885   3.928  2.1674 -1.8012 -1.8718
 7756SOL     OW34726   1.569   3.687  15.425 -0.9524  0.1170 -0.3160
 7756SOL    HW134727   1.657   3.686  15.463 -0.9012  1.9314 -0.3895
 7756SOL    HW234728   1.550   3.780  15.425  0.8215  0.4686  2.7573
 7757SOL     OW34729   0.097   1.141  14.707 -0.2557  0.0895 -0.1265
 7757SOL    HW134730   0.159   1.212  14.725 -0.1960  0.0745 -0.2765
 7757SOL    HW234731   0.105   1.138  14.612 -1.8392  3.3298 -0.3737
 7758SOL     OW34732   3.888   2.804   1.752  0.2230 -0.7777  0.0988
 7758SOL    HW134733   3.881   2.718   1.710 -0.1121  0.0660 -1.5738
 7758SOL    HW234734   3.854   2.773   1.836 -0.7429 -0.6410 -0.2380
 7759SOL     OW34735   0.183   3.406   8.364  0.3072  0.5119 -0.2787
 7759SOL    HW134736   0.163   3.316   8.390  0.0281  0.1505 -1.8009
 7759SOL    HW234737   0.131   3.455   8.429  0.6483 -0.6840  0.8912
 7760SOL     OW34738   2.586   0.385   2.693  0.2151 -0.1956 -0.0737
 7760SOL    HW134739   2.536   0.322   2.746  2.1307 -0.6835  1.1664
 7760SOL    HW234740   2.601   0.457   2.754 -3.5016 -0.2233  0.9382
 7761SOL     OW34741   0.013   0.388   3.361 -0.4598 -0.4509 -0.6499
 7761SOL    HW134742   4.688   0.444   3.303  0.9958  1.5075 -0.0358
 7761SOL    HW234743   4.679   0.315   3.378  0.0551  0.0707  3.3129
 7762SOL     OW34744   1.175   3.157  15.592 -0.2447  0.0854  0.4807
 7762SOL    HW134745   1.251   3.214  15.607  0.1282  0.5963 -3.4310
 7762SOL    HW234746   1.180   3.098  15.667  1.4506  1.4522  1.4525
 7763SOL     OW34747   3.028   3.015   7.464 -0.3017  0.3261 -0.1704
 7763SOL    HW134748   2.984   3.006   7.549 -4.1809  2.4448 -1.9709
 7763SOL    HW234749   2.986   2.948   7.411  0.3315  0.2271 -0.5481
 7764SOL     OW34750   1.093   0.668   4.994 -0.0698  0.0349 -0.9092
 7764SOL    HW134751   1.162   0.604   4.977  0.9952  0.9583 -0.1015
 7764SOL    HW234752   1.052   0.675   4.908  0.0801 -0.8165 -1.0539
 7765SOL     OW34753   1.871   2.293   7.874  0.4100 -0.1511  0.5834
 7765SOL    HW134754   1.821   2.261   7.799 -0.9453  0.2676  1.3105
 7765SOL    HW234755   1.934   2.221   7.870  0.9977  0.2530  2.5771
 7766SOL     OW34756   4.208   1.235  17.316  0.0997  0.0585  0.3112
 7766SOL    HW134757   4.186   1.146  17.342 -2.9317  1.2310  1.8067
 7766SOL    HW234758   4.142   1.285  17.365  0.2099 -0.6858  1.2207
 7767SOL     OW34759   1.844   3.129   9.746  0.0678  0.0162  0.1617
 7767SOL    HW134760   1.767   3.138   9.801 -0.4372 -2.6338 -0.0872
 7767SOL    HW234761   1.862   3.036   9.763  0.3489  0.3835  1.8836
 7768SOL     OW34762   0.376   3.228   2.325 -0.3811 -0.6761 -0.0564
 7768SOL    HW134763   0.467   3.209   2.301  0.3441 -1.8144  3.6689
 7768SOL    HW234764   0.381   3.250   2.418 -0.7512 -1.4209  0.1397
 7769SOL     OW34765   3.950   0.583   1.295 -0.4764 -0.4725  0.5403
 7769SOL    HW134766   3.974   0.608   1.205 -2.1321 -0.1517  0.1872
 7769SOL    HW234767   4.035   0.582   1.339 -1.0796  1.5995  1.7209
 7770SOL     OW34768   4.602   0.221   6.183 -0.0649  0.3938 -0.1622
 7770SOL    HW134769   4.694   0.216   6.207  0.3352  0.4245 -1.6989
 7770SOL    HW234770   4.565   0.248   6.267  2.1312  2.4631  0.1271
 7771SOL     OW34771   0.745   2.291   4.172  0.2334 -0.3512 -0.4998
 7771SOL    HW134772   0.679   2.226   4.150 -0.6040  0.0027  0.9618
 7771SOL    HW234773   0.792   2.312   4.091  2.6860  0.8034  1.2095
 7772SOL     OW34774   1.594   1.050   7.836 -0.3386 -0.2138  0.0496
 7772SOL    HW134775   1.582   0.974   7.893 -1.6413  0.0875  0.1804
 7772SOL    HW234776   1.666   1.014   7.784  0.0276  0.3651  0.1452
 7773SOL     OW34777   4.625   3.544   9.516 -0.3341  0.8670 -0.0824
 7773SOL    HW134778   4.593   3.512   9.600 -3.2282  2.1755 -0.6926
 7773SOL    HW234779   4.594   3.479   9.454  1.7711 -0.4323  0.2061
 7774SOL     OW34780   0.417   2.598   9.598 -0.2212  0.0026 -0.6566
 7774SOL    HW134781   0.342   2.588   9.657 -0.3483 -0.9403 -0.9695
 7774SOL    HW234782   0.371   2.569   9.519  2.5380  0.5994 -2.4582
 7775SOL     OW34783   1.303   3.751   4.695  0.1311 -0.0799 -0.2890
 7775SOL    HW134784   1.388   3.717   4.721 -1.5773 -3.9499  0.3088
 7775SOL    HW234785   1.259   3.765   4.779 -1.1548 -0.9416 -0.8096
 7776SOL     OW34786   3.217   1.863   6.531 -0.0527  0.7569  0.1193
 7776SOL    HW134787   3.273   1.937   6.508 -1.9576  1.8998 -0.7650
 7776SOL    HW234788   3.144   1.887   6.475 -0.3234 -2.6522 -1.0064
 7777SOL     OW34789   0.088   4.649   8.341 -0.3310 -0.0846 -1.5088
 7777SOL    HW134790   0.080   4.616   8.251 -0.0025 -2.9112 -0.4902
 7777SOL    HW234791   0.126   0.007   8.315  1.8433  0.7320  4.4415
 7778SOL     OW34792   2.593   4.670   4.779 -0.1032 -0.0641  0.2612
 7778SOL    HW134793   2.642   4.690   4.699  0.8200  0.5797  0.9938
 7778SOL    HW234794   2.643   4.724   4.840  0.2897 -1.5784  1.2590
 7779SOL     OW34795   3.411   3.984   8.087 -0.7534  0.1037  0.0638
 7779SOL    HW134796   3.472   4.018   8.153 -0.8893  1.5528 -0.5510
 7779SOL    HW234797   3.383   3.907   8.136 -0.7605  0.4814  0.6547
 7780SOL     OW34798   2.649   1.723  13.562 -0.5588 -0.8361 -0.1587
 7780SOL    HW134799   2.700   1.802  13.547 -1.5370 -0.3734 -1.0413
 7780SOL    HW234800   2.571   1.759  13.605  1.1733  0.3643  1.9831
 7781SOL     OW34801   3.996   3.743   4.359 -0.3789 -0.2459  0.6875
 7781SOL    HW134802   4.008   3.775   4.269 -0.9466  0.5777  0.9052
 7781SOL    HW234803   4.072   3.688   4.376  1.4083  1.0303 -2.9095
 7782SOL     OW34804   2.961   1.331   3.254 -0.0313  0.1133 -0.4300
 7782SOL    HW134805   2.954   1.253   3.200  2.5199  0.3800 -1.1544
 7782SOL    HW234806   2.912   1.303   3.331 -0.6190  0.9666 -0.4898
 7783SOL     OW34807   1.753   2.795   7.649  0.5758 -0.0356  0.2534
 7783SOL    HW134808   1.745   2.707   7.686  1.7968 -0.8803 -1.4738
 7783SOL    HW234809   1.692   2.785   7.576 -0.7286  2.5588  0.9910
 7784SOL     OW34810   1.690   0.808   3.458  0.0105 -0.0672  0.5926
 7784SOL    HW134811   1.671   0.866   3.385 -1.3103  1.0283  1.8060
 7784SOL    HW234812   1.784   0.819   3.469  0.3246 -1.0295 -1.2238
 7785SOL     OW34813   0.636   1.576   2.502 -0.0572  0.2388  0.1055
 7785SOL    HW134814   0.640   1.652   2.560 -0.4008 -0.5976  1.2164
 7785SOL    HW234815   0.716   1.585   2.451 -1.5038  3.9837 -1.5617
 7786SOL     OW34816   1.646   2.135   5.301 -0.1078  0.1332  0.4592
 7786SOL    HW134817   1.739   2.157   5.293  0.1595 -1.0394  0.3425
 7786SOL    HW234818   1.646   2.064   5.238  0.3984  2.8205 -2.5391
 7787SOL     OW34819   1.524   0.935  15.602 -0.2894 -0.2135 -0.0063
 7787SOL    HW134820   1.571   0.998  15.657  0.4308 -2.0401  1.4693
 7787SOL    HW234821   1.592   0.891  15.553 -2.7948 -0.8014 -2.9685
 7788SOL     OW34822   2.610   2.733   7.122  0.1621 -0.0649 -0.5270
 7788SOL    HW134823   2.565   2.663   7.074  1.5621 -0.9419 -0.5473
 7788SOL    HW234824   2.624   2.691   7.207 -0.7008 -0.0436 -0.3716
 7789SOL     OW34825   0.943   2.217   2.677  0.2398  0.2991 -0.1824
 7789SOL    HW134826   0.894   2.135   2.674  2.7733 -1.2796  0.9375
 7789SOL    HW234827   1.034   2.187   2.683 -0.2027 -0.4553  2.8387
 7790SOL     OW34828   0.591   3.469  11.297 -0.1484 -0.0891  0.3394
 7790SOL    HW134829   0.589   3.529  11.222  0.4918 -1.3227 -0.6838
 7790SOL    HW234830   0.666   3.408  11.293 -0.5021 -0.4502 -0.8628
 7791SOL     OW34831   4.571   1.958   2.737  0.3751  0.4422  0.0211
 7791SOL    HW134832   4.499   1.926   2.792  0.0353  0.1204 -0.6133
 7791SOL    HW234833   4.615   1.873   2.735  0.1944  0.3433  0.1689
 7792SOL     OW34834   3.210   0.765   9.250  0.3774 -0.1167  0.3355
 7792SOL    HW134835   3.219   0.673   9.224 -1.6194  0.4796 -2.5132
 7792SOL    HW234836   3.116   0.760   9.267  1.0144 -1.6779  3.4148
 7793SOL     OW34837   0.073   2.026   8.349 -0.2474 -0.1970  0.1579
 7793SOL    HW134838   0.053   1.933   8.340  1.3660 -0.4354 -0.9754
 7793SOL    HW234839   0.168   2.017   8.360 -0.1176 -0.7548 -1.5029
 7794SOL     OW34840   1.734   2.457   5.095  0.1394  0.0004 -0.4421
 7794SOL    HW134841   1.651   2.444   5.140  1.4818 -1.6070  1.5225
 7794SOL    HW234842   1.720   2.412   5.011 -0.5234 -2.5245  1.0370
 7795SOL     OW34843   2.029   0.992   4.487  0.3317  0.3962 -0.4791
 7795SOL    HW134844   2.034   1.065   4.424  1.3100  1.5927  0.9800
 7795SOL    HW234845   2.005   0.919   4.430 -1.2921  0.6244 -0.0983
 7796SOL     OW34846   0.590   4.373  10.410 -0.4946 -0.3779  0.1220
 7796SOL    HW134847   0.577   4.315  10.486 -2.0842 -1.6307 -1.1166
 7796SOL    HW234848   0.522   4.341  10.351 -0.3679  0.1078 -0.2766
 7797SOL     OW34849   0.956   2.801  16.203 -0.2200 -0.2466 -0.4495
 7797SOL    HW134850   0.970   2.707  16.195  1.0653 -0.3205  2.8359
 7797SOL    HW234851   1.044   2.834  16.186  0.2134 -1.1578  0.0515
 7798SOL     OW34852   3.122   1.925   7.685  0.3761 -0.6520  0.1769
 7798SOL    HW134853   3.094   1.964   7.768 -0.9941 -0.4958 -0.3483
 7798SOL    HW234854   3.066   1.975   7.625 -0.2802 -2.2745 -0.5669
 7799SOL     OW34855   4.645   2.644  14.838  0.2169 -0.3352  0.3350
 7799SOL    HW134856   4.627   2.574  14.775  0.2334 -0.8361  0.8785
 7799SOL    HW234857   4.713   2.599  14.888  0.7774  0.8733  0.6493
 7800SOL     OW34858   0.160   0.562  10.024 -0.4016 -0.2134  0.0235
 7800SOL    HW134859   0.246   0.537  10.058  0.2597  1.5840 -0.3253
 7800SOL    HW234860   0.174   0.656  10.018 -1.6621  0.0264  1.0069
 7801SOL     OW34861   4.711   1.470   7.947 -0.6216  0.2256  0.0610
 7801SOL    HW134862   4.639   1.450   7.886  0.4264  1.1367 -1.4833
 7801SOL    HW234863   0.007   1.558   7.915 -0.7680 -0.4615 -1.9624
 7802SOL     OW34864   0.227   1.480   8.993 -0.6500 -0.2954  0.6165
 7802SOL    HW134865   0.198   1.562   8.954 -1.8123 -1.4655 -0.9775
 7802SOL    HW234866   0.179   1.416   8.940 -1.2068  1.2268 -0.7324
 7803SOL     OW34867   0.588   2.131   2.128  0.0143 -0.0101 -0.2785
 7803SOL    HW134868   0.648   2.196   2.166 -1.1247  0.2427  1.0454
 7803SOL    HW234869   0.532   2.099   2.198 -0.3575  0.9458 -0.1348
 7804SOL     OW34870   0.511   4.311  14.517  0.3245  0.8612 -0.2305
 7804SOL    HW134871   0.512   4.215  14.519  1.4490  0.9240  1.6170
 7804SOL    HW234872   0.496   4.334  14.425 -0.8322 -0.9253 -0.4988
 7805SOL     OW34873   2.697   3.372   6.424  0.2305  0.8011 -0.2113
 7805SOL    HW134874   2.780   3.340   6.390 -0.2429  0.3676 -0.9572
 7805SOL    HW234875   2.724   3.380   6.515 -2.3101  2.4812  0.4130
 7806SOL     OW34876   4.459   2.278   7.418  0.7821 -0.0661 -0.2281
 7806SOL    HW134877   4.457   2.346   7.486 -1.0020  0.8668 -1.2140
 7806SOL    HW234878   4.456   2.330   7.338 -1.2345 -0.0804 -0.1598
 7807SOL     OW34879   1.236   0.357   5.214  0.1399 -0.0545  0.4542
 7807SOL    HW134880   1.266   0.387   5.128  2.3548 -0.4729  1.0807
 7807SOL    HW234881   1.173   0.426   5.237  2.8562  1.8848  2.1394
 7808SOL     OW34882   2.871   2.966   4.220  0.4470  0.0237  0.0490
 7808SOL    HW134883   2.904   2.926   4.301 -0.8346 -0.7950  0.1728
 7808SOL    HW234884   2.922   3.047   4.217  3.1758 -1.6245  1.4052
 7809SOL     OW34885   3.009   3.965   6.268  0.4691  0.0824 -0.3788
 7809SOL    HW134886   3.069   3.893   6.245  1.1293  0.3428  0.5493
 7809SOL    HW234887   3.047   4.043   6.228  0.6786 -0.6202 -1.5668
 7810SOL     OW34888   1.031   2.580   1.465  0.1257  0.1454 -0.5513
 7810SOL    HW134889   1.010   2.665   1.505 -1.6234 -1.1038  1.1868
 7810SOL    HW234890   1.090   2.548   1.533 -2.7010 -0.7885  1.4814
 7811SOL     OW34891   4.490   4.629   7.943 -0.0683 -0.1753  0.0313
 7811SOL    HW134892   4.572   4.667   7.909 -0.2952 -0.2930 -0.6577
 7811SOL    HW234893   4.506   4.627   8.037  0.1060 -1.5120 -0.0382
 7812SOL     OW34894   3.800   3.137   2.100  0.0997 -0.4111 -0.4315
 7812SOL    HW134895   3.829   3.205   2.039  0.8983  1.1055  1.6211
 7812SOL    HW234896   3.710   3.158   2.124  0.6371  2.0345 -0.5688
 7813SOL     OW34897   1.325   2.444   0.351  0.5304 -0.2695 -0.4070
 7813SOL    HW134898   1.257   2.396   0.303 -0.3077  1.6901 -1.1602
 7813SOL    HW234899   1.406   2.396   0.332  0.9817  0.2659  0.1510
 7814SOL     OW34900   0.667   4.619  14.193 -0.1042  0.1055  0.2633
 7814SOL    HW134901   0.735   4.624  14.261 -1.5667 -0.8870  1.7860
 7814SOL    HW234902   0.715   4.648  14.115 -1.5706  2.4087  0.2042
 7815SOL     OW34903   1.259   4.634   0.204  0.8052 -0.4762 -0.1517
 7815SOL    HW134904   1.301   4.652   0.120  1.0953  0.7404  0.2490
 7815SOL    HW234905   1.321   4.582   0.255  0.3800  0.9075  1.7533
 7816SOL     OW34906   1.139   4.533   0.609  0.1954  0.0161  0.4021
 7816SOL    HW134907   1.221   4.583   0.607  1.9672 -2.8230  3.0426
 7816SOL    HW234908   1.112   4.547   0.700 -1.6185 -2.3766  0.2231
 7817SOL     OW34909   0.266   2.779   6.414  0.4385 -0.4185 -0.0082
 7817SOL    HW134910   0.291   2.688   6.433  1.2324 -0.4690 -1.3337
 7817SOL    HW234911   0.249   2.815   6.501  4.6726 -1.1629  1.1127
 7818SOL     OW34912   0.661   4.245   9.328 -0.1501  0.1246  0.2761
 7818SOL    HW134913   0.623   4.328   9.359 -1.5859 -0.6864  0.6661
 7818SOL    HW234914   0.753   4.269   9.319 -0.0339  0.0767  1.2861
 7819SOL     OW34915   2.473   0.401   3.554  0.3858  0.6024 -0.4357
 7819SOL    HW134916   2.394   0.455   3.546 -1.0809 -1.6733 -1.3149
 7819SOL    HW234917   2.543   0.464   3.574  0.2659  1.0061 -1.2870
 7820SOL     OW34918   4.443   4.475   0.844  0.2923 -0.1373  0.2114
 7820SOL    HW134919   4.530   4.503   0.869  0.5630  0.1577 -1.0569
 7820SOL    HW234920   4.461   4.381   0.846 -0.5088 -0.3227 -1.0353
 7821SOL     OW34921   0.412   1.093  15.712  0.0646  0.5280 -0.1666
 7821SOL    HW134922   0.378   1.175  15.747 -0.2864  1.1494 -1.9982
 7821SOL    HW234923   0.506   1.108  15.724  0.0362 -0.7549  1.7273
 7822SOL     OW34924   4.489   0.108  13.935  0.2218  0.1749 -0.0796
 7822SOL    HW134925   4.564   0.115  13.994  1.0505  2.3108 -1.3868
 7822SOL    HW234926   4.455   0.197  13.944 -0.9039 -0.1962 -0.6541
 7823SOL     OW34927   4.346   4.252  10.390 -0.7049  0.0795  0.0222
 7823SOL    HW134928   4.324   4.270  10.299 -0.2376 -0.1460 -0.1357
 7823SOL    HW234929   4.256   4.239  10.422  1.0392 -2.3467  3.8772
 7824SOL     OW34930   3.029   4.090   2.327 -0.1049  0.7540  0.2456
 7824SOL    HW134931   2.944   4.130   2.347 -1.3607 -1.3075 -0.8452
 7824SOL    HW234932   3.079   4.169   2.307  1.5957 -0.8564 -1.9292
 7825SOL     OW34933   0.495   1.498   4.607  0.1010  0.0764  0.5381
 7825SOL    HW134934   0.421   1.463   4.558  0.3631  0.0148  0.1851
 7825SOL    HW234935   0.466   1.486   4.697 -0.4379  3.1070  0.7529
 7826SOL     OW34936   2.430   0.472   7.530 -0.0110 -0.0270 -0.7720
 7826SOL    HW134937   2.519   0.502   7.551  0.1381  0.1778 -1.6594
 7826SOL    HW234938   2.454   0.380   7.521 -1.2134 -0.1409 -3.0460
 7827SOL     OW34939   4.316   1.813  12.472  0.0127  0.0899 -0.4343
 7827SOL    HW134940   4.260   1.757  12.525  0.4873  0.3763  0.3643
 7827SOL    HW234941   4.290   1.784  12.385  1.9157  0.2660 -1.0766
 7828SOL     OW34942   2.772   1.536   5.744 -0.5240  0.3561  0.0766
 7828SOL    HW134943   2.796   1.572   5.659 -0.9988  0.7243  0.1015
 7828SOL    HW234944   2.794   1.443   5.738  3.2279  1.2728 -0.6451
 7829SOL     OW34945   3.625   1.419   6.433  0.3864 -0.3183  0.0905
 7829SOL    HW134946   3.693   1.392   6.372 -0.3050  1.6801 -1.5571
 7829SOL    HW234947   3.573   1.339   6.447  0.7737 -0.2842  1.7568
 7830SOL     OW34948   3.158   4.282   1.987  0.8724 -0.0212 -0.2409
 7830SOL    HW134949   3.230   4.309   1.930  0.9023 -0.7880 -0.5692
 7830SOL    HW234950   3.080   4.318   1.943 -1.4512 -0.7373  3.3125
 7831SOL     OW34951   1.185   2.435   2.752 -0.1918 -0.5714 -0.1442
 7831SOL    HW134952   1.110   2.466   2.701  1.6238 -0.1979 -2.5732
 7831SOL    HW234953   1.236   2.388   2.687  1.9147 -0.0072  1.1230
 7832SOL     OW34954   4.039   4.124   5.133 -0.0583  0.0533  0.2151
 7832SOL    HW134955   3.997   4.206   5.109  0.8595  0.5888  0.4712
 7832SOL    HW234956   4.128   4.145   5.105 -1.6949  2.8285 -2.8681
 7833SOL     OW34957   3.017   3.635   3.682  0.4640  0.6169  0.0641
 7833SOL    HW134958   2.972   3.567   3.631  0.1319  0.6894  0.2585
 7833SOL    HW234959   2.994   3.715   3.634 -1.1144 -0.4785 -1.0326
 7834SOL     OW34960   3.359   3.241   1.946 -0.5650  0.0726  0.2769
 7834SOL    HW134961   3.299   3.233   1.871 -0.3308  1.5964 -0.0793
 7834SOL    HW234962   3.446   3.270   1.917 -0.0041 -2.4742 -0.6398
 7835SOL     OW34963   4.197   2.000   7.009 -0.0085  0.0249 -0.4425
 7835SOL    HW134964   4.136   1.938   7.050 -0.4635  1.6259  1.3087
 7835SOL    HW234965   4.143   2.066   6.965 -0.0147 -0.5414 -1.2892
 7836SOL     OW34966   1.114   2.319   0.243  0.2026 -0.2096 -0.1582
 7836SOL    HW134967   1.087   2.282   0.327 -0.3039  0.7033  0.0827
 7836SOL    HW234968   1.086   2.253   0.179 -0.6870  0.0615 -0.0510
 7837SOL     OW34969   3.066   0.597   0.814  0.4760  1.0557  0.2455
 7837SOL    HW134970   3.066   0.682   0.857 -1.0139  1.2972 -0.2223
 7837SOL    HW234971   2.972   0.582   0.802  0.1824  2.3632  1.0016
 7838SOL     OW34972   2.178   3.251   8.497 -0.5870  0.1667  0.1055
 7838SOL    HW134973   2.169   3.158   8.474 -0.6018  0.2157 -0.0882
 7838SOL    HW234974   2.118   3.268   8.569  0.2731  0.3453  0.7734
 7839SOL     OW34975   0.037   3.091  10.675  0.5757  0.1480 -0.0196
 7839SOL    HW134976   4.691   3.070  10.616  1.2635 -0.1192 -0.7735
 7839SOL    HW234977   0.066   3.002  10.696  0.6381  0.5960  1.7836
 7840SOL     OW34978   3.516   3.947   5.028  0.1847  0.2737 -0.2874
 7840SOL    HW134979   3.514   3.872   4.969 -0.6839  1.5982 -1.9664
 7840SOL    HW234980   3.605   3.947   5.063 -0.1944 -0.2480  0.6700
 7841SOL     OW34981   4.713   2.514   6.943 -0.2103  0.1534  0.1513
 7841SOL    HW134982   4.700   2.542   7.034  0.9465  0.6410  0.1676
 7841SOL    HW234983   4.628   2.521   6.901 -0.2115 -0.6778  0.0185
 7842SOL     OW34984   3.255   3.338   4.532  0.4038 -0.3953  0.3823
 7842SOL    HW134985   3.272   3.418   4.482  0.2178 -0.5012  0.1506
 7842SOL    HW234986   3.230   3.370   4.619  1.0494  0.5364  0.2234
 7843SOL     OW34987   0.835   3.490  16.326  0.0456 -0.3031 -0.3994
 7843SOL    HW134988   0.784   3.412  16.348  0.0184 -0.4783 -1.0927
 7843SOL    HW234989   0.759   3.540  16.297 -0.3362 -1.1414 -0.8260
 7844SOL     OW34990   2.253   4.127   3.881  0.2000  0.6444  0.4713
 7844SOL    HW134991   2.214   4.207   3.845  0.3489 -0.2689 -1.7094
 7844SOL    HW234992   2.186   4.075   3.837  0.5523  1.5136 -1.0721
 7845SOL     OW34993   2.332   2.556   7.407 -0.4872  0.1454 -0.1148
 7845SOL    HW134994   2.320   2.611   7.329  1.6238  2.0341  0.8971
 7845SOL    HW234995   2.322   2.470   7.366 -0.5717  0.8443 -1.5633
 7846SOL     OW34996   0.927   1.190  12.389 -0.3915  0.1429 -0.0170
 7846SOL    HW134997   0.860   1.241  12.435 -1.5117 -0.2021 -1.2560
 7846SOL    HW234998   0.883   1.106  12.377 -0.1794  0.0200  0.0715
 7847SOL     OW34999   0.738   1.262   7.181 -0.1161 -0.2685  0.1359
 7847SOL    HW135000   0.741   1.339   7.124 -0.1211 -0.5097 -0.1919
 7847SOL    HW235001   0.659   1.277   7.232 -0.3306  0.6675 -0.4797
 7848SOL     OW35002   0.587   3.362   7.560  0.6825  0.1450 -0.7870
 7848SOL    HW135003   0.554   3.401   7.480 -3.1483  1.3090  1.3473
 7848SOL    HW235004   0.543   3.414   7.627  1.6886 -3.7488  2.9357
 7849SOL     OW35005   2.771   1.504   1.019 -0.1838 -0.6516 -0.3015
 7849SOL    HW135006   2.811   1.450   1.087 -0.9400 -1.6092 -0.6143
 7849SOL    HW235007   2.771   1.591   1.060 -1.2195 -0.5743 -0.4690
 7850SOL     OW35008   3.847   0.623   6.421  0.4492 -0.0860  0.1337
 7850SOL    HW135009   3.835   0.706   6.467  0.8534  0.2495 -0.3668
 7850SOL    HW235010   3.928   0.639   6.372  0.4421 -0.3891  0.0258
 7851SOL     OW35011   2.030   0.914   6.724  0.5607  0.7109 -0.3412
 7851SOL    HW135012   2.028   0.941   6.633 -1.3389 -0.2445 -0.5927
 7851SOL    HW235013   2.060   0.823   6.717 -0.0058  0.4628  0.4154
 7852SOL     OW35014   2.203   3.751   2.994  0.1747 -0.1284  0.0525
 7852SOL    HW135015   2.126   3.696   3.005 -0.1485  0.1107 -1.1181
 7852SOL    HW235016   2.276   3.689   3.004  1.0753  0.9113 -0.0265
 7853SOL     OW35017   2.936   2.438   8.339  0.5229  0.6039  0.3799
 7853SOL    HW135018   2.983   2.521   8.349  0.4569  0.7407 -0.5219
 7853SOL    HW235019   2.842   2.454   8.354  0.3690  0.7385 -0.7783
 7854SOL     OW35020   4.150   0.526   3.673 -0.4096  0.3759  0.2871
 7854SOL    HW135021   4.229   0.472   3.685 -0.9936 -0.3029  1.0562
 7854SOL    HW235022   4.078   0.464   3.666 -1.1219  1.4489 -1.8645
 7855SOL     OW35023   1.757   1.360   5.513 -0.3805  0.5666 -0.1236
 7855SOL    HW135024   1.765   1.282   5.458 -0.1296  1.0191 -0.7202
 7855SOL    HW235025   1.729   1.314   5.593  0.4653  3.1240  1.6498
 7856SOL     OW35026   2.328   1.004   4.261 -0.4449  0.0979  0.1606
 7856SOL    HW135027   2.269   1.080   4.259  0.8059  1.0573 -0.0182
 7856SOL    HW235028   2.274   0.950   4.318 -0.3647  1.3203  1.3971
 7857SOL     OW35029   4.410   3.510   8.499  0.2907 -0.2211  0.0953
 7857SOL    HW135030   4.346   3.439   8.502 -1.8655  1.7985  1.0345
 7857SOL    HW235031   4.381   3.561   8.574 -0.9991 -1.5090  0.4773
 7858SOL     OW35032   1.421   1.378  13.758  0.2237  0.4382 -0.5354
 7858SOL    HW135033   1.449   1.418  13.841  0.8581 -0.2083 -0.4405
 7858SOL    HW235034   1.335   1.419  13.747 -0.9310 -1.8551 -0.2295
 7859SOL     OW35035   2.487   3.191   0.936  0.3322 -0.4563 -1.1511
 7859SOL    HW135036   2.474   3.274   0.983  0.0212 -1.1025 -0.0886
 7859SOL    HW235037   2.516   3.220   0.849  0.0257  0.5372 -0.9222
 7860SOL     OW35038   0.977   1.864   4.038 -0.1569 -0.1434 -0.7536
 7860SOL    HW135039   0.964   1.943   3.986  1.9742 -0.2050 -1.3589
 7860SOL    HW235040   0.979   1.794   3.972 -0.1278 -1.0531  0.2067
 7861SOL     OW35041   3.440   0.375  16.592  0.0396  0.4922  0.2199
 7861SOL    HW135042   3.375   0.350  16.526 -1.4659 -2.9403  2.9770
 7861SOL    HW235043   3.409   0.462  16.618 -2.0314 -0.5030  1.0780
 7862SOL     OW35044   4.234   2.623   5.236  0.5111  0.3650  0.0140
 7862SOL    HW135045   4.175   2.661   5.170 -0.3906 -0.6696  0.2195
 7862SOL    HW235046   4.315   2.668   5.212  2.3078 -1.9724  1.7306
 7863SOL     OW35047   1.840   0.049   6.891  0.1314 -0.2138  0.2723
 7863SOL    HW135048   1.853   0.121   6.829 -2.0582 -1.6069 -1.8174
 7863SOL    HW235049   1.901   0.075   6.959  1.8958 -0.8778 -1.0538
 7864SOL     OW35050   0.236   0.986  13.038  0.0291  0.1098 -0.3784
 7864SOL    HW135051   0.310   0.939  13.000 -0.1363 -1.5569  1.3628
 7864SOL    HW235052   0.243   0.966  13.131 -1.0519  1.5937  0.0211
 7865SOL     OW35053   1.628   4.629   3.494  0.3304 -0.1340 -0.3246
 7865SOL    HW135054   1.592   4.542   3.510 -0.3847  0.2983  0.4263
 7865SOL    HW235055   1.640   4.657   3.585 -0.8896  0.7708 -0.4492
 7866SOL     OW35056   2.298   3.207   4.470  0.0663  0.1431 -0.1528
 7866SOL    HW135057   2.223   3.231   4.525 -0.8467 -0.7476 -1.0007
 7866SOL    HW235058   2.305   3.112   4.483 -0.3152  0.4147  2.1315
 7867SOL     OW35059   1.201   2.916  13.146 -0.3131  0.5203 -0.6179
 7867SOL    HW135060   1.253   2.887  13.220  0.7279  0.4562 -1.3725
 7867SOL    HW235061   1.264   2.964  13.092  0.2599 -2.7805 -2.8997
 7868SOL     OW35062   4.471   2.942   9.071 -0.0929 -0.4443 -0.0513
 7868SOL    HW135063   4.482   3.032   9.041 -0.7324  0.0986  1.3597
 7868SOL    HW235064   4.556   2.903   9.050 -0.1979 -1.3229  1.1556
 7869SOL     OW35065   1.234   3.543   4.307 -0.5307  0.0640  0.1991
 7869SOL    HW135066   1.317   3.589   4.317 -1.0540  0.8225  1.0936
 7869SOL    HW235067   1.181   3.559   4.385  2.6103 -2.1460  2.7550
 7870SOL     OW35068   1.188   3.510   0.244 -0.1887  0.8929  0.0498
 7870SOL    HW135069   1.283   3.522   0.237 -0.1749 -0.9711 -3.2459
 7870SOL    HW235070   1.161   3.560   0.321 -1.3561 -0.1164  0.3152
 7871SOL     OW35071   0.480   4.402  11.219 -0.7589 -0.0697 -0.0013
 7871SOL    HW135072   0.533   4.329  11.250  0.1630  0.2908 -0.7385
 7871SOL    HW235073   0.459   4.384  11.127 -1.3690  0.8631 -0.0476
 7872SOL     OW35074   3.988   4.583  12.214 -0.8776  0.5910 -0.5126
 7872SOL    HW135075   3.959   4.519  12.278 -1.6096  0.2928 -1.1401
 7872SOL    HW235076   4.013   4.651  12.277  0.5186 -0.9834  0.6312
 7873SOL     OW35077   1.067   0.559   5.283  0.2919  0.0475  0.4986
 7873SOL    HW135078   1.051   0.606   5.365  0.4389  1.3319 -0.2135
 7873SOL    HW235079   1.082   0.632   5.222  3.2270 -1.8325 -0.9976
 7874SOL     OW35080   0.166   1.804   6.927  0.1432 -0.1143  0.1539
 7874SOL    HW135081   0.099   1.858   6.886 -1.1871 -0.6340  1.6324
 7874SOL    HW235082   0.129   1.719   6.902 -1.1892  0.6016 -0.2755
 7875SOL     OW35083   1.383   0.580   2.996  0.1697 -0.0717  1.0278
 7875SOL    HW135084   1.420   0.620   3.075  1.2939  2.0456 -0.5864
 7875SOL    HW235085   1.447   0.622   2.939 -1.2051 -0.1384 -0.5742
 7876SOL     OW35086   0.164   2.449   3.747  0.2528 -0.1380  0.1097
 7876SOL    HW135087   0.083   2.470   3.793  1.4251  1.9052  1.2586
 7876SOL    HW235088   0.218   2.528   3.741  1.8341 -1.3473 -1.8702
 7877SOL     OW35089   3.287   3.542   7.741 -0.0900  0.1838 -0.2918
 7877SOL    HW135090   3.375   3.509   7.758  0.0286  0.7514  0.1813
 7877SOL    HW235091   3.276   3.596   7.819  0.7528 -0.9226  0.5951
 7878SOL     OW35092   1.310   0.138   2.459 -0.8177  0.7832 -0.1710
 7878SOL    HW135093   1.295   0.044   2.456 -0.7338  0.6686  2.6087
 7878SOL    HW235094   1.396   0.144   2.418 -0.8162 -1.3754 -0.4791
 7879SOL     OW35095   4.579   3.789   4.640  0.0359 -0.0098  0.4219
 7879SOL    HW135096   4.612   3.735   4.712  0.4919  0.4799  0.5755
 7879SOL    HW235097   4.531   3.730   4.581  0.7519 -0.5389  0.3655
 7880SOL     OW35098   1.585   1.613   7.929  0.2361 -0.7107  0.4466
 7880SOL    HW135099   1.573   1.572   8.015 -0.1299 -1.4433  0.0409
 7880SOL    HW235100   1.521   1.584   7.864 -1.0454 -0.2743  1.4950
 7881SOL     OW35101   3.562   0.664   2.317  0.2678  0.1453 -0.5665
 7881SOL    HW135102   3.553   0.720   2.240  1.8890 -0.1957 -0.9811
 7881SOL    HW235103   3.632   0.605   2.293  0.0772  0.8994 -3.0173
 7882SOL     OW35104   3.293   1.736   3.293 -0.3311 -0.5270  0.2573
 7882SOL    HW135105   3.283   1.783   3.375 -2.0654  0.0280 -0.2682
 7882SOL    HW235106   3.223   1.671   3.296  1.0796 -1.9993  1.1467
 7883SOL     OW35107   0.178   1.119   7.610  0.0026  0.4520  0.2658
 7883SOL    HW135108   0.179   1.049   7.675  2.0501 -0.2839 -0.5637
 7883SOL    HW235109   0.218   1.195   7.652 -2.1077  1.7847 -0.1251
 7884SOL     OW35110   3.392   0.637  16.666  0.5159 -0.2015  0.4239
 7884SOL    HW135111   3.368   0.688  16.743  1.2734  0.9791 -0.1224
 7884SOL    HW235112   3.310   0.621  16.620  0.0845  0.7583  0.8722
 7885SOL     OW35113   1.912   1.871  14.570  0.8104 -0.0247 -0.0884
 7885SOL    HW135114   1.906   1.854  14.476 -2.7080  1.3197 -0.1143
 7885SOL    HW235115   1.931   1.781  14.597 -0.2972  0.2862  1.7010
 7886SOL     OW35116   2.818   0.303   5.097 -0.5990 -0.0963 -0.5063
 7886SOL    HW135117   2.750   0.368   5.114 -0.6460 -0.0900 -0.7122
 7886SOL    HW235118   2.799   0.288   5.004  2.5149  3.4162 -1.6927
 7887SOL     OW35119   3.530   0.897   8.126  0.2700  0.7304  0.0796
 7887SOL    HW135120   3.458   0.891   8.189  0.9820 -1.4612  0.6803
 7887SOL    HW235121   3.489   0.851   8.053 -0.7186  2.0082 -0.1631
 7888SOL     OW35122   4.238   0.058   8.351  0.1015 -0.6177 -0.5410
 7888SOL    HW135123   4.296   0.115   8.401 -2.7224  1.7647  0.0217
 7888SOL    HW235124   4.173   0.124   8.325 -0.7587 -0.4251  2.1344
 7889SOL     OW35125   4.081   0.814   5.430 -0.1579 -0.0789  0.7418
 7889SOL    HW135126   4.011   0.806   5.365  2.2533 -0.6051 -1.7684
 7889SOL    HW235127   4.079   0.730   5.477 -0.2836  0.4957  1.7574
 7890SOL     OW35128   1.414   4.315  10.355  0.4105 -0.1749 -0.3777
 7890SOL    HW135129   1.319   4.319  10.347  0.1631  0.2524  2.5109
 7890SOL    HW235130   1.429   4.229  10.395  1.4826  0.5824  0.8718
 7891SOL     OW35131   4.181   3.895   9.184 -0.3759  0.6676 -0.1549
 7891SOL    HW135132   4.152   3.934   9.267 -2.0399 -0.3909 -0.2272
 7891SOL    HW235133   4.206   3.807   9.211 -2.0910  0.3692  0.5134
 7892SOL     OW35134   0.576   0.053   7.429 -0.1227 -0.5914  0.3030
 7892SOL    HW135135   0.665   0.082   7.405 -0.5617 -0.6445 -1.3955
 7892SOL    HW235136   0.602   4.724   7.502 -1.1987  0.0999  1.1937
 7893SOL     OW35137   2.822   3.694  13.341  0.4166  0.3560  0.1992
 7893SOL    HW135138   2.819   3.624  13.405 -1.2951  1.4689  1.3437
 7893SOL    HW235139   2.915   3.693  13.322  0.9699 -1.6243  3.1907
 7894SOL     OW35140   3.405   3.573   4.436 -0.4577  0.0021  0.4640
 7894SOL    HW135141   3.435   3.662   4.418  0.4752 -0.0861  1.5826
 7894SOL    HW235142   3.458   3.548   4.512  2.0466 -2.1158 -1.9749
 7895SOL     OW35143   0.555   4.586   3.475  0.6946  0.3616 -0.3572
 7895SOL    HW135144   0.559   4.663   3.419  0.9793  1.0834  0.6669
 7895SOL    HW235145   0.650   4.575   3.480  0.6654  0.7060  0.8344
 7896SOL     OW35146   1.862   2.612  13.692 -0.0224 -0.2662 -0.2912
 7896SOL    HW135147   1.767   2.623  13.689  0.0420  0.6431  1.3266
 7896SOL    HW235148   1.891   2.673  13.623 -0.7985 -0.1012 -0.4767
 7897SOL     OW35149   3.319   1.808   8.241 -0.0736 -0.3679 -0.5872
 7897SOL    HW135150   3.284   1.872   8.304 -1.6001 -1.9468  0.1593
 7897SOL    HW235151   3.275   1.731   8.277  0.7978  0.9985  3.3553
 7898SOL     OW35152   3.873   4.558   9.154 -0.2897  0.5235 -0.7484
 7898SOL    HW135153   3.791   4.574   9.201  1.1762  1.3915  1.4904
 7898SOL    HW235154   3.852   4.473   9.116 -0.5661 -0.1260  0.8892
 7899SOL     OW35155   0.059   4.571   8.576  0.3343 -0.2232  0.2444
 7899SOL    HW135156   4.712   4.631   8.591  2.5415  2.3813  0.6643
 7899SOL    HW235157   0.069   4.586   8.482 -3.9156 -0.3576 -0.1977
 7900SOL     OW35158   0.238   1.491   3.791 -0.2162 -0.2569 -0.1432
 7900SOL    HW135159   0.159   1.440   3.769 -1.1297  2.0444 -2.1693
 7900SOL    HW235160   0.302   1.434   3.834 -0.5796  0.5225  1.4415
 7901SOL     OW35161   1.410   2.262   5.857  0.4089 -0.1664  0.2321
 7901SOL    HW135162   1.482   2.252   5.919  0.7351 -2.4932 -0.5081
 7901SOL    HW235163   1.339   2.293   5.912  1.0973  1.2938  0.2903
 7902SOL     OW35164   2.547   2.943   5.743 -0.3444  0.0360 -0.6635
 7902SOL    HW135165   2.521   2.908   5.658  1.9137 -0.1262 -1.2958
 7902SOL    HW235166   2.620   2.995   5.709 -0.1251 -1.2959 -2.1778
 7903SOL     OW35167   1.068   2.009   3.790 -0.1719 -0.0743 -0.3422
 7903SOL    HW135168   1.142   1.981   3.736  0.6755  0.2271  0.6744
 7903SOL    HW235169   0.992   2.017   3.732  0.2833 -1.0143 -1.0599
 7904SOL     OW35170   0.406   4.222   4.588 -0.3629 -0.4588 -0.3188
 7904SOL    HW135171   0.449   4.140   4.564  5.0389  2.1120  0.3931
 7904SOL    HW235172   0.329   4.196   4.637  0.5884 -0.7159  1.0380
 7905SOL     OW35173   1.532   1.908  13.568 -0.0159  0.6200 -0.1736
 7905SOL    HW135174   1.580   1.851  13.628 -1.5101  1.3844  1.7240
 7905SOL    HW235175   1.558   1.871  13.483 -0.3699  1.4582 -0.6420
 7906SOL     OW35176   4.259   1.822   6.544  0.1598 -0.4095 -0.0281
 7906SOL    HW135177   4.337   1.849   6.592  0.1771  0.5478 -0.5975
 7906SOL    HW235178   4.192   1.886   6.564  1.3867  0.2605  1.9206
 7907SOL     OW35179   4.170   1.854   2.817  0.1488 -0.2051 -0.2479
 7907SOL    HW135180   4.257   1.857   2.857  0.4110  0.6414 -0.8825
 7907SOL    HW235181   4.125   1.913   2.877  0.2309 -0.9943  0.5876
 7908SOL     OW35182   3.797   1.000  10.961  0.6926 -0.3766 -0.0409
 7908SOL    HW135183   3.738   0.929  10.986 -1.2861  1.2771  0.0163
 7908SOL    HW235184   3.848   1.016  11.040 -1.7497  3.1733  0.8246
 7909SOL     OW35185   3.378   0.854   8.757 -0.0960 -0.1608 -1.0501
 7909SOL    HW135186   3.439   0.798   8.804  0.1889 -0.5300 -1.8444
 7909SOL    HW235187   3.292   0.843   8.797  0.0577 -1.0081 -0.9495
 7910SOL     OW35188   0.246   0.568   9.248 -0.2696  0.0530  0.6980
 7910SOL    HW135189   0.218   0.656   9.224  1.1342 -0.1664 -1.8037
 7910SOL    HW235190   0.170   0.515   9.223  1.6735 -1.8037 -1.3171
 7911SOL     OW35191   3.605   3.946   2.976  0.3169 -0.6066 -0.3527
 7911SOL    HW135192   3.672   3.970   2.912  0.2132 -1.9675 -0.9722
 7911SOL    HW235193   3.581   3.857   2.949 -0.5308 -0.9119  1.4068
 7912SOL     OW35194   2.228   1.486  14.717 -0.5002 -0.2182 -0.4144
 7912SOL    HW135195   2.184   1.465  14.799  2.5467  0.9116  1.5174
 7912SOL    HW235196   2.258   1.402  14.684  1.6835  0.8440 -1.1434
 7913SOL     OW35197   0.438   2.845  13.046 -0.1713  0.1030  0.6664
 7913SOL    HW135198   0.486   2.793  13.110  0.2439  0.3429  0.5500
 7913SOL    HW235199   0.478   2.931  13.063  1.0435 -0.3335  0.0426
 7914SOL     OW35200   3.587   4.120   5.869 -0.0405  0.0490 -0.0790
 7914SOL    HW135201   3.515   4.122   5.933  0.3963 -0.9129  0.4459
 7914SOL    HW235202   3.661   4.137   5.927  0.9382 -0.7417 -1.1031
 7915SOL     OW35203   2.801   2.739  17.103 -0.6893  0.2673 -0.5062
 7915SOL    HW135204   2.830   2.691  17.181 -0.2944  0.4109 -0.5640
 7915SOL    HW235205   2.786   2.673  17.036 -0.0800 -0.9093  0.5093
 7916SOL     OW35206   3.018   1.509   7.623  0.8277 -0.4446 -0.1404
 7916SOL    HW135207   3.036   1.552   7.706 -0.9854 -1.3288  0.7139
 7916SOL    HW235208   3.072   1.555   7.560 -1.2420  1.4972 -0.4797
 7917SOL     OW35209   1.263   2.892  10.768  0.4109  0.0925  0.1661
 7917SOL    HW135210   1.273   2.938  10.852 -2.7545 -0.4769  0.8524
 7917SOL    HW235211   1.344   2.843  10.752  0.6315  0.3927  0.3671
 7918SOL     OW35212   0.722   2.905   5.384 -0.0319  0.4376 -0.1099
 7918SOL    HW135213   0.673   2.872   5.308  0.6975 -0.8372 -0.0224
 7918SOL    HW235214   0.683   2.993   5.380  0.4772  0.5953 -1.4761
 7919SOL     OW35215   2.059   0.568  15.125 -0.2655  0.1942 -0.3675
 7919SOL    HW135216   2.066   0.560  15.030  0.6868 -0.0057 -0.2854
 7919SOL    HW235217   2.121   0.503  15.159  1.8811  2.9765  0.9856
 7920SOL     OW35218   2.246   3.895   5.574  0.4136  0.1646  0.1608
 7920SOL    HW135219   2.196   3.840   5.513 -0.3307  0.7009  0.3003
 7920SOL    HW235220   2.297   3.827   5.618 -1.2477 -1.1353  0.0792
 7921SOL     OW35221   3.931   1.121   9.030 -0.8528  0.3697 -0.5738
 7921SOL    HW135222   3.970   1.205   9.055  0.9967 -0.6132 -0.1581
 7921SOL    HW235223   3.960   1.114   8.939 -0.5856  1.7210 -0.5897
 7922SOL     OW35224   4.633   4.644   7.249 -0.1048  0.4598 -0.1466
 7922SOL    HW135225   4.655   4.563   7.296  2.1694  0.3976 -1.3026
 7922SOL    HW235226   4.720   4.684   7.242  0.1276 -0.1727 -0.8614
 7923SOL     OW35227   2.717   2.988   4.774 -0.2984 -0.1935  0.3184
 7923SOL    HW135228   2.728   2.893   4.779  0.9085 -0.0491  0.3373
 7923SOL    HW235229   2.729   3.005   4.681 -0.8617  1.1506  0.4885
 7924SOL     OW35230   3.470   2.967   8.356 -0.2120  0.2963 -0.3779
 7924SOL    HW135231   3.518   2.902   8.408 -1.1894  0.2055  0.4028
 7924SOL    HW235232   3.383   2.946   8.391  0.8518 -1.0961  1.4123
 7925SOL     OW35233   1.011   2.911   5.371  0.2661 -0.5827 -0.2433
 7925SOL    HW135234   0.919   2.888   5.364  0.5817 -1.8943 -0.0705
 7925SOL    HW235235   1.050   2.830   5.404  2.0341  0.3625  0.0109
 7926SOL     OW35236   1.800   2.603   7.221 -0.0263  0.0365 -0.1132
 7926SOL    HW135237   1.782   2.697   7.211  2.1770  0.2813 -1.5684
 7926SOL    HW235238   1.745   2.572   7.149  1.3512  1.1166 -1.6253
 7927SOL     OW35239   2.561   3.287   4.498  0.4175  0.1696 -0.0784
 7927SOL    HW135240   2.584   3.364   4.446 -2.9723  1.2748  0.0475
 7927SOL    HW235241   2.469   3.274   4.475 -0.2631  0.8174  2.2432
 7928SOL     OW35242   0.063   2.517   4.112 -0.4642  0.1791 -0.0630
 7928SOL    HW135243   0.011   2.475   4.044  3.9561 -1.7967 -2.2086
 7928SOL    HW235244   0.096   2.598   4.073  0.3966  0.1202  0.5259
 7929SOL     OW35245   1.507   3.057   6.269 -0.5060  0.7556 -0.0321
 7929SOL    HW135246   1.538   3.124   6.331  4.5690 -1.4368 -0.1714
 7929SOL    HW235247   1.472   2.982   6.317 -0.2686  0.8278  0.2532
 7930SOL     OW35248   1.545   4.429   8.739  0.0892  0.1173 -0.1033
 7930SOL    HW135249   1.565   4.338   8.717  0.5331  0.5513 -1.5273
 7930SOL    HW235250   1.494   4.443   8.659 -1.3028 -1.2326  0.5531
 7931SOL     OW35251   0.442   3.768  16.722 -0.1838  0.5327 -0.4021
 7931SOL    HW135252   0.441   3.753  16.628 -0.6627  0.8995 -0.4497
 7931SOL    HW235253   0.430   3.678  16.754  1.1183  0.1814 -0.8880
 7932SOL     OW35254   3.256   4.448  10.489 -0.0924 -0.2009 -0.4673
 7932SOL    HW135255   3.205   4.491  10.421 -0.5676  0.3203  0.2136
 7932SOL    HW235256   3.281   4.521  10.545 -0.6277  0.5470 -1.2090
 7933SOL     OW35257   1.583   1.475   0.177  0.0284 -0.0067 -0.0310
 7933SOL    HW135258   1.525   1.525   0.234  0.8159  1.5405 -0.5963
 7933SOL    HW235259   1.531   1.457   0.099  1.7185 -1.2021 -0.8857
 7934SOL     OW35260   2.596   0.943   3.181  0.8128 -0.0365 -0.0150
 7934SOL    HW135261   2.595   0.855   3.220 -0.1922 -0.5795 -1.2732
 7934SOL    HW235262   2.665   0.932   3.115 -1.9120  0.8560 -3.0154
 7935SOL     OW35263   1.101   1.776   0.073  0.4331  0.1333  0.6715
 7935SOL    HW135264   1.154   1.813   0.144 -0.9936  0.1687  1.7283
 7935SOL    HW235265   1.166   1.720   0.032 -1.2284 -1.0509 -0.3750
 7936SOL     OW35266   1.410   2.686   5.504  0.0856  0.2066 -0.2866
 7936SOL    HW135267   1.326   2.729   5.490  0.4733  0.8914 -0.4723
 7936SOL    HW235268   1.387   2.619   5.569  1.6548 -0.0415  0.0100
 7937SOL     OW35269   2.887   0.960   0.964 -0.4488  0.7262 -0.5317
 7937SOL    HW135270   2.979   0.947   0.941 -0.5833 -1.2762 -0.0112
 7937SOL    HW235271   2.854   0.885   0.915  1.2568  0.6801 -1.5978
 7938SOL     OW35272   4.248   4.309   1.761  0.0433  0.7672  0.6640
 7938SOL    HW135273   4.330   4.352   1.787  2.3361 -2.0957 -1.9121
 7938SOL    HW235274   4.282   4.228   1.724  1.9151  1.0934  1.6783
 7939SOL     OW35275   0.241   0.212   6.896  0.2019  0.1785 -0.1797
 7939SOL    HW135276   0.249   0.277   6.826  0.0876  0.0068 -0.3515
 7939SOL    HW235277   0.291   0.142   6.855  0.3705  0.2308 -0.0659
 7940SOL     OW35278   3.377   2.113  15.130 -0.1089 -0.2296 -0.0036
 7940SOL    HW135279   3.324   2.091  15.053 -0.4188 -0.2390  0.2134
 7940SOL    HW235280   3.449   2.170  15.102 -1.4462  2.0671  1.1930
 7941SOL     OW35281   2.227   2.053   1.071 -0.3315 -0.1179  0.3643
 7941SOL    HW135282   2.152   2.105   1.100 -0.1539  0.3711 -0.0689
 7941SOL    HW235283   2.298   2.095   1.118  0.3680 -1.2692  0.3444
 7942SOL     OW35284   2.404   1.162   5.327 -0.0804  0.0499 -0.3691
 7942SOL    HW135285   2.456   1.199   5.255  1.2646  2.0832  1.6516
 7942SOL    HW235286   2.359   1.236   5.368  2.3076  0.3005  1.7463
 7943SOL     OW35287   2.364   2.768   5.834  0.1952 -0.5784  0.1293
 7943SOL    HW135288   2.291   2.791   5.892 -0.2973 -3.7579  0.7796
 7943SOL    HW235289   2.401   2.857   5.834 -1.2595  0.0177 -0.3515
 7944SOL     OW35290   1.738   2.522   3.250  0.2336 -0.4981  0.1801
 7944SOL    HW135291   1.785   2.587   3.198 -2.0305  0.4420 -0.6822
 7944SOL    HW235292   1.767   2.445   3.202 -0.3606 -0.4848 -0.1969
 7945SOL     OW35293   3.943   2.854   5.615 -0.1334  0.0118 -0.1758
 7945SOL    HW135294   3.940   2.767   5.655 -0.2601 -0.4361 -1.1504
 7945SOL    HW235295   4.013   2.850   5.551  0.3871  0.2334  0.3798
 7946SOL     OW35296   3.340   3.132   4.752 -0.4024  0.1284  0.4742
 7946SOL    HW135297   3.354   3.177   4.668 -0.6294  0.6416  0.7122
 7946SOL    HW235298   3.245   3.117   4.747 -0.2747 -0.4734 -0.2976
 7947SOL     OW35299   4.609   4.139   8.983  0.5330  0.0742  0.0181
 7947SOL    HW135300   4.669   4.213   8.968  0.2028  0.2183 -0.6165
 7947SOL    HW235301   4.534   4.193   9.009  1.1507  0.1085  1.7334
 7948SOL     OW35302   1.653   1.421   1.500  0.2167 -0.0422  0.2508
 7948SOL    HW135303   1.739   1.448   1.532 -0.2743  0.3082  1.2810
 7948SOL    HW235304   1.591   1.452   1.567  1.4099 -0.0057  1.3420
 7949SOL     OW35305   0.694   1.574   5.747  0.9613 -0.2204  0.6603
 7949SOL    HW135306   0.658   1.565   5.835 -0.9749 -0.0880 -0.1339
 7949SOL    HW235307   0.659   1.657   5.716 -1.0988 -1.1648  0.4730
 7950SOL     OW35308   4.601   2.690   6.605  0.0141  0.2309  0.2431
 7950SOL    HW135309   4.569   2.683   6.695  2.1944 -0.8760  0.9568
 7950SOL    HW235310   4.633   2.780   6.601  0.6161 -0.0733 -1.6856
 7951SOL     OW35311   4.603   0.120   5.939  0.7147 -0.0356  0.0298
 7951SOL    HW135312   4.591   0.207   5.901 -0.3262  0.4906  1.5967
 7951SOL    HW235313   4.624   0.136   6.031  0.3295 -0.5219  0.2030
 7952SOL     OW35314   3.845   0.114  11.285 -0.5434 -0.1365  0.2818
 7952SOL    HW135315   3.752   0.108  11.265  0.1082  0.0169 -2.7817
 7952SOL    HW235316   3.845   0.084  11.376 -3.5553 -0.1627  0.2841
 7953SOL     OW35317   0.869   1.240   5.307 -0.1701  0.0757 -0.5422
 7953SOL    HW135318   0.846   1.232   5.399 -0.4806  2.2862 -0.4153
 7953SOL    HW235319   0.875   1.335   5.295 -3.0865  0.3914  0.2391
 7954SOL     OW35320   1.010   0.792   2.876  0.2329  0.0144  0.6081
 7954SOL    HW135321   0.993   0.854   2.947  2.4099 -0.5417  1.5993
 7954SOL    HW235322   0.926   0.745   2.878  1.1392 -1.7080 -1.2310
 7955SOL     OW35323   4.439   4.303   6.938  0.5187  0.2834 -0.1696
 7955SOL    HW135324   4.423   4.252   7.017  0.4629  1.1626  0.3936
 7955SOL    HW235325   4.527   4.337   6.957  0.0928  0.2056  1.9387
 7956SOL     OW35326   3.834   0.140   6.463 -0.6254  1.1144 -0.1355
 7956SOL    HW135327   3.831   0.180   6.376  1.8516 -2.8499 -2.0719
 7956SOL    HW235328   3.739   0.130   6.466 -0.7638  1.8543 -1.8909
 7957SOL     OW35329   0.492   1.065   5.769  0.0831 -0.1726 -0.2953
 7957SOL    HW135330   0.569   1.065   5.825 -0.0634  2.1917 -0.0819
 7957SOL    HW235331   0.448   1.148   5.789  0.6655  0.0216  0.1919
 7958SOL     OW35332   1.551   0.586   9.319 -0.2535 -0.1086 -0.1998
 7958SOL    HW135333   1.549   0.492   9.300 -1.3312 -0.3908  1.3459
 7958SOL    HW235334   1.541   0.583   9.414  1.3203 -0.9904 -0.0640
 7959SOL     OW35335   4.219   3.113   1.720 -0.6603 -0.0836  0.3580
 7959SOL    HW135336   4.310   3.145   1.719 -0.2732 -1.1833 -0.2578
 7959SOL    HW235337   4.166   3.192   1.712 -0.5112  0.1604  1.8117
 7960SOL     OW35338   4.715   3.625   4.269  0.1657 -0.0797 -0.2256
 7960SOL    HW135339   0.040   3.626   4.188  0.4744  1.2281 -0.0108
 7960SOL    HW235340   0.021   3.697   4.322  3.5885 -1.2216 -0.7263
 7961SOL     OW35341   3.770   3.852   4.682 -0.4659  0.2747  0.0038
 7961SOL    HW135342   3.701   3.915   4.702 -0.1210  0.8522 -0.6137
 7961SOL    HW235343   3.824   3.866   4.760  1.6044 -1.8322 -1.0331
 7962SOL     OW35344   4.385   4.027   7.498 -0.7705  0.1415 -0.0615
 7962SOL    HW135345   4.420   3.989   7.578 -1.8344 -0.9005 -0.0969
 7962SOL    HW235346   4.399   3.951   7.441 -3.7099 -2.2591  2.4449
 7963SOL     OW35347   4.309   2.174   4.588 -0.0342  0.0074 -0.0508
 7963SOL    HW135348   4.312   2.182   4.492  0.7890 -0.3830 -0.0557
 7963SOL    HW235349   4.375   2.107   4.604 -1.2138 -1.1044  0.1831
 7964SOL     OW35350   2.894   4.056   0.780  0.5888  0.9013 -0.1065
 7964SOL    HW135351   2.967   4.083   0.836  2.4415  1.4419 -2.8169
 7964SOL    HW235352   2.838   4.134   0.785 -0.7355  0.0516 -1.9966
 7965SOL     OW35353   1.977   3.156  12.068  0.5731  0.1063 -0.4027
 7965SOL    HW135354   1.935   3.200  12.143  0.5540 -0.3135 -0.1680
 7965SOL    HW235355   1.926   3.197  11.999 -0.1152  2.6462  1.5986
 7966SOL     OW35356   0.868   4.101  13.471 -0.1925  0.2259  0.4012
 7966SOL    HW135357   0.841   4.193  13.470 -2.3365 -0.4167 -0.3369
 7966SOL    HW235358   0.942   4.112  13.411  1.0131 -0.2199  1.8096
 7967SOL     OW35359   2.450   2.037   5.224 -0.4591  0.2345 -0.1157
 7967SOL    HW135360   2.419   2.030   5.134  1.1566  3.0810 -0.8801
 7967SOL    HW235361   2.503   1.958   5.227  0.1926  0.5926 -2.4732
 7968SOL     OW35362   4.401   0.275   9.016 -0.2663 -0.3413  0.3667
 7968SOL    HW135363   4.428   0.310   9.102  0.6222 -0.2284  0.0430
 7968SOL    HW235364   4.389   0.183   9.040  0.0593 -0.3073  0.6660
 7969SOL     OW35365   3.236   0.375   7.040 -0.2131 -0.2988  0.1466
 7969SOL    HW135366   3.174   0.448   7.038  2.6250  2.0705 -0.3799
 7969SOL    HW235367   3.296   0.415   6.977  1.6236 -1.3236  1.2729
 7970SOL     OW35368   2.497   2.240   4.689 -0.3589 -0.2328  0.1631
 7970SOL    HW135369   2.545   2.300   4.746  2.2178 -1.4743 -0.6575
 7970SOL    HW235370   2.559   2.224   4.617  0.3846  0.4959  0.6410
 7971SOL     OW35371   1.313   2.650  16.288 -0.7302  0.3820 -0.1043
 7971SOL    HW135372   1.314   2.727  16.345 -1.4302 -1.9141  3.0251
 7971SOL    HW235373   1.279   2.587  16.352  1.3703 -0.4182  0.2448
 7972SOL     OW35374   3.508   2.603   2.429  0.0418  0.2312 -0.7314
 7972SOL    HW135375   3.559   2.556   2.364  0.6363 -1.3337  0.8522
 7972SOL    HW235376   3.420   2.572   2.405 -0.8543  1.8431  0.5004
 7973SOL     OW35377   0.065   1.854  11.993 -0.4017  0.0323 -0.1421
 7973SOL    HW135378   0.089   1.944  12.012  1.2650 -0.2763 -0.8012
 7973SOL    HW235379   4.703   1.871  11.961  0.6719  1.1582 -2.5280
 7974SOL     OW35380   1.219   0.574   2.189  0.5712 -0.2834 -0.4455
 7974SOL    HW135381   1.194   0.485   2.213  1.0604 -0.4549 -0.5815
 7974SOL    HW235382   1.206   0.614   2.275  0.9613 -1.7798  0.2954
 7975SOL     OW35383   0.731   2.652   7.867 -0.2730 -0.6692 -0.0141
 7975SOL    HW135384   0.709   2.721   7.804  2.3989 -0.9194 -1.2218
 7975SOL    HW235385   0.645   2.624   7.900 -0.8135  0.8773 -0.0921
 7976SOL     OW35386   2.301   0.228   4.172  0.1419 -1.0191  0.3262
 7976SOL    HW135387   2.351   0.146   4.169 -0.4270 -1.3687  0.3590
 7976SOL    HW235388   2.218   0.194   4.138 -0.1631 -1.4903  1.5270
 7977SOL     OW35389   3.076   1.001  15.617  0.4994  0.3919 -0.0378
 7977SOL    HW135390   3.085   1.075  15.557 -0.9685  0.1546 -0.5570
 7977SOL    HW235391   3.035   1.040  15.694  0.1077 -1.3599  0.6341
 7978SOL     OW35392   2.633   1.239   4.833  0.4352 -0.1583 -0.0977
 7978SOL    HW135393   2.603   1.329   4.843  0.8977  0.1308 -1.3550
 7978SOL    HW235394   2.572   1.203   4.769  0.5986 -1.8350  0.6720
 7979SOL     OW35395   1.727   0.042  10.220  0.2894  0.3577 -0.4359
 7979SOL    HW135396   1.685   0.051  10.305 -1.2779 -1.6909 -0.9940
 7979SOL    HW235397   1.744   0.133  10.194  0.1273  0.1250 -1.3750
 7980SOL     OW35398   3.496   2.697  16.244  0.2767  0.2518  0.2770
 7980SOL    HW135399   3.453   2.659  16.321  1.4459 -0.2766  0.6748
 7980SOL    HW235400   3.575   2.738  16.280  1.0820  2.1035 -3.5664
 7981SOL     OW35401   0.870   1.616   7.754  0.2877 -0.0272  0.3124
 7981SOL    HW135402   0.902   1.703   7.779  1.8655 -0.7275  0.6919
 7981SOL    HW235403   0.855   1.628   7.660  0.7169 -0.1010  0.2332
 7982SOL     OW35404   3.700   0.999   7.544 -0.1421 -0.1250 -0.0183
 7982SOL    HW135405   3.658   1.017   7.628  0.5730  0.5637  0.1908
 7982SOL    HW235406   3.792   1.027   7.547 -0.0148 -0.4348 -1.0280
 7983SOL     OW35407   2.364   1.709  13.371  0.3250 -0.3191 -0.5288
 7983SOL    HW135408   2.412   1.632  13.343 -0.2257 -0.1925 -1.8318
 7983SOL    HW235409   2.443   1.756  13.399 -0.1782 -0.7265  1.5337
 7984SOL     OW35410   0.511   1.129   0.607 -0.6871 -0.4196 -0.0860
 7984SOL    HW135411   0.471   1.168   0.685 -2.9787 -1.0707 -0.9728
 7984SOL    HW235412   0.439   1.123   0.545 -0.3000 -1.8495 -0.4069
 7985SOL     OW35413   3.985   3.790   3.706  0.1353 -0.3479 -0.0577
 7985SOL    HW135414   4.041   3.728   3.658  0.2507 -0.2192 -0.0896
 7985SOL    HW235415   4.028   3.865   3.664  2.4648 -1.6670 -0.0356
 7986SOL     OW35416   3.508   1.211   8.027 -0.2438  0.1694 -0.4616
 7986SOL    HW135417   3.428   1.169   7.994  0.4258 -1.7874  0.3843
 7986SOL    HW235418   3.495   1.303   8.004 -0.7524 -0.0114 -0.9089
 7987SOL     OW35419   3.996   2.233   9.685 -0.2510  0.8606 -0.0408
 7987SOL    HW135420   4.002   2.292   9.609 -2.1874 -0.2335 -1.0392
 7987SOL    HW235421   3.915   2.186   9.665  0.7718 -0.3858 -1.2531
 7988SOL     OW35422   2.505   1.184  17.231 -0.6074  0.2299 -0.1016
 7988SOL    HW135423   2.555   1.122  17.283 -1.7631  1.2682  2.2290
 7988SOL    HW235424   2.498   1.243  17.306 -2.6273  1.1499 -1.0211
 7989SOL     OW35425   1.883   0.538   3.946 -0.2698 -0.3171 -0.3611
 7989SOL    HW135426   1.805   0.579   3.984  1.4905  0.4104  2.5540
 7989SOL    HW235427   1.851   0.449   3.934 -1.5421 -0.0411  1.0238
 7990SOL     OW35428   4.511   4.572  11.248  0.8149 -0.0391  0.2787
 7990SOL    HW135429   4.580   4.544  11.308  0.8833  0.5361  0.4689
 7990SOL    HW235430   4.480   4.491  11.207  2.8764 -0.4344 -0.4555
 7991SOL     OW35431   0.006   0.098  11.340  0.2679 -0.5779  0.5111
 7991SOL    HW135432   0.097   0.110  11.364  0.5457  1.6464 -1.7086
 7991SOL    HW235433   4.693   0.027  11.391 -0.6729 -1.3460 -1.2965
 7992SOL     OW35434   1.246   2.001   8.162  0.1001 -0.2592  0.3653
 7992SOL    HW135435   1.170   1.960   8.204 -1.5025 -1.2761 -3.5909
 7992SOL    HW235436   1.312   1.994   8.231 -0.1651 -1.6043  0.4805
 7993SOL     OW35437   3.272   4.458   0.514 -0.4122 -0.1895  0.0803
 7993SOL    HW135438   3.179   4.463   0.538 -0.4013 -0.9810  0.2861
 7993SOL    HW235439   3.308   4.525   0.572 -1.6630  0.4787  0.0814
 7994SOL     OW35440   1.792   0.245   4.028  0.1784  0.3898 -1.2576
 7994SOL    HW135441   1.712   0.280   3.989  1.1521  1.2269 -2.5242
 7994SOL    HW235442   1.766   0.155   4.045 -1.9196  1.2902  0.3428
 7995SOL     OW35443   4.025   1.243   8.117  0.2761 -0.1352 -0.7789
 7995SOL    HW135444   4.024   1.174   8.184  0.0909  1.0319  0.4360
 7995SOL    HW235445   4.012   1.320   8.173  0.6623 -0.3820 -0.3466
 7996SOL     OW35446   1.688   4.461   4.003 -0.0688  0.5196 -0.0361
 7996SOL    HW135447   1.683   4.378   3.956  1.2728  0.2719  0.2634
 7996SOL    HW235448   1.781   4.477   4.017 -0.3515  0.8659  1.4444
 7997SOL     OW35449   4.449   0.149   4.616  0.2302 -0.2149 -0.0234
 7997SOL    HW135450   4.520   0.179   4.559  0.3082  0.6987  0.5600
 7997SOL    HW235451   4.449   0.055   4.600 -0.1584  0.1456 -2.1693
 7998SOL     OW35452   3.928   3.778   3.295  0.1677 -0.2589  0.7455
 7998SOL    HW135453   3.835   3.762   3.281 -0.0547  1.3013  0.4514
 7998SOL    HW235454   3.944   3.812   3.207 -0.7644 -1.9832 -0.1088
 7999SOL     OW35455   1.664   0.728   8.505  0.1543  0.0943 -0.0387
 7999SOL    HW135456   1.676   0.636   8.483  1.9372  0.1610  0.7226
 7999SOL    HW235457   1.679   0.706   8.597 -0.5551  0.7479  0.2326
 8000SOL     OW35458   3.376   3.724  13.735 -0.6422  0.4092  0.0197
 8000SOL    HW135459   3.334   3.746  13.652  1.5432  0.9755 -0.9190
 8000SOL    HW235460   3.295   3.717  13.786  0.4745 -1.1236  1.5423
 8001SOL     OW35461   4.252   1.685   8.869  0.5534  0.6109 -0.6896
 8001SOL    HW135462   4.331   1.709   8.821 -0.7275 -1.2693 -3.7097
 8001SOL    HW235463   4.191   1.681   8.795  0.3912  0.5080 -0.5505
 8002SOL     OW35464   1.012   3.096  16.238 -0.0317  0.0298 -0.0022
 8002SOL    HW135465   1.032   3.099  16.331 -2.5103  0.6244  0.4940
 8002SOL    HW235466   0.928   3.051  16.229 -0.1125  0.7355 -2.8249
 8003SOL     OW35467   2.405   2.577  13.737 -0.0617 -0.7075  0.0410
 8003SOL    HW135468   2.446   2.603  13.655 -0.9145  1.9012  0.4377
 8003SOL    HW235469   2.402   2.659  13.785  0.3517 -0.3773 -0.4991
 8004SOL     OW35470   0.053   0.188   9.979 -0.0019  0.1889  0.1381
 8004SOL    HW135471   0.134   0.153   9.942  0.9320  2.8682 -0.4002
 8004SOL    HW235472   0.024   0.125  10.046  1.6659  0.1460  0.8171
 8005SOL     OW35473   2.302   4.527   3.654 -0.2782  0.0255  0.1523
 8005SOL    HW135474   2.216   4.564   3.671  0.2012  1.8732 -1.4211
 8005SOL    HW235475   2.323   4.543   3.562  1.6082  1.2532  0.7911
 8006SOL     OW35476   3.560   3.563   3.346 -0.2506  0.3564 -0.4292
 8006SOL    HW135477   3.601   3.644   3.315  0.1148 -0.1369 -1.2522
 8006SOL    HW235478   3.498   3.569   3.273 -0.5528 -1.2569 -0.3096
 8007SOL     OW35479   0.658   0.093   8.742 -0.1829 -0.0890  0.3666
 8007SOL    HW135480   0.706   0.174   8.727 -0.6634  0.3072  0.9761
 8007SOL    HW235481   0.702   0.064   8.822  0.0649  0.0574  0.2814
 8008SOL     OW35482   1.059   3.342   3.755  0.4689 -0.4867  0.5389
 8008SOL    HW135483   1.119   3.267   3.750 -2.2338 -2.5767 -0.3932
 8008SOL    HW235484   0.986   3.326   3.814  2.5026 -6.7742  1.3502
 8009SOL     OW35485   0.798   1.313   1.338  0.4031 -0.6762 -0.1341
 8009SOL    HW135486   0.740   1.236   1.336  0.4594 -0.6689 -2.5292
 8009SOL    HW235487   0.756   1.388   1.296  2.6070  1.3615  1.3654
 8010SOL     OW35488   3.788   3.520  15.424 -0.0647 -0.4473  0.6248
 8010SOL    HW135489   3.816   3.600  15.467  2.3784 -0.4546 -0.9402
 8010SOL    HW235490   3.695   3.541  15.411 -0.2742 -1.8369 -0.2221
 8011SOL     OW35491   3.601   4.624   4.061  0.0940 -1.0775 -0.3460
 8011SOL    HW135492   3.568   4.536   4.045  1.7587 -1.3592 -2.1990
 8011SOL    HW235493   3.671   4.591   4.118 -0.4919  0.7614  1.4709
 8012SOL     OW35494   3.668   2.006   5.224  0.3370  0.0802  0.3106
 8012SOL    HW135495   3.728   2.078   5.205 -1.2779  1.0962 -0.9494
 8012SOL    HW235496   3.724   1.960   5.286 -0.6944  0.2445  1.3712
 8013SOL     OW35497   3.161   4.137   3.867 -0.4555 -0.2992  0.4123
 8013SOL    HW135498   3.177   4.070   3.800 -0.5930 -0.2270  0.3091
 8013SOL    HW235499   3.167   4.073   3.938  1.5606 -0.1959  0.3585
 8014SOL     OW35500   2.884   2.066   6.887  0.2364  0.2630 -0.0441
 8014SOL    HW135501   2.960   2.105   6.929 -0.4438  0.2031  1.2457
 8014SOL    HW235502   2.884   1.981   6.930 -0.1247  0.7732  0.9495
 8015SOL     OW35503   3.787   4.182   4.695  0.1926 -0.0207  0.1409
 8015SOL    HW135504   3.746   4.265   4.722  1.2818  1.0673 -1.5159
 8015SOL    HW235505   3.729   4.152   4.625  0.0586 -2.6707  1.3938
 8016SOL     OW35506   0.308   0.220  15.627 -0.2036 -0.1890  0.3321
 8016SOL    HW135507   0.230   0.171  15.651  0.4588 -1.4143  0.0227
 8016SOL    HW235508   0.277   0.299  15.582  0.9110 -0.6999 -1.3594
 8017SOL     OW35509   2.473   0.707   9.000  0.5282 -0.6755 -0.0511
 8017SOL    HW135510   2.557   0.666   8.980  1.5640  0.8583  1.1053
 8017SOL    HW235511   2.442   0.654   9.073  0.8751  0.0805  0.6522
 8018SOL     OW35512   4.594   3.255   6.183  0.7518  0.6726 -0.5212
 8018SOL    HW135513   4.600   3.321   6.115 -1.7141  1.1366 -0.2563
 8018SOL    HW235514   4.583   3.315   6.256  0.0535  3.0010 -2.5599
 8019SOL     OW35515   2.943   2.047   4.572 -0.2412  0.2090  0.6921
 8019SOL    HW135516   3.009   1.987   4.538 -0.4731 -1.3565  2.9615
 8019SOL    HW235517   2.966   2.063   4.663  1.3844 -0.7874  0.4563
 8020SOL     OW35518   1.283   2.793   6.090  0.0408  0.1015 -0.1796
 8020SOL    HW135519   1.284   2.714   6.036 -0.3246 -0.0124 -0.0214
 8020SOL    HW235520   1.195   2.829   6.080  1.5319  2.7171 -3.9877
 8021SOL     OW35521   4.096   0.236   8.625 -0.3030  0.7712 -0.1755
 8021SOL    HW135522   4.115   0.300   8.556 -1.5897  0.7960 -0.5029
 8021SOL    HW235523   4.002   0.218   8.624 -0.3582  0.9609  1.7138
 8022SOL     OW35524   4.100   0.659   1.073 -0.3844  0.1161  0.0117
 8022SOL    HW135525   4.195   0.658   1.086 -0.2420 -0.0682 -1.0773
 8022SOL    HW235526   4.084   0.724   1.005 -2.1038  0.4038  0.6920
 8023SOL     OW35527   2.700   1.892   2.107  0.3748 -0.0494 -0.9512
 8023SOL    HW135528   2.674   1.983   2.122 -0.3190 -0.5460  0.9077
 8023SOL    HW235529   2.690   1.888   2.012 -0.6072 -1.4101 -0.7854
 8024SOL     OW35530   0.849   0.632   1.225  0.0585  0.2247  0.1188
 8024SOL    HW135531   0.888   0.719   1.218  0.9177 -0.2588 -1.1292
 8024SOL    HW235532   0.928   0.581   1.209 -0.0191 -0.0578  0.6066
 8025SOL     OW35533   1.066   0.698   3.768  0.1272  0.3259 -0.2380
 8025SOL    HW135534   1.090   0.786   3.798  0.3734 -0.6102  2.3627
 8025SOL    HW235535   1.069   0.719   3.675  0.2166 -1.2258 -0.5813
 8026SOL     OW35536   1.232   4.492   5.775 -0.6326 -0.0925 -0.2179
 8026SOL    HW135537   1.231   4.588   5.774 -0.3199 -0.0747  0.6394
 8026SOL    HW235538   1.145   4.475   5.738 -0.4577 -0.4002 -0.4850
 8027SOL     OW35539   1.571   2.047  13.018  0.6107 -0.0621  0.0134
 8027SOL    HW135540   1.664   2.045  12.996  0.4378 -2.1004 -0.4961
 8027SOL    HW235541   1.534   2.022  12.933 -0.9770  0.0058  0.6839
 8028SOL     OW35542   3.539   0.466   1.920 -0.4528 -0.1787 -0.0861
 8028SOL    HW135543   3.452   0.431   1.936 -0.6637  0.1653 -0.4507
 8028SOL    HW235544   3.576   0.402   1.859  0.8903  1.1140 -0.6282
 8029SOL     OW35545   3.411   0.351   3.648 -0.1701  0.2037  0.2346
 8029SOL    HW135546   3.320   0.321   3.645  0.5960 -2.3764  2.9328
 8029SOL    HW235547   3.395   0.434   3.693 -1.1452 -0.2203  0.6672
 8030SOL     OW35548   1.139   3.796   6.153  1.0925 -0.0593 -0.1661
 8030SOL    HW135549   1.176   3.716   6.188  2.7307  0.6752 -0.2446
 8030SOL    HW235550   1.201   3.814   6.083  0.6426 -0.0983 -0.5708
 8031SOL     OW35551   1.005   1.377   4.475  0.5565 -0.1623  0.1059
 8031SOL    HW135552   0.920   1.355   4.514  1.2717 -1.7286  0.8023
 8031SOL    HW235553   0.989   1.469   4.456  0.2878  0.0157  1.1735
 8032SOL     OW35554   2.126   0.224   3.781  0.0464  0.2205  0.0164
 8032SOL    HW135555   2.120   0.264   3.695  0.3934  2.2725  0.9456
 8032SOL    HW235556   2.221   0.234   3.785  0.2820 -1.1875 -2.2145
 8033SOL     OW35557   1.347   3.636  14.980  0.6308 -0.1955 -0.2131
 8033SOL    HW135558   1.409   3.568  15.007  0.7732  0.0348  0.0380
 8033SOL    HW235559   1.400   3.716  14.983  0.8116 -0.3602  1.1575
 8034SOL     OW35560   2.650   0.232   4.579 -0.1463 -0.5045 -0.4544
 8034SOL    HW135561   2.673   0.186   4.498 -0.5267  0.1379 -0.9293
 8034SOL    HW235562   2.602   0.300   4.531 -0.3081 -0.3724 -0.1082
 8035SOL     OW35563   4.429   2.825  15.954 -0.0459  0.0474 -0.0369
 8035SOL    HW135564   4.406   2.832  15.862 -2.1981 -1.4491  0.3870
 8035SOL    HW235565   4.473   2.739  15.953  0.4960  0.3485 -1.7937
 8036SOL     OW35566   2.641   2.440  12.074  0.2310  0.0204 -0.0111
 8036SOL    HW135567   2.622   2.369  12.013 -0.3546 -1.0083  1.3628
 8036SOL    HW235568   2.553   2.461  12.107  0.0673 -0.4541 -0.1546
 8037SOL     OW35569   1.407   0.422  15.656  0.1032 -0.4177  0.2804
 8037SOL    HW135570   1.313   0.408  15.648  0.3036 -0.5172 -1.8848
 8037SOL    HW235571   1.433   0.335  15.688 -1.9465 -0.6450  1.2606
 8038SOL     OW35572   2.383   2.324   7.734  0.6697 -0.2465  0.1534
 8038SOL    HW135573   2.346   2.412   7.744  1.8580  0.4360 -1.5277
 8038SOL    HW235574   2.312   2.264   7.761 -0.4716  1.0940  0.1370
 8039SOL     OW35575   4.076   2.076   2.446  0.3939 -0.5001  0.8120
 8039SOL    HW135576   4.158   2.079   2.397  0.6884  0.4143  1.3695
 8039SOL    HW235577   4.102   2.100   2.535  0.6174  1.7079  0.1371
 8040SOL     OW35578   3.175   0.707   5.779 -0.3631  0.2182  0.3092
 8040SOL    HW135579   3.123   0.706   5.698 -0.1116  0.5967  0.1429
 8040SOL    HW235580   3.201   0.799   5.783  3.3920 -0.9708  3.0060
 8041SOL     OW35581   4.270   4.594   1.035  0.0474 -0.8400  0.2109
 8041SOL    HW135582   4.307   4.555   0.956  0.3752  1.6811 -0.9103
 8041SOL    HW235583   4.177   4.574   1.026 -0.0218  0.1489 -1.4076
 8042SOL     OW35584   4.257   0.593  17.452 -0.3536  0.2177 -0.1987
 8042SOL    HW135585   4.339   0.617  17.408 -0.5684  1.9375  0.3369
 8042SOL    HW235586   4.295   0.529  17.512 -1.6297 -0.1902  0.1552
 8043SOL     OW35587   0.016   3.177   9.398 -0.9219  0.2107  0.2010
 8043SOL    HW135588   0.109   3.200   9.403 -0.7651 -0.6129  1.0247
 8043SOL    HW235589   0.016   3.088   9.434  2.5067  0.1247 -0.0012
 8044SOL     OW35590   1.665   4.519  12.470  0.0423 -0.2151 -0.3049
 8044SOL    HW135591   1.751   4.548  12.499 -0.3072  1.2614 -0.7536
 8044SOL    HW235592   1.697   4.432  12.448 -0.1469  0.0188 -1.5042
 8045SOL     OW35593   3.964   2.726   4.575 -0.3252  0.0100  0.9622
 8045SOL    HW135594   3.944   2.637   4.545  3.3963 -0.1863 -0.9305
 8045SOL    HW235595   4.037   2.706   4.634  0.8268 -0.4745 -0.6467
 8046SOL     OW35596   4.119   2.161   2.695 -0.5778 -0.4350 -0.1000
 8046SOL    HW135597   4.042   2.204   2.732 -0.6847 -1.2209  0.6057
 8046SOL    HW235598   4.185   2.182   2.762 -0.9896 -1.2628  0.5636
 8047SOL     OW35599   3.213   4.511  14.052 -0.0620 -0.6268 -0.0348
 8047SOL    HW135600   3.140   4.516  13.990  1.2015  2.8298 -1.2409
 8047SOL    HW235601   3.218   4.604  14.077  1.9439 -0.8954  0.5454
 8048SOL     OW35602   0.930   4.712   6.657  0.1381 -0.3681 -0.1665
 8048SOL    HW135603   1.007   4.657   6.644 -1.4077 -2.2277 -1.4929
 8048SOL    HW235604   0.949   0.014   6.747  3.3744 -0.6940 -0.7614
 8049SOL     OW35605   1.300   2.105   4.240  0.4002  0.5618  0.4364
 8049SOL    HW135606   1.354   2.057   4.177  0.3797  0.1359  0.7406
 8049SOL    HW235607   1.228   2.139   4.186  0.8507 -0.5150 -0.8273
 8050SOL     OW35608   1.971   4.026   8.487  0.4007 -0.8801  0.1959
 8050SOL    HW135609   2.037   4.010   8.554  0.7235 -0.9067 -0.1285
 8050SOL    HW235610   1.887   3.991   8.516  0.0111  2.0382  2.6556
 8051SOL     OW35611   1.909   1.084   4.902  0.2293  0.2505 -0.2921
 8051SOL    HW135612   1.867   1.141   4.838 -0.4491  0.7102  0.5808
 8051SOL    HW235613   1.992   1.132   4.909  0.9457 -1.0497  0.1302
 8052SOL     OW35614   0.262   2.632   3.060 -0.6378 -0.0844  1.0016
 8052SOL    HW135615   0.203   2.557   3.053 -1.5098  0.4878  2.1897
 8052SOL    HW235616   0.303   2.609   3.143  0.0599 -1.4934  0.2579
 8053SOL     OW35617   1.523   3.075   4.527  0.6421  0.7087  0.1066
 8053SOL    HW135618   1.494   3.065   4.617  0.1316  0.5240 -0.0768
 8053SOL    HW235619   1.579   2.997   4.525  1.1881  1.1081 -0.6300
 8054SOL     OW35620   3.572   0.150  11.307  0.0192 -0.5144 -0.0631
 8054SOL    HW135621   3.504   0.087  11.287 -0.7084  0.2218  0.0983
 8054SOL    HW235622   3.515   0.214  11.351  2.6781  2.0022 -0.2537
 8055SOL     OW35623   4.678   1.726   2.735  0.1268  0.0222 -0.3528
 8055SOL    HW135624   0.034   1.683   2.711  0.2371  0.0662 -0.0468
 8055SOL    HW235625   4.621   1.682   2.671 -0.0616  1.5863 -1.2527
 8056SOL     OW35626   4.393   4.158  13.538 -0.2941 -0.2512  0.5420
 8056SOL    HW135627   4.306   4.173  13.501  0.1867  1.6967  0.1986
 8056SOL    HW235628   4.404   4.251  13.556  3.3606 -0.5626 -0.2220
 8057SOL     OW35629   1.532   4.149   8.664  0.7214  0.4296  0.9813
 8057SOL    HW135630   1.462   4.104   8.616  0.2423  0.0492  2.0168
 8057SOL    HW235631   1.510   4.120   8.753 -4.0336 -0.7684 -0.5711
 8058SOL     OW35632   2.749   1.260   7.959  0.0817  0.5372  0.4054
 8058SOL    HW135633   2.680   1.272   7.895  0.2173  1.0818  0.3562
 8058SOL    HW235634   2.710   1.212   8.032  1.2754  1.7234  1.8545
 8059SOL     OW35635   0.919   2.468   2.582 -0.7712 -0.3789 -0.5281
 8059SOL    HW135636   0.931   2.376   2.605  0.4840  0.2327  1.2172
 8059SOL    HW235637   0.855   2.495   2.648 -2.6449  0.8163 -2.8547
 8060SOL     OW35638   4.275   3.680  16.140 -0.0533 -0.1187  0.4851
 8060SOL    HW135639   4.280   3.770  16.173 -0.6767 -0.1652  0.7052
 8060SOL    HW235640   4.237   3.640  16.218 -0.6007  1.5692  1.0785
 8061SOL     OW35641   3.669   2.485  10.032  0.4668  0.0778 -0.6231
 8061SOL    HW135642   3.578   2.458  10.019  0.1892 -0.6750  2.9210
 8061SOL    HW235643   3.673   2.497  10.126 -2.7377  2.0589 -0.7419
 8062SOL     OW35644   0.923   2.644  16.557  0.1040  0.7389 -0.2265
 8062SOL    HW135645   0.850   2.583  16.572 -0.9386  2.3927  1.4125
 8062SOL    HW235646   0.880   2.709  16.502 -0.6823 -0.1378 -0.6620
 8063SOL     OW35647   1.486   3.121  13.214 -0.1333 -0.3435 -0.2341
 8063SOL    HW135648   1.461   3.212  13.197 -0.0664 -0.4125 -0.7054
 8063SOL    HW235649   1.468   3.088  13.126 -0.1780 -0.4104 -0.1997
 8064SOL     OW35650   3.759   0.516   4.862 -0.6181  0.0583  0.0100
 8064SOL    HW135651   3.773   0.448   4.797  0.5527 -0.7221  1.0632
 8064SOL    HW235652   3.708   0.461   4.922 -0.8924 -0.3885 -0.6436
 8065SOL     OW35653   0.925   1.159   0.845 -0.0465 -0.1641 -0.4326
 8065SOL    HW135654   0.944   1.252   0.830  1.1932 -0.6819 -2.0578
 8065SOL    HW235655   0.997   1.141   0.907 -0.4227  1.4939  0.4915
 8066SOL     OW35656   1.238   3.456   2.198 -0.3854  0.2442 -0.0987
 8066SOL    HW135657   1.297   3.486   2.267  2.7481 -3.0752 -1.2757
 8066SOL    HW235658   1.175   3.399   2.243  0.3362 -0.5417 -0.0838
 8067SOL     OW35659   0.186   3.729   9.570 -0.0888  0.3020 -0.1147
 8067SOL    HW135660   0.205   3.738   9.664 -0.0183  0.3577 -0.1346
 8067SOL    HW235661   0.113   3.668   9.561  0.2838 -0.2222  0.3895
 8068SOL     OW35662   1.447   2.177   5.059 -0.1110  0.1945 -0.5470
 8068SOL    HW135663   1.512   2.200   4.993  2.0701  0.5691  1.7043
 8068SOL    HW235664   1.433   2.083   5.047 -0.9574  0.2116  0.2940
 8069SOL     OW35665   3.849   3.634   6.242 -0.2365  0.2453 -0.1020
 8069SOL    HW135666   3.920   3.688   6.276 -0.7803  2.2970 -2.2343
 8069SOL    HW235667   3.827   3.688   6.166 -1.5322 -0.4142 -0.1870
 8070SOL     OW35668   4.461   3.482   7.791 -0.3571  0.5357 -0.1560
 8070SOL    HW135669   4.442   3.528   7.873 -1.0749  0.6906 -0.4100
 8070SOL    HW235670   4.376   3.439   7.790  0.3914 -0.9261  0.2827
 8071SOL     OW35671   2.075   1.133  11.938  0.0910  0.0936 -0.4936
 8071SOL    HW135672   1.992   1.088  11.952 -0.0942  0.4585 -0.4150
 8071SOL    HW235673   2.053   1.227  11.937  0.4702  0.1943  0.6913
 8072SOL     OW35674   0.103   1.761   7.215  0.7754  0.0023 -0.2151
 8072SOL    HW135675   0.165   1.695   7.245  0.7154  0.2264  0.3956
 8072SOL    HW235676   0.137   1.786   7.129  1.8866 -1.8385 -0.3092
 8073SOL     OW35677   3.125   2.422  12.664  0.2006  0.0983  0.2319
 8073SOL    HW135678   3.046   2.476  12.662 -0.1914 -0.4709  0.3557
 8073SOL    HW235679   3.091   2.334  12.684  1.5741 -0.3354  0.6419
 8074SOL     OW35680   0.758   1.659  11.000 -0.1662 -0.1420 -0.2533
 8074SOL    HW135681   0.839   1.644  11.049  0.2041  1.7270 -0.3070
 8074SOL    HW235682   0.786   1.616  10.919 -1.2664  1.9892 -1.7564
 8075SOL     OW35683   2.854   0.963   7.303  0.0946 -0.1019  0.1567
 8075SOL    HW135684   2.948   0.960   7.319  0.3138 -1.1570 -1.2932
 8075SOL    HW235685   2.835   1.003   7.388  0.4372  0.9396 -0.2557
 8076SOL     OW35686   2.811   3.497   2.799  0.1651  0.0031 -0.0847
 8076SOL    HW135687   2.904   3.473   2.798  0.1816  0.0149  1.5312
 8076SOL    HW235688   2.790   3.506   2.706 -2.1129  0.0537  0.4539
 8077SOL     OW35689   4.249   2.985  10.133 -0.1151 -0.1396 -0.1937
 8077SOL    HW135690   4.226   3.019  10.047 -0.0832 -1.9018 -0.8801
 8077SOL    HW235691   4.164   2.950  10.160 -1.5564  2.4274 -1.3614
 8078SOL     OW35692   0.461   1.534   0.839  0.0724 -0.3642 -0.0801
 8078SOL    HW135693   0.527   1.485   0.888  3.0845  2.2838 -1.5439
 8078SOL    HW235694   0.452   1.466   0.773 -0.9015 -0.9688  0.6689
 8079SOL     OW35695   2.515   3.446  12.748  0.4360 -0.0153 -0.2294
 8079SOL    HW135696   2.555   3.359  12.753 -1.8640 -1.0839 -0.8712
 8079SOL    HW235697   2.574   3.481  12.682  0.2882  0.6799  0.0122
 8080SOL     OW35698   3.862   0.939  10.156 -0.4757  0.4783  0.2456
 8080SOL    HW135699   3.775   0.976  10.140 -1.5032 -1.4459  1.3628
 8080SOL    HW235700   3.903   1.010  10.206  0.8761  0.2452 -0.5492
 8081SOL     OW35701   3.549   0.092   6.725  0.0423  0.0456  0.0146
 8081SOL    HW135702   3.539   0.147   6.647  1.4103  2.5201  1.6264
 8081SOL    HW235703   3.556   0.006   6.683 -2.0068  0.9117 -2.1332
 8082SOL     OW35704   3.567   1.821   2.894  1.0060 -0.3194 -0.1035
 8082SOL    HW135705   3.500   1.756   2.873 -1.2368  1.4790  1.4760
 8082SOL    HW235706   3.581   1.797   2.985  0.4473 -0.3841 -0.0368
 8083SOL     OW35707   3.378   1.302   4.350  0.3714 -0.9348  0.4918
 8083SOL    HW135708   3.300   1.251   4.329  0.6476 -0.6682 -1.1937
 8083SOL    HW235709   3.415   1.302   4.262 -0.1295  2.7457  0.2804
 8084SOL     OW35710   4.172   0.129  10.937 -0.3883 -0.5988 -0.5622
 8084SOL    HW135711   4.149   0.077  10.860 -0.4991 -0.7706 -0.4131
 8084SOL    HW235712   4.102   0.192  10.955  2.2047  2.6505 -1.7964
 8085SOL     OW35713   3.985   1.672  11.389 -0.3886 -0.0985 -0.5029
 8085SOL    HW135714   3.899   1.638  11.365  0.3240 -1.8431 -0.6024
 8085SOL    HW235715   4.032   1.629  11.318 -0.7019  0.3457 -0.9847
 8086SOL     OW35716   4.335   0.374   7.617 -0.1030  0.2669 -0.4870
 8086SOL    HW135717   4.346   0.286   7.582  3.8346  0.7944 -0.5698
 8086SOL    HW235718   4.423   0.411   7.610 -0.1293  0.6571  1.1581
 8087SOL     OW35719   2.746   0.117  16.357 -0.1368 -0.0177  0.1632
 8087SOL    HW135720   2.708   0.032  16.382  0.8591 -0.5517 -0.1834
 8087SOL    HW235721   2.672   0.177  16.370 -0.9139 -0.3270 -2.8741
 8088SOL     OW35722   1.387   4.116  10.800  0.5158 -0.2132 -0.5896
 8088SOL    HW135723   1.364   4.137  10.891  2.1169 -0.7732 -0.0569
 8088SOL    HW235724   1.416   4.025  10.803  1.0625 -0.0109  0.3398
 8089SOL     OW35725   1.006   3.586   7.726 -0.5537 -0.3355 -0.2707
 8089SOL    HW135726   1.038   3.502   7.692 -0.0929 -1.4983  2.9428
 8089SOL    HW235727   0.924   3.589   7.678  0.6733  0.1779 -2.3103
 8090SOL     OW35728   3.031   1.398   6.281  0.1288  0.0064 -0.3039
 8090SOL    HW135729   3.089   1.332   6.243 -2.3397 -0.3476 -3.4547
 8090SOL    HW235730   3.088   1.461   6.325 -1.0940  1.7299 -1.1838
 8091SOL     OW35731   1.559   4.409  11.385  0.1335  0.5819  0.0228
 8091SOL    HW135732   1.488   4.358  11.424  0.2315  1.0528  0.8167
 8091SOL    HW235733   1.632   4.349  11.374 -0.7927 -0.5094 -0.1438
 8092SOL     OW35734   0.149   2.771   4.038  0.4045  0.0974 -0.3222
 8092SOL    HW135735   0.202   2.739   4.111  0.2277 -0.6193 -0.5026
 8092SOL    HW235736   0.197   2.849   4.009 -0.6849  1.0411  0.4180
 8093SOL     OW35737   2.673   3.887   7.743  0.1367  0.1542  0.4648
 8093SOL    HW135738   2.681   3.880   7.838 -2.3701 -0.3695  0.6180
 8093SOL    HW235739   2.600   3.949   7.741  0.8171  0.9537  0.0641
 8094SOL     OW35740   2.114   3.885  17.617  0.1682  0.1623  0.2054
 8094SOL    HW135741   2.033   3.930  17.591 -0.0708 -1.8058 -2.3658
 8094SOL    HW235742   2.182   3.951  17.602 -0.2486  0.7138  0.6903
 8095SOL     OW35743   0.369   4.657  10.318 -0.1382 -0.5891 -0.3221
 8095SOL    HW135744   0.278   4.647  10.346 -0.6535 -0.5501 -1.9926
 8095SOL    HW235745   0.370   4.623  10.229 -2.3137  0.6842 -0.8564
 8096SOL     OW35746   1.907   0.221   3.183  0.2379 -0.4658 -0.3671
 8096SOL    HW135747   1.865   0.232   3.098  0.7433  1.4159 -0.3760
 8096SOL    HW235748   1.845   0.271   3.237 -0.3328  0.7243 -2.1148
 8097SOL     OW35749   2.150   3.931   5.144  0.2518  0.4644 -0.1767
 8097SOL    HW135750   2.081   3.940   5.210 -0.1189 -1.0995 -0.3487
 8097SOL    HW235751   2.217   3.880   5.191  1.9386  0.8290 -2.2116
 8098SOL     OW35752   3.598   0.043   3.803 -0.2173  0.2475  0.4039
 8098SOL    HW135753   3.524   4.711   3.785  0.4052 -0.4427  0.0396
 8098SOL    HW235754   3.602   0.038   3.899  0.2374 -0.8761  0.3316
 8099SOL     OW35755   0.929   2.167  16.735 -0.4155  0.4900 -0.3458
 8099SOL    HW135756   0.935   2.186  16.829  2.1364 -1.6297 -0.0772
 8099SOL    HW235757   0.842   2.130  16.718 -0.1326  0.3299 -1.4382
 8100SOL     OW35758   2.292   3.278   3.109  0.3677  0.2004  0.5691
 8100SOL    HW135759   2.227   3.276   3.039  1.4794  0.5364 -0.4789
 8100SOL    HW235760   2.278   3.208   3.172  0.0803  0.1054  0.4008
 8101SOL     OW35761   2.785   1.468  10.961 -0.1120  0.4998 -0.3679
 8101SOL    HW135762   2.749   1.382  10.985  0.0812  0.0435 -1.7062
 8101SOL    HW235763   2.802   1.511  11.045 -1.1784 -0.6823  0.4592
 8102SOL     OW35764   4.484   1.127   7.173 -0.7469  0.4122 -0.0653
 8102SOL    HW135765   4.486   1.159   7.083 -0.5388 -0.8849 -0.5226
 8102SOL    HW235766   4.459   1.202   7.227 -2.4735 -0.6031  0.5440
 8103SOL     OW35767   3.068   3.911   7.280 -0.0683  0.3203 -0.7822
 8103SOL    HW135768   2.979   3.914   7.245 -0.2136  0.4553 -0.4035
 8103SOL    HW235769   3.081   3.998   7.317 -5.5829  0.3037  1.2202
 8104SOL     OW35770   4.062   1.595   4.416  0.1486 -0.1054 -0.0115
 8104SOL    HW135771   4.068   1.589   4.512 -0.6118 -2.0042 -0.0973
 8104SOL    HW235772   4.130   1.533   4.389  0.9771  0.3598  0.9613
 8105SOL     OW35773   0.645   4.578   2.445  0.5158 -0.3269  0.5841
 8105SOL    HW135774   0.735   4.579   2.476  0.1840 -1.2658  1.5945
 8105SOL    HW235775   0.594   4.529   2.510  2.4575 -0.0482  2.3168
 8106SOL     OW35776   2.403   4.130   5.599 -0.4470 -0.2970  0.0996
 8106SOL    HW135777   2.459   4.164   5.530  0.9456 -4.1826 -0.6626
 8106SOL    HW235778   2.361   4.052   5.563  0.5711 -0.7018 -0.1953
 8107SOL     OW35779   2.047   4.544   4.551  0.1167 -0.0903  0.0058
 8107SOL    HW135780   2.109   4.478   4.582  0.4527  0.2014 -0.0483
 8107SOL    HW235781   2.103   4.591   4.489 -0.6887 -0.1497 -0.7655
 8108SOL     OW35782   0.825   1.896   4.628 -0.2323 -0.1687  0.2698
 8108SOL    HW135783   0.806   1.808   4.594 -0.4592  1.3436 -3.6119
 8108SOL    HW235784   0.862   1.883   4.715 -0.5291 -0.7070  0.3157
 8109SOL     OW35785   4.074   3.722   4.953  0.2495  0.2824 -0.1573
 8109SOL    HW135786   4.167   3.724   4.931  0.7942  0.0583  2.0815
 8109SOL    HW235787   4.090   3.703   5.045  1.1352 -1.3298 -0.6427
 8110SOL     OW35788   4.412   1.168   0.628 -0.1868  0.1375 -0.0678
 8110SOL    HW135789   4.464   1.141   0.552 -0.2356 -0.0394 -0.0401
 8110SOL    HW235790   4.402   1.262   0.612 -3.5763 -0.2793 -0.4821
 8111SOL     OW35791   2.010   2.820  11.007  0.0853 -0.1662  0.3108
 8111SOL    HW135792   2.033   2.876  11.082 -0.2531  0.7386 -0.2688
 8111SOL    HW235793   1.966   2.885  10.953  0.7810 -0.5328 -0.6948
 8112SOL     OW35794   3.367   4.692   4.365 -0.0169  0.2799  0.5889
 8112SOL    HW135795   3.371   4.614   4.421  2.4432  1.1662  1.6303
 8112SOL    HW235796   3.281   4.679   4.324  0.7013 -0.7197 -0.6263
 8113SOL     OW35797   1.303   0.184   6.995  0.0328  0.1749 -0.1299
 8113SOL    HW135798   1.316   0.278   7.005  2.8670 -0.0661 -1.7460
 8113SOL    HW235799   1.345   0.170   6.911 -0.8566 -0.8359 -0.4163
 8114SOL     OW35800   2.466   3.566   6.818 -0.0745 -0.2223 -0.1321
 8114SOL    HW135801   2.383   3.613   6.821  0.0413 -0.1427  1.6905
 8114SOL    HW235802   2.454   3.504   6.890  0.3504 -0.9013 -0.6381
 8115SOL     OW35803   3.445   1.649   4.749 -0.1510 -0.4000  0.5414
 8115SOL    HW135804   3.464   1.742   4.762 -3.3329  0.0065  2.1515
 8115SOL    HW235805   3.450   1.638   4.654 -0.9347 -1.8835  0.6714
 8116SOL     OW35806   0.524   0.543  12.610 -0.7938 -0.6050  0.4936
 8116SOL    HW135807   0.433   0.571  12.603 -0.0741  1.8049  0.8168
 8116SOL    HW235808   0.534   0.488  12.532 -3.8428  0.2860 -0.5250
 8117SOL     OW35809   1.451   0.057   6.281 -0.6738  0.2563 -0.5007
 8117SOL    HW135810   1.536   0.088   6.250 -0.7639 -0.9169 -1.9354
 8117SOL    HW235811   1.403   0.045   6.198  0.5651 -0.2213 -1.1542
 8118SOL     OW35812   3.986   2.971   4.380  0.3921 -0.0442  0.0962
 8118SOL    HW135813   3.991   2.898   4.442 -1.9325  0.4910  0.9105
 8118SOL    HW235814   4.024   3.037   4.438 -0.2804  0.7994 -0.4290
 8119SOL     OW35815   0.216   3.034   4.001 -0.0695  0.4886 -0.4076
 8119SOL    HW135816   0.200   3.103   3.937 -1.0011  0.9666  0.3394
 8119SOL    HW235817   0.268   3.084   4.063 -0.2701  0.2066 -0.0125
 8120SOL     OW35818   1.744   1.786   9.087 -0.0992  0.5224 -0.2072
 8120SOL    HW135819   1.742   1.842   9.010  1.8773 -0.0000 -0.6424
 8120SOL    HW235820   1.662   1.739   9.071 -0.3675  0.3214  1.8121
 8121SOL     OW35821   3.125   1.554   5.296 -0.5784 -0.0251 -0.0704
 8121SOL    HW135822   3.186   1.481   5.286 -0.7649 -0.4331  1.7602
 8121SOL    HW235823   3.083   1.561   5.210 -0.7260 -0.6904 -0.0494
 8122SOL     OW35824   3.129   0.153  13.664 -0.3000 -0.0618  0.7338
 8122SOL    HW135825   3.180   0.075  13.683 -0.2943 -0.2306  0.0257
 8122SOL    HW235826   3.137   0.198  13.749  2.6952 -0.0457  0.4312
 8123SOL     OW35827   1.930   0.146   4.919 -0.0687 -0.6528 -0.3802
 8123SOL    HW135828   1.985   0.175   4.991 -0.8832  0.8792 -0.3749
 8123SOL    HW235829   1.866   0.093   4.967  0.0050 -1.3413 -1.0392
 8124SOL     OW35830   4.656   0.645   7.715  0.5339 -0.4132 -0.1104
 8124SOL    HW135831   4.644   0.698   7.636  1.0429 -1.5177 -0.9383
 8124SOL    HW235832   4.653   0.720   7.774 -0.9077 -0.3692 -0.2498
 8125SOL     OW35833   2.478   4.133   7.124 -0.2574 -0.0129 -0.3711
 8125SOL    HW135834   2.388   4.160   7.109 -0.2449  1.8023  2.9202
 8125SOL    HW235835   2.522   4.199   7.069  2.4314 -1.2921  0.2241
 8126SOL     OW35836   0.544   1.075  11.789  0.2286 -0.2591 -0.2531
 8126SOL    HW135837   0.615   1.087  11.727 -0.3547 -0.7918 -1.0316
 8126SOL    HW235838   0.484   1.146  11.767  0.2425  0.2119  1.2298
 8127SOL     OW35839   2.912   4.610  15.904 -0.1166 -0.4554  0.7557
 8127SOL    HW135840   2.894   4.585  15.814 -0.4170  0.6029  0.5124
 8127SOL    HW235841   3.000   4.649  15.903 -0.8151  1.1113 -0.0996
 8128SOL     OW35842   2.433   1.541   5.039 -0.3359 -0.0815  0.5534
 8128SOL    HW135843   2.418   1.536   4.944  1.5702 -1.5320  0.3453
 8128SOL    HW235844   2.344   1.529   5.073 -0.9341 -0.5222 -1.1487
 8129SOL     OW35845   2.764   4.064   1.631 -0.3660 -0.0188  0.3683
 8129SOL    HW135846   2.847   4.078   1.677  0.5555  0.6884 -1.5050
 8129SOL    HW235847   2.775   3.974   1.601 -2.0043 -0.0184 -0.2671
 8130SOL     OW35848   4.721   2.234  11.174 -0.5582  0.4426 -0.5773
 8130SOL    HW135849   0.019   2.230  11.266  0.0729 -0.3427 -0.7790
 8130SOL    HW235850   0.078   2.227  11.128 -0.0315 -1.6124  0.7246
 8131SOL     OW35851   4.309   3.349   4.251  0.2984  0.0945  0.4207
 8131SOL    HW135852   4.359   3.278   4.210  1.8707  0.5627  1.5262
 8131SOL    HW235853   4.220   3.333   4.218  0.5882 -1.8865  0.5926
 8132SOL     OW35854   3.227   1.465   8.947 -0.5961  0.0619 -0.3188
 8132SOL    HW135855   3.176   1.475   9.027  0.2058 -0.6937  0.2849
 8132SOL    HW235856   3.183   1.392   8.903 -0.2307  0.7281 -1.7847
 8133SOL     OW35857   2.247   1.056  12.755 -0.2000  0.0251  0.0893
 8133SOL    HW135858   2.162   1.072  12.796 -0.5956 -1.9211  0.0208
 8133SOL    HW235859   2.271   1.142  12.722  0.6199  0.5684  2.1031
 8134SOL     OW35860   2.713   3.761   2.852  0.0166  0.1915 -0.0526
 8134SOL    HW135861   2.685   3.751   2.761 -0.3909  0.2988  0.0592
 8134SOL    HW235862   2.734   3.670   2.874  0.9733  0.1825 -1.0433
 8135SOL     OW35863   2.778   2.055   7.621  0.3815  0.4454  0.0412
 8135SOL    HW135864   2.690   2.090   7.627  0.3862  1.1284 -3.6041
 8135SOL    HW235865   2.754   1.969   7.585 -1.3709  0.7636  0.4925
 8136SOL     OW35866   2.338   3.527  15.026  0.2513  0.2050  0.1659
 8136SOL    HW135867   2.408   3.466  15.003 -1.2200 -2.1721  2.0308
 8136SOL    HW235868   2.308   3.555  14.940  0.4637  0.5255  0.1949
 8137SOL     OW35869   2.859   4.657   1.661  0.0648 -0.3761 -0.1006
 8137SOL    HW135870   2.912   0.008   1.683 -1.8640  0.9428 -0.1421
 8137SOL    HW235871   2.821   4.648   1.749  0.4912  2.6394  0.4176
 8138SOL     OW35872   2.453   1.361   3.591  0.1493 -0.1850 -0.3172
 8138SOL    HW135873   2.489   1.434   3.541  0.1353 -0.4562 -0.7266
 8138SOL    HW235874   2.443   1.299   3.519  2.7547 -0.6644 -0.2767
 8139SOL     OW35875   1.891   2.232   5.388 -0.1665 -0.0650 -0.4274
 8139SOL    HW135876   1.965   2.283   5.420 -0.7451  1.4037 -1.4193
 8139SOL    HW235877   1.924   2.163   5.331 -1.5732 -1.7223  0.7880
 8140SOL     OW35878   2.183   1.511   8.354  0.1138  0.1789  0.1602
 8140SOL    HW135879   2.165   1.538   8.264 -0.2467 -2.6262 -0.5980
 8140SOL    HW235880   2.279   1.509   8.354  0.0585 -1.9956 -1.7541
 8141SOL     OW35881   3.060   2.199  15.498 -0.6081  0.3804  0.3600
 8141SOL    HW135882   3.033   2.131  15.560 -0.3184  0.7486  0.8893
 8141SOL    HW235883   3.094   2.142  15.429 -1.3155  1.0059 -0.5056
 8142SOL     OW35884   3.636   2.814   2.254  0.1335 -0.4519  0.0102
 8142SOL    HW135885   3.605   2.752   2.319 -0.8503  0.8116  0.7493
 8142SOL    HW235886   3.559   2.865   2.228  1.1534 -0.4832 -3.0748
 8143SOL     OW35887   4.249   0.533   8.776 -0.1519  0.1482 -0.2905
 8143SOL    HW135888   4.158   0.518   8.801 -0.2163  0.2120 -0.4831
 8143SOL    HW235889   4.300   0.527   8.857  1.9953  0.9332 -1.5665
 8144SOL     OW35890   1.658   2.984   2.672 -0.0385  0.3778  0.0422
 8144SOL    HW135891   1.606   2.904   2.675  0.0170  0.4107  1.9613
 8144SOL    HW235892   1.620   3.051   2.728 -3.9938 -1.8562 -0.0088
 8145SOL     OW35893   2.195   2.375   9.579  0.0268  0.4364 -0.1656
 8145SOL    HW135894   2.182   2.357   9.486 -0.0748  0.8824 -0.2354
 8145SOL    HW235895   2.276   2.327   9.594  0.0533  1.0559  1.7771
 8146SOL     OW35896   1.325   3.130   5.232  0.0293  0.0050  0.1269
 8146SOL    HW135897   1.248   3.119   5.176  0.9266  0.8837 -1.2987
 8146SOL    HW235898   1.300   3.099   5.319  1.5042 -2.4917 -0.3421
 8147SOL     OW35899   2.765   0.865   5.245  0.2025  0.2590  0.5514
 8147SOL    HW135900   2.848   0.903   5.217  0.2377  0.2041  0.5821
 8147SOL    HW235901   2.793   0.774   5.252  1.7510  0.7040  0.0145
 8148SOL     OW35902   0.248   1.790  14.821  0.2538  0.3197 -0.1650
 8148SOL    HW135903   0.268   1.715  14.766 -0.9671  1.1103 -1.7131
 8148SOL    HW235904   0.287   1.756  14.901 -2.0031  1.8717  1.6126
 8149SOL     OW35905   3.567   2.554   3.483  0.6658  0.4381 -0.2713
 8149SOL    HW135906   3.504   2.624   3.465  2.4047  1.6924 -1.4059
 8149SOL    HW235907   3.570   2.505   3.401  0.8024  2.7793 -1.6720
 8150SOL     OW35908   0.988   2.328  17.680  0.4977  0.3481  0.3099
 8150SOL    HW135909   0.917   2.339  17.616 -0.4006  0.7901  1.3883
 8150SOL    HW235910   1.040   2.406  17.660 -1.6481  1.4465 -1.1077
 8151SOL     OW35911   2.081   1.824   2.298  0.2957  0.0753  0.0132
 8151SOL    HW135912   2.009   1.873   2.258 -1.6011 -2.6126  0.1389
 8151SOL    HW235913   2.053   1.732   2.291  2.2132 -0.4456 -0.8223
 8152SOL     OW35914   2.317   2.543   2.136  0.5791  0.8862 -0.2128
 8152SOL    HW135915   2.350   2.599   2.066  2.1897 -1.8659 -1.6534
 8152SOL    HW235916   2.232   2.580   2.159 -0.9568 -3.9450  1.8448
 8153SOL     OW35917   2.389   1.514   4.759  0.0187 -0.2352  0.2836
 8153SOL    HW135918   2.353   1.426   4.761  0.1917 -0.3398 -1.0822
 8153SOL    HW235919   2.306   1.560   4.744  0.0511 -0.6409 -1.1835
 8154SOL     OW35920   0.483   0.918   1.351  0.4793 -0.2372  0.1285
 8154SOL    HW135921   0.404   0.913   1.297 -0.1000  1.1409  0.8438
 8154SOL    HW235922   0.446   0.921   1.439  0.4795 -3.4508  0.2345
 8155SOL     OW35923   1.734   3.748   9.310 -0.1217  0.4188  0.2063
 8155SOL    HW135924   1.659   3.801   9.337 -1.1323 -2.1188  2.3585
 8155SOL    HW235925   1.685   3.669   9.292  0.7836 -0.1090  0.0626
 8156SOL     OW35926   3.401   4.410   6.203  0.2248 -0.1523  0.4158
 8156SOL    HW135927   3.404   4.487   6.259 -2.7343 -0.1672  0.5935
 8156SOL    HW235928   3.485   4.364   6.207  1.4684  2.1509  0.6231
 8157SOL     OW35929   2.933   2.186  11.300  0.9264 -0.0927 -0.7595
 8157SOL    HW135930   2.966   2.218  11.384 -1.2212  1.2448 -0.4022
 8157SOL    HW235931   2.907   2.099  11.332  1.5199 -0.2280 -0.6449
 8158SOL     OW35932   0.707   4.359   6.774  0.1134 -0.2942 -1.0538
 8158SOL    HW135933   0.735   4.275   6.810  1.8476  0.6492 -0.2122
 8158SOL    HW235934   0.668   4.398   6.852  1.2157 -2.3032  0.5031
 8159SOL     OW35935   1.249   1.686   5.527  0.2441  0.0246  0.5183
 8159SOL    HW135936   1.170   1.717   5.481 -1.2669 -3.5720  0.7572
 8159SOL    HW235937   1.219   1.629   5.597 -0.5156 -0.6753 -0.3673
 8160SOL     OW35938   1.487   2.095   8.639 -0.4868 -0.4295 -0.2175
 8160SOL    HW135939   1.568   2.075   8.687  0.8229  3.9523 -0.6151
 8160SOL    HW235940   1.515   2.166   8.582 -2.8750 -0.9165 -1.9994
 8161SOL     OW35941   3.773   2.597   8.960 -0.1680  0.1725 -0.0999
 8161SOL    HW135942   3.798   2.507   8.980  1.2838  1.1798  2.6104
 8161SOL    HW235943   3.718   2.616   9.036 -0.2540  0.3628 -0.2113
 8162SOL     OW35944   0.110   2.408  13.391 -0.0197  0.4117  0.6995
 8162SOL    HW135945   0.035   2.356  13.418  0.7797  0.5156  3.1407
 8162SOL    HW235946   0.175   2.393  13.460 -0.1669  0.2392  0.8001
 8163SOL     OW35947   1.622   2.577   4.115 -0.2302  0.2293  0.7196
 8163SOL    HW135948   1.613   2.663   4.155  1.3899 -0.4086  2.4914
 8163SOL    HW235949   1.528   2.564   4.103  0.1102  0.8980 -2.6013
 8164SOL     OW35950   1.843   1.416   6.356 -0.4292 -0.4805  0.1377
 8164SOL    HW135951   1.916   1.475   6.340  0.6621 -1.6541  0.7753
 8164SOL    HW235952   1.841   1.405   6.451 -0.4798 -0.0863  0.1816
 8165SOL     OW35953   2.064   3.109   3.939 -0.1151 -0.5648  0.5315
 8165SOL    HW135954   1.987   3.109   3.881 -0.9733 -1.7340  1.6517
 8165SOL    HW235955   2.118   3.157   3.876  1.8314  1.3863  3.7274
 8166SOL     OW35956   0.352   3.923   3.577 -0.1497  0.0681  0.0563
 8166SOL    HW135957   0.350   3.977   3.498  0.8867 -0.9918 -0.6864
 8166SOL    HW235958   0.282   3.860   3.563 -1.2468  1.1851  0.5657
 8167SOL     OW35959   4.696   0.085   0.727 -0.3388  0.4493  0.1412
 8167SOL    HW135960   4.611   0.129   0.725 -1.3261 -1.4253  1.2012
 8167SOL    HW235961   4.687   0.006   0.780  1.0375  0.8037  0.8863
 8168SOL     OW35962   3.407   0.987   4.479  0.2989  0.1698  0.1340
 8168SOL    HW135963   3.475   1.055   4.475  1.9895 -1.5090  0.7342
 8168SOL    HW235964   3.343   1.016   4.413  1.2053  1.7953 -0.0367
 8169SOL     OW35965   2.623   1.944  10.388 -0.2720 -0.4029 -0.3343
 8169SOL    HW135966   2.642   1.956  10.295 -2.1412  1.1864 -0.5203
 8169SOL    HW235967   2.675   2.017  10.421  0.7943 -0.9791 -0.7485
 8170SOL     OW35968   4.250   3.473   0.830  0.2497  0.4694  0.3224
 8170SOL    HW135969   4.257   3.568   0.821 -2.4694  0.8104  2.0484
 8170SOL    HW235970   4.155   3.469   0.821  0.5866 -0.4157 -2.8869
 8171SOL     OW35971   3.456   3.060   5.625 -0.2198  0.7373  0.0081
 8171SOL    HW135972   3.412   3.046   5.541  1.0788 -0.6620 -0.4345
 8171SOL    HW235973   3.543   3.032   5.595 -1.3878 -4.5819  1.5342
 8172SOL     OW35974   4.007   0.859   9.513 -0.6855 -0.0581  0.0452
 8172SOL    HW135975   3.974   0.930   9.458 -2.2090 -0.0100  1.0263
 8172SOL    HW235976   4.034   0.796   9.447 -0.2838 -1.1797  1.2944
 8173SOL     OW35977   2.125   2.883   4.061  0.9208  0.2978 -0.1200
 8173SOL    HW135978   2.079   2.829   3.996  1.4390 -1.5703  1.0684
 8173SOL    HW235979   2.136   2.963   4.009 -0.5142  1.1769  0.9170
 8174SOL     OW35980   3.781   0.959   4.719  0.0185  0.4359 -0.6385
 8174SOL    HW135981   3.751   1.002   4.799 -0.1899 -2.8713  1.1090
 8174SOL    HW235982   3.870   0.991   4.702 -0.1107  0.3959 -1.3898
 8175SOL     OW35983   4.189   0.075  16.727  0.5283  0.0743  0.3269
 8175SOL    HW135984   4.261   0.014  16.740 -1.2457 -2.0151  0.4621
 8175SOL    HW235985   4.186   0.104  16.818  0.6978  1.4978 -0.1220
 8176SOL     OW35986   3.822   3.403  11.869  0.4745 -0.1362 -0.2552
 8176SOL    HW135987   3.728   3.388  11.862  0.3425  1.3238 -1.6201
 8176SOL    HW235988   3.829   3.492  11.902  0.8265 -0.6210  0.9790
 8177SOL     OW35989   2.337   1.768   2.176 -0.1110  0.7070  0.2518
 8177SOL    HW135990   2.254   1.792   2.218 -0.5274  0.4049 -0.4006
 8177SOL    HW235991   2.304   1.725   2.097 -1.9003  0.9534  0.8531
 8178SOL     OW35992   1.051   4.210   7.084  0.2138  0.2825  0.0984
 8178SOL    HW135993   1.015   4.293   7.116  0.2077  1.3308 -2.6116
 8178SOL    HW235994   1.050   4.157   7.163  0.6787 -3.7931 -2.6282
 8179SOL     OW35995   0.417   0.805   7.537  0.4387 -0.3023 -0.5490
 8179SOL    HW135996   0.438   0.719   7.502  0.1055 -0.5558 -0.1288
 8179SOL    HW235997   0.413   0.787   7.631  0.0902  0.2315 -0.4573
 8180SOL     OW35998   4.188   0.379  13.132  0.6084 -0.0932 -0.2045
 8180SOL    HW135999   4.110   0.405  13.083  0.6217 -1.7100 -1.0730
 8180SOL    HW236000   4.229   0.462  13.157 -0.6156  0.9611 -1.7493
 8181SOL     OW36001   0.431   2.862   3.920  0.8277  0.3889  0.2917
 8181SOL    HW136002   0.390   2.945   3.944  1.1876  0.2224  1.4694
 8181SOL    HW236003   0.478   2.909   3.851 -0.6475  0.7023 -0.5144
 8182SOL     OW36004   3.824   4.567   3.481 -0.2374 -0.0345  0.2185
 8182SOL    HW136005   3.914   4.542   3.501 -0.2182 -0.1805 -0.0555
 8182SOL    HW236006   3.775   4.513   3.542 -0.6888  1.0841  0.8589
 8183SOL     OW36007   3.147   2.501   7.210 -0.1491  0.3546  0.3580
 8183SOL    HW136008   3.165   2.590   7.241  0.8021  1.0946 -2.3103
 8183SOL    HW236009   3.211   2.504   7.139  1.1515  0.7772  1.5245
 8184SOL     OW36010   1.992   0.718   1.933  0.4031  0.0634  0.9132
 8184SOL    HW136011   1.994   0.744   1.841  1.3011 -1.4842  0.4862
 8184SOL    HW236012   1.909   0.671   1.927  0.8194 -0.3367 -1.7584
 8185SOL     OW36013   0.607   3.068   6.325 -0.8741  0.5971  0.7769
 8185SOL    HW136014   0.624   3.130   6.254  1.3424 -1.8993 -0.8378
 8185SOL    HW236015   0.513   3.053   6.315 -0.8331 -0.2230  1.6286
 8186SOL     OW36016   0.028   3.913   3.923  0.7403  0.0897 -0.5531
 8186SOL    HW136017   0.093   3.980   3.904 -0.6198  1.5142 -0.1734
 8186SOL    HW236018   0.016   3.911   4.018  0.2814  1.0813 -0.5938
 8187SOL     OW36019   1.489   2.253   4.017 -0.0873 -0.1457 -0.2167
 8187SOL    HW136020   1.437   2.332   4.032 -0.0436 -0.1032 -0.2890
 8187SOL    HW236021   1.578   2.279   4.040 -0.4580  0.9719 -0.0520
 8188SOL     OW36022   3.553   0.261   6.438 -0.0196  0.1410 -0.2335
 8188SOL    HW136023   3.554   0.314   6.518  1.6464 -3.0622  1.8921
 8188SOL    HW236024   3.590   0.330   6.382  0.6897  1.0348  1.3475
 8189SOL     OW36025   2.363   3.867   8.907  0.4924  0.2898  0.4242
 8189SOL    HW136026   2.453   3.900   8.899  0.0777  0.7546 -2.4713
 8189SOL    HW236027   2.341   3.867   9.000 -2.6767 -0.3115 -0.3321
 8190SOL     OW36028   3.666   0.834   3.066  0.2372  0.6284  0.0633
 8190SOL    HW136029   3.751   0.826   3.108  0.1468  0.3856  0.2051
 8190SOL    HW236030   3.682   0.799   2.978 -0.0744  0.6350  0.0030
 8191SOL     OW36031   3.518   0.971   6.445  0.0268 -0.2940  0.0057
 8191SOL    HW136032   3.442   1.019   6.413 -0.3434 -1.7717 -1.3153
 8191SOL    HW236033   3.566   1.031   6.502 -0.8237  0.5618 -0.1784
 8192SOL     OW36034   4.607   4.660   9.059 -0.2071  0.5232 -0.1058
 8192SOL    HW136035   4.607   4.568   9.083 -0.2660  0.7214  0.6762
 8192SOL    HW236036   4.516   4.686   9.046 -0.4921 -1.2768 -1.6346
 8193SOL     OW36037   4.081   0.321   8.904  0.3920 -0.3876 -0.4806
 8193SOL    HW136038   4.092   0.281   8.818  0.9894  2.7676 -1.8712
 8193SOL    HW236039   4.137   0.266   8.959  0.6729  0.1143 -0.2602
 8194SOL     OW36040   2.798   2.547   9.709  0.2509 -0.2959  0.2534
 8194SOL    HW136041   2.833   2.491   9.640  0.1863  1.6868 -1.3899
 8194SOL    HW236042   2.753   2.612   9.655  0.0398  0.2536  1.0894
 8195SOL     OW36043   2.282   1.961   1.631 -0.0721  0.0292 -0.7535
 8195SOL    HW136044   2.282   1.939   1.725  2.1095 -0.6178 -0.9056
 8195SOL    HW236045   2.351   1.904   1.597  0.2671 -0.7747  1.2633
 8196SOL     OW36046   2.330   1.867   7.074  0.0173 -0.5170 -0.5933
 8196SOL    HW136047   2.241   1.896   7.055 -0.0987 -0.8305 -0.5311
 8196SOL    HW236048   2.358   1.942   7.127  0.8908 -1.7242  0.6564
 8197SOL     OW36049   2.533   0.384   2.022  0.1832  0.1685  0.0521
 8197SOL    HW136050   2.491   0.468   2.039  0.1091  0.1621 -0.0965
 8197SOL    HW236051   2.462   0.326   1.994 -0.0794  1.5335 -2.1465
 8198SOL     OW36052   0.040   3.653   8.246 -0.5592  0.5455  0.3030
 8198SOL    HW136053   4.699   3.718   8.226 -0.9740 -0.2494 -0.8656
 8198SOL    HW236054   0.052   3.664   8.340 -0.7686  2.2570  0.1257
 8199SOL     OW36055   3.600   3.715   7.386  0.0289  0.4495 -0.2168
 8199SOL    HW136056   3.634   3.800   7.415 -2.1982  1.0803  0.5349
 8199SOL    HW236057   3.506   3.728   7.376  0.1932  1.9547  0.1890
 8200SOL     OW36058   2.258   3.936   9.429  0.0597  0.0153 -0.0742
 8200SOL    HW136059   2.298   3.853   9.455 -0.4938  0.5792  2.6154
 8200SOL    HW236060   2.174   3.932   9.475 -0.3825 -1.1799 -1.0090
 8201SOL     OW36061   3.177   3.896   3.432 -0.0569 -0.0395  0.0185
 8201SOL    HW136062   3.099   3.932   3.389  0.4006  0.2411 -0.5593
 8201SOL    HW236063   3.164   3.801   3.435 -1.7529  0.2682  2.7323
 8202SOL     OW36064   0.912   3.844   1.177  0.1254  0.1247  0.9118
 8202SOL    HW136065   0.830   3.815   1.217  0.2993 -0.2085  1.0242
 8202SOL    HW236066   0.961   3.859   1.257  1.4577  0.9337 -0.0449
 8203SOL     OW36067   3.145   3.713  13.886  0.0722 -0.2483 -0.0671
 8203SOL    HW136068   3.174   3.768  13.959 -1.0976  1.1722 -0.6713
 8203SOL    HW236069   3.132   3.629  13.929  0.7600 -0.8875 -1.0959
 8204SOL     OW36070   3.957   3.945   8.651  0.1608 -0.0585  0.5313
 8204SOL    HW136071   3.906   4.020   8.622 -0.2283 -0.6779 -0.4024
 8204SOL    HW236072   3.925   3.875   8.594 -0.3410  1.4172 -0.9747
 8205SOL     OW36073   2.094   4.606   0.780 -0.3053 -0.0389 -0.1575
 8205SOL    HW136074   2.116   4.517   0.806 -0.4710  0.6593  2.3053
 8205SOL    HW236075   2.089   4.591   0.685 -2.1397 -0.2295 -0.0224
 8206SOL     OW36076   4.548   3.173   2.535 -0.1589 -0.4696  0.5650
 8206SOL    HW136077   4.519   3.204   2.449  1.9396  0.7300  0.2871
 8206SOL    HW236078   4.468   3.184   2.585 -0.8696 -2.5361 -0.1158
 8207SOL     OW36079   4.724   1.371  15.309 -0.5198  0.0530 -0.1510
 8207SOL    HW136080   4.722   1.296  15.369  1.0740  0.5323  0.4839
 8207SOL    HW236081   0.093   1.378  15.302 -0.3742 -2.5222 -0.6544
 8208SOL     OW36082   3.454   1.719   4.263  0.2822  0.0115  0.4246
 8208SOL    HW136083   3.385   1.661   4.232 -2.6163  2.2568  2.6553
 8208SOL    HW236084   3.456   1.692   4.355  1.9247 -1.6631 -0.0976
 8209SOL     OW36085   1.688   4.078   0.514 -0.1860 -0.1177  0.3229
 8209SOL    HW136086   1.634   4.040   0.445  1.2640 -0.0374 -0.8647
 8209SOL    HW236087   1.778   4.065   0.483 -0.5075  0.1052 -0.7052
 8210SOL     OW36088   0.961   4.001   2.630  0.9267 -0.1923 -0.0420
 8210SOL    HW136089   1.041   3.981   2.581  0.0711 -0.0080 -1.4923
 8210SOL    HW236090   0.915   3.918   2.618  0.3285  0.0009  0.8982
 8211SOL     OW36091   0.118   1.676   1.666  0.4978  0.1384 -0.0030
 8211SOL    HW136092   0.114   1.587   1.700 -2.6983  0.1885 -0.3073
 8211SOL    HW236093   0.203   1.705   1.700 -1.1560  1.5450  2.9298
 8212SOL     OW36094   0.338   0.244   8.117  0.0602 -0.5077 -0.5660
 8212SOL    HW136095   0.356   0.179   8.185 -0.2198  0.6879  0.6573
 8212SOL    HW236096   0.418   0.228   8.068  1.3227  2.9486  0.4416
 8213SOL     OW36097   3.372   2.885   6.423  0.4166  0.3308  0.1714
 8213SOL    HW136098   3.385   2.951   6.491  0.2785 -0.3577  0.8508
 8213SOL    HW236099   3.418   2.924   6.348  0.2286  0.9895  0.3956
 8214SOL     OW36100   4.237   0.840   0.691  0.6413 -0.1074  0.0256
 8214SOL    HW136101   4.280   0.799   0.616  2.2850  0.7039  0.5315
 8214SOL    HW236102   4.178   0.767   0.712 -1.1270  2.0252  2.4839
 8215SOL     OW36103   0.381   3.232   4.931 -0.7580 -0.2238 -0.1988
 8215SOL    HW136104   0.456   3.292   4.940 -1.5500  0.8274 -0.5928
 8215SOL    HW236105   0.323   3.272   4.996 -2.9888 -1.2200 -1.5893
 8216SOL     OW36106   3.641   0.045   7.525  0.0156  1.1521 -0.4520
 8216SOL    HW136107   3.563   0.018   7.573 -0.0317  1.1557 -0.5280
 8216SOL    HW236108   3.660   4.701   7.463 -1.1867 -0.2624  0.7711
 8217SOL     OW36109   3.245   1.482   8.371  0.6247  0.3691  0.1285
 8217SOL    HW136110   3.209   1.421   8.307 -0.3870 -0.4728  1.4924
 8217SOL    HW236111   3.167   1.506   8.420 -0.6751 -0.7422 -1.3814
 8218SOL     OW36112   0.271   0.097   3.769  0.1447 -0.4464 -0.8681
 8218SOL    HW136113   0.319   0.102   3.852  0.4360 -2.8017 -0.8881
 8218SOL    HW236114   0.250   0.009   3.736 -0.3036 -0.4744 -0.5102
 8219SOL     OW36115   1.753   2.226   7.621 -0.1300 -0.4009  0.5361
 8219SOL    HW136116   1.734   2.224   7.527 -1.0849  0.7362  0.7017
 8219SOL    HW236117   1.681   2.166   7.641  1.9575 -3.1031 -0.0837
 8220SOL     OW36118   3.593   0.942   0.603 -0.2157  0.5015  0.0418
 8220SOL    HW136119   3.554   1.029   0.613 -1.5809  0.1573 -2.4725
 8220SOL    HW236120   3.510   0.901   0.581  0.9795 -1.4511 -0.7915
 8221SOL     OW36121   4.051   4.265   6.571  0.2993 -0.2872 -0.1791
 8221SOL    HW136122   4.122   4.254   6.509  0.0551 -1.2592 -0.2776
 8221SOL    HW236123   4.110   4.267   6.646  0.2705 -2.9265 -0.1179
 8222SOL     OW36124   4.665   4.500   4.354 -0.2262  0.0695  0.0340
 8222SOL    HW136125   4.596   4.462   4.299 -0.9612  1.4709 -0.0295
 8222SOL    HW236126   0.009   4.516   4.292 -1.2685  2.3682 -0.5781
 8223SOL     OW36127   3.760   2.329  12.008  0.1864  0.0518  0.6711
 8223SOL    HW136128   3.787   2.371  12.089  0.3748  0.8553  0.1913
 8223SOL    HW236129   3.778   2.403  11.949 -0.5939  0.6580  1.1954
 8224SOL     OW36130   4.290   2.043   1.427  0.3589  0.7936  0.7776
 8224SOL    HW136131   4.312   2.069   1.338 -0.8477 -0.8953 -0.0144
 8224SOL    HW236132   4.375   2.026   1.467  0.8642 -0.5962 -0.9043
 8225SOL     OW36133   4.438   0.172   0.665 -0.9183 -0.7725  0.1393
 8225SOL    HW136134   4.415   0.239   0.601 -1.6249 -1.0767  0.0778
 8225SOL    HW236135   4.432   0.227   0.743 -0.7770  0.8915 -1.0142
 8226SOL     OW36136   4.333   0.730   4.461  0.8037 -0.2992 -0.0962
 8226SOL    HW136137   4.425   0.746   4.441  0.4222 -0.1645 -1.7462
 8226SOL    HW236138   4.292   0.748   4.376 -1.9131 -0.3327  1.1933
 8227SOL     OW36139   4.379   4.228  10.092 -0.0214  0.0138  0.4898
 8227SOL    HW136140   4.365   4.297  10.026  2.3264  3.1431  3.2465
 8227SOL    HW236141   4.473   4.217  10.078 -0.1383  0.8878 -1.0248
 8228SOL     OW36142   3.110   3.397   3.291  0.1486  0.2608 -0.2124
 8228SOL    HW136143   3.148   3.317   3.328 -1.6487 -0.6639 -0.3464
 8228SOL    HW236144   3.068   3.367   3.210 -1.3450  1.9152 -0.0371
 8229SOL     OW36145   1.817   0.604  16.469 -0.5759  0.1318  0.3359
 8229SOL    HW136146   1.895   0.656  16.449  1.5079 -3.3835 -0.7578
 8229SOL    HW236147   1.821   0.607  16.564 -0.6354 -0.0590  0.3453
 8230SOL     OW36148   1.154   1.728  17.359  0.0676 -0.0991 -0.5551
 8230SOL    HW136149   1.135   1.787  17.285 -0.1929 -0.3910 -0.7181
 8230SOL    HW236150   1.178   1.647  17.314  2.0669  1.4316 -2.2911
 8231SOL     OW36151   3.947   0.773  10.815  0.0446 -0.8351  0.5354
 8231SOL    HW136152   3.965   0.827  10.738 -0.5035 -0.7772  0.4464
 8231SOL    HW236153   3.924   0.842  10.879 -3.1664 -0.3355 -1.1871
 8232SOL     OW36154   4.520   2.558  15.568 -0.9849 -0.0808 -0.1480
 8232SOL    HW136155   4.474   2.512  15.639 -3.0260 -0.8634 -1.9940
 8232SOL    HW236156   4.528   2.488  15.503 -0.1352 -0.8526  0.7848
 8233SOL     OW36157   0.449   2.110   3.187 -0.5241  0.2505 -0.6083
 8233SOL    HW136158   0.479   2.199   3.168  1.8133 -0.1499  1.3209
 8233SOL    HW236159   0.418   2.085   3.099 -0.5120 -1.6801 -0.0699
 8234SOL     OW36160   3.008   1.986  13.026 -0.0141  0.4646 -0.4263
 8234SOL    HW136161   3.041   2.004  13.114  0.3589 -0.0663 -0.4568
 8234SOL    HW236162   2.914   2.003  13.030 -0.0675  0.2630 -0.8041
 8235SOL     OW36163   1.655   0.874   6.616  0.2348 -0.0688  0.3040
 8235SOL    HW136164   1.739   0.837   6.642  0.5777  0.6144  0.1883
 8235SOL    HW236165   1.647   0.854   6.523  3.3446  0.3902 -0.0836
 8236SOL     OW36166   4.020   0.411   2.829 -0.0939  0.0996  0.1937
 8236SOL    HW136167   3.927   0.392   2.832  0.3441 -2.1751 -0.6900
 8236SOL    HW236168   4.028   0.487   2.887 -1.0195  0.6230 -0.3800
 8237SOL     OW36169   4.406   2.680  10.603 -0.2900 -0.2312  0.3322
 8237SOL    HW136170   4.335   2.623  10.631 -1.5460  1.3637  0.3902
 8237SOL    HW236171   4.357   2.755  10.568  0.7479 -0.0608 -0.7575
 8238SOL     OW36172   1.696   1.623   4.042 -0.4471 -0.2665  0.1661
 8238SOL    HW136173   1.706   1.697   3.982 -2.3375 -0.3926 -0.2837
 8238SOL    HW236174   1.759   1.640   4.112  0.8347 -1.8880 -0.5775
 8239SOL     OW36175   4.404   0.211   4.031  0.2494 -0.0135 -0.1550
 8239SOL    HW136176   4.322   0.236   3.989  0.8073  2.4193  0.1745
 8239SOL    HW236177   4.421   0.135   3.976 -1.3019 -0.6915  0.3098
 8240SOL     OW36178   4.256   3.001   7.041 -0.2688 -0.1382  0.8034
 8240SOL    HW136179   4.189   2.993   7.109  0.5477  1.2684  1.7851
 8240SOL    HW236180   4.331   3.019   7.097  0.0563  3.2341 -0.7117
 8241SOL     OW36181   4.386   2.013   3.740  0.4586 -0.3482 -0.8362
 8241SOL    HW136182   4.469   2.023   3.693  1.5958 -0.7118  1.1157
 8241SOL    HW236183   4.342   2.094   3.715 -0.3185 -0.5650 -0.1794
 8242SOL     OW36184   3.152   0.574   2.937 -0.2743  0.2499 -0.0407
 8242SOL    HW136185   3.092   0.522   2.991 -0.0321 -0.4879 -0.4856
 8242SOL    HW236186   3.111   0.558   2.852  0.1340 -1.1364  0.0215
 8243SOL     OW36187   1.669   0.048   6.603 -0.6781  0.8020  0.2532
 8243SOL    HW136188   1.753   0.022   6.640 -0.3856  0.1100 -0.8851
 8243SOL    HW236189   1.645   4.704   6.543  0.4505  0.6058  0.0458
 8244SOL     OW36190   1.295   3.592   6.236  0.4518 -0.4730 -0.7580
 8244SOL    HW136191   1.313   3.560   6.147  0.9952 -1.8395 -0.1584
 8244SOL    HW236192   1.380   3.584   6.279 -0.0590 -0.3738  0.2772
 8245SOL     OW36193   2.966   1.566   8.094  0.3244  0.0329  0.3701
 8245SOL    HW136194   2.878   1.561   8.056  0.2439 -1.1744  0.7070
 8245SOL    HW236195   3.020   1.578   8.016 -1.1853  2.0601 -0.3628
 8246SOL     OW36196   1.241   1.414  10.685  0.3782  0.0642  0.2231
 8246SOL    HW136197   1.223   1.361  10.763 -0.9833 -1.2260 -0.9760
 8246SOL    HW236198   1.264   1.496  10.729 -0.3746 -0.1594  1.0304
 8247SOL     OW36199   2.767   2.807   9.896  0.0096  0.5652  0.1473
 8247SOL    HW136200   2.775   2.779   9.804  0.5708 -0.0659  0.3836
 8247SOL    HW236201   2.727   2.733   9.941  1.4139 -0.0480  0.3854
 8248SOL     OW36202   0.564   1.967   9.261  0.2340  0.1537  0.4251
 8248SOL    HW136203   0.604   2.019   9.191  0.7173  1.0591  1.3810
 8248SOL    HW236204   0.565   1.876   9.230  0.1112  0.8211 -1.5245
 8249SOL     OW36205   2.581   4.130  14.456 -0.0951 -0.1197  0.5114
 8249SOL    HW136206   2.543   4.148  14.370 -1.7758 -1.1260  1.0433
 8249SOL    HW236207   2.506   4.084  14.492  0.3006 -2.5454 -1.7965
 8250SOL     OW36208   2.077   1.887   6.994  0.0798 -0.4386  0.4155
 8250SOL    HW136209   2.032   1.922   7.071  1.1860  1.5385  0.1667
 8250SOL    HW236210   2.069   1.957   6.929  2.8224 -2.8529 -2.4867
 8251SOL     OW36211   1.376   2.836   4.414  0.8216 -0.0279  0.2421
 8251SOL    HW136212   1.313   2.768   4.439 -0.4916  0.7611 -0.9430
 8251SOL    HW236213   1.424   2.858   4.494  1.7700  1.0787 -0.6319
 8252SOL     OW36214   2.340   4.601   4.849  0.3981 -0.0096  0.6954
 8252SOL    HW136215   2.347   4.506   4.850 -1.0878 -0.1596 -1.5277
 8252SOL    HW236216   2.433   4.623   4.843  0.4600 -0.5659 -0.5774
 8253SOL     OW36217   1.912   1.933   8.126 -0.8919 -0.6613 -0.3723
 8253SOL    HW136218   1.995   1.897   8.093  0.0976  1.8724 -0.6679
 8253SOL    HW236219   1.874   1.852   8.162 -0.0102 -1.5398 -1.4135
 8254SOL     OW36220   2.210   4.568   0.382  0.2491 -0.1601 -0.0023
 8254SOL    HW136221   2.146   4.538   0.447 -0.8916  1.0056 -0.5699
 8254SOL    HW236222   2.196   4.659   0.407  0.2899 -0.4518  1.0570
 8255SOL     OW36223   0.287   0.015   3.214 -0.0257 -0.5169  0.0369
 8255SOL    HW136224   0.339   0.057   3.282 -0.9663  0.2715  0.2753
 8255SOL    HW236225   0.326   4.655   3.201 -0.1250 -0.2382 -2.1378
 8256SOL     OW36226   1.136   4.630   6.367 -0.0944 -0.7458 -0.3970
 8256SOL    HW136227   1.199   4.691   6.407  1.1922 -1.2238 -1.6692
 8256SOL    HW236228   1.131   4.672   6.281 -2.6757 -0.5322 -0.1423
 8257SOL     OW36229   0.851   0.035   0.655  0.0080 -0.3573 -0.1294
 8257SOL    HW136230   0.923   0.076   0.703  1.1939 -0.5616 -1.7232
 8257SOL    HW236231   0.896   0.012   0.574  1.7205  2.4807  0.0336
 8258SOL     OW36232   3.829   4.295   6.033  0.0628  0.2831  0.0800
 8258SOL    HW136233   3.897   4.361   6.044  1.3008 -1.0133  0.2210
 8258SOL    HW236234   3.855   4.277   5.943  0.7019 -0.4749  0.4145
 8259SOL     OW36235   2.164   0.121   3.226 -0.0863  0.0243  0.3545
 8259SOL    HW136236   2.143   0.028   3.216 -0.3471  0.1068  0.1558
 8259SOL    HW236237   2.082   0.165   3.203  0.5885  1.3950  0.5765
 8260SOL     OW36238   0.313   1.353   6.181  0.0515 -0.2720 -0.0860
 8260SOL    HW136239   0.339   1.264   6.206 -0.5163 -0.9485 -1.9450
 8260SOL    HW236240   0.344   1.401   6.259 -1.1572  0.8827 -0.3240
 8261SOL     OW36241   0.951   3.249  13.232  0.3306 -0.1138 -0.1376
 8261SOL    HW136242   0.936   3.176  13.172  0.6134  0.2714 -0.6758
 8261SOL    HW236243   1.037   3.280  13.202  0.2123 -1.7360 -2.1797
 8262SOL     OW36244   2.714   3.163  11.892 -0.2083  0.0144 -0.7647
 8262SOL    HW136245   2.784   3.215  11.932 -0.6594  1.4959 -1.9070
 8262SOL    HW236246   2.721   3.087  11.949 -2.9578  1.0947  1.0027
 8263SOL     OW36247   0.832   0.683   7.607 -0.1598  0.9039 -0.1467
 8263SOL    HW136248   0.785   0.693   7.525 -0.3399 -2.2095 -0.4491
 8263SOL    HW236249   0.829   0.770   7.647 -0.6529  1.3637 -1.2154
 8264SOL     OW36250   1.454   0.758   9.139 -0.7037 -0.5597 -0.5616
 8264SOL    HW136251   1.533   0.811   9.128 -1.6091  1.1270  0.9281
 8264SOL    HW236252   1.491   0.699   9.204 -0.7582  1.5665  1.3821
 8265SOL     OW36253   4.532   3.956   4.249 -0.2993  0.0954 -0.6723
 8265SOL    HW136254   4.609   3.922   4.296 -0.7862  0.4808  0.3923
 8265SOL    HW236255   4.550   4.049   4.264  0.3658  0.1173 -1.6059
 8266SOL     OW36256   4.015   2.186  16.201 -0.3776 -0.1238  0.2853
 8266SOL    HW136257   4.074   2.238  16.147  0.4441 -1.7565 -0.3927
 8266SOL    HW236258   4.076   2.127  16.245 -0.8947  0.1648  1.4005
 8267SOL     OW36259   3.873   1.203   6.519  0.2883  0.0506 -0.5393
 8267SOL    HW136260   3.787   1.230   6.551  0.0737  0.0053 -1.0932
 8267SOL    HW236261   3.860   1.110   6.538 -0.2462 -0.0495 -1.3918
 8268SOL     OW36262   2.953   2.065   5.254  0.2123 -0.3754 -0.4889
 8268SOL    HW136263   3.022   2.128   5.234 -2.2269  2.7793  0.8678
 8268SOL    HW236264   2.946   2.060   5.350 -0.5099  0.3628 -0.4961
 8269SOL     OW36265   3.145   4.709   1.134 -0.1278 -0.9413  0.1200
 8269SOL    HW136266   3.065   4.683   1.088 -0.1848 -1.6764  0.6366
 8269SOL    HW236267   3.153   4.624   1.177 -0.1277 -0.7241  0.5461
 8270SOL     OW36268   1.337   1.728   7.616 -0.0403 -0.0222  0.2718
 8270SOL    HW136269   1.342   1.670   7.692  0.7661 -2.0171 -1.2923
 8270SOL    HW236270   1.345   1.811   7.663  0.1135 -0.0990  0.3827
 8271SOL     OW36271   2.445   3.180   6.670 -0.4412  0.1145 -0.0523
 8271SOL    HW136272   2.539   3.186   6.690 -0.4808  1.0141 -0.1689
 8271SOL    HW236273   2.412   3.112   6.729  0.8622 -0.5733 -0.1204
 8272SOL     OW36274   4.022   3.886   1.587  0.5361  0.3944 -0.3652
 8272SOL    HW136275   4.002   3.957   1.647 -0.5196 -1.1833  1.1341
 8272SOL    HW236276   4.067   3.935   1.518 -1.5164  2.2191 -0.4310
 8273SOL     OW36277   4.350   4.608  11.490 -0.2401  0.5849 -0.1845
 8273SOL    HW136278   4.440   4.583  11.469 -0.1229  0.2903  0.6712
 8273SOL    HW236279   4.352   4.641  11.579 -2.0688  2.6536 -0.9243
 8274SOL     OW36280   0.313   4.385   4.886  0.0640 -0.1559  0.4370
 8274SOL    HW136281   0.398   4.428   4.878  0.7554 -1.4175  1.0335
 8274SOL    HW236282   0.357   4.317   4.937  1.2026 -0.7224 -1.3171
 8275SOL     OW36283   0.791   3.246   2.502  0.4792  0.0300 -0.0292
 8275SOL    HW136284   0.807   3.259   2.595  1.3315  0.7109 -0.2729
 8275SOL    HW236285   0.865   3.187   2.487  0.9285  0.2059  1.5371
 8276SOL     OW36286   3.858   2.353   4.294 -0.1120  0.1697 -0.3006
 8276SOL    HW136287   3.804   2.421   4.254 -0.2305  0.0195 -0.3919
 8276SOL    HW236288   3.868   2.296   4.219  0.7483  2.0170 -1.5894
 8277SOL     OW36289   4.641   1.896   1.093  0.0460 -0.1185 -0.2527
 8277SOL    HW136290   4.704   1.838   1.135  2.5708  1.2812 -2.1584
 8277SOL    HW236291   4.673   1.981   1.120  1.6306 -0.8865  0.2445
 8278SOL     OW36292   0.599   0.555  17.373  0.6502  0.1562 -0.1114
 8278SOL    HW136293   0.575   0.619  17.439  2.1838  0.8408 -0.2063
 8278SOL    HW236294   0.600   0.607  17.293 -1.2792 -1.4442 -1.1675
 8279SOL     OW36295   2.116   3.663   6.299 -0.8601 -0.1752 -0.0102
 8279SOL    HW136296   2.189   3.612   6.266  0.1629  0.4431  1.3348
 8279SOL    HW236297   2.163   3.700   6.374 -1.4092  1.2648 -0.3607
 8280SOL     OW36298   2.314   0.564   6.143 -0.3335 -0.5459  0.1786
 8280SOL    HW136299   2.294   0.654   6.119 -0.8603 -0.7420 -0.0949
 8280SOL    HW236300   2.403   0.553   6.108 -0.3196 -0.3208  0.1432
 8281SOL     OW36301   4.414   4.336   9.059  0.8523 -0.3647  0.3016
 8281SOL    HW136302   4.333   4.300   9.024  0.3225  1.4925 -0.3801
 8281SOL    HW236303   4.415   4.329   9.154  1.7968  0.9744  0.4037
 8282SOL     OW36304   4.177   2.676   4.754  0.4647 -0.5104  0.1735
 8282SOL    HW136305   4.257   2.727   4.745  0.2824 -0.1917  0.3470
 8282SOL    HW236306   4.201   2.603   4.696  0.2256 -1.9217  1.8774
 8283SOL     OW36307   0.936   1.782   6.743 -0.8393  0.2024  0.0421
 8283SOL    HW136308   0.982   1.860   6.712 -0.0945 -0.5135 -0.6575
 8283SOL    HW236309   0.934   1.804   6.836  2.8763 -0.6505  0.3021
 8284SOL     OW36310   1.285   0.699   7.098  0.0721  0.3252  0.2274
 8284SOL    HW136311   1.333   0.621   7.072  0.1189  0.6706 -0.6902
 8284SOL    HW236312   1.285   0.694   7.194 -1.0225  1.6504  0.2913
 8285SOL     OW36313   3.846   0.116   2.301 -0.6812  0.1152  0.4354
 8285SOL    HW136314   3.877   0.174   2.231  2.3434  0.9027  2.4553
 8285SOL    HW236315   3.916   0.051   2.301  1.9482  2.9861  3.5416
 8286SOL     OW36316   2.894   0.897   4.179  0.1964  0.7137  0.0551
 8286SOL    HW136317   2.911   0.921   4.088 -0.5965 -1.8490 -0.7843
 8286SOL    HW236318   2.844   0.817   4.163 -0.5425  0.8731  1.5807
 8287SOL     OW36319   2.748   4.158   5.515  0.9240  0.4267  0.2212
 8287SOL    HW136320   2.682   4.184   5.451  1.8595 -0.2058 -0.9941
 8287SOL    HW236321   2.760   4.248   5.546 -2.4136  0.5756  1.0556
 8288SOL     OW36322   4.641   3.527  13.397 -0.0007 -0.2626  0.5316
 8288SOL    HW136323   4.604   3.580  13.468  0.5318 -0.8283  1.2416
 8288SOL    HW236324   0.007   3.532  13.419  0.2161 -1.9352 -0.0183
 8289SOL     OW36325   3.709   1.883   2.590 -0.2897 -0.2858  0.5107
 8289SOL    HW136326   3.701   1.977   2.571  3.4524  0.4236  2.3764
 8289SOL    HW236327   3.621   1.871   2.626  0.1537 -0.8313  1.3852
 8290SOL     OW36328   3.280   0.588   7.590 -0.3370  0.3527  0.0401
 8290SOL    HW136329   3.341   0.539   7.644 -1.6660  0.3742  1.5703
 8290SOL    HW236330   3.215   0.523   7.562  1.2517 -0.6573 -1.2768
 8291SOL     OW36331   3.171   3.885   6.493 -0.0003  0.5972 -0.0210
 8291SOL    HW136332   3.163   3.939   6.573  0.6932  0.5166  0.1051
 8291SOL    HW236333   3.086   3.906   6.456 -0.1487 -0.1333 -0.0777
 8292SOL     OW36334   3.568   2.158  12.197  0.1936 -0.0797 -0.5244
 8292SOL    HW136335   3.487   2.204  12.216 -0.6721 -1.2951 -1.2391
 8292SOL    HW236336   3.614   2.152  12.281  0.1537 -1.5730 -0.6038
 8293SOL     OW36337   3.722   4.455   2.473 -0.0550  0.3159 -0.6007
 8293SOL    HW136338   3.791   4.505   2.518 -0.3992  0.1489  0.1123
 8293SOL    HW236339   3.789   4.417   2.417  0.9248  1.3038 -0.1171
 8294SOL     OW36340   1.364   3.655   5.204 -0.2661  0.4652  0.6650
 8294SOL    HW136341   1.445   3.681   5.247  0.5310  0.2907 -0.7037
 8294SOL    HW236342   1.380   3.561   5.196 -0.1263  0.6043 -0.7885
 8295SOL     OW36343   3.327   4.200   5.482  0.1211 -0.6293  0.4915
 8295SOL    HW136344   3.294   4.251   5.556 -0.1667  0.8893 -0.6822
 8295SOL    HW236345   3.289   4.245   5.406  0.0544  0.7153  1.3233
 8296SOL     OW36346   2.573   2.295   9.188 -0.5045 -0.5832 -0.2814
 8296SOL    HW136347   2.614   2.360   9.131 -0.0305 -0.7485 -0.1354
 8296SOL    HW236348   2.485   2.292   9.151  0.6217  1.6112 -3.1912
 8297SOL     OW36349   4.575   3.848   3.047 -0.1812 -0.0435  0.7087
 8297SOL    HW136350   4.637   3.917   3.071 -0.8273  0.4989  0.8069
 8297SOL    HW236351   4.636   3.774   3.052 -1.1048 -1.0211 -2.3302
 8298SOL     OW36352   0.518   3.706   4.735  0.4302 -0.3662 -0.2842
 8298SOL    HW136353   0.533   3.799   4.723 -0.3437 -0.3398 -1.0738
 8298SOL    HW236354   0.441   3.701   4.791  0.8149  1.7559  0.4363
 8299SOL     OW36355   1.872   4.525   8.124 -0.6047  1.3279 -0.2920
 8299SOL    HW136356   1.884   4.430   8.115 -0.1942  1.2083  1.4762
 8299SOL    HW236357   1.784   4.511   8.161 -1.1411  1.6029 -1.4721
 8300SOL     OW36358   2.976   1.715  10.500 -0.6161  0.3506  0.0050
 8300SOL    HW136359   2.978   1.809  10.519  2.2704  0.6662 -1.7953
 8300SOL    HW236360   2.956   1.680  10.587 -0.5294 -1.5035 -0.7119
 8301SOL     OW36361   4.542   1.559   6.226  0.0579 -0.3127  0.1792
 8301SOL    HW136362   4.457   1.530   6.261  0.2162 -4.0466 -2.5220
 8301SOL    HW236363   4.599   1.485   6.245 -0.7223 -0.2683  2.7161
 8302SOL     OW36364   3.300   4.144   2.796  0.1408 -1.1014 -0.2456
 8302SOL    HW136365   3.229   4.114   2.739  0.7721  0.9364 -2.1516
 8302SOL    HW236366   3.260   4.224   2.829  0.3799 -2.1715  2.6197
 8303SOL     OW36367   0.191   4.696   1.687  0.3240 -0.2113 -0.4309
 8303SOL    HW136368   0.240   0.052   1.698 -0.1344  0.0207 -0.0972
 8303SOL    HW236369   0.211   4.656   1.772  1.9558  2.9214  0.6630
 8304SOL     OW36370   0.740   0.532   6.217  0.4170 -0.1255 -0.2282
 8304SOL    HW136371   0.733   0.438   6.233 -2.5170  0.0124 -0.6500
 8304SOL    HW236372   0.722   0.545   6.124  0.6178  0.6725 -0.1541
 8305SOL     OW36373   2.753   2.975   9.416  0.2009  0.1676 -0.2142
 8305SOL    HW136374   2.673   3.016   9.383  0.7234  0.0927 -1.5862
 8305SOL    HW236375   2.798   2.988   9.332 -2.0069 -0.8984 -1.5617
 8306SOL     OW36376   0.072   1.960   7.632  0.0667 -0.1254  0.0454
 8306SOL    HW136377   4.717   1.978   7.679 -1.0282 -1.1652 -1.4367
 8306SOL    HW236378   0.056   1.866   7.629 -1.1335  0.0505  0.6530
 8307SOL     OW36379   2.217   3.473  16.414 -0.1075 -0.0422 -0.1664
 8307SOL    HW136380   2.211   3.473  16.510 -0.6425  0.3570 -0.2037
 8307SOL    HW236381   2.143   3.525  16.383  2.5958  3.5503 -0.5564
 8308SOL     OW36382   0.205   2.498   9.747  0.3227  0.5678  0.7411
 8308SOL    HW136383   0.165   2.456   9.823 -0.8422  0.6905  0.1937
 8308SOL    HW236384   0.131   2.524   9.693  1.4031 -0.4447 -1.2288
 8309SOL     OW36385   2.150   0.101   8.285  0.4965  0.3677 -0.2348
 8309SOL    HW136386   2.099   0.038   8.336 -0.2537 -0.8388 -2.4931
 8309SOL    HW236387   2.132   0.080   8.194 -0.9288  2.6572 -0.4976
 8310SOL     OW36388   3.632   3.433   4.250  0.2296 -0.4715 -0.4082
 8310SOL    HW136389   3.677   3.482   4.181 -2.3517  0.4352 -1.4679
 8310SOL    HW236390   3.605   3.503   4.309  2.1764 -0.5599  0.5861
 8311SOL     OW36391   0.179   3.117   5.766  0.2815 -0.4596 -0.3931
 8311SOL    HW136392   0.125   3.104   5.688  1.3980  0.4981 -1.3259
 8311SOL    HW236393   0.235   3.040   5.770 -1.5346 -1.9627 -3.6908
 8312SOL     OW36394   1.130   3.084   4.100 -0.3758 -0.2126 -0.0293
 8312SOL    HW136395   1.114   3.151   4.167 -1.3914 -1.1757  0.6976
 8312SOL    HW236396   1.220   3.062   4.125  0.5752  2.2808 -1.2544
 8313SOL     OW36397   2.511   4.472  16.157 -0.1504  0.1994 -0.5809
 8313SOL    HW136398   2.530   4.533  16.086  0.7415 -0.0252 -0.5264
 8313SOL    HW236399   2.446   4.514  16.213 -1.3657 -0.9965 -1.0706
 8314SOL     OW36400   1.590   4.228   9.855 -0.4585  0.2685  0.6339
 8314SOL    HW136401   1.602   4.318   9.824 -0.0951  0.6369  1.8509
 8314SOL    HW236402   1.554   4.248   9.941  1.9950 -0.1032  1.7613
 8315SOL     OW36403   2.142   1.155  11.391  0.3425  0.5979  0.9130
 8315SOL    HW136404   2.153   1.060  11.397 -0.8884  0.5273  2.1883
 8315SOL    HW236405   2.048   1.161  11.409 -0.0359 -0.0764 -0.8024
 8316SOL     OW36406   2.863   1.383   6.863 -0.1181  0.8621 -0.3682
 8316SOL    HW136407   2.785   1.341   6.825  0.6566 -1.3906  0.5155
 8316SOL    HW236408   2.868   1.338   6.947 -1.1776  0.5165 -0.4800
 8317SOL     OW36409   0.717   4.373   7.339  0.0965  0.0166  0.3228
 8317SOL    HW136410   0.721   4.291   7.388 -0.0365 -1.0811 -1.5238
 8317SOL    HW236411   0.649   4.421   7.386 -0.8495 -0.5081 -0.4972
 8318SOL     OW36412   4.075   0.084   2.734  0.0418  0.0455 -0.2983
 8318SOL    HW136413   3.984   0.065   2.711 -0.0068 -1.6639  1.2909
 8318SOL    HW236414   4.060   0.165   2.783  1.2074 -0.9110  1.6256
 8319SOL     OW36415   2.192   4.464   9.128 -0.3699 -0.0996  0.2486
 8319SOL    HW136416   2.137   4.470   9.206  1.8844 -0.0474  1.8441
 8319SOL    HW236417   2.224   4.553   9.116  1.0664 -0.5443  0.7734
 8320SOL     OW36418   0.380   0.823   5.850 -0.2759  0.5108  0.1166
 8320SOL    HW136419   0.419   0.781   5.927  0.9079 -0.6333 -1.0941
 8320SOL    HW236420   0.435   0.901   5.844 -0.7411  0.6014 -3.0608
 8321SOL     OW36421   4.007   3.997  12.370 -0.1500  0.0483 -0.6450
 8321SOL    HW136422   4.071   4.068  12.372  0.0109 -0.1405  0.9489
 8321SOL    HW236423   3.931   4.053  12.381  0.2826  0.8306 -1.6272
 8322SOL     OW36424   4.464   0.520   5.352 -0.2630  0.3066 -1.0275
 8322SOL    HW136425   4.479   0.545   5.444  1.2869 -0.3580 -1.0965
 8322SOL    HW236426   4.544   0.467   5.345 -1.1509 -1.4292  1.6638
 8323SOL     OW36427   4.192   2.265   7.482 -0.1952 -0.7860  0.0131
 8323SOL    HW136428   4.282   2.264   7.449 -0.6110 -0.6624 -1.1063
 8323SOL    HW236429   4.207   2.225   7.568 -0.2871 -2.5740 -0.7932
 8324SOL     OW36430   4.106   1.380   8.992 -0.4345  0.3997  0.2444
 8324SOL    HW136431   4.043   1.393   8.921 -0.6725 -2.7250 -0.1201
 8324SOL    HW236432   4.076   1.442   9.058  0.9793  0.7965  0.5318
 8325SOL     OW36433   2.550   2.144  10.755 -0.2363 -0.0971 -0.1598
 8325SOL    HW136434   2.563   2.064  10.808 -0.0984  0.4704  0.6624
 8325SOL    HW236435   2.588   2.209  10.814  2.5921 -0.6262 -1.3936
 8326SOL     OW36436   2.884   1.512   9.926  0.2821 -0.2205 -0.1807
 8326SOL    HW136437   2.883   1.602   9.959 -0.7822 -0.3492  0.1241
 8326SOL    HW236438   2.792   1.490   9.939  1.1007 -2.3875  1.9769
 8327SOL     OW36439   0.919   1.282   7.436  0.2391 -0.3206 -0.1951
 8327SOL    HW136440   0.904   1.306   7.345  2.0934 -1.8626 -0.8934
 8327SOL    HW236441   0.911   1.187   7.425 -2.0077 -0.2321  0.5946
 8328SOL     OW36442   1.605   1.365   8.524 -0.0556 -0.2515 -0.1504
 8328SOL    HW136443   1.548   1.305   8.476 -0.1579 -0.3619  0.1098
 8328SOL    HW236444   1.669   1.310   8.571  0.8871  2.1104  1.3807
 8329SOL     OW36445   1.089   4.440   3.381 -0.4478 -0.2346  0.8346
 8329SOL    HW136446   1.043   4.466   3.301 -1.2148  0.8319  1.6308
 8329SOL    HW236447   1.154   4.378   3.347 -1.2274 -0.6941  0.1741
 8330SOL     OW36448   3.398   2.924   6.867  0.1126  0.5504  0.0024
 8330SOL    HW136449   3.478   2.870   6.864 -1.8691 -2.5209  2.5565
 8330SOL    HW236450   3.396   2.937   6.962  0.5828  0.2515  0.0547
 8331SOL     OW36451   2.469   2.297   4.001  0.4823  0.2780 -0.0319
 8331SOL    HW136452   2.409   2.291   3.927 -0.6712 -2.6172  1.0905
 8331SOL    HW236453   2.535   2.231   3.980  0.5515  0.4468 -0.3343
 8332SOL     OW36454   3.520   2.498  13.067  0.9239  0.0799 -0.4095
 8332SOL    HW136455   3.465   2.508  12.989  0.2106 -0.6625 -0.0055
 8332SOL    HW236456   3.483   2.574  13.111  1.3210 -0.3429  0.6414
 8333SOL     OW36457   1.553   1.774   6.540  0.0342 -0.7429  0.4472
 8333SOL    HW136458   1.619   1.774   6.470 -0.4526 -1.1218 -0.0132
 8333SOL    HW236459   1.548   1.862   6.577  0.1058 -0.8996  0.8286
 8334SOL     OW36460   1.196   0.900   6.895 -0.0669 -0.2043 -0.1127
 8334SOL    HW136461   1.161   0.811   6.893  2.8898 -1.4580  2.4198
 8334SOL    HW236462   1.131   0.938   6.836 -0.4706 -2.1029 -0.8981
 8335SOL     OW36463   1.369   1.701   4.133  0.1805 -0.7570  0.1195
 8335SOL    HW136464   1.397   1.782   4.090 -2.0413  0.1504  0.3954
 8335SOL    HW236465   1.275   1.705   4.117  0.5482  1.1156 -1.6939
 8336SOL     OW36466   2.932   1.387   2.044  0.3659  0.0425  0.3071
 8336SOL    HW136467   3.015   1.393   2.092  0.9861 -0.5237 -0.6858
 8336SOL    HW236468   2.872   1.448   2.086  0.1830 -0.8369  1.3030
 8337SOL     OW36469   2.326   1.179   0.342  0.0824 -0.1518 -0.2111
 8337SOL    HW136470   2.243   1.208   0.305 -0.2607  1.5856  1.9040
 8337SOL    HW236471   2.364   1.260   0.376 -1.6584 -0.3197  2.1781
 8338SOL     OW36472   3.015   2.512   5.083 -0.4001 -0.0388  0.4538
 8338SOL    HW136473   2.953   2.501   5.155 -1.0571  2.5402  0.2547
 8338SOL    HW236474   3.100   2.522   5.127  0.5108  1.9496 -1.7922
 8339SOL     OW36475   0.276   3.842   5.127  0.0191 -0.2161 -0.1805
 8339SOL    HW136476   0.347   3.903   5.144  0.1509 -0.5904  0.6160
 8339SOL    HW236477   0.265   3.816   5.219  1.6362 -1.1854 -0.2703
 8340SOL     OW36478   4.309   1.631   9.723  0.5490  0.6215  0.4028
 8340SOL    HW136479   4.300   1.709   9.668 -1.4021  0.3330  0.3078
 8340SOL    HW236480   4.225   1.636   9.770  0.2046  2.4344 -0.4058
 8341SOL     OW36481   3.540   3.251   3.351  0.3422 -0.9062 -0.1268
 8341SOL    HW136482   3.594   3.329   3.338 -1.1766 -0.2208 -2.4759
 8341SOL    HW236483   3.608   3.193   3.384  1.0299 -0.7838 -1.2915
 8342SOL     OW36484   2.569   3.500   9.178 -0.3967  0.2458  0.5776
 8342SOL    HW136485   2.594   3.435   9.244 -0.4449  0.3872  0.7346
 8342SOL    HW236486   2.647   3.552   9.156  1.0888 -1.7039  1.2618
 8343SOL     OW36487   4.374   3.608   6.372 -0.1949 -0.4513  0.0845
 8343SOL    HW136488   4.311   3.537   6.385  0.9549 -1.7445 -1.4012
 8343SOL    HW236489   4.450   3.552   6.386  2.2526  2.6868 -0.6496
 8344SOL     OW36490   2.197   1.281  15.804  0.9923  0.0143  0.1491
 8344SOL    HW136491   2.157   1.365  15.782 -1.3440 -1.1075  0.0582
 8344SOL    HW236492   2.289   1.285  15.779  0.7168 -0.2366 -0.9092
 8345SOL     OW36493   2.906   1.538   3.566 -0.1303  0.1328 -0.3220
 8345SOL    HW136494   2.837   1.601   3.543  1.7305  1.0953 -3.1437
 8345SOL    HW236495   2.859   1.470   3.615 -1.8130  0.5883 -1.2814
 8346SOL     OW36496   0.684   0.168  10.086  0.1921  0.3907  0.7320
 8346SOL    HW136497   0.721   0.237  10.141  1.8030  0.7987 -0.8442
 8346SOL    HW236498   0.744   0.103  10.122  0.8404  0.2892 -0.5082
 8347SOL     OW36499   0.066   4.194   6.130  0.6448 -0.6111  0.1002
 8347SOL    HW136500   0.131   4.258   6.099 -0.4335  0.2724 -0.3341
 8347SOL    HW236501   0.004   4.252   6.174  1.9694  0.5852  0.4110
 8348SOL     OW36502   4.572   3.815   7.036  0.4665 -0.1545 -0.3094
 8348SOL    HW136503   4.487   3.818   6.994  0.3887 -1.5234 -0.2717
 8348SOL    HW236504   4.631   3.819   6.960  2.7799 -1.5912  1.3916
 8349SOL     OW36505   0.829   4.338  10.593  0.1929 -0.7360  0.7442
 8349SOL    HW136506   0.840   4.253  10.551  0.4711 -0.1730 -0.3442
 8349SOL    HW236507   0.850   4.312  10.683  2.8555 -1.1625  0.0032
 8350SOL     OW36508   3.413   2.926   8.104  0.0273  0.5494 -0.0618
 8350SOL    HW136509   3.431   2.919   8.198  1.0881  0.8302 -0.2368
 8350SOL    HW236510   3.326   2.958   8.125 -0.1725 -0.2741  0.3577
 8351SOL     OW36511   2.832   0.099   3.788  0.5703  0.3390 -0.0160
 8351SOL    HW136512   2.782   0.176   3.816  0.8556  0.7048 -0.5047
 8351SOL    HW236513   2.895   0.151   3.737 -1.1278 -0.6893 -3.1592
 8352SOL     OW36514   4.427   1.831   2.930  0.1645 -0.0668  0.2866
 8352SOL    HW136515   4.504   1.820   2.984  1.2235 -0.9566 -1.3868
 8352SOL    HW236516   4.404   1.738   2.925 -0.0021 -0.0363  0.4753
 8353SOL     OW36517   1.595   3.169   1.499  0.3870  0.0252 -0.1645
 8353SOL    HW136518   1.561   3.202   1.416 -0.1535 -0.5126 -0.1604
 8353SOL    HW236519   1.638   3.250   1.528 -1.1671  0.0075  2.2046
 8354SOL     OW36520   0.498   0.729   8.619  0.3001  0.2256 -0.0000
 8354SOL    HW136521   0.452   0.807   8.652  1.7292  0.3737  1.6558
 8354SOL    HW236522   0.430   0.664   8.604  0.3101  0.6675 -1.9006
 8355SOL     OW36523   2.851   3.478  12.229 -0.4485  0.0979  0.2191
 8355SOL    HW136524   2.823   3.428  12.152  1.3409  2.6927 -2.1143
 8355SOL    HW236525   2.942   3.500  12.207 -0.0888 -0.6712  0.9311
 8356SOL     OW36526   3.429   2.082   8.420 -0.4787  0.5204  0.1173
 8356SOL    HW136527   3.427   2.156   8.481  0.8382 -0.4048  1.2779
 8356SOL    HW236528   3.371   2.023   8.468  0.1616  0.5891  0.9827
 8357SOL     OW36529   2.113   1.167  10.353 -0.1431 -0.0663  0.4077
 8357SOL    HW136530   2.170   1.241  10.331 -2.0799  1.6608  1.2924
 8357SOL    HW236531   2.038   1.180  10.296 -0.0982  0.6077  0.5019
 8358SOL     OW36532   1.849   2.406  13.860  0.3200 -0.2346 -0.0069
 8358SOL    HW136533   1.811   2.332  13.812 -3.0293  0.4597  1.5930
 8358SOL    HW236534   1.846   2.479  13.798 -1.2506 -0.9803 -0.8183
 8359SOL     OW36535   1.378   3.975   4.297 -0.4270 -0.0313 -0.1806
 8359SOL    HW136536   1.421   3.957   4.380  0.3987  0.1831 -0.5677
 8359SOL    HW236537   1.365   4.070   4.307  0.4205 -0.1901  2.3113
 8360SOL     OW36538   1.917   1.231   6.154 -0.3641 -0.1255  0.4899
 8360SOL    HW136539   1.995   1.284   6.162 -0.7914  0.3130  1.6956
 8360SOL    HW236540   1.877   1.264   6.234 -1.2676 -1.0544  0.4332
 8361SOL     OW36541   0.916   1.892   7.816 -0.0991  0.4544  0.3484
 8361SOL    HW136542   0.998   1.865   7.858  0.6788 -0.5509 -1.7980
 8361SOL    HW236543   0.925   1.987   7.805  0.7962  0.0584 -2.1967
 8362SOL     OW36544   3.522   0.717  10.164  0.0897  0.3300  0.2216
 8362SOL    HW136545   3.518   0.692  10.257 -0.5866 -0.5668 -0.0615
 8362SOL    HW236546   3.432   0.745  10.149  0.0811 -0.3271 -0.9354
 8363SOL     OW36547   3.114   2.499   8.809 -0.2549  0.1086 -0.1978
 8363SOL    HW136548   3.054   2.560   8.767 -1.9247 -2.1937 -1.1623
 8363SOL    HW236549   3.171   2.479   8.735 -1.1841 -0.0813 -0.8610
 8364SOL     OW36550   2.299   3.792   4.093  0.4456  0.2990  0.4223
 8364SOL    HW136551   2.304   3.719   4.154  0.2962 -0.0015  0.0754
 8364SOL    HW236552   2.307   3.759   4.003 -0.0537  1.5426 -0.0825
 8365SOL     OW36553   1.802   2.041   4.148 -0.5019  0.0099  0.1118
 8365SOL    HW136554   1.800   2.136   4.163 -0.5252 -0.4147  2.8656
 8365SOL    HW236555   1.782   2.043   4.055  0.2985  0.4348 -0.0548
 8366SOL     OW36556   0.252   3.818   4.641 -0.5876 -0.0571 -0.1512
 8366SOL    HW136557   0.249   3.792   4.733 -4.0072 -0.2273 -0.3239
 8366SOL    HW236558   0.286   3.734   4.610 -1.6625 -0.2941 -0.6919
 8367SOL     OW36559   0.239   4.723   0.846 -0.1636 -0.6701 -0.0372
 8367SOL    HW136560   0.307   0.042   0.796 -1.0727 -0.0200 -0.6776
 8367SOL    HW236561   0.160   0.016   0.796  0.8649 -1.8684 -2.1320
 8368SOL     OW36562   4.202   3.297   4.722 -0.3218 -0.5529  0.0130
 8368SOL    HW136563   4.293   3.317   4.701  0.1546 -0.5044  2.0575
 8368SOL    HW236564   4.167   3.382   4.697  2.8750  0.7309 -0.1372
 8369SOL     OW36565   1.694   1.568  15.304  0.2497  0.1909 -0.4785
 8369SOL    HW136566   1.610   1.613  15.318  0.1731  0.6789 -2.5399
 8369SOL    HW236567   1.657   1.482  15.282 -0.4750 -0.0066  1.4850
 8370SOL     OW36568   4.356   0.972   2.850  0.2974 -0.6020  0.3244
 8370SOL    HW136569   4.389   1.049   2.803  0.8669 -0.3036  1.2035
 8370SOL    HW236570   4.361   0.901   2.786 -2.1745 -1.2599  0.8548
 8371SOL     OW36571   2.144   3.614   4.706 -0.4519 -0.2466  0.0627
 8371SOL    HW136572   2.156   3.709   4.704  1.7839 -0.5606 -0.6893
 8371SOL    HW236573   2.192   3.594   4.786 -0.0788  0.5417  0.0366
 8372SOL     OW36574   1.817   1.493   1.022  0.6419  0.6081  0.0911
 8372SOL    HW136575   1.816   1.549   0.944 -1.2147  2.4415  1.4261
 8372SOL    HW236576   1.723   1.477   1.034  0.5454 -0.7578 -2.3897
 8373SOL     OW36577   4.703   1.098   8.496  0.3473 -0.0307  0.0699
 8373SOL    HW136578   4.648   1.030   8.535 -0.4994  0.8500  0.4164
 8373SOL    HW236579   4.640   1.131   8.432  0.2142  1.3136  0.8847
 8374SOL     OW36580   0.052   2.744   4.597  0.4765  0.2206 -0.1612
 8374SOL    HW136581   0.092   2.660   4.615  2.8000  1.0465 -1.4706
 8374SOL    HW236582   4.696   2.715   4.558  0.1719 -0.0347  0.6556
 8375SOL     OW36583   1.117   0.267   3.259 -0.1176 -0.3956 -0.7604
 8375SOL    HW136584   1.025   0.244   3.245  0.0040 -0.1011 -2.0423
 8375SOL    HW236585   1.162   0.283   3.176  1.8798  2.2044  0.8401
 8376SOL     OW36586   4.067   1.970   7.536 -0.3305 -0.3924  0.2543
 8376SOL    HW136587   4.130   1.901   7.558 -0.1259 -0.6599 -1.1570
 8376SOL    HW236588   4.026   1.987   7.621 -0.4312  1.5497 -0.1857
 8377SOL     OW36589   2.472   3.433   4.722  0.3594  0.0631 -0.1030
 8377SOL    HW136590   2.459   3.381   4.801  1.8860 -1.3364 -0.7974
 8377SOL    HW236591   2.503   3.373   4.655  1.2908  0.1071  0.2844
 8378SOL     OW36592   1.892   1.118   6.855 -0.5963 -0.5781  0.0943
 8378SOL    HW136593   1.972   1.170   6.864  0.0513 -2.0420  2.7323
 8378SOL    HW236594   1.914   1.026   6.849  0.9427 -0.1494 -0.9397
 8379SOL     OW36595   1.415   2.234   3.755  0.0144 -0.5399 -0.3040
 8379SOL    HW136596   1.376   2.147   3.750 -0.3127 -0.3259 -1.4293
 8379SOL    HW236597   1.437   2.246   3.848 -2.2499  1.4906 -0.0124
 8380SOL     OW36598   1.016   0.205  11.464  0.1088 -0.6594  0.3676
 8380SOL    HW136599   0.969   0.255  11.397  1.1270  1.1668  1.0009
 8380SOL    HW236600   1.102   0.193  11.423  0.9088  0.3127  1.7503
 8381SOL     OW36601   1.505   0.059   5.322 -0.0125  0.7686  0.2191
 8381SOL    HW136602   1.516   0.060   5.227 -2.2776  1.2141 -0.0453
 8381SOL    HW236603   1.544   0.145   5.340  0.9242 -0.0961  2.3001
 8382SOL     OW36604   3.067   1.984   5.968  0.9620 -0.2068  0.2503
 8382SOL    HW136605   3.104   2.068   5.939 -1.3006  0.8821  0.4705
 8382SOL    HW236606   3.133   1.918   5.949  0.5482 -0.7840  0.8215
 8383SOL     OW36607   2.666   1.748   3.205 -0.0909  0.9438 -0.1475
 8383SOL    HW136608   2.754   1.738   3.168 -0.3629 -0.1549 -0.4850
 8383SOL    HW236609   2.686   1.737   3.298  1.5292  1.7956 -0.3886
 8384SOL     OW36610   1.906   4.207   2.875 -0.4383 -0.3534  0.5279
 8384SOL    HW136611   1.960   4.133   2.903  0.8499 -0.4080 -2.1016
 8384SOL    HW236612   1.928   4.199   2.782  1.9619  0.8408  0.9936
 8385SOL     OW36613   2.334   3.774   3.537 -0.4468  0.0570  1.0602
 8385SOL    HW136614   2.314   3.832   3.464 -0.2083 -0.5316  0.5254
 8385SOL    HW236615   2.429   3.786   3.546 -0.2616 -0.0492 -0.8377
 8386SOL     OW36616   1.826   2.587  10.838  0.0362 -0.8068 -0.3703
 8386SOL    HW136617   1.901   2.593  10.779  0.6215  1.0182  0.5636
 8386SOL    HW236618   1.767   2.651  10.800  0.0480 -1.0126 -0.7362
 8387SOL     OW36619   3.816   0.731  13.247  0.1514 -0.2876 -0.2655
 8387SOL    HW136620   3.750   0.798  13.263 -0.2407 -0.7965  0.2765
 8387SOL    HW236621   3.770   0.662  13.296  2.0876  1.0841  3.4398
 8388SOL     OW36622   4.444   1.291   8.579  0.6502  0.2191 -0.4547
 8388SOL    HW136623   4.408   1.378   8.557  0.2231  0.2407  0.3617
 8388SOL    HW236624   4.403   1.278   8.664 -2.1558  2.1056 -1.5006
 8389SOL     OW36625   1.004   2.045   1.289 -0.3571 -0.5109 -0.5083
 8389SOL    HW136626   0.984   2.114   1.352 -1.8279  0.2727 -1.8430
 8389SOL    HW236627   1.099   2.030   1.289 -0.1776  0.6572  1.0741
 8390SOL     OW36628   1.317   2.663   0.908 -0.1330  0.7477 -0.0685
 8390SOL    HW136629   1.279   2.639   0.824  1.1351 -1.8924  0.1106
 8390SOL    HW236630   1.277   2.595   0.962 -0.1580  0.5280 -0.3652
 8391SOL     OW36631   0.487   1.485   4.893  0.2030 -0.0107 -0.3414
 8391SOL    HW136632   0.442   1.565   4.922  0.4464  0.4170 -1.1507
 8391SOL    HW236633   0.578   1.495   4.924  0.0099 -0.3097  0.3147
 8392SOL     OW36634   4.683   1.481   8.447 -0.3585 -0.0936  0.1340
 8392SOL    HW136635   4.595   1.443   8.452 -0.1318 -0.8725 -1.6159
 8392SOL    HW236636   4.691   1.508   8.538  0.1076  0.5350 -0.0883
 8393SOL     OW36637   1.467   3.808   8.329 -0.5151 -0.0858  0.1074
 8393SOL    HW136638   1.433   3.736   8.276 -0.5977 -1.1134  1.5698
 8393SOL    HW236639   1.553   3.819   8.288 -0.1513 -2.1562  0.3256
 8394SOL     OW36640   3.838   2.030   8.772 -0.0044  0.0424 -0.3274
 8394SOL    HW136641   3.834   2.013   8.866  0.9632 -1.2892 -0.5178
 8394SOL    HW236642   3.804   2.118   8.759 -0.5575  0.3526  3.4165
 8395SOL     OW36643   2.312   0.429   9.435 -0.4672  0.5913 -0.1785
 8395SOL    HW136644   2.300   0.335   9.444  0.5466  0.6875  2.0067
 8395SOL    HW236645   2.287   0.465   9.520 -1.3113 -0.3141 -0.0394
 8396SOL     OW36646   4.636   3.426   8.069 -0.2460  0.1951  0.0676
 8396SOL    HW136647   4.716   3.454   8.112 -0.8154  1.3189  0.3963
 8396SOL    HW236648   4.604   3.507   8.029 -0.8764 -1.1850 -2.2539
 8397SOL     OW36649   3.389   1.846   9.056  0.5695  0.0378 -0.6165
 8397SOL    HW136650   3.477   1.885   9.053  0.8849 -0.6955 -0.9219
 8397SOL    HW236651   3.369   1.828   8.964  2.5321  0.5912 -1.1583
 8398SOL     OW36652   4.657   2.888   7.763  0.0990 -0.4725  0.2023
 8398SOL    HW136653   4.671   2.795   7.745  1.7922 -0.4337  1.3840
 8398SOL    HW236654   0.002   2.929   7.713  0.9483 -2.3759 -0.1524
 8399SOL     OW36655   3.965   0.362   2.132  0.1211  0.4304 -0.1703
 8399SOL    HW136656   4.051   0.403   2.130 -0.1517  0.9732 -0.8942
 8399SOL    HW236657   3.970   0.297   2.062  0.7168 -0.5051  0.7511
 8400SOL     OW36658   4.104   4.530   8.976 -0.3068  0.0034  0.0612
 8400SOL    HW136659   4.082   4.556   9.065 -1.6085  0.4410 -0.3902
 8400SOL    HW236660   4.187   4.577   8.972  0.9761 -2.0266  2.2695
 8401SOL     OW36661   0.865   0.517   3.582  0.4670  0.2888  0.5419
 8401SOL    HW136662   0.935   0.577   3.609  1.6066 -1.9526  2.4818
 8401SOL    HW236663   0.791   0.576   3.600  0.2970 -0.1038  1.1074
 8402SOL     OW36664   1.904   3.522   6.588  0.1493 -0.2271  0.3296
 8402SOL    HW136665   1.954   3.567   6.656 -0.9931  2.5525 -0.6739
 8402SOL    HW236666   1.912   3.433   6.621  1.5825 -0.9148 -1.9012
 8403SOL     OW36667   3.901   3.599  13.088  0.4813 -0.1612  0.6591
 8403SOL    HW136668   3.885   3.539  13.015  0.4342 -0.9796  1.3418
 8403SOL    HW236669   3.902   3.681  13.039  1.8797 -0.2147  0.6003
 8404SOL     OW36670   0.020   3.131   9.683 -0.0545  0.1007 -0.3216
 8404SOL    HW136671   4.708   3.128   9.596  0.6795 -1.7470 -0.5832
 8404SOL    HW236672   4.682   3.102   9.748  1.5155 -1.5279  0.5194
 8405SOL     OW36673   1.314   3.033   6.617  0.3158 -0.7002 -0.2928
 8405SOL    HW136674   1.396   3.083   6.623 -0.0022  0.0477 -2.2561
 8405SOL    HW236675   1.292   3.053   6.708  1.8573 -0.6965  0.0785
 8406SOL     OW36676   0.511   1.269  16.147 -0.5117  0.0242 -0.5093
 8406SOL    HW136677   0.454   1.335  16.187  1.3062  1.3953 -0.2024
 8406SOL    HW236678   0.460   1.241  16.071 -0.6563 -0.4929 -0.2247
 8407SOL     OW36679   0.960   4.061  11.264 -0.3616 -0.6002  0.3277
 8407SOL    HW136680   0.870   4.048  11.296 -0.7112 -1.8347 -1.1450
 8407SOL    HW236681   0.984   3.981  11.217  0.0811  0.0712 -0.5791
 8408SOL     OW36682   1.528   0.721  16.673 -0.0379  0.2236 -0.0196
 8408SOL    HW136683   1.486   0.794  16.720  0.3336  0.1028  0.5022
 8408SOL    HW236684   1.541   0.756  16.585 -0.9319 -1.0267 -0.6418
 8409SOL     OW36685   2.088   1.906  17.165 -0.0616  0.0338  0.4618
 8409SOL    HW136686   2.041   1.986  17.188 -1.3145 -0.5009 -0.2133
 8409SOL    HW236687   2.053   1.877  17.081  0.4843  1.1928 -0.1656
 8410SOL     OW36688   2.213   4.148   7.067 -0.4734  0.2455  0.0298
 8410SOL    HW136689   2.129   4.190   7.088 -0.6634 -0.4080  0.5770
 8410SOL    HW236690   2.186   4.064   7.032 -1.7817  1.5321 -2.0429
 8411SOL     OW36691   3.382   2.948   7.159 -0.2835 -0.5719  0.0790
 8411SOL    HW136692   3.452   2.888   7.181 -1.4185 -3.0171 -2.9298
 8411SOL    HW236693   3.405   3.023   7.213 -0.4232  0.9445 -1.9346
 8412SOL     OW36694   2.275   0.686   6.441  0.0524 -0.3109 -0.1114
 8412SOL    HW136695   2.368   0.704   6.431  0.1459  0.0810  1.3834
 8412SOL    HW236696   2.252   0.747   6.512 -1.2524  1.9467 -2.4917
 8413SOL     OW36697   0.241   0.944  15.867 -0.5470 -0.0081 -0.0809
 8413SOL    HW136698   0.315   0.975  15.815 -1.5943 -0.3850 -1.7883
 8413SOL    HW236699   0.252   0.849  15.865  0.4315  0.0334  2.1471
 8414SOL     OW36700   0.799   3.559   5.134 -0.1970 -0.0275  0.2558
 8414SOL    HW136701   0.893   3.539   5.130  0.0591  0.9263  1.4560
 8414SOL    HW236702   0.775   3.542   5.043 -0.9764  0.0140  0.4524
 8415SOL     OW36703   1.260   0.445   4.497 -0.0288  0.9577  0.2284
 8415SOL    HW136704   1.257   0.377   4.430 -0.2178  1.0054  0.1898
 8415SOL    HW236705   1.266   0.383   4.571 -0.5028  0.3223 -0.2683
 8416SOL     OW36706   0.320   1.246   1.395  0.4290  0.1526  0.0073
 8416SOL    HW136707   0.355   1.188   1.328  0.4458 -0.5754  0.6425
 8416SOL    HW236708   0.388   1.251   1.462  1.1460  0.4850 -0.7606
 8417SOL     OW36709   0.766   4.360  13.487  0.5366 -0.1621  0.2225
 8417SOL    HW136710   0.777   4.414  13.566 -0.9812  1.3284 -0.5817
 8417SOL    HW236711   0.682   4.391  13.454 -0.0999 -1.9431  0.1831
 8418SOL     OW36712   4.207   1.620   1.825 -0.1430  0.9851  0.6295
 8418SOL    HW136713   4.223   1.672   1.904 -0.7444 -0.2938  1.5853
 8418SOL    HW236714   4.118   1.585   1.829 -0.8933  2.6903 -1.0006
 8419SOL     OW36715   3.320   4.052   6.927 -0.4859 -0.1458 -0.3520
 8419SOL    HW136716   3.368   4.080   7.006  0.3606  0.7411 -1.1900
 8419SOL    HW236717   3.400   4.026   6.881 -0.5241 -1.9386  0.5923
 8420SOL     OW36718   2.163   0.715   3.047  0.4803  0.0832 -0.3298
 8420SOL    HW136719   2.157   0.804   3.080  0.4032  0.0218 -0.1808
 8420SOL    HW236720   2.248   0.720   3.001  0.4183  0.1404 -0.4384
 8421SOL     OW36721   0.761   1.477   0.605 -0.1065  0.4803  0.8423
 8421SOL    HW136722   0.805   1.395   0.629  0.7814  0.1510 -1.8576
 8421SOL    HW236723   0.751   1.523   0.688 -1.6303  0.8269  0.4588
 8422SOL     OW36724   0.510   3.889  17.392  0.7316 -0.6272 -0.0700
 8422SOL    HW136725   0.543   3.901  17.303  1.8629  1.1055  0.5798
 8422SOL    HW236726   0.444   3.957  17.406  1.4832  0.2711 -0.9130
 8423SOL     OW36727   3.570   2.386   7.448 -0.5098 -0.0976  0.3540
 8423SOL    HW136728   3.553   2.436   7.368  0.4111 -0.3236  0.0144
 8423SOL    HW236729   3.607   2.307   7.409  0.6779 -0.5821  2.4355
 8424SOL     OW36730   4.375   0.068   7.514 -0.0675  0.3877 -0.3610
 8424SOL    HW136731   4.424   4.718   7.485  1.8472  0.8652  1.5877
 8424SOL    HW236732   4.357   0.112   7.431  2.3534 -0.5037 -1.3692
 8425SOL     OW36733   3.701   0.563   0.860 -0.8486 -0.2002 -0.1653
 8425SOL    HW136734   3.656   0.540   0.941 -1.8224 -1.6749 -1.1069
 8425SOL    HW236735   3.641   0.613   0.804 -1.2472 -1.5402 -0.9527
 8426SOL     OW36736   2.011   2.863   8.522 -0.0763  0.2026 -0.4851
 8426SOL    HW136737   2.009   2.895   8.613 -1.7090 -0.5158 -0.2713
 8426SOL    HW236738   2.094   2.893   8.485  0.8979  1.0368  2.3076
 8427SOL     OW36739   1.053   1.342   4.826 -0.5411  0.1743  0.2803
 8427SOL    HW136740   1.022   1.329   4.916 -1.6658 -0.8131 -0.2574
 8427SOL    HW236741   1.054   1.250   4.797  2.6628  0.4831 -0.6233
 8428SOL     OW36742   3.920   3.389   3.916 -0.4018 -0.6102 -0.0373
 8428SOL    HW136743   3.971   3.366   3.838 -0.1016 -0.7890  0.2113
 8428SOL    HW236744   3.945   3.480   3.934 -1.2142 -0.4753  0.4206
 8429SOL     OW36745   4.375   3.048   2.081  0.4831  0.2113 -0.5228
 8429SOL    HW136746   4.334   2.962   2.081  0.2921  0.3043 -3.1815
 8429SOL    HW236747   4.321   3.077   2.007 -1.1787 -0.9677  0.2390
 8430SOL     OW36748   0.229   0.747   8.053 -0.3615  0.7682  0.2266
 8430SOL    HW136749   0.259   0.836   8.073  1.3439 -0.6266  3.8816
 8430SOL    HW236750   0.222   0.714   8.143 -1.6744  0.7409  0.1144
 8431SOL     OW36751   1.881   3.529   5.345  0.0576 -0.1612 -0.3588
 8431SOL    HW136752   1.953   3.469   5.322 -0.2234 -0.6641  0.0758
 8431SOL    HW236753   1.874   3.588   5.270  0.7991 -2.1037 -1.9785
 8432SOL     OW36754   2.244   2.848   8.126 -0.0594 -0.4559  0.3092
 8432SOL    HW136755   2.171   2.860   8.066  1.1343 -1.0226 -1.2701
 8432SOL    HW236756   2.231   2.756   8.148  1.6456 -1.0503 -1.2296
 8433SOL     OW36757   1.645   2.840   4.565  0.2099  0.2029  0.4608
 8433SOL    HW136758   1.739   2.854   4.581 -0.1445  2.4475  0.5238
 8433SOL    HW236759   1.659   2.754   4.525 -1.2340  0.3779 -0.4020
 8434SOL     OW36760   2.137   1.666  10.057  0.3677  0.9613 -0.4131
 8434SOL    HW136761   2.196   1.733  10.091 -1.7892  2.8955 -0.4966
 8434SOL    HW236762   2.053   1.709  10.073 -0.6840 -0.4937 -1.9907
 8435SOL     OW36763   2.893   0.793   1.216  0.7928 -0.0713  0.0220
 8435SOL    HW136764   2.859   0.881   1.198 -0.2966 -0.4636  0.1173
 8435SOL    HW236765   2.834   0.751   1.153 -1.3568  0.0680  1.9160
 8436SOL     OW36766   2.503   2.596   4.556  0.2190 -0.4484 -0.4636
 8436SOL    HW136767   2.535   2.686   4.554 -0.4368 -0.1664  2.0402
 8436SOL    HW236768   2.583   2.544   4.550  0.8330  0.7991 -3.0365
 8437SOL     OW36769   3.028   0.335   6.428 -0.0641 -0.5105 -0.0690
 8437SOL    HW136770   2.955   0.280   6.457  0.3184 -1.1968 -0.4376
 8437SOL    HW236771   2.972   0.413   6.426  0.6551 -0.0111 -0.6802
 8438SOL     OW36772   2.068   4.559   4.838  0.3372  0.1659 -0.1825
 8438SOL    HW136773   2.152   4.606   4.837  0.6400 -0.3434  0.9929
 8438SOL    HW236774   2.090   4.473   4.873 -1.3345 -0.6604 -1.1769
 8439SOL     OW36775   3.568   4.582   6.597  0.2047 -0.1783  0.2334
 8439SOL    HW136776   3.642   4.522   6.601 -0.1605 -0.6198  0.2891
 8439SOL    HW236777   3.536   4.569   6.507 -1.0864  2.8043  0.2410
 8440SOL     OW36778   4.100   1.243  14.576 -0.3033 -0.2060 -0.0315
 8440SOL    HW136779   4.068   1.333  14.577 -2.2870 -0.9398  1.1042
 8440SOL    HW236780   4.064   1.210  14.494 -0.3149 -0.4680  0.0814
 8441SOL     OW36781   2.437   2.229   2.167 -0.1162 -0.0995 -0.9891
 8441SOL    HW136782   2.402   2.242   2.079  1.6772  2.7725 -1.2893
 8441SOL    HW236783   2.383   2.161   2.207 -0.7456  0.2364 -1.2786
 8442SOL     OW36784   1.893   2.991   3.413 -0.3705  0.1644  0.3890
 8442SOL    HW136785   1.948   3.029   3.345  2.8425  0.5798  3.1957
 8442SOL    HW236786   1.955   2.946   3.471 -0.2193 -0.0329  0.0711
 8443SOL     OW36787   2.284   2.713   0.584  0.5276  0.0986  0.5332
 8443SOL    HW136788   2.290   2.759   0.501  0.4946  1.2719  1.1735
 8443SOL    HW236789   2.245   2.782   0.638 -0.8980  0.0635 -0.4414
 8444SOL     OW36790   4.141   0.402   8.009  0.3180 -0.0142 -1.2638
 8444SOL    HW136791   4.088   0.380   7.932 -0.3217  0.2497 -0.9035
 8444SOL    HW236792   4.171   0.491   7.992  0.8377 -0.0320 -0.4154
 8445SOL     OW36793   1.066   3.525   3.284  0.1024  0.1923 -0.4101
 8445SOL    HW136794   1.097   3.556   3.199  2.0676 -1.0668 -0.1488
 8445SOL    HW236795   1.110   3.441   3.293 -3.3402 -1.5821  0.0688
 8446SOL     OW36796   1.379   0.047   5.002 -0.2281  0.0134 -0.1627
 8446SOL    HW136797   1.370   4.680   5.019  1.6043 -0.3256 -1.1134
 8446SOL    HW236798   1.288   0.078   4.996 -0.6672 -0.9103  1.7686
 8447SOL     OW36799   4.640   0.855   3.596 -0.1190  0.1095  0.3044
 8447SOL    HW136800   4.606   0.785   3.652  1.6605 -1.5628 -0.6699
 8447SOL    HW236801   4.688   0.908   3.660  3.0929 -1.6042 -0.6900
 8448SOL     OW36802   3.533   3.200   2.285 -0.7582 -0.2430  0.1526
 8448SOL    HW136803   3.477   3.133   2.247  1.9176 -1.4122 -1.7396
 8448SOL    HW236804   3.576   3.155   2.357 -3.2363 -0.6772  1.3477
 8449SOL     OW36805   3.771   1.101   6.863 -0.5787  0.1992  0.3020
 8449SOL    HW136806   3.791   1.023   6.914 -0.1513 -1.5000 -2.4598
 8449SOL    HW236807   3.710   1.139   6.926 -0.7090  1.2113 -0.4397
 8450SOL     OW36808   1.451   4.427   8.439  0.5645 -0.2755  0.5386
 8450SOL    HW136809   1.402   4.406   8.360  0.5438  1.9943 -0.0487
 8450SOL    HW236810   1.385   4.477   8.487  0.3406 -0.2932  0.2440
 8451SOL     OW36811   1.637   4.075   5.716 -0.4697 -0.3195 -0.1301
 8451SOL    HW136812   1.564   4.137   5.715  0.1411  0.3908 -0.2837
 8451SOL    HW236813   1.677   4.100   5.800 -0.3540 -1.2029  0.0821
 8452SOL     OW36814   2.526   0.185   3.019  0.6724  0.0448 -0.1852
 8452SOL    HW136815   2.503   0.098   3.052 -1.1345  1.9812  3.7526
 8452SOL    HW236816   2.574   0.164   2.940 -0.8033 -0.7616 -0.8640
 8453SOL     OW36817   3.090   4.673   2.898  0.2465  0.3959 -0.1566
 8453SOL    HW136818   3.037   4.713   2.829 -1.0968  0.2216  0.7648
 8453SOL    HW236819   3.170   4.725   2.902 -1.4679  3.0776 -0.5167
 8454SOL     OW36820   0.566   4.178   6.162 -0.6126 -0.2509 -0.4400
 8454SOL    HW136821   0.612   4.262   6.171 -1.7142  0.3510 -0.4421
 8454SOL    HW236822   0.585   4.136   6.246  0.9590  0.5628 -0.3740
 8455SOL     OW36823   3.621   3.728  17.691 -0.1706  0.1327  0.1076
 8455SOL    HW136824   3.574   3.712   0.068  2.1268 -0.4578  1.2780
 8455SOL    HW236825   3.545   3.718  17.634  0.6113 -0.3885 -0.8279
 8456SOL     OW36826   0.554   1.017   8.360  0.1633  0.0805 -0.0394
 8456SOL    HW136827   0.587   1.096   8.403  0.9157  0.3403 -1.0853
 8456SOL    HW236828   0.486   0.980   8.416 -0.0719 -1.2403 -1.1821
 8457SOL     OW36829   2.924   2.267  12.863  0.2214  0.3897  0.1428
 8457SOL    HW136830   2.997   2.248  12.921 -0.3350  0.7413  0.9487
 8457SOL    HW236831   2.882   2.324  12.927  0.8565  0.8018  0.1957
 8458SOL     OW36832   1.568   4.187   4.753 -0.4319 -0.0038 -0.1651
 8458SOL    HW136833   1.619   4.267   4.755 -0.8403  0.2511  0.0362
 8458SOL    HW236834   1.597   4.140   4.832 -0.8279  0.0699  0.0247
 8459SOL     OW36835   2.770   2.639   2.796 -0.7302 -0.8194  0.3106
 8459SOL    HW136836   2.699   2.702   2.785  0.4092  0.4436  0.2491
 8459SOL    HW236837   2.732   2.573   2.739 -0.5044 -1.1106  0.4957
 8460SOL     OW36838   0.351   1.934   6.777  0.2558 -0.1129 -0.1767
 8460SOL    HW136839   0.422   1.967   6.831 -0.4575 -0.5756  1.0527
 8460SOL    HW236840   0.283   1.917   6.843  0.8930 -1.5665  0.0822
 8461SOL     OW36841   0.812   3.882   9.427 -0.4393  0.4664  0.9699
 8461SOL    HW136842   0.852   3.964   9.458  0.6455  0.8007 -1.3074
 8461SOL    HW236843   0.745   3.905   9.362  1.6209 -1.2380 -1.7700
 8462SOL     OW36844   3.014   1.158   3.717  0.3274 -0.6533  0.3056
 8462SOL    HW136845   3.092   1.133   3.767  0.5271  0.7059  0.6729
 8462SOL    HW236846   3.023   1.078   3.666  0.0089 -0.3063 -0.2883
 8463SOL     OW36847   0.459   1.091   1.085  0.0914  0.3317  0.0118
 8463SOL    HW136848   0.378   1.043   1.097  1.3478 -0.9578  3.4010
 8463SOL    HW236849   0.433   1.183   1.095  2.3055  0.9460  0.1257
 8464SOL     OW36850   1.589   1.598   3.324  0.5425  0.3844 -0.0902
 8464SOL    HW136851   1.560   1.539   3.394 -0.5846 -0.1242 -0.9787
 8464SOL    HW236852   1.510   1.649   3.305 -0.7442 -1.5497 -0.0146
 8465SOL     OW36853   4.357   0.078   9.262 -0.1314  0.1463 -0.0082
 8465SOL    HW136854   4.368   0.173   9.261 -0.4926  0.2130  1.8877
 8465SOL    HW236855   4.419   0.043   9.326 -0.0131  0.5557  0.1022
 8466SOL     OW36856   0.239   2.679   2.074  0.2093  0.1280  0.1974
 8466SOL    HW136857   0.177   2.750   2.057 -1.3036 -0.8782  1.6390
 8466SOL    HW236858   0.181   2.606   2.090  1.2510 -0.5320  0.9808
 8467SOL     OW36859   0.385   4.005   5.704  0.6176 -0.1101  0.5278
 8467SOL    HW136860   0.381   3.971   5.794  0.0181 -0.3564  0.4087
 8467SOL    HW236861   0.394   3.928   5.647 -0.9906 -0.6886  1.0607
 8468SOL     OW36862   3.467   4.396   2.479 -0.0830  0.3073  0.8290
 8468SOL    HW136863   3.469   4.314   2.529  0.1608 -0.6634 -0.7746
 8468SOL    HW236864   3.562   4.405   2.486  0.0107  0.9978 -1.3823
 8469SOL     OW36865   3.794   2.414  12.292  0.2877 -0.3576 -0.0618
 8469SOL    HW136866   3.738   2.394  12.367  0.6539  2.9173  1.0815
 8469SOL    HW236867   3.880   2.395  12.330  0.1241 -0.9201  0.0321
 8470SOL     OW36868   3.028   3.531  15.924 -0.0019 -0.1487 -0.0496
 8470SOL    HW136869   2.983   3.457  15.884  1.4139 -0.2438 -1.4756
 8470SOL    HW236870   2.962   3.599  15.910 -1.2616 -1.4105 -0.2358
 8471SOL     OW36871   0.420   3.730   5.619 -0.1017 -0.5735  0.2042
 8471SOL    HW136872   0.412   3.658   5.682  0.8532 -2.1808 -1.5143
 8471SOL    HW236873   0.510   3.707   5.594 -0.4334 -0.3696 -1.1730
 8472SOL     OW36874   0.091   4.085  16.147  0.1561  0.0425 -0.0488
 8472SOL    HW136875   0.056   4.174  16.154  1.9851  0.8626 -1.2169
 8472SOL    HW236876   0.020   4.036  16.187  0.2227 -1.3342 -1.6061
 8473SOL     OW36877   2.116   3.325   4.675  0.1188  0.1636 -0.0826
 8473SOL    HW136878   2.187   3.380   4.707  1.4700 -1.5865 -0.0346
 8473SOL    HW236879   2.139   3.255   4.736 -0.4975  1.0216  1.1310
 8474SOL     OW36880   0.224   1.825   4.987 -0.5237 -0.9203 -0.5062
 8474SOL    HW136881   0.265   1.881   5.053 -0.6400  0.8206 -1.9208
 8474SOL    HW236882   0.244   1.863   4.902 -0.4400 -2.5900 -1.2411
 8475SOL     OW36883   2.060   3.382   5.207  0.8561  0.1532  0.0041
 8475SOL    HW136884   2.108   3.299   5.213 -0.4455 -0.6519 -0.9277
 8475SOL    HW236885   2.014   3.377   5.124  1.0393  0.6752 -0.1283
 8476SOL     OW36886   4.368   2.194  13.442 -0.6732  0.1293 -0.3562
 8476SOL    HW136887   4.343   2.101  13.437  0.5213 -0.1103 -2.1569
 8476SOL    HW236888   4.344   2.213  13.351 -1.0506 -0.8664 -0.4658
 8477SOL     OW36889   2.061   1.953   5.525 -0.3043 -0.6626 -0.4210
 8477SOL    HW136890   1.977   1.973   5.484 -0.5229 -2.0190 -0.6226
 8477SOL    HW236891   2.120   1.940   5.451  1.4787 -1.3342  1.1111
 8478SOL     OW36892   3.692   1.735   4.194 -0.1582 -0.3598 -0.7058
 8478SOL    HW136893   3.692   1.654   4.144  0.6472 -0.1919 -0.9730
 8478SOL    HW236894   3.597   1.742   4.205 -0.0778 -2.6610  1.4055
 8479SOL     OW36895   1.212   2.223  12.098 -0.5806  0.0816 -0.0103
 8479SOL    HW136896   1.150   2.252  12.164  0.3348  0.6523  0.6105
 8479SOL    HW236897   1.277   2.294  12.093  0.5657 -0.9347  0.4193
 8480SOL     OW36898   3.789   1.181   2.800 -0.0209  0.2985 -0.3084
 8480SOL    HW136899   3.740   1.110   2.760 -1.5179  0.3177  1.4986
 8480SOL    HW236900   3.876   1.148   2.819  0.1232  0.9111  0.1140
 8481SOL     OW36901   4.554   3.961   3.741 -0.3204 -0.2511 -0.8401
 8481SOL    HW136902   4.646   3.940   3.754 -0.3039  1.2559  1.4969
 8481SOL    HW236903   4.526   3.967   3.832 -1.0104 -2.0145 -0.9284
 8482SOL     OW36904   0.133   1.227   1.603 -0.0581 -0.4206 -0.2191
 8482SOL    HW136905   0.122   1.135   1.629  1.4762  0.1268  2.3662
 8482SOL    HW236906   0.200   1.215   1.535  0.4799  0.6328  0.1399
 8483SOL     OW36907   4.524   2.263   9.050 -0.3335  0.4554 -0.4520
 8483SOL    HW136908   4.474   2.185   9.025 -0.7909  0.3588  0.7619
 8483SOL    HW236909   4.591   2.225   9.108  1.4190  1.3224 -1.9085
 8484SOL     OW36910   3.358   3.568   2.657 -0.5396 -0.1653 -0.0907
 8484SOL    HW136911   3.404   3.646   2.626 -0.6534  0.5633  1.6004
 8484SOL    HW236912   3.281   3.610   2.695 -0.0994 -1.1390  1.8973
 8485SOL     OW36913   3.758   4.182   4.416  0.0694 -0.1922  0.0613
 8485SOL    HW136914   3.758   4.093   4.380 -0.5002 -0.1350 -0.0837
 8485SOL    HW236915   3.849   4.211   4.410 -0.5813  1.8961  0.4074
 8486SOL     OW36916   0.092   2.003  11.416  0.3003 -0.0453 -0.1382
 8486SOL    HW136917   0.104   1.979  11.324 -0.6108  2.3466 -0.8560
 8486SOL    HW236918   0.110   2.097  11.416  2.0020 -0.3557 -0.8173
 8487SOL     OW36919   0.802   0.751   3.189 -1.1436 -0.0976 -0.0718
 8487SOL    HW136920   0.764   0.815   3.129  2.1078  0.3570 -1.6682
 8487SOL    HW236921   0.728   0.691   3.195  0.6001 -2.3330 -1.1101
 8488SOL     OW36922   0.685   4.294   3.989 -0.2992 -0.1668  0.2780
 8488SOL    HW136923   0.719   4.365   4.042  0.9465  0.3341 -1.1839
 8488SOL    HW236924   0.745   4.220   3.999  0.9860  1.3183  3.3344
 8489SOL     OW36925   3.765   3.290  12.515 -0.6247  0.4467 -0.4269
 8489SOL    HW136926   3.732   3.363  12.567 -1.1140 -0.7314  0.9115
 8489SOL    HW236927   3.837   3.333  12.469 -0.4933  0.3081 -0.3505
 8490SOL     OW36928   2.139   1.452   4.964 -0.5193  0.0544 -0.2690
 8490SOL    HW136929   2.184   1.384   4.914 -0.2662  0.8536 -1.1206
 8490SOL    HW236930   2.068   1.410   5.012 -1.4311 -1.6495 -3.1150
 8491SOL     OW36931   0.360   2.640  12.887 -0.6418  0.0279  0.6930
 8491SOL    HW136932   0.366   2.591  12.969 -2.2752  0.1924  0.9220
 8491SOL    HW236933   0.384   2.727  12.919  0.5133 -0.4031  0.9812
 8492SOL     OW36934   2.857   0.150   3.044  0.2526  0.2629  0.4038
 8492SOL    HW136935   2.821   0.104   2.968 -1.0297  1.1931  0.4532
 8492SOL    HW236936   2.812   0.105   3.115  0.7215  0.0539  0.5726
 8493SOL     OW36937   0.494   0.475   9.999 -0.1940 -0.3509  0.2901
 8493SOL    HW136938   0.495   0.564   9.966  1.1465 -0.9435 -1.1967
 8493SOL    HW236939   0.551   0.482  10.075 -0.2942 -1.0859  0.4350
 8494SOL     OW36940   0.426   4.429   4.111  0.2609 -0.1489  0.0769
 8494SOL    HW136941   0.497   4.368   4.129  1.0781  0.3707 -1.3778
 8494SOL    HW236942   0.441   4.511   4.159  0.2167  1.0297 -1.8915
 8495SOL     OW36943   1.853   2.972   6.377 -0.0116 -0.6530 -0.0480
 8495SOL    HW136944   1.859   2.985   6.283  1.2093 -1.2048 -0.0464
 8495SOL    HW236945   1.796   2.895   6.382 -1.3719  0.5169  2.5402
 8496SOL     OW36946   0.611   2.730   2.531 -0.3931 -0.2572  0.3237
 8496SOL    HW136947   0.591   2.666   2.600  0.6692 -1.7095 -0.7030
 8496SOL    HW236948   0.628   2.678   2.453  0.3641 -0.1061  0.3838
 8497SOL     OW36949   1.258   2.763  14.760  1.0625 -0.3845  0.3286
 8497SOL    HW136950   1.300   2.762  14.847  1.6326 -0.8588  0.0505
 8497SOL    HW236951   1.277   2.677  14.723 -2.5431 -1.3007  0.6802
 8498SOL     OW36952   1.915   1.519   5.307  0.2849  0.2086  1.1232
 8498SOL    HW136953   1.825   1.503   5.336  0.1951 -0.0345  0.7059
 8498SOL    HW236954   1.965   1.503   5.387 -0.1885  0.5251  1.4876
 8499SOL     OW36955   0.654   3.290   2.255 -0.1578  0.2206  0.4025
 8499SOL    HW136956   0.637   3.384   2.258 -0.6520  0.1951 -1.4254
 8499SOL    HW236957   0.696   3.279   2.340  2.1232  0.4323 -0.6952
 8500SOL     OW36958   1.254   0.192   9.894  0.5263  0.1995 -0.4883
 8500SOL    HW136959   1.164   0.211   9.866 -0.1406 -0.4649  1.1867
 8500SOL    HW236960   1.247   0.137   9.972 -0.3621  0.9377 -0.0493
 8501SOL     OW36961   0.216   3.996  10.706 -0.0569 -0.3898 -0.1307
 8501SOL    HW136962   0.159   3.926  10.737 -0.2196  0.7126  2.0757
 8501SOL    HW236963   0.161   4.074  10.698  1.1041  0.4245 -0.3086
 8502SOL     OW36964   2.327   2.597  16.520 -0.0200  0.2721  0.0397
 8502SOL    HW136965   2.254   2.643  16.562 -0.1547  0.8903 -0.8786
 8502SOL    HW236966   2.394   2.618  16.584 -0.6515  0.0948  0.7588
 8503SOL     OW36967   0.600   1.814   9.022 -0.2329  0.0503  0.0887
 8503SOL    HW136968   0.622   1.724   9.047 -0.8225 -0.1800 -0.2103
 8503SOL    HW236969   0.664   1.821   8.951 -0.5210 -0.4927 -0.2315
 8504SOL     OW36970   0.977   2.370   5.058  0.0536 -0.4472  0.0423
 8504SOL    HW136971   1.071   2.371   5.037 -0.2005 -0.3431 -1.0556
 8504SOL    HW236972   0.952   2.281   5.081 -0.8848 -0.5436 -1.3985
 8505SOL     OW36973   3.270   3.887   5.881 -0.6195  1.1321  0.6158
 8505SOL    HW136974   3.205   3.940   5.834  2.6167  4.9112  0.3998
 8505SOL    HW236975   3.292   3.935   5.961  1.4870 -1.1245  1.3831
 8506SOL     OW36976   0.213   3.218   3.602 -0.4097 -0.2749 -0.5183
 8506SOL    HW136977   0.172   3.268   3.532 -0.8501  0.0074 -0.0575
 8506SOL    HW236978   0.305   3.228   3.575 -0.0203 -0.6482  0.6607
 8507SOL     OW36979   1.216   2.951   3.841  0.5527 -0.7427  0.0435
 8507SOL    HW136980   1.144   2.939   3.904 -0.7605  0.6955 -1.2006
 8507SOL    HW236981   1.275   2.882   3.871  2.4165  0.9462  0.2131
 8508SOL     OW36982   1.898   1.255   1.149  0.1889  0.2007 -0.1574
 8508SOL    HW136983   1.819   1.254   1.203  0.2403 -0.2430 -0.0872
 8508SOL    HW236984   1.860   1.276   1.064 -0.4064 -2.0378 -0.4603
 8509SOL     OW36985   0.191   4.668  15.421 -0.1990  0.0696 -0.5704
 8509SOL    HW136986   0.244   4.647  15.345 -0.3819 -0.6509 -0.4961
 8509SOL    HW236987   0.139   0.019  15.396 -0.9447 -1.4789 -3.6556
 8510SOL     OW36988   4.195   2.793   8.419 -0.2061  0.7873  0.2014
 8510SOL    HW136989   4.215   2.846   8.496 -0.9168  1.2028  0.1004
 8510SOL    HW236990   4.273   2.737   8.418  0.2804  1.4897 -1.0616
 8511SOL     OW36991   4.427   2.072  10.286  0.2129  0.2162  0.0575
 8511SOL    HW136992   4.520   2.051  10.280  0.1821  0.0811  0.0606
 8511SOL    HW236993   4.396   2.039  10.371 -0.1618  2.6162  0.8606
 8512SOL     OW36994   0.369   3.913   6.412  0.1739  0.9216 -0.5913
 8512SOL    HW136995   0.322   3.912   6.328  1.7654  1.0410 -1.4814
 8512SOL    HW236996   0.460   3.907   6.383  0.2045  4.7558 -1.2631
 8513SOL     OW36997   1.236   1.889  14.354 -0.5603  0.5277 -0.0862
 8513SOL    HW136998   1.173   1.914  14.421 -1.0009 -1.2885  0.1532
 8513SOL    HW236999   1.193   1.815  14.311  1.2380 -0.5043 -0.0802
 8514SOL     OW37000   2.507   0.825   1.290  0.3511 -0.0043 -0.4117
 8514SOL    HW137001   2.582   0.867   1.248 -0.6280  1.7416 -0.4219
 8514SOL    HW237002   2.486   0.903   1.341  0.3987 -1.6200  2.0837
 8515SOL     OW37003   4.605   2.281  10.173  0.1432  0.1016  0.1680
 8515SOL    HW137004   4.597   2.187  10.158 -2.9748  0.2247  0.9959
 8515SOL    HW237005   4.700   2.280  10.182  0.0368  1.3498  1.4476
 8516SOL     OW37006   1.022   1.083   4.745 -0.5370 -0.1394  0.2170
 8516SOL    HW137007   0.949   1.021   4.751 -1.5507  0.7250 -3.0583
 8516SOL    HW237008   1.011   1.120   4.657 -1.0765 -1.0499 -0.1058
 8517SOL     OW37009   0.582   1.129  16.658 -0.6304  0.9111  0.5683
 8517SOL    HW137010   0.644   1.122  16.731  0.3683 -0.5406 -0.4058
 8517SOL    HW237011   0.631   1.166  16.585 -1.4858  1.0782  0.0810
 8518SOL     OW37012   2.383   4.206  17.163 -0.2281  0.0414 -0.1109
 8518SOL    HW137013   2.331   4.172  17.090 -0.5887  0.0711  0.1370
 8518SOL    HW237014   2.336   4.284  17.192  0.0389  0.8346 -1.7973
 8519SOL     OW37015   1.985   3.621   9.521 -0.1311 -0.2908 -0.0336
 8519SOL    HW137016   1.953   3.636   9.610 -1.5622  0.6883 -0.7186
 8519SOL    HW237017   1.991   3.710   9.486 -0.3012 -0.1432  0.3119
 8520SOL     OW37018   0.948   0.800  12.442  0.1804  0.4439  0.0343
 8520SOL    HW137019   0.900   0.877  12.412  1.0061  0.9999  0.1489
 8520SOL    HW237020   1.015   0.841  12.497  0.8368  0.6788 -0.9342
 8521SOL     OW37021   3.974   3.396   7.159  0.8326  0.2053 -0.1408
 8521SOL    HW137022   3.883   3.421   7.171  0.6045  0.0645 -1.5645
 8521SOL    HW237023   3.959   3.304   7.135  3.3705  0.0563 -1.1888
 8522SOL     OW37024   3.254   3.539   0.156  0.7776 -0.3256  0.4244
 8522SOL    HW137025   3.189   3.589   0.108 -0.5411 -1.7183  0.7763
 8522SOL    HW237026   3.326   3.603   0.163 -0.2896  0.9879 -0.7630
 8523SOL     OW37027   1.541   3.204   9.781 -0.2820 -0.0194 -0.2776
 8523SOL    HW137028   1.459   3.242   9.750 -0.6491  1.0626  2.0310
 8523SOL    HW237029   1.591   3.282   9.803 -2.1060  1.0156  0.2103
 8524SOL     OW37030   2.520   3.696   9.608  0.0312 -0.4305  0.3363
 8524SOL    HW137031   2.429   3.674   9.628 -0.6237  0.1595 -1.9211
 8524SOL    HW237032   2.559   3.634   9.668  1.3412 -0.2562 -0.3439
 8525SOL     OW37033   3.663   3.158   6.292  0.0110 -0.4330  0.2096
 8525SOL    HW137034   3.691   3.249   6.285  0.3220 -0.5092  0.4376
 8525SOL    HW237035   3.707   3.136   6.374 -2.8775  1.0536  2.1236
 8526SOL     OW37036   0.115   4.605  17.205  0.2068 -0.0908 -0.3611
 8526SOL    HW137037   0.185   4.609  17.139  1.3446  1.5204  0.9403
 8526SOL    HW237038   0.121   4.687  17.255  1.2751  0.1253 -0.8331
 8527SOL     OW37039   0.131   2.897   5.978 -0.1851  0.2567  0.2829
 8527SOL    HW137040   0.134   2.907   6.073  0.4366 -1.0841  0.3972
 8527SOL    HW237041   0.100   2.984   5.955  0.9015  0.7195  0.5791
 8528SOL     OW37042   4.584   0.981  14.577 -0.1405 -0.1621 -0.1173
 8528SOL    HW137043   4.609   0.969  14.669  1.3375  1.4987 -0.2892
 8528SOL    HW237044   4.505   1.030  14.597  0.4508  0.9280 -0.4695
 8529SOL     OW37045   2.111   0.385   6.098 -0.0433  0.1563  0.4359
 8529SOL    HW137046   2.116   0.391   6.003 -0.4661 -0.8607  0.3461
 8529SOL    HW237047   2.182   0.443   6.125  0.6559 -0.6894  0.4434
 8530SOL     OW37048   0.240   0.567   2.162  0.2348  0.0623 -0.3050
 8530SOL    HW137049   0.310   0.528   2.213  1.7535 -1.3968 -3.4863
 8530SOL    HW237050   0.254   0.526   2.077  1.5686  0.6090 -0.3508
 8531SOL     OW37051   2.080   3.906   9.645  0.5815 -0.1389 -0.6732
 8531SOL    HW137052   1.992   3.935   9.671  0.0441 -0.0739 -2.5439
 8531SOL    HW237053   2.113   3.857   9.719  1.0677  0.9474 -0.1720
 8532SOL     OW37054   2.986   1.766   8.294  0.3959  0.0126  0.2358
 8532SOL    HW137055   3.006   1.714   8.216  1.0024  0.7755 -0.1171
 8532SOL    HW237056   3.015   1.705   8.362 -1.0502 -0.5602  0.3442
 8533SOL     OW37057   1.022   1.531   8.281 -0.3783  0.3880  0.0843
 8533SOL    HW137058   1.106   1.550   8.240  0.1450 -1.6730  0.1789
 8533SOL    HW237059   0.973   1.523   8.199 -0.3060 -0.5670  0.1290
 8534SOL     OW37060   0.915   3.972  10.897  0.0114  0.1998 -0.3522
 8534SOL    HW137061   0.858   3.929  10.835  2.0192 -1.4865 -1.0291
 8534SOL    HW237062   0.907   3.911  10.971  0.4973  0.0242 -0.4455
 8535SOL     OW37063   1.267   0.128  11.164 -0.0343  0.9094  0.0389
 8535SOL    HW137064   1.239   0.108  11.254 -2.4099  1.6825 -0.5264
 8535SOL    HW237065   1.342   0.186  11.179  0.9000 -0.6451  1.4254
 8536SOL     OW37066   4.521   2.948  11.105 -0.0759  0.0260 -0.2612
 8536SOL    HW137067   4.563   2.867  11.134  0.8876 -0.1738 -2.2106
 8536SOL    HW237068   4.593   3.009  11.089  0.0709 -0.5170 -1.6667
 8537SOL     OW37069   0.436   1.327  14.930 -0.3204 -1.5468 -0.2979
 8537SOL    HW137070   0.496   1.325  14.855 -1.3537 -1.1648 -1.1389
 8537SOL    HW237071   0.470   1.250  14.976 -0.1249 -0.4028  1.4412
 8538SOL     OW37072   1.782   4.057  15.610  0.1521 -0.0264  0.5107
 8538SOL    HW137073   1.708   4.103  15.649  0.1856 -0.9907  1.7262
 8538SOL    HW237074   1.765   3.967  15.639 -2.1211 -0.0228 -0.8381
 8539SOL     OW37075   0.690   0.892   3.408  1.0553 -0.2970 -0.1048
 8539SOL    HW137076   0.758   0.852   3.353  2.1541  1.0231  0.2878
 8539SOL    HW237077   0.613   0.856   3.364  0.5768  0.3669  0.1965
 8540SOL     OW37078   0.129   3.955   9.403  0.3080 -0.5987 -0.0244
 8540SOL    HW137079   0.211   3.944   9.355  1.7149  4.2955  1.3353
 8540SOL    HW237080   0.149   3.898   9.477  2.1183 -1.2083 -0.9646
 8541SOL     OW37081   1.328   1.966  12.026  0.4226 -0.1900  0.3207
 8541SOL    HW137082   1.415   1.990  12.060 -0.1690  1.3123  0.7679
 8541SOL    HW237083   1.275   2.044  12.041  0.2731 -0.6662  2.2112
 8542SOL     OW37084   1.598   2.568   6.724 -0.3698  0.6528 -0.5421
 8542SOL    HW137085   1.550   2.625   6.663 -1.4508  0.1306 -0.1916
 8542SOL    HW237086   1.635   2.636   6.780  0.3340 -1.1978  1.2451
 8543SOL     OW37087   0.166   0.928   7.809 -0.8759 -0.5878 -0.3010
 8543SOL    HW137088   0.177   0.929   7.904 -0.4753  0.9389 -0.3489
 8543SOL    HW237089   0.074   0.949   7.795  0.1843  1.7926 -3.6781
 8544SOL     OW37090   0.888   2.729   8.059 -0.3086  0.0087  0.1633
 8544SOL    HW137091   0.806   2.763   8.093 -0.4500  0.9462 -1.1347
 8544SOL    HW237092   0.859   2.695   7.975 -0.1227 -1.0020  0.5033
 8545SOL     OW37093   3.202   3.733   7.923  0.3633  0.3151  0.0911
 8545SOL    HW137094   3.246   3.772   7.999 -1.3937 -1.2690  1.8872
 8545SOL    HW237095   3.148   3.804   7.888  0.9259 -0.2577 -1.9455
 8546SOL     OW37096   0.906   3.809   3.569  0.9966  0.0340 -0.5858
 8546SOL    HW137097   0.929   3.716   3.569 -0.5114 -0.3349 -0.4847
 8546SOL    HW237098   0.813   3.795   3.584  1.3005 -0.3698  0.8974
 8547SOL     OW37099   1.257   3.382   7.098 -0.2235 -0.2214  0.0478
 8547SOL    HW137100   1.237   3.461   7.148 -0.8675 -1.3183  1.5312
 8547SOL    HW237101   1.285   3.419   7.014  0.5735 -0.1545  0.3408
 8548SOL     OW37102   1.421   3.826  10.405 -0.6561  0.5553 -0.3287
 8548SOL    HW137103   1.419   3.819  10.310 -0.0994  0.4546 -0.3339
 8548SOL    HW237104   1.391   3.737  10.426 -1.3648  1.5084  2.6863
 8549SOL     OW37105   1.367   4.514   9.251 -0.3837  0.7400  0.7208
 8549SOL    HW137106   1.357   4.437   9.195  1.4331  1.0361 -0.0173
 8549SOL    HW237107   1.462   4.522   9.260 -0.0179 -0.3949 -2.2715
 8550SOL     OW37108   1.887   3.694  12.053 -0.1497  0.4926  0.1137
 8550SOL    HW137109   1.838   3.678  12.133  1.0180  0.0087  0.7280
 8550SOL    HW237110   1.978   3.710  12.079 -0.2974  0.8648  0.3991
 8551SOL     OW37111   3.811   0.782   6.801  0.3690  0.6979 -0.0124
 8551SOL    HW137112   3.855   0.700   6.821 -0.0460  0.8990  1.6810
 8551SOL    HW237113   3.731   0.750   6.759  0.4236 -0.1488  0.5353
 8552SOL     OW37114   0.646   3.922   3.550 -0.2814 -0.5191  0.1029
 8552SOL    HW137115   0.554   3.944   3.537 -0.6210 -2.3862 -0.6991
 8552SOL    HW237116   0.668   3.954   3.637  3.5151 -2.2178 -0.2307
 8553SOL     OW37117   4.597   3.995   2.374  0.1684  0.6435  0.3354
 8553SOL    HW137118   4.519   4.013   2.427 -1.2154  0.2412 -1.5708
 8553SOL    HW237119   4.591   4.062   2.306  0.6652 -1.0534 -1.3623
 8554SOL     OW37120   3.271   0.554   4.618  0.4754 -0.3574 -0.1531
 8554SOL    HW137121   3.344   0.587   4.670  0.3877 -0.5865  0.1156
 8554SOL    HW237122   3.296   0.600   4.538  0.6117  0.8529  0.5748
 8555SOL     OW37123   3.610   2.755   7.610 -0.2330 -0.0757 -0.5188
 8555SOL    HW137124   3.563   2.708   7.679 -0.2459  0.1458 -0.3769
 8555SOL    HW237125   3.543   2.757   7.541  1.4409 -0.7965 -2.1507
 8556SOL     OW37126   1.403   1.117   3.902 -0.0175  0.3222 -0.0582
 8556SOL    HW137127   1.493   1.149   3.909  0.0385  0.2984 -0.6715
 8556SOL    HW237128   1.362   1.125   3.988  0.1886 -0.1993  0.0907
 8557SOL     OW37129   1.191   3.056   4.677  0.9646  0.1147 -0.3970
 8557SOL    HW137130   1.237   2.991   4.730  0.9094 -1.8502 -2.7395
 8557SOL    HW237131   1.235   3.137   4.701 -0.6342  1.7980 -3.2535
 8558SOL     OW37132   1.529   4.070  16.648  0.2763  0.5391 -0.0628
 8558SOL    HW137133   1.615   4.104  16.623  0.4841 -0.1976 -0.3666
 8558SOL    HW237134   1.472   4.119  16.589 -0.3154  0.9939  0.8873
 8559SOL     OW37135   4.530   1.090   6.768 -0.1003 -0.3963  0.1034
 8559SOL    HW137136   4.588   1.036   6.822 -0.3725 -1.5379 -0.7407
 8559SOL    HW237137   4.448   1.044   6.784  0.3317 -1.1467  0.1745
 8560SOL     OW37138   0.882   0.260  11.730 -0.2233  0.8598 -0.8934
 8560SOL    HW137139   0.947   0.279  11.663  0.7789 -0.6944 -0.3666
 8560SOL    HW237140   0.904   0.331  11.790  2.2449 -1.4380  0.9313
 8561SOL     OW37141   4.246   1.798   2.535 -0.1034 -0.3863 -0.1453
 8561SOL    HW137142   4.232   1.828   2.625  1.1322  1.3220 -0.5203
 8561SOL    HW237143   4.161   1.768   2.503  0.1622 -0.7946 -0.4560
 8562SOL     OW37144   1.106   2.624   0.184  0.2463  0.1728  0.2903
 8562SOL    HW137145   1.060   2.626   0.268  1.4248  1.2193  0.9100
 8562SOL    HW237146   1.129   2.531   0.175 -1.0046 -0.2627  1.4550
 8563SOL     OW37147   2.331   4.170   6.042 -0.6242  0.2071  0.1592
 8563SOL    HW137148   2.327   4.075   6.030  2.7701  0.2548 -1.3384
 8563SOL    HW237149   2.411   4.185   5.991 -0.3669 -1.8755 -0.0562
 8564SOL     OW37150   2.058   1.068  14.787 -0.2567 -0.4526 -0.1539
 8564SOL    HW137151   1.986   1.024  14.742 -2.9098  3.4440  0.2978
 8564SOL    HW237152   2.041   1.061  14.880  1.7348  3.3142  0.4903
 8565SOL     OW37153   1.085   0.851  15.666  0.1592 -0.4314 -0.4227
 8565SOL    HW137154   1.028   0.899  15.605  1.6844 -0.0340 -1.5473
 8565SOL    HW237155   1.017   0.816  15.723 -0.3828  0.2308 -0.6624
 8566SOL     OW37156   3.382   4.635   0.701  0.0373  0.0368  0.6937
 8566SOL    HW137157   3.383   4.607   0.793 -1.8287 -0.5156  0.5410
 8566SOL    HW237158   3.358   0.000   0.718 -0.0405  0.1178  0.1235
 8567SOL     OW37159   2.969   3.545   9.339  0.3717  0.1612 -0.1976
 8567SOL    HW137160   2.975   3.451   9.358  2.5200 -0.1073 -2.1186
 8567SOL    HW237161   2.951   3.547   9.245  0.7059  1.9383 -0.2085
 8568SOL     OW37162   2.556   3.945   0.989 -0.1745 -0.1386  0.0151
 8568SOL    HW137163   2.538   4.035   1.015 -3.2829 -0.6211 -0.5490
 8568SOL    HW237164   2.493   3.935   0.918  0.1059  2.6835 -0.6231
 8569SOL     OW37165   4.450   1.411  11.183 -0.2690 -0.2623 -0.5188
 8569SOL    HW137166   4.450   1.421  11.088 -0.1825  0.2944 -0.4598
 8569SOL    HW237167   4.512   1.338  11.186 -0.7922 -0.6525  0.6878
 8570SOL     OW37168   1.649   2.825   7.237 -0.1904  0.1423  0.2644
 8570SOL    HW137169   1.624   2.759   7.303 -3.3347 -0.1899 -1.2566
 8570SOL    HW237170   1.644   2.905   7.289 -0.3060  0.0106  0.4597
 8571SOL     OW37171   4.182   2.652   5.619  0.2496  0.6989  0.4070
 8571SOL    HW137172   4.214   2.604   5.695 -0.7290 -1.3736 -0.4885
 8571SOL    HW237173   4.091   2.627   5.607  0.7871 -1.0829 -0.0392
 8572SOL     OW37174   0.523   0.170   9.324 -0.1679 -0.7498  0.0282
 8572SOL    HW137175   0.471   0.245   9.353 -1.0517 -1.0734 -0.7174
 8572SOL    HW237176   0.486   0.103   9.381 -1.3467 -0.9228 -0.9484
 8573SOL     OW37177   3.757   1.143  14.584  0.0277 -0.3495  0.6900
 8573SOL    HW137178   3.677   1.191  14.604 -1.0692 -1.7235 -0.4722
 8573SOL    HW237179   3.717   1.060  14.557 -0.3145  0.3703 -1.0383
 8574SOL     OW37180   2.012   3.094   5.954  0.5145  0.6150 -0.5029
 8574SOL    HW137181   2.070   3.164   5.982  0.7455  1.5794 -3.3314
 8574SOL    HW237182   1.931   3.126   5.993  0.1066 -2.0917  0.8704
 8575SOL     OW37183   3.242   0.834   7.151  0.7748 -0.0216 -0.6118
 8575SOL    HW137184   3.286   0.773   7.091 -1.8793 -1.8546 -0.7142
 8575SOL    HW237185   3.240   0.786   7.234  1.8560 -2.8962 -2.2222
 8576SOL     OW37186   3.468   0.930  17.379 -0.0835  0.1360  0.0226
 8576SOL    HW137187   3.391   0.935  17.323 -0.4699 -0.6370  0.4944
 8576SOL    HW237188   3.494   1.021  17.364  2.2852 -0.3517  1.1267
 8577SOL     OW37189   2.204   4.420   8.231  0.0200 -0.3330  0.2484
 8577SOL    HW137190   2.202   4.384   8.320  1.1393 -0.1698  0.3414
 8577SOL    HW237191   2.116   4.390   8.208 -0.2536  0.6225  0.0409
 8578SOL     OW37192   3.681   0.726   3.680 -0.2883  0.0766 -0.4646
 8578SOL    HW137193   3.615   0.795   3.688  1.9723  2.0952  0.5644
 8578SOL    HW237194   3.750   0.777   3.639 -1.0838  0.6628 -1.0785
 8579SOL     OW37195   4.714   0.503   6.306 -0.5100  0.1336  0.1050
 8579SOL    HW137196   0.051   0.433   6.290  0.0325  0.5600  0.3874
 8579SOL    HW237197   4.675   0.501   6.219 -1.1403 -3.1484  0.4417
 8580SOL     OW37198   2.028   2.186   8.105  0.0879  0.4464 -0.1038
 8580SOL    HW137199   1.947   2.144   8.133  1.1637 -1.6677 -0.0960
 8580SOL    HW237200   2.036   2.149   8.017  1.5907  0.1846  0.1334
 8581SOL     OW37201   4.321   1.314   6.126  0.2139  0.3501 -0.0367
 8581SOL    HW137202   4.357   1.244   6.071 -1.1625 -3.0929  3.3725
 8581SOL    HW237203   4.245   1.261   6.152  0.8825 -1.0636 -0.9358
 8582SOL     OW37204   1.691   2.048  12.541 -0.6569 -0.2791 -0.3802
 8582SOL    HW137205   1.682   2.001  12.458 -0.5362 -1.8658  0.5058
 8582SOL    HW237206   1.785   2.039  12.553 -0.3647  0.5933 -2.0714
 8583SOL     OW37207   0.113   0.568  17.381  0.5022 -0.5028 -0.2188
 8583SOL    HW137208   0.026   0.562  17.420  1.3502 -0.9667  1.5991
 8583SOL    HW237209   0.146   0.646  17.426 -0.6487 -1.7514  2.7627
 8584SOL     OW37210   0.057   0.821  14.429  0.0077 -0.6623 -0.2238
 8584SOL    HW137211   0.126   0.760  14.405  0.6783  0.7220 -1.8729
 8584SOL    HW237212   0.053   0.797  14.521 -0.7889 -1.5612 -0.4922
 8585SOL     OW37213   3.368   1.308   9.786 -0.2927 -0.0670 -0.0465
 8585SOL    HW137214   3.457   1.322   9.754  0.3492 -0.8416  1.3853
 8585SOL    HW237215   3.388   1.328   9.878 -0.0763  1.3641 -0.4078
 8586SOL     OW37216   0.378   4.094   3.376  0.2725  0.1854 -0.3557
 8586SOL    HW137217   0.316   4.133   3.314  0.9986  2.0772  0.1069
 8586SOL    HW237218   0.406   4.166   3.433  0.7271 -2.6559  2.9843
 8587SOL     OW37219   2.441   4.544   8.356 -0.2688 -0.2862  0.3927
 8587SOL    HW137220   2.452   4.497   8.438 -0.4849  1.6525  1.5383
 8587SOL    HW237221   2.363   4.499   8.324  1.6740 -1.8342 -2.1501
 8588SOL     OW37222   3.419   0.210   4.006 -0.1304  0.2096 -0.6304
 8588SOL    HW137223   3.362   0.267   4.058  0.6334 -1.5547  2.1377
 8588SOL    HW237224   3.360   0.184   3.936 -1.0125 -2.3083  1.0147
 8589SOL     OW37225   4.443   2.508   9.702 -0.3557  0.8148 -0.3981
 8589SOL    HW137226   4.446   2.435   9.640  1.5288 -1.3177  2.2142
 8589SOL    HW237227   4.403   2.456   9.773  2.2027  0.3522  0.6971
 8590SOL     OW37228   0.035   3.728   7.231  0.3087 -0.2867  0.1740
 8590SOL    HW137229   4.711   3.778   7.167  0.7260  0.1609  0.1958
 8590SOL    HW237230   0.110   3.787   7.233  1.8228 -2.2648  2.0000
 8591SOL     OW37231   1.822   3.639   4.689 -0.3866 -0.7202  0.0364
 8591SOL    HW137232   1.791   3.718   4.643 -0.1808 -1.3173 -1.1287
 8591SOL    HW237233   1.914   3.632   4.664 -0.2314 -0.7756  0.6210
 8592SOL     OW37234   3.938   0.697   2.311  0.6617 -0.3532  0.3096
 8592SOL    HW137235   3.984   0.615   2.295 -0.9664 -0.7623 -2.2656
 8592SOL    HW237236   3.956   0.767   2.248  2.4514 -1.0088  0.0957
 8593SOL     OW37237   0.869   1.899  17.689 -0.3463 -0.1257  0.2940
 8593SOL    HW137238   0.853   1.846  17.611 -0.1291  2.5301 -1.5444
 8593SOL    HW237239   0.945   1.852   0.018 -0.8046 -0.6945  0.5197
 8594SOL     OW37240   2.843   4.190  15.198  0.1549  0.1354 -0.1410
 8594SOL    HW137241   2.909   4.231  15.254  0.1828  0.8125 -0.6658
 8594SOL    HW237242   2.772   4.254  15.194  1.0451  1.2100  1.1364
 8595SOL     OW37243   2.047   4.020   3.024 -0.1455  0.2055 -0.7273
 8595SOL    HW137244   2.003   4.010   3.109  2.1785  0.1285  0.4897
 8595SOL    HW237245   2.072   3.927   3.018 -3.2728 -0.5442 -1.8604
 8596SOL     OW37246   2.189   0.505   8.476 -0.2588 -0.1222 -0.0513
 8596SOL    HW137247   2.181   0.458   8.393  1.3165 -0.8870  0.2232
 8596SOL    HW237248   2.257   0.568   8.452  0.2169 -0.1928  1.0759
 8597SOL     OW37249   1.249   4.303  13.776  0.5174  0.2086  0.3037
 8597SOL    HW137250   1.276   4.224  13.728  0.1534 -0.5080  1.2878
 8597SOL    HW237251   1.308   4.363  13.731 -0.0595 -0.5253 -1.4407
 8598SOL     OW37252   0.153   1.784  13.051 -0.3924  0.1922 -0.4036
 8598SOL    HW137253   0.152   1.839  13.129 -0.0474  0.8065 -0.8402
 8598SOL    HW237254   0.228   1.729  13.072 -0.1568  1.0504  0.9873
 8599SOL     OW37255   2.577   1.448  17.647  0.2701 -0.1830  0.3226
 8599SOL    HW137256   2.506   1.419  17.705 -0.2361 -0.3800 -0.3990
 8599SOL    HW237257   2.655   1.394  17.663 -0.1401  0.0232  3.0848
 8600SOL     OW37258   3.290   1.568   4.940  0.0474 -0.1400  0.5178
 8600SOL    HW137259   3.362   1.584   5.001  0.0064  0.7509  0.3371
 8600SOL    HW237260   3.335   1.573   4.856  0.1695 -2.2084  0.4681
 8601SOL     OW37261   4.673   2.006  10.136 -0.4798  0.4357 -0.0222
 8601SOL    HW137262   4.720   1.922  10.141 -1.2213  0.0945  1.0187
 8601SOL    HW237263   4.710   2.033  10.051 -0.2080 -0.0353 -0.0587
 8602SOL     OW37264   2.343   0.403   3.027  0.2183 -0.3548  0.2041
 8602SOL    HW137265   2.406   0.332   3.015  2.0851  1.1903  0.9558
 8602SOL    HW237266   2.281   0.374   2.960  0.7737 -0.5921 -0.1973
 8603SOL     OW37267   0.652   4.224  11.446 -0.2506 -0.1911 -0.3935
 8603SOL    HW137268   0.675   4.145  11.396  0.3712  0.1601 -0.6603
 8603SOL    HW237269   0.701   4.289  11.396 -0.5149  0.9804  0.8931
 8604SOL     OW37270   3.756   1.501  10.855  0.6193  0.0114 -0.4853
 8604SOL    HW137271   3.665   1.507  10.824  0.5479 -1.2261 -0.5157
 8604SOL    HW237272   3.786   1.423  10.808 -2.7004 -1.9158  0.5913
 8605SOL     OW37273   1.334   0.255  14.856  0.1852 -0.1907  0.1967
 8605SOL    HW137274   1.427   0.237  14.844 -0.0160 -0.1062 -1.4890
 8605SOL    HW237275   1.295   0.168  14.868 -0.4231 -0.1082 -1.1543
 8606SOL     OW37276   2.357   3.550   6.524  0.2424  0.3485 -0.2394
 8606SOL    HW137277   2.299   3.482   6.492 -1.5164  1.4184  0.6954
 8606SOL    HW237278   2.390   3.520   6.609 -1.1755  0.6297  0.4128
 8607SOL     OW37279   2.331   4.003   9.753  0.0519  0.3375 -0.2882
 8607SOL    HW137280   2.413   3.996   9.803  1.0775 -0.5171 -2.0895
 8607SOL    HW237281   2.287   3.927   9.790 -0.3989  1.6164  1.7982
 8608SOL     OW37282   4.696   0.197   6.981  0.4381  0.7543 -0.1390
 8608SOL    HW137283   4.701   0.282   7.024 -2.5417  1.2553 -0.7948
 8608SOL    HW237284   0.061   0.184   6.953  1.7879  0.5156  4.4528
 8609SOL     OW37285   0.771   2.218  15.215  0.3720 -0.0689  0.1935
 8609SOL    HW137286   0.683   2.253  15.199  0.1853 -0.2996  0.7135
 8609SOL    HW237287   0.817   2.300  15.233  1.1521 -0.5830  0.5093
 8610SOL     OW37288   0.904   1.052  15.548 -0.3306  0.1148 -0.7464
 8610SOL    HW137289   0.834   1.066  15.612  0.6358 -1.6813  0.7030
 8610SOL    HW237290   0.908   1.141  15.513  1.8217 -0.0621 -0.9298
 8611SOL     OW37291   1.717   1.735   6.900 -0.1380  0.4373 -0.2479
 8611SOL    HW137292   1.697   1.821   6.936 -3.0789 -0.5551  0.5697
 8611SOL    HW237293   1.786   1.704   6.959 -1.4552  0.9677  1.5819
 8612SOL     OW37294   4.155   1.200   2.321 -0.4714  0.2715  0.3695
 8612SOL    HW137295   4.182   1.290   2.303 -0.2943  0.3321  0.9305
 8612SOL    HW237296   4.121   1.219   2.409 -1.2470 -1.3150  0.4142
 8613SOL     OW37297   0.012   1.823  17.526  0.2239 -0.1926 -0.2442
 8613SOL    HW137298   4.649   1.789  17.517  0.4996 -0.8894 -0.3721
 8613SOL    HW237299   0.043   1.772  17.600 -1.3385 -0.6945  0.0664
 8614SOL     OW37300   1.071   3.529  11.569 -0.5001  0.4539  0.1966
 8614SOL    HW137301   1.029   3.557  11.487  0.4981 -0.7330 -0.7267
 8614SOL    HW237302   1.012   3.555  11.639 -1.3247  0.3992 -0.4654
 8615SOL     OW37303   1.735   1.641  13.976  0.0213 -0.4506  0.5560
 8615SOL    HW137304   1.780   1.654  14.060 -0.1812  0.8215  0.4638
 8615SOL    HW237305   1.754   1.547  13.968 -3.2396 -0.8835 -1.9094
 8616SOL     OW37306   1.748   0.244   0.740  0.2832 -0.1559 -0.2772
 8616SOL    HW137307   1.740   0.320   0.682 -0.1074  0.0038 -0.0139
 8616SOL    HW237308   1.834   0.256   0.780  0.2944  0.5787 -0.5247
 8617SOL     OW37309   2.231   4.393   4.289 -0.5681  0.1561 -0.6857
 8617SOL    HW137310   2.140   4.391   4.260 -2.1163 -1.3260  4.2545
 8617SOL    HW237311   2.232   4.480   4.329  2.5869 -0.9575  1.6844
 8618SOL     OW37312   4.160   3.641   9.842 -0.3943 -0.1001  0.1029
 8618SOL    HW137313   4.154   3.556   9.798  0.8606  1.1190 -2.4350
 8618SOL    HW237314   4.145   3.617   9.933 -0.9234  1.2069  0.3677
 8619SOL     OW37315   1.982   2.325   9.737  0.2123 -0.0044  0.0128
 8619SOL    HW137316   2.021   2.287   9.816 -0.4965 -0.7177  0.0198
 8619SOL    HW237317   2.054   2.383   9.715  0.6005  0.1709  1.7690
 8620SOL     OW37318   1.370   3.866  17.035 -0.1045  0.0956  0.0119
 8620SOL    HW137319   1.388   3.811  16.959 -0.2047  0.9197 -0.6169
 8620SOL    HW237320   1.457   3.864  17.075  0.2968 -1.7817 -0.9630
 8621SOL     OW37321   4.595   2.852   6.908  0.2879  1.2929 -0.2153
 8621SOL    HW137322   4.537   2.868   6.983  1.8454  0.5246  1.1529
 8621SOL    HW237323   4.579   2.925   6.848  0.1156  2.5205  1.3171
 8622SOL     OW37324   3.209   3.633   4.102 -0.1632 -0.3393 -0.2869
 8622SOL    HW137325   3.210   3.706   4.040  0.8148  0.6458  0.8705
 8622SOL    HW237326   3.296   3.593   4.093 -0.2334 -0.3138 -1.0295
 8623SOL     OW37327   1.207   0.743  12.057  0.3922  0.3252  0.2450
 8623SOL    HW137328   1.207   0.721  11.964 -0.7284 -0.8867  0.5404
 8623SOL    HW237329   1.112   0.746  12.068  0.4339 -2.3149  1.1305
 8624SOL     OW37330   4.573   1.612   6.667  0.5205  0.8916 -0.2439
 8624SOL    HW137331   4.537   1.524   6.679  0.4972  1.1275  1.3789
 8624SOL    HW237332   4.575   1.619   6.571 -1.6938  1.7616 -0.2361
 8625SOL     OW37333   3.312   4.306   7.322  0.0400  0.1474 -0.0316
 8625SOL    HW137334   3.348   4.242   7.383 -0.5746  0.3050  0.4915
 8625SOL    HW237335   3.239   4.345   7.369 -0.2009  0.1725 -0.4205
 8626SOL     OW37336   0.340   2.652   4.218  0.3408 -0.1332 -0.2395
 8626SOL    HW137337   0.316   2.562   4.239 -2.1480  0.5881 -0.0599
 8626SOL    HW237338   0.411   2.634   4.156  0.6108  2.0939 -0.5911
 8627SOL     OW37339   3.033   3.576   6.304  0.3117 -0.2771 -0.0218
 8627SOL    HW137340   3.019   3.490   6.263  0.6680  0.2119 -1.1816
 8627SOL    HW237341   3.114   3.557   6.353  2.1704  1.0872 -2.5499
 8628SOL     OW37342   0.666   3.922   4.136  0.0138  0.2142 -0.0905
 8628SOL    HW137343   0.737   3.985   4.120  1.4042 -1.1268  0.7571
 8628SOL    HW237344   0.642   3.890   4.050  2.0012  2.1743 -1.3834
 8629SOL     OW37345   3.024   2.200   6.666  0.2244  0.3967 -0.4277
 8629SOL    HW137346   2.984   2.149   6.736  3.0662 -0.9644  0.2143
 8629SOL    HW237347   3.043   2.283   6.710 -0.4112  1.1223 -1.5300
 8630SOL     OW37348   3.114   4.407   8.112 -0.1298 -0.3092 -0.6576
 8630SOL    HW137349   3.141   4.479   8.055  1.3248  1.1675  1.8759
 8630SOL    HW237350   3.037   4.440   8.159  1.9493  2.0316  1.1251
 8631SOL     OW37351   2.440   1.723   1.098 -0.3784 -0.1731  0.0943
 8631SOL    HW137352   2.503   1.780   1.143  1.0011 -1.4178 -0.2421
 8631SOL    HW237353   2.487   1.706   1.017 -0.9499 -0.1427 -0.2412
 8632SOL     OW37354   2.704   1.547   5.398 -0.2315 -0.0331 -0.1586
 8632SOL    HW137355   2.746   1.563   5.313  0.7137  1.0622  0.5186
 8632SOL    HW237356   2.668   1.459   5.385  0.9486 -0.8030  1.8862
 8633SOL     OW37357   4.147   4.017   1.390 -0.3120  0.3211 -0.3117
 8633SOL    HW137358   4.181   4.090   1.339  0.3200 -0.7503 -1.4512
 8633SOL    HW237359   4.081   3.980   1.330 -0.6498 -1.1495  0.9699
 8634SOL     OW37360   0.350   1.983   7.254  0.1569  0.2263 -0.7494
 8634SOL    HW137361   0.361   2.067   7.209  1.0887  0.5493  0.0933
 8634SOL    HW237362   0.284   1.993   7.324 -0.9872 -2.2559 -1.4853
 8635SOL     OW37363   1.462   3.683   7.450 -0.1205  0.3933 -0.2888
 8635SOL    HW137364   1.403   3.704   7.523 -1.7222 -0.1467 -1.4531
 8635SOL    HW237365   1.476   3.776   7.431  0.9617 -0.0852 -1.8418
 8636SOL     OW37366   0.836   0.524   8.265  0.2481  0.3046 -0.1013
 8636SOL    HW137367   0.801   0.472   8.337  1.0120 -1.5899 -1.0824
 8636SOL    HW237368   0.798   0.493   8.183 -1.0738  0.5868  0.4128
 8637SOL     OW37369   2.474   1.757   3.029 -0.3999  0.0066 -0.2868
 8637SOL    HW137370   2.533   1.729   2.958  0.1243 -0.9155  0.5161
 8637SOL    HW237371   2.528   1.740   3.106 -1.2198 -0.9803  0.0576
 8638SOL     OW37372   3.180   1.816   4.856  0.0027  0.6520 -0.0209
 8638SOL    HW137373   3.193   1.835   4.949  0.5715  2.8308 -0.5516
 8638SOL    HW237374   3.201   1.723   4.861 -1.5756  0.2290 -1.4031
 8639SOL     OW37375   1.727   2.171   3.613  0.4890 -0.0529 -0.1652
 8639SOL    HW137376   1.658   2.109   3.589  0.0694  0.4452 -0.2438
 8639SOL    HW237377   1.685   2.253   3.640  0.0019 -0.0897 -0.8197
 8640SOL     OW37378   3.817   3.203   4.657  0.0143  0.0943  0.2895
 8640SOL    HW137379   3.753   3.245   4.600  0.2766  0.1151  0.0069
 8640SOL    HW237380   3.800   3.109   4.650 -2.5132  0.4917  1.1777
 8641SOL     OW37381   1.997   4.552   5.585 -0.2551  0.2752 -0.0792
 8641SOL    HW137382   1.944   4.570   5.663 -1.5459 -1.3750 -0.5457
 8641SOL    HW237383   2.037   4.471   5.617  1.1494  1.5226  1.3178
 8642SOL     OW37384   4.491   3.148   1.627 -0.3066  0.1155 -0.1602
 8642SOL    HW137385   4.485   3.053   1.637 -0.5800  0.0742 -0.7042
 8642SOL    HW237386   4.584   3.165   1.614 -0.6318  0.8985 -1.5293
 8643SOL     OW37387   0.712   2.446   4.929 -0.0147  0.2990  0.0245
 8643SOL    HW137388   0.667   2.385   4.987  5.5820 -1.4038  2.5057
 8643SOL    HW237389   0.800   2.414   4.949  0.1396  0.7642  0.0940
 8644SOL     OW37390   3.680   3.683   2.693 -0.2114  0.0610  0.2570
 8644SOL    HW137391   3.743   3.627   2.648  0.2747 -0.4512  1.5704
 8644SOL    HW237392   3.664   3.743   2.620 -0.4436  0.0158  0.2716
 8645SOL     OW37393   0.701   1.678   0.093 -0.3719 -0.3356  0.2080
 8645SOL    HW137394   0.749   1.755   0.062 -1.5203 -0.0277 -0.8004
 8645SOL    HW237395   0.756   1.663   0.170  0.5908 -0.5388 -0.5142
 8646SOL     OW37396   1.487   4.328  10.096 -0.3589 -0.0523 -0.3026
 8646SOL    HW137397   1.496   4.423  10.083 -1.8585  0.1858  0.3628
 8646SOL    HW237398   1.455   4.332  10.186  1.6323  0.3099  0.3878
 8647SOL     OW37399   2.776   4.427   4.244  0.2850 -0.2040  0.0101
 8647SOL    HW137400   2.746   4.472   4.164  2.7993  1.5614  0.0602
 8647SOL    HW237401   2.870   4.434   4.229  0.0718  2.5107 -0.0806
 8648SOL     OW37402   0.448   2.772   5.486 -0.2868 -0.8488 -0.1873
 8648SOL    HW137403   0.490   2.850   5.523 -2.5446  0.5587 -0.5724
 8648SOL    HW237404   0.372   2.818   5.450  1.0554  1.4654 -0.1068
 8649SOL     OW37405   0.576   1.259   9.321  0.3376  0.4285  0.2737
 8649SOL    HW137406   0.658   1.216   9.298  0.4495  0.3543  0.8163
 8649SOL    HW237407   0.545   1.294   9.238  0.7241  0.6870  0.2379
 8650SOL     OW37408   0.661   4.199  10.871 -0.1687 -0.1259 -0.1098
 8650SOL    HW137409   0.620   4.281  10.899 -1.7787 -0.7815 -0.5291
 8650SOL    HW237410   0.748   4.206  10.910 -0.5573 -0.5707  0.8326
 8651SOL     OW37411   3.955   4.023  15.411 -0.2316 -0.2210 -0.5481
 8651SOL    HW137412   3.960   4.119  15.409 -0.1744 -0.2248 -0.5691
 8651SOL    HW237413   3.894   4.010  15.485  0.1151 -1.2367 -0.4421
 8652SOL     OW37414   0.973   0.133  15.551  0.2200 -0.7021 -0.3033
 8652SOL    HW137415   1.010   0.085  15.625 -2.9861 -2.1392  0.3944
 8652SOL    HW237416   1.039   0.202  15.540  1.1275 -1.4941  0.1738
 8653SOL     OW37417   3.453   4.296   5.209 -0.4808 -0.4456 -0.6334
 8653SOL    HW137418   3.413   4.209   5.211 -0.7248 -0.3196 -0.1239
 8653SOL    HW237419   3.521   4.292   5.276 -0.9408 -1.0991 -0.2038
 8654SOL     OW37420   2.394   3.270   2.185  0.0006  0.1342 -0.4376
 8654SOL    HW137421   2.432   3.185   2.160 -1.1931 -0.2434 -0.9585
 8654SOL    HW237422   2.470   3.328   2.185  1.9211 -2.3716 -1.6832
 8655SOL     OW37423   0.604   2.547   4.180  0.2727  0.4640 -0.5352
 8655SOL    HW137424   0.654   2.559   4.260 -1.7137 -0.9473  0.9113
 8655SOL    HW237425   0.625   2.457   4.154  2.5204  1.6897 -2.9803
 8656SOL     OW37426   0.705   3.650   8.029 -0.0582 -0.6337  0.4029
 8656SOL    HW137427   0.611   3.663   8.020 -0.1344 -1.4467  0.0397
 8656SOL    HW237428   0.715   3.666   8.123  0.5553 -0.9493  0.3886
 8657SOL     OW37429   0.732   1.279   8.232  0.3929  0.1968  0.0569
 8657SOL    HW137430   0.810   1.245   8.189 -2.0343 -2.1677 -2.5158
 8657SOL    HW237431   0.745   1.370   8.209 -0.3236  0.4181  0.5282
 8658SOL     OW37432   1.978   0.801  13.672 -0.0329 -0.2756 -0.4016
 8658SOL    HW137433   1.913   0.733  13.654  1.3530 -1.9930  1.1532
 8658SOL    HW237434   1.940   0.873  13.622 -0.8509 -0.1655  0.3860
 8659SOL     OW37435   0.852   4.523   4.891  0.0547 -0.3185 -0.7094
 8659SOL    HW137436   0.786   4.572   4.941 -0.5589 -0.6168 -1.2141
 8659SOL    HW237437   0.799   4.464   4.837  0.2442 -1.3399  0.2305
 8660SOL     OW37438   1.700   4.513   8.394 -0.0177 -0.6064  0.3142
 8660SOL    HW137439   1.753   4.460   8.452  0.7984  0.9231  0.9562
 8660SOL    HW237440   1.616   4.470   8.410  1.2040 -3.5859 -1.2798
 8661SOL     OW37441   0.491   3.655   8.799  0.3508  0.3570 -0.2474
 8661SOL    HW137442   0.436   3.594   8.848 -1.2753  2.2409  0.2646
 8661SOL    HW237443   0.560   3.596   8.768  0.9394 -0.2942  2.2570
 8662SOL     OW37444   4.645   3.803  16.001 -0.5465 -0.0029  0.0358
 8662SOL    HW137445   0.004   3.760  15.998 -1.3363 -1.5008 -0.7166
 8662SOL    HW237446   4.626   3.832  15.912  0.1644  0.1509 -0.0627
 8663SOL     OW37447   2.595   0.812  12.695  0.3495  0.2209 -0.4694
 8663SOL    HW137448   2.646   0.751  12.748 -0.4125 -0.9041 -1.0308
 8663SOL    HW237449   2.510   0.788  12.731 -0.2654 -0.3068 -2.2535
 8664SOL     OW37450   2.902   4.518   3.653 -0.3405 -0.6196 -0.5957
 8664SOL    HW137451   2.847   4.466   3.594  0.3158 -0.8501 -1.0075
 8664SOL    HW237452   2.845   4.527   3.730  0.2151 -0.5979 -0.1838
 8665SOL     OW37453   1.245   3.754   5.463  0.0493 -0.1311 -0.2353
 8665SOL    HW137454   1.297   3.685   5.422 -0.1732 -1.0794  1.0981
 8665SOL    HW237455   1.209   3.799   5.386  0.2482 -1.7280 -1.2478
 8666SOL     OW37456   2.350   2.585   8.349  0.3562  0.2162  0.3013
 8666SOL    HW137457   2.288   2.572   8.278  1.5993  1.1599 -0.9563
 8666SOL    HW237458   2.428   2.551   8.305  0.4521 -1.1563  1.5354
 8667SOL     OW37459   3.330   0.011   8.596 -0.1314  0.4430  0.1780
 8667SOL    HW137460   3.352   4.671   8.530  0.7384  2.4123 -1.5257
 8667SOL    HW237461   3.393   4.709   8.663 -1.6110 -3.0377  0.0955
 8668SOL     OW37462   4.155   0.614   3.403 -0.5137  0.5536 -0.2224
 8668SOL    HW137463   4.067   0.582   3.385 -0.8849  0.5480  1.5631
 8668SOL    HW237464   4.159   0.580   3.492 -1.3616 -0.0931 -0.4373
 8669SOL     OW37465   3.949   0.839   8.794 -0.2741  0.1499  0.6014
 8669SOL    HW137466   3.923   0.919   8.750  1.4158 -0.2406 -1.1040
 8669SOL    HW237467   4.044   0.847   8.807  0.1294 -0.9526 -1.6777
 8670SOL     OW37468   0.012   0.421   9.536 -0.0521 -0.2077 -0.6934
 8670SOL    HW137469   4.688   0.340   9.548  0.1864 -0.3864 -0.9056
 8670SOL    HW237470   0.022   0.448   9.627  0.1777 -2.5609 -0.0291
 8671SOL     OW37471   4.477   4.178   3.583 -0.5197 -0.5369  0.3627
 8671SOL    HW137472   4.491   4.106   3.645 -0.2884  0.0553  0.9986
 8671SOL    HW237473   4.422   4.236   3.635 -2.5693 -1.9987 -0.2124
 8672SOL     OW37474   0.277   1.244   8.328 -0.3954  0.5168  0.3228
 8672SOL    HW137475   0.357   1.282   8.292 -0.0672  0.0523  0.5604
 8672SOL    HW237476   0.202   1.277   8.278  2.5589  3.4535 -2.1927
 8673SOL     OW37477   3.616   4.601   1.216  0.2260 -0.0068  0.5157
 8673SOL    HW137478   3.662   4.683   1.199  0.5054  0.1054  1.8355
 8673SOL    HW237479   3.631   4.584   1.309  0.2464  1.0307  0.7023
 8674SOL     OW37480   2.644   3.313  12.325  0.2503 -0.1276 -0.2471
 8674SOL    HW137481   2.567   3.325  12.270 -0.1960  1.9309  0.8298
 8674SOL    HW237482   2.714   3.353  12.274 -0.6137  1.8683  0.1622
 8675SOL     OW37483   1.135   1.451   2.002  0.5482  0.0549  0.6655
 8675SOL    HW137484   1.163   1.363   2.026 -0.6128 -0.6425 -0.5222
 8675SOL    HW237485   1.065   1.430   1.940  1.5604  0.6964 -0.7130
 8676SOL     OW37486   3.050   0.462  14.227  0.5026  0.0837  0.3523
 8676SOL    HW137487   3.129   0.490  14.273 -0.0911 -1.0984  2.0756
 8676SOL    HW237488   3.023   0.383  14.274 -0.3530 -0.6695 -1.3577
 8677SOL     OW37489   1.080   0.340   5.697  0.6454  0.0773 -0.4781
 8677SOL    HW137490   1.173   0.338   5.720  0.3050 -0.8275  0.8798
 8677SOL    HW237491   1.067   0.249   5.669 -2.2288  0.1368  0.6813
 8678SOL     OW37492   2.863   2.358   9.514  0.5290  0.1310  0.4937
 8678SOL    HW137493   2.854   2.445   9.474  0.3064  1.8659  4.3043
 8678SOL    HW237494   2.774   2.333   9.491  0.8595 -0.6941  0.1274
 8679SOL     OW37495   1.396   3.445   8.789  0.6408 -0.1604  0.2142
 8679SOL    HW137496   1.379   3.460   8.882 -2.2490 -2.2039  0.0210
 8679SOL    HW237497   1.466   3.509   8.778  0.3375  0.1006 -0.1529
 8680SOL     OW37498   0.850   1.477   5.526  0.1493 -0.1738 -0.3348
 8680SOL    HW137499   0.809   1.532   5.592 -1.6514  2.2936 -3.5310
 8680SOL    HW237500   0.856   1.396   5.576  0.4596 -0.2972 -0.5733
 8681SOL     OW37501   3.648   1.315  17.646 -0.1278  0.0047 -0.3675
 8681SOL    HW137502   3.657   1.402  17.607  1.7170  0.3101  0.7475
 8681SOL    HW237503   3.680   1.338   0.028  1.3804  1.2312 -1.2507
 8682SOL     OW37504   3.028   3.450   6.899  0.0156 -0.1459  0.0905
 8682SOL    HW137505   3.103   3.508   6.908 -0.0096 -0.0962 -0.0232
 8682SOL    HW237506   2.986   3.429   6.983 -0.6152  0.1687 -0.1490
 8683SOL     OW37507   3.855   3.131  14.711  0.5451  0.4792 -0.3453
 8683SOL    HW137508   3.922   3.092  14.655 -0.9325  0.0641 -1.7887
 8683SOL    HW237509   3.876   3.079  14.789  2.3176 -0.4934 -1.4627
 8684SOL     OW37510   1.145   2.790  16.649 -0.1603 -0.5164 -0.4059
 8684SOL    HW137511   1.095   2.714  16.617 -1.3433 -0.1938  0.6860
 8684SOL    HW237512   1.078   2.852  16.677  2.2895  2.6157 -1.5566
 8685SOL     OW37513   0.842   0.182  14.224  0.7777  0.3132  0.2956
 8685SOL    HW137514   0.903   0.160  14.154  0.7138  0.0346  0.3246
 8685SOL    HW237515   0.845   0.106  14.282  1.5173  0.6633  0.7111
 8686SOL     OW37516   3.882   2.599  10.873 -0.3049 -0.7325 -0.5606
 8686SOL    HW137517   3.976   2.616  10.869 -0.0037 -1.9784  1.2986
 8686SOL    HW237518   3.873   2.518  10.823 -0.3763  0.0919 -1.8696
 8687SOL     OW37519   1.658   3.281  10.675 -0.0234  0.5661 -0.0951
 8687SOL    HW137520   1.572   3.321  10.658 -1.2857 -0.8247  3.1796
 8687SOL    HW237521   1.633   3.195  10.640 -1.1444  0.8551 -0.0051
 8688SOL     OW37522   2.042   4.152   3.667 -0.3161 -0.0644  0.7794
 8688SOL    HW137523   2.004   4.238   3.686 -1.7623 -0.8496  1.3889
 8688SOL    HW237524   2.056   4.151   3.572  0.5864  1.8237  0.8944
 8689SOL     OW37525   2.521   1.248   2.103 -0.4922 -0.2026  0.7541
 8689SOL    HW137526   2.560   1.304   2.171  1.9676 -3.9318  2.4501
 8689SOL    HW237527   2.453   1.303   2.065 -1.2497 -0.9829  0.9714
 8690SOL     OW37528   2.157   4.717   5.397 -0.2682  0.2967  0.5064
 8690SOL    HW137529   2.090   4.660   5.359 -2.2333  2.3885  0.8027
 8690SOL    HW237530   2.157   4.677   5.484 -0.0301 -2.0033 -0.5605
 8691SOL     OW37531   3.966   2.324  14.884 -0.0325 -0.4816 -0.0028
 8691SOL    HW137532   3.926   2.404  14.920 -2.2104 -1.7671  0.4316
 8691SOL    HW237533   3.910   2.253  14.915 -0.8340  0.5816  1.0047
 8692SOL     OW37534   3.127   3.973   4.165  0.3288 -0.7276  0.0516
 8692SOL    HW137535   3.103   3.947   4.253  1.4938 -0.6564  0.3792
 8692SOL    HW237536   3.126   4.068   4.173  1.4140 -0.8489  1.4608
 8693SOL     OW37537   1.470   4.074  10.469 -0.3646 -0.0921 -0.2004
 8693SOL    HW137538   1.543   4.056  10.528  1.2306  1.5994 -1.6750
 8693SOL    HW237539   1.445   3.987  10.439  1.6599 -0.9891  0.7896
 8694SOL     OW37540   0.227   3.200   0.570 -0.0880  0.3356 -0.1623
 8694SOL    HW137541   0.172   3.156   0.505 -0.2804  2.7678 -1.6567
 8694SOL    HW237542   0.309   3.194   0.521  0.3474  0.9518  0.4958
 8695SOL     OW37543   3.222   0.459   5.308 -0.0411 -0.5282  0.6659
 8695SOL    HW137544   3.155   0.391   5.303  1.8465 -2.3371 -0.2255
 8695SOL    HW237545   3.173   0.541   5.315 -0.3701 -0.7305  0.7436
 8696SOL     OW37546   0.271   0.100  11.747  0.2012  0.4034 -0.2943
 8696SOL    HW137547   0.330   0.027  11.766  1.0617  1.7919  2.4305
 8696SOL    HW237548   0.217   0.107  11.827  1.0374  3.2622 -0.0011
 8697SOL     OW37549   3.191   2.633   7.772  0.1004  0.1564  0.7930
 8697SOL    HW137550   3.123   2.680   7.724 -1.3231  0.3845  3.0087
 8697SOL    HW237551   3.184   2.546   7.735  0.3286  0.7263 -0.5813
 8698SOL     OW37552   3.281   3.200   1.677  0.0080  0.5103 -0.3457
 8698SOL    HW137553   3.287   3.285   1.633  2.0991  0.1949 -0.6274
 8698SOL    HW237554   3.275   3.136   1.605 -1.7084  0.1722  0.0995
 8699SOL     OW37555   1.884   3.113   7.295  0.4608  0.4612 -0.6614
 8699SOL    HW137556   1.790   3.125   7.312  0.5276 -0.6445  0.4977
 8699SOL    HW237557   1.920   3.198   7.318  0.4167  0.0121  1.0904
 8700SOL     OW37558   1.633   0.118   4.563  0.2442 -0.2443 -0.0340
 8700SOL    HW137559   1.657   0.043   4.618  0.2469 -0.3668 -0.2026
 8700SOL    HW237560   1.586   0.076   4.491 -0.5326  1.8161 -0.7345
 8701SOL     OW37561   0.526   2.593   6.721 -0.4417 -0.5012  0.0111
 8701SOL    HW137562   0.544   2.501   6.701  1.5948  0.2392 -1.5059
 8701SOL    HW237563   0.435   2.592   6.691 -0.4408  1.3396 -0.0940
 8702SOL     OW37564   0.100   1.309   1.209  0.1875 -0.4762 -0.4426
 8702SOL    HW137565   0.169   1.311   1.274 -0.0131 -0.3439 -0.2348
 8702SOL    HW237566   0.057   1.228   1.234  2.8769 -1.7006  0.1209
 8703SOL     OW37567   4.032   4.287   2.952 -0.3728 -0.0757  0.2703
 8703SOL    HW137568   4.050   4.231   2.876  2.3573  0.4056  0.5685
 8703SOL    HW237569   4.108   4.344   2.959 -0.2178 -0.2024 -0.3961
 8704SOL     OW37570   1.922   2.581   6.628  0.5162  0.5029 -0.4937
 8704SOL    HW137571   1.906   2.538   6.712  2.2498  0.2710 -0.2786
 8704SOL    HW237572   1.936   2.672   6.654 -0.1838  0.0862  1.3568
 8705SOL     OW37573   1.493   4.145   9.160 -0.4936  0.2315 -0.3891
 8705SOL    HW137574   1.445   4.215   9.115 -1.4166  0.7160  1.3621
 8705SOL    HW237575   1.508   4.178   9.248 -1.1037 -4.2457  1.3919
 8706SOL     OW37576   1.062   3.246   4.309  0.2790 -0.0889 -0.3349
 8706SOL    HW137577   1.028   3.333   4.328  3.9012  0.6705  2.5463
 8706SOL    HW237578   0.985   3.195   4.334  0.6601  0.2316  1.5059
 8707SOL     OW37579   1.830   4.563   5.032  0.0938  0.2858  0.2924
 8707SOL    HW137580   1.898   4.549   5.098  0.0393 -1.3383 -0.0031
 8707SOL    HW237581   1.881   4.603   4.962  0.3811  0.6718  0.7195
 8708SOL     OW37582   2.546   1.006   4.063  0.1654 -0.4661  0.4040
 8708SOL    HW137583   2.479   1.024   4.129 -0.9180  1.9149 -1.3227
 8708SOL    HW237584   2.608   1.075   4.087 -3.2242  2.9987 -0.7336
 8709SOL     OW37585   4.453   4.441  13.546  0.0474 -0.2951  0.3064
 8709SOL    HW137586   4.485   4.507  13.608 -1.7500  0.7758  0.0898
 8709SOL    HW237587   4.516   4.449  13.475  0.7277 -0.4124  0.9020
 8710SOL     OW37588   0.719   4.199   4.873  0.0463  0.6366 -0.0743
 8710SOL    HW137589   0.768   4.192   4.956  2.7908  0.6606 -1.6984
 8710SOL    HW237590   0.672   4.279   4.896 -1.5909  0.2295 -2.1161
 8711SOL     OW37591   3.574   3.654   2.929  1.0452  0.0002 -0.0427
 8711SOL    HW137592   3.599   3.562   2.918  2.3703  0.7561 -3.2075
 8711SOL    HW237593   3.597   3.678   2.839  2.4267 -0.6373  0.1415
 8712SOL     OW37594   2.572   2.829   4.405  0.2348  0.2555  0.0453
 8712SOL    HW137595   2.594   2.788   4.321 -1.3628  0.7612 -0.6239
 8712SOL    HW237596   2.642   2.894   4.418 -0.5825  0.8994  1.1748
 8713SOL     OW37597   3.939   0.092   9.082 -0.1080 -0.6675 -0.0301
 8713SOL    HW137598   3.941   0.130   9.170  1.0587 -0.8136 -0.0053
 8713SOL    HW237599   3.935   4.726   9.107 -0.0019 -0.2050  1.6579
 8714SOL     OW37600   0.392   2.642  10.501 -0.1639  0.1836  0.0253
 8714SOL    HW137601   0.374   2.667  10.411  1.4981  1.9576  0.1772
 8714SOL    HW237602   0.376   2.548  10.502  3.3344 -0.4149 -1.5306
 8715SOL     OW37603   1.257   4.493   0.942  0.6417 -0.3036  0.1336
 8715SOL    HW137604   1.164   4.497   0.922  0.7557  0.7460 -0.2103
 8715SOL    HW237605   1.291   4.435   0.875  2.1674  0.2340  0.4250
 8716SOL     OW37606   0.776   0.357  10.259  0.3560 -0.6600 -0.6049
 8716SOL    HW137607   0.812   0.445  10.251 -0.2882 -0.4632 -1.3245
 8716SOL    HW237608   0.703   0.366  10.320  1.2946  1.5439  0.2019
 8717SOL     OW37609   0.776   1.909   9.455  0.2640 -0.5159  0.6849
 8717SOL    HW137610   0.810   1.847   9.390  0.5923  2.5284 -2.0473
 8717SOL    HW237611   0.701   1.943   9.406  0.0241 -0.4919  1.0700
 8718SOL     OW37612   0.227   4.014   6.673 -0.6539  0.1491  0.2143
 8718SOL    HW137613   0.255   4.105   6.679  1.6185 -0.5446  0.4703
 8718SOL    HW237614   0.282   3.983   6.601  0.2311  0.9063  0.5625
 8719SOL     OW37615   0.042   0.476   2.734 -0.0991  0.5061 -0.3770
 8719SOL    HW137616   0.070   0.567   2.746  0.5119 -0.0548  2.2975
 8719SOL    HW237617   4.677   0.490   2.706  0.1871 -0.4916 -1.8309
 8720SOL     OW37618   2.149   4.420  13.801  0.0027 -0.6088  0.0885
 8720SOL    HW137619   2.081   4.486  13.815  0.1368 -0.0858 -1.7035
 8720SOL    HW237620   2.099   4.341  13.824 -0.9835  0.1499  0.5178
 8721SOL     OW37621   4.591   2.917  10.302 -0.1732  0.0519 -0.1945
 8721SOL    HW137622   4.543   2.956  10.229  0.8256 -1.9776 -1.9231
 8721SOL    HW237623   4.522   2.864  10.344  1.7159 -1.1404  1.4427
 8722SOL     OW37624   0.187   1.040   4.509  0.3504  0.0871  0.3534
 8722SOL    HW137625   0.162   0.948   4.509  2.2842 -0.4276  1.3368
 8722SOL    HW237626   0.111   1.083   4.548 -1.1085 -1.2221 -1.0382
 8723SOL     OW37627   2.853   4.168  11.635 -0.4331 -0.1041  0.4488
 8723SOL    HW137628   2.886   4.080  11.652  0.9704  0.3401  0.0595
 8723SOL    HW237629   2.924   4.192  11.575  0.7750 -0.7930  1.6060
 8724SOL     OW37630   2.752   3.268   4.798 -0.2488  0.2173 -0.0423
 8724SOL    HW137631   2.729   3.307   4.883 -2.1550  0.5376 -0.7149
 8724SOL    HW237632   2.707   3.185   4.808 -1.6334  0.6408 -2.9393
 8725SOL     OW37633   4.244   4.632   5.647 -0.0690  0.1296 -0.1449
 8725SOL    HW137634   4.239   4.720   5.611  2.5511  0.4397  0.1879
 8725SOL    HW237635   4.268   4.598   5.561  0.8539 -0.1693  0.2252
 8726SOL     OW37636   4.469   1.160  15.673 -0.0442 -0.1155  0.1793
 8726SOL    HW137637   4.554   1.158  15.717  0.3838  1.4615 -0.5942
 8726SOL    HW237638   4.419   1.102  15.731 -1.6342  2.0060  0.9188
 8727SOL     OW37639   2.085   3.641   4.452  0.5187 -0.1278  0.1194
 8727SOL    HW137640   2.041   3.557   4.435 -0.1421  0.5271 -1.4618
 8727SOL    HW237641   2.124   3.619   4.536  1.0169 -0.1223 -0.1088
 8728SOL     OW37642   0.886   3.980  12.973 -0.2282 -0.3391  0.5965
 8728SOL    HW137643   0.968   3.931  12.972  0.3278  0.6796 -1.7100
 8728SOL    HW237644   0.923   4.053  13.023 -2.7083  1.3643 -0.0489
 8729SOL     OW37645   0.441   4.507   6.344  0.1870  0.5068 -0.1679
 8729SOL    HW137646   0.436   4.602   6.333  0.2526  0.2818 -2.3181
 8729SOL    HW237647   0.494   4.484   6.420 -0.4667 -1.1947 -0.2235
 8730SOL     OW37648   1.031   4.142   5.316  1.0944 -0.3310 -0.1338
 8730SOL    HW137649   1.028   4.167   5.408 -1.1531 -0.6058 -0.1453
 8730SOL    HW237650   1.051   4.224   5.270  0.3052  1.4212  2.6077
 8731SOL     OW37651   1.904   4.537   9.168 -0.4769  0.0951 -0.4875
 8731SOL    HW137652   1.854   4.538   9.249  1.4289 -0.3435  0.6753
 8731SOL    HW237653   1.932   4.629   9.166 -4.8956  1.4313 -1.6667
 8732SOL     OW37654   0.017   3.399   4.692 -0.3735 -0.3650  0.1208
 8732SOL    HW137655   0.089   3.337   4.697  1.5716  1.5686 -3.9011
 8732SOL    HW237656   0.002   3.392   4.598  0.7119 -3.9812  0.2199
 8733SOL     OW37657   1.125   3.786   5.691 -1.0428 -0.1158  0.3096
 8733SOL    HW137658   1.138   3.698   5.724  1.6755 -0.0591 -0.5994
 8733SOL    HW237659   1.157   3.771   5.602 -1.4834 -0.6783  0.2468
 8734SOL     OW37660   2.581   1.932   7.987  0.5657 -0.1142 -0.2003
 8734SOL    HW137661   2.642   1.995   7.948  0.6077 -0.4779 -0.7231
 8734SOL    HW237662   2.622   1.899   8.067  0.6389 -2.1149 -1.0673
 8735SOL     OW37663   0.737   4.029   8.289  0.0089 -0.5750  0.1381
 8735SOL    HW137664   0.645   4.054   8.299 -0.2001 -1.1393 -0.3678
 8735SOL    HW237665   0.753   3.992   8.376 -3.0782 -1.3555  0.3778
 8736SOL     OW37666   2.414   1.087  14.514  0.9291 -0.1192 -0.0596
 8736SOL    HW137667   2.361   1.007  14.513  0.5189  0.1615 -0.5603
 8736SOL    HW237668   2.378   1.129  14.592  0.9352  0.5003 -0.3970
 8737SOL     OW37669   4.096   2.701   7.198 -0.1980  0.2862  0.2679
 8737SOL    HW137670   4.155   2.673   7.269 -1.8127  0.8605  1.8273
 8737SOL    HW237671   4.072   2.789   7.226  0.3285  0.4761  0.1286
 8738SOL     OW37672   1.182   4.442   7.343 -0.5956 -0.1133  0.0599
 8738SOL    HW137673   1.176   4.531   7.378  1.7685  0.3449 -0.6768
 8738SOL    HW237674   1.094   4.436   7.307 -0.3275 -0.4801 -0.5363
 8739SOL     OW37675   4.345   1.365   0.920 -0.3712 -0.5345 -0.0356
 8739SOL    HW137676   4.353   1.352   1.015  0.8787  0.1174 -0.0618
 8739SOL    HW237677   4.284   1.437   0.912  2.5813  2.2694  2.5738
 8740SOL     OW37678   2.433   3.609  16.611 -0.0290 -0.4352 -0.4365
 8740SOL    HW137679   2.467   3.616  16.522  0.5711 -0.1071 -0.1798
 8740SOL    HW237680   2.514   3.619  16.661  1.5995 -1.0555 -2.9661
 8741SOL     OW37681   2.874   2.325  17.237 -0.2819 -0.0401 -0.3205
 8741SOL    HW137682   2.844   2.237  17.215 -0.3207  0.3910 -2.0227
 8741SOL    HW237683   2.845   2.371  17.158 -2.3534  1.8884  1.5911
 8742SOL     OW37684   4.470   1.489  10.877 -0.0177 -0.3406 -0.5017
 8742SOL    HW137685   4.508   1.575  10.862  0.1261 -0.3526 -0.2081
 8742SOL    HW237686   4.508   1.440  10.804  0.8788 -0.1260 -0.1719
 8743SOL     OW37687   2.576   2.226   7.042 -0.3727  0.3163  0.2376
 8743SOL    HW137688   2.614   2.200   6.958  0.3949  0.5940  0.5029
 8743SOL    HW237689   2.595   2.155   7.103  0.2209  0.4569  0.2152
 8744SOL     OW37690   4.562   2.544  10.037 -0.5916 -0.0476  0.1927
 8744SOL    HW137691   4.534   2.631  10.067  0.9792  1.5373 -2.8375
 8744SOL    HW237692   4.552   2.486  10.113  0.1551  0.0042  0.3346
 8745SOL     OW37693   0.023   4.012   8.123  0.2728  0.0613 -0.3014
 8745SOL    HW137694   0.098   4.010   8.063  0.0710 -2.8683 -0.4522
 8745SOL    HW237695   0.071   4.009   8.206  1.1865  1.5225 -0.7765
 8746SOL     OW37696   3.077   1.330  11.444  0.0684  0.7659  0.1412
 8746SOL    HW137697   3.107   1.383  11.371  1.1164  1.2175  0.9054
 8746SOL    HW237698   3.011   1.274  11.402 -0.3503  0.5161  1.1346
 8747SOL     OW37699   1.804   3.153   9.441  0.3005 -0.4309 -0.2492
 8747SOL    HW137700   1.846   3.239   9.434  0.7074 -0.6584 -0.6654
 8747SOL    HW237701   1.808   3.143   9.536 -0.4159  0.4488 -0.1382
 8748SOL     OW37702   2.182   1.272   3.174  0.0544  0.2412 -0.1933
 8748SOL    HW137703   2.241   1.206   3.137 -1.7259 -2.1761  1.2395
 8748SOL    HW237704   2.157   1.326   3.100 -3.6940 -1.9187 -0.4667
 8749SOL     OW37705   2.162   1.164   6.696 -0.3637  0.2861 -0.7105
 8749SOL    HW137706   2.118   1.081   6.714 -1.1086  0.9291  0.4265
 8749SOL    HW237707   2.241   1.126   6.658 -0.5493 -0.5079 -0.2975
 8750SOL     OW37708   2.526   1.620   6.564  0.1176  0.1453 -0.2239
 8750SOL    HW137709   2.479   1.549   6.607 -0.0174  0.4265  0.0863
 8750SOL    HW237710   2.451   1.668   6.529  1.7631  1.3976 -1.9963
 8751SOL     OW37711   4.495   2.199   6.071  0.4705 -0.1847 -0.2078
 8751SOL    HW137712   4.507   2.293   6.087  1.2727 -0.5654  1.4171
 8751SOL    HW237713   4.488   2.194   5.976  1.7771 -1.2835 -0.2426
 8752SOL     OW37714   0.432   0.134   2.120  0.6359  0.0751 -0.7563
 8752SOL    HW137715   0.421   0.064   2.056  0.9161  1.1669 -1.9856
 8752SOL    HW237716   0.349   0.126   2.167  0.6173  0.6536 -0.6898
 8753SOL     OW37717   2.023   2.403   3.873 -0.0436  0.4110 -0.7721
 8753SOL    HW137718   2.100   2.346   3.865  1.3559  2.1420  0.2076
 8753SOL    HW237719   1.947   2.346   3.867  0.1714  0.1252 -0.7727
 8754SOL     OW37720   3.026   1.288   6.676  0.0265 -0.2986  0.1146
 8754SOL    HW137721   2.980   1.321   6.754  1.2655  1.6618  0.0303
 8754SOL    HW237722   2.977   1.332   6.607  1.2939  0.4655 -0.3127
 8755SOL     OW37723   4.545   3.159  16.044  0.0183 -0.6017 -0.5370
 8755SOL    HW137724   4.450   3.168  16.056  0.0521 -0.8470 -0.0580
 8755SOL    HW237725   4.557   3.083  16.101 -0.5681 -1.4808 -1.5864
 8756SOL     OW37726   2.779   3.069   5.234  0.0375  0.6036  0.2233
 8756SOL    HW137727   2.688   3.074   5.265 -0.7974 -0.5592 -2.0167
 8756SOL    HW237728   2.787   3.139   5.169  1.9030  0.3829  0.2308
 8757SOL     OW37729   2.430   2.027   1.885 -0.0462 -0.5405  0.1373
 8757SOL    HW137730   2.510   1.974   1.890 -0.9173 -1.6656  1.7524
 8757SOL    HW237731   2.369   1.954   1.899 -0.6820  0.1365  0.8644
 8758SOL     OW37732   2.273   4.284   8.495 -0.0766  0.4578 -0.3743
 8758SOL    HW137733   2.238   4.226   8.562 -1.3337  1.9140  0.2269
 8758SOL    HW237734   2.334   4.224   8.451  1.2343 -0.3766  2.5581
 8759SOL     OW37735   0.725   3.591   9.085  0.4347  0.3194  0.0832
 8759SOL    HW137736   0.782   3.614   9.011  0.3925  0.5764  0.1307
 8759SOL    HW237737   0.777   3.520   9.122 -0.4880  0.4329  1.6111
 8760SOL     OW37738   1.741   1.403   7.394 -0.3054 -0.4116  0.1249
 8760SOL    HW137739   1.743   1.381   7.301  1.5312 -1.1107  0.3338
 8760SOL    HW237740   1.651   1.380   7.418 -0.3137  0.0532  0.5424
 8761SOL     OW37741   1.406   4.237  14.772  0.2618 -0.2866 -0.0033
 8761SOL    HW137742   1.463   4.261  14.699  1.3062 -0.8529  0.6282
 8761SOL    HW237743   1.338   4.196  14.719  1.0206  0.3124 -1.4662
 8762SOL     OW37744   3.949   4.519   7.037  0.3188 -0.5264 -0.1271
 8762SOL    HW137745   3.867   4.538   6.993 -0.3216  1.4144  1.8971
 8762SOL    HW237746   3.918   4.474   7.115  2.9396 -2.4211 -0.1952
 8763SOL     OW37747   3.578   3.655  16.139 -0.2972  0.2514  0.1242
 8763SOL    HW137748   3.616   3.573  16.170 -0.8691 -0.1970 -0.3583
 8763SOL    HW237749   3.629   3.677  16.060  0.9730 -0.2870  0.8020
 8764SOL     OW37750   2.158   0.196   8.758 -1.6121 -0.3112  0.0217
 8764SOL    HW137751   2.100   0.253   8.708 -0.7862 -0.3298 -0.9479
 8764SOL    HW237752   2.220   0.257   8.798 -1.2182 -0.8991  0.3119
 8765SOL     OW37753   0.691   1.226   2.975 -0.0367 -0.0012  0.0466
 8765SOL    HW137754   0.632   1.292   3.013  0.1498  0.2595 -0.1181
 8765SOL    HW237755   0.763   1.281   2.946  0.8597 -0.2048  1.8974
 8766SOL     OW37756   3.637   0.926  14.453  0.3362 -0.4054  0.3860
 8766SOL    HW137757   3.705   0.865  14.424 -1.4208 -1.4618 -1.5352
 8766SOL    HW237758   3.577   0.877  14.510 -0.4851  1.1105  0.8359
 8767SOL     OW37759   2.492   1.514  13.196 -0.0394 -0.4815 -0.3855
 8767SOL    HW137760   2.568   1.529  13.139  0.0386 -0.4047 -0.2606
 8767SOL    HW237761   2.422   1.508  13.131  0.1677  2.1390 -0.8329
 8768SOL     OW37762   1.119   4.208   5.888  0.5307  0.1614  0.6392
 8768SOL    HW137763   1.154   4.245   5.969  4.5722  1.0403 -1.4879
 8768SOL    HW237764   1.048   4.269   5.869 -0.3699 -0.8956  0.6374
 8769SOL     OW37765   3.830   1.747   4.697  0.1608 -0.2212  0.2074
 8769SOL    HW137766   3.829   1.724   4.604 -0.1882  3.1658 -0.6292
 8769SOL    HW237767   3.816   1.841   4.691 -1.8601 -0.6094 -1.0474
 8770SOL     OW37768   3.980   2.095   3.830  0.0622 -0.1078  0.5298
 8770SOL    HW137769   3.923   2.041   3.776 -0.6450  0.2728  0.9023
 8770SOL    HW237770   4.007   2.027   3.893  1.9808  0.9374  0.8512
 8771SOL     OW37771   0.029   2.664   5.063  0.2271 -0.1119 -0.0469
 8771SOL    HW137772   0.005   2.595   5.002  0.0800 -0.5202  0.4714
 8771SOL    HW237773   0.050   2.735   5.003 -3.1914  1.0208  0.0912
 8772SOL     OW37774   2.896   2.126   9.727  0.2388  0.6989 -0.0520
 8772SOL    HW137775   2.894   2.221   9.737 -0.9827  0.6205  0.5822
 8772SOL    HW237776   2.842   2.109   9.649 -0.8946  0.9154  0.6732
 8773SOL     OW37777   1.885   3.926  14.016  0.3476  0.0932  0.3964
 8773SOL    HW137778   1.870   4.007  14.065 -0.7571  0.1432 -0.0338
 8773SOL    HW237779   1.940   3.875  14.077  0.0873  0.6227  1.0735
 8774SOL     OW37780   2.864   4.401   1.240  0.0587 -0.0310  0.0611
 8774SOL    HW137781   2.800   4.440   1.180 -0.9261  0.1010  1.1987
 8774SOL    HW237782   2.838   4.420   1.330 -1.2853  1.7066 -0.6670
 8775SOL     OW37783   2.929   2.613  17.311  0.1069 -0.0326 -0.2481
 8775SOL    HW137784   2.903   2.596  17.401 -1.0002  3.1929  0.0650
 8775SOL    HW237785   2.996   2.544  17.312 -0.6359 -0.7391  0.7484
 8776SOL     OW37786   4.562   1.766   6.412  0.2480  0.2140 -0.1365
 8776SOL    HW137787   4.511   1.841   6.380  1.5179  0.3460 -1.8060
 8776SOL    HW237788   4.564   1.705   6.339  1.3406 -1.1130  1.0076
 8777SOL     OW37789   2.803   2.422   4.950 -0.1132 -0.0799  0.6214
 8777SOL    HW137790   2.852   2.399   4.871 -1.0145 -0.6320  0.2240
 8777SOL    HW237791   2.862   2.482   4.996  1.7107 -0.6525 -0.9605
 8778SOL     OW37792   2.678   4.701   8.863 -0.6569  0.3072  0.0815
 8778SOL    HW137793   2.598   0.021   8.837 -0.9157  0.8859  1.9296
 8778SOL    HW237794   2.738   0.017   8.802 -0.5505  3.0544  2.1117
 8779SOL     OW37795   4.523   1.725   8.392  0.0018  0.2786  0.1801
 8779SOL    HW137796   4.550   1.774   8.469 -0.3591 -2.8624  2.3059
 8779SOL    HW237797   4.582   1.650   8.384 -1.0542 -0.5004 -0.4521
 8780SOL     OW37798   2.075   4.145   6.629  0.1613  0.1761  0.2041
 8780SOL    HW137799   1.995   4.195   6.647  0.5581  1.0950 -0.5357
 8780SOL    HW237800   2.127   4.175   6.703 -0.4173  0.3733  0.5331
 8781SOL     OW37801   2.421   3.936   0.080  0.0624 -0.0734 -0.2462
 8781SOL    HW137802   2.412   4.032   0.079 -1.6317 -0.2346  0.6609
 8781SOL    HW237803   2.355   3.915   0.146 -0.6730 -0.3281 -1.0630
 8782SOL     OW37804   2.423   1.421   9.193 -0.1049 -0.2672  0.0442
 8782SOL    HW137805   2.470   1.434   9.111 -0.9466 -0.9463 -0.5609
 8782SOL    HW237806   2.427   1.511   9.226  2.0958 -0.9429  1.5510
 8783SOL     OW37807   4.258   3.800   6.534  0.4377  0.1788 -0.4388
 8783SOL    HW137808   4.306   3.731   6.488 -0.9631 -0.6347 -0.6806
 8783SOL    HW237809   4.319   3.873   6.545  0.3259 -0.2199  2.6775
 8784SOL     OW37810   2.236   1.939   6.661 -0.1629 -0.3625  0.4658
 8784SOL    HW137811   2.237   2.017   6.717 -1.1822 -0.4171  0.5758
 8784SOL    HW237812   2.264   1.973   6.577  0.6009 -0.2173  0.7838
 8785SOL     OW37813   3.938   1.028   8.273  0.4585  0.3654  0.0717
 8785SOL    HW137814   3.909   0.937   8.275 -0.1968  0.5982  1.0328
 8785SOL    HW237815   3.855   1.072   8.256  1.2847  1.4153 -1.2616
 8786SOL     OW37816   4.012   2.688   6.105  1.0533 -0.3880 -0.0464
 8786SOL    HW137817   3.962   2.734   6.038 -1.4200 -0.3896  1.7871
 8786SOL    HW237818   4.095   2.726   6.075 -0.3823  0.2092 -3.1799
 8787SOL     OW37819   2.901   3.249   2.055 -0.5731  0.3031 -0.8319
 8787SOL    HW137820   2.909   3.226   1.962 -1.9346  3.3335 -1.7225
 8787SOL    HW237821   2.996   3.250   2.069 -0.8410 -1.3314  1.0420
 8788SOL     OW37822   1.590   1.394   3.547 -0.2221  0.4385 -0.2916
 8788SOL    HW137823   1.516   1.336   3.560 -0.6499  1.5495  2.2390
 8788SOL    HW237824   1.654   1.323   3.552 -0.4113  0.3076  0.1857
 8789SOL     OW37825   2.663   2.647   1.856 -0.3088 -0.6808  0.0658
 8789SOL    HW137826   2.703   2.607   1.779  3.2249  0.0518  1.5352
 8789SOL    HW237827   2.733   2.704   1.886 -0.0529 -0.3041 -1.2533
 8790SOL     OW37828   4.666   2.137   9.256  0.1623 -0.3721 -0.0377
 8790SOL    HW137829   0.029   2.101   9.256  0.6633  0.8400  0.2702
 8790SOL    HW237830   4.657   2.154   9.350  1.2311  0.8437 -0.1492
 8791SOL     OW37831   1.200   0.091   2.753  0.5283  0.4855 -0.5839
 8791SOL    HW137832   1.196   0.121   2.844 -1.3553 -0.2345 -0.4228
 8791SOL    HW237833   1.235   0.171   2.713 -2.9237  2.9761  1.3266
 8792SOL     OW37834   2.305   4.562  16.320 -0.0010  0.1701 -0.3247
 8792SOL    HW137835   2.223   4.521  16.350  0.5360 -0.4380  0.3108
 8792SOL    HW237836   2.351   4.550  16.403 -0.9835  0.1361  0.2247
 8793SOL     OW37837   4.279   1.149   8.161 -0.4371 -0.3013 -0.1157
 8793SOL    HW137838   4.299   1.111   8.075  2.0979 -0.6926  0.6571
 8793SOL    HW237839   4.203   1.203   8.140 -0.5346 -0.4450 -0.1352
 8794SOL     OW37840   0.677   4.327   2.797 -0.2356 -0.2902 -0.0026
 8794SOL    HW137841   0.655   4.297   2.709  0.7876  1.0569 -0.7147
 8794SOL    HW237842   0.654   4.247   2.843  0.2165 -0.9185 -0.8717
 8795SOL     OW37843   0.250   1.573  12.448  0.5121  0.6054  0.0404
 8795SOL    HW137844   0.190   1.640  12.479  0.8209  1.7991 -1.9302
 8795SOL    HW237845   0.238   1.579  12.353 -1.1685 -0.3156  0.1951
 8796SOL     OW37846   0.047   4.152   7.795  0.0599 -0.5876  0.4948
 8796SOL    HW137847   0.115   4.124   7.856  0.0519 -0.5367  0.5271
 8796SOL    HW237848   0.002   4.212   7.853 -1.6572 -2.2921  0.9368
 8797SOL     OW37849   0.533   0.336   2.485 -0.8414  0.4396 -0.0189
 8797SOL    HW137850   0.627   0.319   2.476 -0.7748  1.7543 -1.9695
 8797SOL    HW237851   0.520   0.413   2.429 -0.2426  0.6338  0.1049
 8798SOL     OW37852   2.220   1.250   4.269  0.9212  0.2262  0.7153
 8798SOL    HW137853   2.313   1.252   4.244  0.4033 -1.6773 -1.3901
 8798SOL    HW237854   2.188   1.338   4.248 -1.0021 -0.5664  0.3185
 8799SOL     OW37855   2.606   3.344   7.350  0.7119  0.1150 -0.2387
 8799SOL    HW137856   2.637   3.332   7.260  1.4779  0.5728 -0.0380
 8799SOL    HW237857   2.516   3.317   7.330  0.2535  2.7293 -1.7738
 8800SOL     OW37858   3.628   0.497   1.578  0.0393 -0.3116 -0.3611
 8800SOL    HW137859   3.613   0.402   1.573  2.8886 -0.6900 -1.4475
 8800SOL    HW237860   3.699   0.510   1.641  1.0832  0.1559 -1.6366
 8801SOL     OW37861   0.801   2.755   1.670  0.2077 -0.5184  0.0917
 8801SOL    HW137862   0.780   2.670   1.630 -0.5806  0.6291 -1.9272
 8801SOL    HW237863   0.716   2.798   1.662 -0.4399 -1.3577  2.3292
 8802SOL     OW37864   4.102   0.640   6.330 -0.1454 -0.4686 -0.0418
 8802SOL    HW137865   4.163   0.647   6.403  1.5501  1.4927 -1.6457
 8802SOL    HW237866   4.152   0.699   6.274 -1.1897 -0.2817 -0.7904
 8803SOL     OW37867   3.193   0.813   3.722 -0.0641  0.0540  0.6736
 8803SOL    HW137868   3.168   0.880   3.658 -1.0913 -1.1712 -0.2133
 8803SOL    HW237869   3.236   0.873   3.783 -0.8618  0.4788  0.8267
 8804SOL     OW37870   2.779   1.191   1.925 -0.2141 -0.1975 -0.0180
 8804SOL    HW137871   2.843   1.257   1.950  0.1961 -1.2663  1.7609
 8804SOL    HW237872   2.804   1.121   1.987 -1.7383  0.5853  1.4574
 8805SOL     OW37873   1.033   0.586   3.171  0.0524  0.6545 -0.6918
 8805SOL    HW137874   0.962   0.646   3.194  1.5353  1.5853  1.4640
 8805SOL    HW237875   0.998   0.499   3.189  2.2195 -0.1495 -0.2788
 8806SOL     OW37876   0.697   3.050   3.764 -0.0159  0.0684 -0.4363
 8806SOL    HW137877   0.604   3.036   3.744 -0.0708  0.3812 -0.4013
 8806SOL    HW237878   0.750   2.981   3.725  1.1324  1.1786 -0.8208
 8807SOL     OW37879   3.172   3.085  13.493  0.1397 -0.4561 -0.0545
 8807SOL    HW137880   3.255   3.130  13.510 -1.7783  2.4642  1.6597
 8807SOL    HW237881   3.208   3.003  13.461  1.2350 -0.5590  1.4321
 8808SOL     OW37882   3.482   4.173   7.114 -0.3145 -0.7493 -0.3785
 8808SOL    HW137883   3.577   4.186   7.111 -0.4896  0.0901 -2.1645
 8808SOL    HW237884   3.453   4.226   7.189  1.8723 -0.5156  0.3175
 8809SOL     OW37885   0.652   2.127   7.053 -0.6029  0.6557  0.3501
 8809SOL    HW137886   0.738   2.165   7.034 -1.6883  2.3763 -1.1869
 8809SOL    HW237887   0.666   2.059   7.118  0.5751 -0.8344 -1.4449
 8810SOL     OW37888   4.674   3.645   4.859  0.0923 -0.5354 -0.3543
 8810SOL    HW137889   4.690   3.552   4.845 -1.6021 -0.9925  0.8744
 8810SOL    HW237890   0.040   3.669   4.862  0.0136 -0.2610 -0.1671
 8811SOL     OW37891   2.319   3.943  16.641 -0.0199  0.0682  0.0187
 8811SOL    HW137892   2.330   3.943  16.736  1.5824  2.8982 -0.1501
 8811SOL    HW237893   2.266   3.865  16.630 -1.8312  1.3608 -0.3905
 8812SOL     OW37894   2.692   4.130   5.114 -0.2516  0.0847  0.3033
 8812SOL    HW137895   2.629   4.103   5.047  1.3153  0.2265 -1.2094
 8812SOL    HW237896   2.767   4.092   5.068  0.8318  2.8943 -0.2393
 8813SOL     OW37897   0.404   2.781   2.875  0.2303 -0.1527 -0.0240
 8813SOL    HW137898   0.374   2.730   2.951 -0.7614  0.3018 -0.1045
 8813SOL    HW237899   0.365   2.867   2.893 -1.1833 -0.5854 -0.9798
 8814SOL     OW37900   4.237   2.886   9.326  0.4911  0.7530 -0.7012
 8814SOL    HW137901   4.314   2.842   9.362  1.0733  1.9456 -0.5011
 8814SOL    HW237902   4.242   2.871   9.232 -0.6344  0.1038 -0.6515
 8815SOL     OW37903   0.202   2.442   8.405 -0.4948  0.2259 -0.1797
 8815SOL    HW137904   0.189   2.487   8.489 -0.5550  0.0186 -0.0767
 8815SOL    HW237905   0.225   2.354   8.436  0.2828  0.4919 -0.0067
 8816SOL     OW37906   0.540   1.773   5.600 -0.0170  0.1286 -0.1075
 8816SOL    HW137907   0.529   1.866   5.619 -2.3322 -0.2411  0.4440
 8816SOL    HW237908   0.453   1.740   5.625 -1.3410  3.1837 -0.7007
 8817SOL     OW37909   4.638   4.209   2.173  0.4864  0.1406  0.6078
 8817SOL    HW137910   4.639   4.297   2.211 -1.2667 -0.1139  1.2599
 8817SOL    HW237911   4.590   4.204   2.091  1.2702  1.7552  0.0624
 8818SOL     OW37912   1.488   0.590   9.587 -0.0687 -0.2995  0.3321
 8818SOL    HW137913   1.522   0.641   9.660  0.1171  1.0172 -0.6833
 8818SOL    HW237914   1.405   0.559   9.623 -1.2379  0.5700 -1.5922
 8819SOL     OW37915   2.890   2.784   2.588 -0.8074 -0.3178  0.7664
 8819SOL    HW137916   2.839   2.760   2.666 -1.9374 -0.9735 -0.1634
 8819SOL    HW237917   2.839   2.857   2.553 -1.5610 -0.3135  1.8706
 8820SOL     OW37918   2.164   0.321  17.054  0.2631  0.1636  0.1939
 8820SOL    HW137919   2.241   0.290  17.007  1.0138  0.7724  1.0307
 8820SOL    HW237920   2.140   0.242  17.102 -1.5270  0.9130  0.5660
 8821SOL     OW37921   1.665   4.287  16.284 -0.4007 -0.4519 -0.3150
 8821SOL    HW137922   1.711   4.209  16.315  0.0123 -0.1764 -0.2366
 8821SOL    HW237923   1.577   4.251  16.273 -0.0583 -1.6434  0.8194
 8822SOL     OW37924   1.089   2.777   1.722 -0.3017 -0.7007 -0.0057
 8822SOL    HW137925   1.001   2.752   1.694 -0.5528  0.9458 -0.7012
 8822SOL    HW237926   1.072   2.870   1.736 -0.4829 -0.9671  1.5189
 8823SOL     OW37927   3.114   3.717  11.668 -0.1120  0.3138  0.7930
 8823SOL    HW137928   3.049   3.706  11.737  0.0618  0.0916  0.9189
 8823SOL    HW237929   3.101   3.810  11.648 -1.5306 -0.5755 -2.4615
 8824SOL     OW37930   3.322   2.515  17.039  0.1989 -0.8473  0.2956
 8824SOL    HW137931   3.281   2.453  17.100 -1.4836  0.6001  0.6480
 8824SOL    HW237932   3.266   2.494  16.965 -0.7220 -0.5032  0.8846
 8825SOL     OW37933   2.452   3.610   2.021 -0.3403 -0.3607 -0.3729
 8825SOL    HW137934   2.463   3.549   1.948 -0.4871  0.7971 -1.3522
 8825SOL    HW237935   2.537   3.609   2.064 -0.1015  0.4493 -0.8372
 8826SOL     OW37936   3.865   4.133   3.398 -0.0530 -0.8570 -0.2642
 8826SOL    HW137937   3.848   4.168   3.310  2.9208 -0.0353 -0.5035
 8826SOL    HW237938   3.929   4.187   3.444 -2.6444  1.5171  0.5791
 8827SOL     OW37939   2.623   0.645   2.771  0.0266  0.0490 -0.2247
 8827SOL    HW137940   2.702   0.692   2.742  1.8451 -0.8896  3.1454
 8827SOL    HW237941   2.556   0.669   2.708 -0.2501 -0.2723 -0.0518
 8828SOL     OW37942   0.543   0.244   5.141 -0.1563  0.0891 -0.1751
 8828SOL    HW137943   0.601   0.318   5.121  0.3349  0.1679  1.5565
 8828SOL    HW237944   0.461   0.271   5.100 -1.2174 -0.9670  1.2604
 8829SOL     OW37945   3.421   0.044   1.541  0.5283  0.0750  0.3963
 8829SOL    HW137946   3.361   0.083   1.604 -0.4869 -2.2644  0.8901
 8829SOL    HW237947   3.371   4.697   1.503 -2.2582  1.5790  1.1789
 8830SOL     OW37948   2.782   3.021   5.662 -0.3964  0.4169 -0.1188
 8830SOL    HW137949   2.838   3.090   5.697 -0.2146  0.7847 -1.1461
 8830SOL    HW237950   2.831   2.988   5.587  1.0682  1.2160  0.5094
 8831SOL     OW37951   0.814   4.538   2.926  0.7074 -0.0515  0.4514
 8831SOL    HW137952   0.732   4.579   2.951  0.6948 -0.1423  0.5557
 8831SOL    HW237953   0.795   4.463   2.869  0.8819 -0.2739  0.6849
 8832SOL     OW37954   1.068   0.324  15.104 -0.3102  0.3505 -0.5188
 8832SOL    HW137955   1.001   0.267  15.142  1.2960 -0.3254  1.3199
 8832SOL    HW237956   1.061   0.305  15.011 -1.3049 -0.5627 -0.2571
 8833SOL     OW37957   3.522   3.594   6.649  0.3426 -0.3386  0.1142
 8833SOL    HW137958   3.506   3.656   6.577  2.2573  1.2065  1.0039
 8833SOL    HW237959   3.445   3.538   6.650 -0.8833  1.3488  0.1800
 8834SOL     OW37960   0.803   0.900   4.741 -0.2025 -0.5517 -0.0128
 8834SOL    HW137961   0.760   0.907   4.826 -0.5301  0.9680 -0.2938
 8834SOL    HW237962   0.732   0.920   4.680 -0.1547 -1.3491 -0.3279
 8835SOL     OW37963   4.438   3.268   3.125  0.1288  0.2144  0.3083
 8835SOL    HW137964   4.364   3.211   3.101  0.5078 -0.8612  1.7428
 8835SOL    HW237965   4.393   3.340   3.169  0.7696 -0.6227  2.3044
 8836SOL     OW37966   2.182   1.073   7.749  0.1849 -0.2328  0.4517
 8836SOL    HW137967   2.255   1.103   7.802  1.9449 -0.0844 -2.0467
 8836SOL    HW237968   2.111   1.075   7.813 -1.3270  0.8495 -1.2611
 8837SOL     OW37969   2.374   0.782   5.498  0.3394  0.1787  1.2385
 8837SOL    HW137970   2.310   0.807   5.431  0.7629 -1.0153  0.3676
 8837SOL    HW237971   2.440   0.850   5.484  0.4393  0.2032  1.8480
 8838SOL     OW37972   0.384   0.793   8.998  0.3014  0.2402 -0.2210
 8838SOL    HW137973   0.334   0.767   9.076  2.1391 -1.5227  0.3761
 8838SOL    HW237974   0.357   0.724   8.938 -0.3567 -0.7973  1.2641
 8839SOL     OW37975   0.575   1.628   8.773  0.1128  0.1777 -0.6063
 8839SOL    HW137976   0.518   1.558   8.740  0.2664 -0.5147  0.5633
 8839SOL    HW237977   0.548   1.714   8.740 -1.6788  0.0959  0.6406
 8840SOL     OW37978   4.546   1.940  11.850  0.4458 -0.6286  0.3486
 8840SOL    HW137979   4.519   2.020  11.805 -1.0961 -2.4844 -2.0332
 8840SOL    HW237980   4.468   1.919  11.903  0.5014 -1.2298  0.1948
 8841SOL     OW37981   0.077   4.552   2.477  0.2970  0.0352 -0.0985
 8841SOL    HW137982   0.023   4.629   2.497 -1.0604 -0.8232 -0.5151
 8841SOL    HW237983   0.146   4.562   2.543 -0.2350  2.4504  0.0974
 8842SOL     OW37984   2.267   1.616  13.614  0.0904  0.1001  0.1650
 8842SOL    HW137985   2.172   1.625  13.619 -0.0718 -1.4695 -0.1172
 8842SOL    HW237986   2.304   1.662  13.539  1.5128 -3.0473 -1.0759
 8843SOL     OW37987   2.914   0.372   5.551  0.5707 -0.4254 -0.6807
 8843SOL    HW137988   2.900   0.301   5.487  1.8642 -2.6504  1.5208
 8843SOL    HW237989   2.858   0.441   5.516  2.1660  0.7107 -0.9683
 8844SOL     OW37990   3.552   2.331  15.077 -0.8226  0.1105  0.0637
 8844SOL    HW137991   3.641   2.356  15.103 -0.5374 -0.9804  0.1489
 8844SOL    HW237992   3.527   2.421  15.056  1.0145  0.6082 -0.0242
 8845SOL     OW37993   1.711   0.617   8.043  0.2756 -0.2105  0.0324
 8845SOL    HW137994   1.695   0.607   7.950 -3.3153  1.5048  0.4954
 8845SOL    HW237995   1.737   0.526   8.063 -2.7978 -1.0610  0.1742
 8846SOL     OW37996   4.537   2.155  11.702  0.0938 -0.0392 -0.5793
 8846SOL    HW137997   4.478   2.112  11.640 -1.8696 -0.3752  1.5465
 8846SOL    HW237998   4.509   2.246  11.690  2.2000  1.2915  4.9083
 8847SOL     OW37999   3.300   2.500   6.998 -0.1867  0.2121  0.6557
 8847SOL    HW138000   3.322   2.577   6.945  0.9929 -1.5890 -1.4773
 8847SOL    HW238001   3.371   2.443   6.968  0.5374  2.2473 -1.5133
 8848SOL     OW38002   0.902   2.392   5.789 -0.0345  0.0794  0.1103
 8848SOL    HW138003   0.809   2.381   5.770 -0.0305 -0.2670  0.2729
 8848SOL    HW238004   0.930   2.318   5.844 -0.0631  1.3408  1.8099
 8849SOL     OW38005   1.942   3.876   4.105 -0.3699 -0.3176  0.6145
 8849SOL    HW138006   2.017   3.873   4.165 -0.2172 -1.0329  0.3894
 8849SOL    HW238007   1.986   3.865   4.021 -2.5224  0.4884 -0.6250
 8850SOL     OW38008   4.606   2.230   8.390 -0.5810  0.1035  0.9260
 8850SOL    HW138009   4.650   2.268   8.313  0.1782 -0.0702  1.2748
 8850SOL    HW238010   4.661   2.153   8.399 -0.0386  0.4354  0.5096
 8851SOL     OW38011   2.901   0.895  12.590  0.1723 -0.2971 -0.3972
 8851SOL    HW138012   2.940   0.928  12.509 -0.4240  0.5614 -0.3313
 8851SOL    HW238013   2.834   0.837  12.555 -0.6579 -1.3286  2.8931
 8852SOL     OW38014   1.509   1.906   4.605 -0.0410 -0.2123  0.8715
 8852SOL    HW138015   1.547   1.819   4.619  0.5133 -0.0790  0.1967
 8852SOL    HW238016   1.424   1.881   4.568 -0.3377  0.4739  1.0967
 8853SOL     OW38017   3.510   2.758   5.028 -0.0193 -0.2360  0.5356
 8853SOL    HW138018   3.552   2.829   5.076  2.7127  0.0204 -2.2141
 8853SOL    HW238019   3.574   2.688   5.038  0.7965  0.4224 -0.0123
 8854SOL     OW38020   4.464   3.189  15.786  0.4516 -0.1227  0.1398
 8854SOL    HW138021   4.547   3.199  15.739  1.7769  2.3363  2.9706
 8854SOL    HW238022   4.496   3.147  15.866  1.5074 -0.0007 -0.2168
 8855SOL     OW38023   2.642   3.650   5.489 -0.3220  0.4766 -0.1836
 8855SOL    HW138024   2.711   3.644   5.555  1.3562  0.1071 -1.9468
 8855SOL    HW238025   2.672   3.730   5.446  2.3727 -0.6347 -0.3884
 8856SOL     OW38026   4.478   0.356   4.249  0.6291  0.0109 -0.0257
 8856SOL    HW138027   4.535   0.407   4.191 -0.2169  3.2962  1.9760
 8856SOL    HW238028   4.449   0.295   4.181  0.4914 -0.1657  0.1936
 8857SOL     OW38029   0.676   3.849  10.799 -0.4132  0.0311  0.0053
 8857SOL    HW138030   0.614   3.903  10.847 -1.0501  1.5373 -2.4949
 8857SOL    HW238031   0.658   3.762  10.835 -0.0979 -0.5271 -1.1733
 8858SOL     OW38032   3.479   0.429   2.968  0.0730  0.5538 -0.2776
 8858SOL    HW138033   3.511   0.501   2.914  1.0618  0.2130 -0.1453
 8858SOL    HW238034   3.403   0.393   2.921 -1.3462  2.7607  0.3162
 8859SOL     OW38035   4.021   0.393   3.207 -0.1171  0.2833 -0.5334
 8859SOL    HW138036   3.978   0.457   3.263 -0.4143 -0.0128 -0.4270
 8859SOL    HW238037   3.974   0.406   3.124 -1.3275 -0.1952  0.0812
 8860SOL     OW38038   3.735   2.886   8.848 -0.0540  0.4487 -0.3419
 8860SOL    HW138039   3.762   2.847   8.930 -0.4709 -0.8319 -0.8133
 8860SOL    HW238040   3.818   2.922   8.815  0.4001 -1.0719 -0.8708
 8861SOL     OW38041   1.346   0.893   6.551  0.4276  0.3737 -0.3912
 8861SOL    HW138042   1.433   0.875   6.516  0.8597 -0.2364  0.9591
 8861SOL    HW238043   1.326   0.976   6.510  3.2061  1.6748  0.8721
 8862SOL     OW38044   2.446   0.202  17.084  0.1384 -0.0731 -0.4462
 8862SOL    HW138045   2.369   0.169  17.130  0.5015 -0.8734 -0.4133
 8862SOL    HW238046   2.516   0.146  17.119 -2.7081 -1.2564  3.3374
 8863SOL     OW38047   0.446   0.904  13.863  0.4223  0.2209 -0.8574
 8863SOL    HW138048   0.488   0.818  13.868  2.5901  1.2685 -1.1802
 8863SOL    HW238049   0.513   0.969  13.841  1.2861  0.5750  2.8164
 8864SOL     OW38050   0.402   1.768   3.777  0.5316  0.3389  0.5296
 8864SOL    HW138051   0.433   1.687   3.819  0.1243  0.0715  0.3151
 8864SOL    HW238052   0.400   1.752   3.682  0.2584 -0.0607  0.6048
 8865SOL     OW38053   4.678   2.312  16.795 -0.3966 -0.2784  0.8808
 8865SOL    HW138054   4.722   2.353  16.869 -0.0460 -1.2345  1.1907
 8865SOL    HW238055   4.590   2.337  16.824 -1.1793 -1.6803 -0.2535
 8866SOL     OW38056   2.562   3.058   3.861 -0.5560 -0.2900  0.1186
 8866SOL    HW138057   2.488   3.117   3.851 -0.3100 -0.3476 -1.9765
 8866SOL    HW238058   2.618   3.099   3.927 -3.9436  1.7364  1.6864
 8867SOL     OW38059   0.862   2.683   4.836  0.4213 -0.1879 -0.0154
 8867SOL    HW138060   0.782   2.636   4.858  0.6403 -0.8369 -0.6240
 8867SOL    HW238061   0.920   2.614   4.804  0.3096 -1.0571  1.6348
 8868SOL     OW38062   4.368   0.182   1.353  0.4579  0.2543  0.5418
 8868SOL    HW138063   4.388   0.255   1.411  1.1720  0.4436  0.0637
 8868SOL    HW238064   4.456   0.144   1.360  0.3940 -0.2070 -1.0079
 8869SOL     OW38065   4.621   1.004   6.003 -0.0724  0.0122 -0.0017
 8869SOL    HW138066   4.547   1.040   5.955  1.4461  0.9640 -1.6033
 8869SOL    HW238067   4.581   1.009   6.090 -1.8900  0.2877 -0.8665
 8870SOL     OW38068   1.276   4.288   3.242  0.3949  0.1962 -0.2089
 8870SOL    HW138069   1.324   4.214   3.279 -0.4136  0.5317  1.4695
 8870SOL    HW238070   1.228   4.240   3.174  0.3145 -0.8613  0.5942
 8871SOL     OW38071   4.566   2.483   8.897 -0.2387 -0.4209  0.3351
 8871SOL    HW138072   4.562   2.436   8.814  0.0196  0.3105 -0.0948
 8871SOL    HW238073   4.563   2.405   8.952 -1.4408  1.2453  2.6202
 8872SOL     OW38074   4.151   2.019   8.357 -0.5858 -0.4060 -0.3322
 8872SOL    HW138075   4.211   2.094   8.361 -0.3401 -0.5883 -0.6289
 8872SOL    HW238076   4.135   2.003   8.450 -2.9328 -2.3408 -1.0494
 8873SOL     OW38077   0.977   0.790   4.341 -0.4256  0.1616 -0.0969
 8873SOL    HW138078   0.989   0.695   4.353 -0.0372  0.2516  0.2358
 8873SOL    HW238079   1.060   0.833   4.360 -0.6893  1.1918 -1.2898
 8874SOL     OW38080   3.749   3.434   2.941 -0.2494  0.0049 -0.4291
 8874SOL    HW138081   3.739   3.343   2.968  1.0252 -0.7065 -2.4030
 8874SOL    HW238082   3.779   3.423   2.851  1.2312 -0.0768  0.0720
 8875SOL     OW38083   2.526   3.441   7.084 -0.4003 -0.4479 -0.9336
 8875SOL    HW138084   2.564   3.523   7.050 -1.6214  0.9238  1.0251
 8875SOL    HW238085   2.500   3.478   7.168  1.3871 -1.8489  0.2477
 8876SOL     OW38086   2.530   2.169   7.579  0.2124  0.8164  0.0221
 8876SOL    HW138087   2.460   2.103   7.583 -0.3408  1.4578  1.0340
 8876SOL    HW238088   2.482   2.234   7.631  1.0977  1.0499  0.5377
 8877SOL     OW38089   0.607   0.246  11.765 -0.4868  0.7045 -0.4139
 8877SOL    HW138090   0.608   0.165  11.816 -3.6464  1.2777  0.5698
 8877SOL    HW238091   0.698   0.250  11.735 -0.7858 -0.2518 -1.4006
 8878SOL     OW38092   1.875   3.931  17.254  0.5816 -0.3372 -0.7418
 8878SOL    HW138093   1.937   3.938  17.326 -1.1531  0.4717  0.6639
 8878SOL    HW238094   1.800   3.897  17.303  1.1062 -1.3260 -0.6202
 8879SOL     OW38095   3.186   0.471   3.464 -0.5010  0.2621 -0.6502
 8879SOL    HW138096   3.109   0.441   3.414  0.5270 -2.4008 -0.6320
 8879SOL    HW238097   3.253   0.484   3.397  0.1544  0.8391  0.1222
 8880SOL     OW38098   3.181   3.786   6.145 -0.0229  0.0643 -0.2494
 8880SOL    HW138099   3.175   3.757   6.054  0.4151 -0.5782 -0.0757
 8880SOL    HW238100   3.184   3.700   6.188  0.1418  0.7378  1.0627
 8881SOL     OW38101   1.315   3.912  14.755  0.9110 -0.0244 -0.5878
 8881SOL    HW138102   1.269   3.992  14.731  0.9543  0.6605  1.6468
 8881SOL    HW238103   1.288   3.910  14.847 -1.5091 -2.6742 -1.3642
 8882SOL     OW38104   4.474   1.673   1.995 -0.2349 -0.3199 -0.1967
 8882SOL    HW138105   4.392   1.665   2.044  0.8733 -1.7646  1.4392
 8882SOL    HW238106   4.542   1.676   2.062 -1.2853  1.7614  0.7743
 8883SOL     OW38107   1.526   4.708  13.952 -0.0858 -0.1653 -0.0130
 8883SOL    HW138108   1.466   0.053  13.927  0.1109  1.1817  3.3138
 8883SOL    HW238109   1.612   4.716  13.910 -1.0864 -1.3510 -2.2912
 8884SOL     OW38110   4.546   1.334   3.371  0.2557  0.4808 -0.5442
 8884SOL    HW138111   4.627   1.363   3.413  0.2885 -2.7042  1.5363
 8884SOL    HW238112   4.573   1.268   3.308 -0.7811 -0.4755  0.0219
 8885SOL     OW38113   1.781   0.557   0.306  0.4228 -0.2029  0.2254
 8885SOL    HW138114   1.813   0.642   0.274 -0.9714  0.6643  1.1456
 8885SOL    HW238115   1.709   0.577   0.365  0.8944 -1.8095  1.3237
 8886SOL     OW38116   0.142   4.327   2.347  0.3068  0.2724 -0.0321
 8886SOL    HW138117   0.105   4.265   2.409  1.2232 -2.1639 -1.9359
 8886SOL    HW238118   0.117   4.410   2.388  0.7772 -0.4233  1.6390
 8887SOL     OW38119   3.947   0.696   4.942 -0.2650 -0.3308 -0.4528
 8887SOL    HW138120   4.014   0.681   4.875  0.6051 -1.5277  0.6849
 8887SOL    HW238121   3.879   0.641   4.905 -0.7472  0.3839 -0.6424
 8888SOL     OW38122   2.195   3.801  15.988  0.0993  0.0992 -0.1364
 8888SOL    HW138123   2.264   3.866  16.001  1.4242 -1.5186  0.9546
 8888SOL    HW238124   2.245   3.774  15.911 -1.9314 -0.7045 -1.1671
 8889SOL     OW38125   0.842   1.095   1.598 -0.1483  0.3458  0.3802
 8889SOL    HW138126   0.908   1.026   1.593  1.3848  1.7713  1.0278
 8889SOL    HW238127   0.821   1.103   1.506  0.8032 -0.7352  0.0653
 8890SOL     OW38128   2.643   2.308  11.203  0.0657 -0.8612  0.0769
 8890SOL    HW138129   2.728   2.306  11.245 -0.1619 -1.1501  0.5198
 8890SOL    HW238130   2.592   2.359  11.266  0.4462  0.5226 -0.7341
 8891SOL     OW38131   2.642   4.006  12.187  0.6711  0.2226 -0.5338
 8891SOL    HW138132   2.716   3.990  12.128  0.2733 -2.6038 -0.2861
 8891SOL    HW238133   2.654   4.098  12.211  3.0007  0.1020 -1.1749
 8892SOL     OW38134   0.210   3.451   5.622  0.0060  0.4920 -0.1459
 8892SOL    HW138135   0.239   3.425   5.709  0.5782 -1.1884 -0.8250
 8892SOL    HW238136   0.289   3.465   5.570 -0.7282  2.7864 -0.6222
 8893SOL     OW38137   4.406   0.768   0.266  0.4178  0.6619 -0.1969
 8893SOL    HW138138   4.353   0.745   0.341  0.3295  0.2652 -0.3829
 8893SOL    HW238139   4.394   0.689   0.213 -0.5902  0.1739  0.7815
 8894SOL     OW38140   1.883   4.260   9.126  0.9496 -0.2818  0.0326
 8894SOL    HW138141   1.887   4.351   9.155 -0.4559  0.4837 -2.1508
 8894SOL    HW238142   1.916   4.214   9.204 -0.9074  1.1484  1.6584
 8895SOL     OW38143   2.274   0.614   6.765 -0.5688  0.0212 -1.1322
 8895SOL    HW138144   2.311   0.657   6.842  1.3819 -0.7609 -1.6285
 8895SOL    HW238145   2.337   0.542   6.759 -0.2811  0.0572  1.4161
 8896SOL     OW38146   3.363   2.755   9.174  0.6221 -0.0285  0.0034
 8896SOL    HW138147   3.352   2.694   9.102  2.1724  0.1693 -0.4001
 8896SOL    HW238148   3.351   2.833   9.120 -0.4200 -0.1756  0.0120
 8897SOL     OW38149   3.107   4.140   5.066  0.4804  0.0141  0.0715
 8897SOL    HW138150   3.131   4.193   4.989 -1.3633 -0.8620 -1.1172
 8897SOL    HW238151   3.058   4.074   5.018  1.4726 -0.9727  0.4211
 8898SOL     OW38152   4.650   0.084  15.373 -0.7527 -0.1471  0.1375
 8898SOL    HW138153   4.568   0.050  15.338 -0.6333  0.0020 -0.2786
 8898SOL    HW238154   4.622   0.102  15.463 -0.8906 -2.0581  0.4812
 8899SOL     OW38155   2.175   4.257   5.216 -0.0536 -0.2844  0.1829
 8899SOL    HW138156   2.269   4.246   5.233  0.1892  2.1584  0.4209
 8899SOL    HW238157   2.136   4.170   5.221 -0.8147  0.0133 -0.6658
 8900SOL     OW38158   0.102   2.432   6.328 -0.4220  0.2778  0.1432
 8900SOL    HW138159   0.065   2.501   6.273 -1.0288 -0.6874 -0.6552
 8900SOL    HW238160   0.052   2.352   6.314 -0.9477  1.1722 -2.9287
 8901SOL     OW38161   0.819   4.500   8.037  0.3702 -0.3188 -0.8506
 8901SOL    HW138162   0.822   4.440   7.963  3.6830  1.5845 -2.2402
 8901SOL    HW238163   0.761   4.567   8.002  1.2854  1.5551  1.2017
 8902SOL     OW38164   2.050   4.706   9.609 -0.2693 -0.4375 -0.1937
 8902SOL    HW138165   2.049   0.033   9.529 -0.6113 -0.0811  0.0469
 8902SOL    HW238166   2.097   4.626   9.588  2.1997  0.7521  0.8636
 8903SOL     OW38167   3.397   2.021   9.349 -0.2123 -1.5016  0.1475
 8903SOL    HW138168   3.447   1.976   9.418  1.0007  0.1093  0.3126
 8903SOL    HW238169   3.458   2.031   9.276 -1.5559  2.9114 -0.3028
 8904SOL     OW38170   4.714   2.111   4.764 -0.0439  0.1383  0.2190
 8904SOL    HW138171   4.648   2.180   4.771  0.1944  0.3682  0.1940
 8904SOL    HW238172   0.064   2.168   4.768  1.3019 -1.6250 -0.5103
 8905SOL     OW38173   3.991   3.030   6.419  0.5692 -0.1667  0.0851
 8905SOL    HW138174   3.956   3.112   6.455  0.5595  0.3901 -1.2165
 8905SOL    HW238175   4.039   3.003   6.497  0.0259  1.3314  0.9410
 8906SOL     OW38176   0.470   4.148   8.251  0.7395  0.0819  0.3299
 8906SOL    HW138177   0.484   4.237   8.218  0.0572  0.5472  1.3295
 8906SOL    HW238178   0.445   4.164   8.341  1.2061  0.5699  0.3762
 8907SOL     OW38179   2.817   4.358   5.179  0.3325  0.1840 -0.4207
 8907SOL    HW138180   2.743   4.304   5.150  0.1605  0.7270 -1.0008
 8907SOL    HW238181   2.846   4.386   5.092  1.4172 -1.9544 -0.7364
 8908SOL     OW38182   3.560   0.265  15.063 -0.0586 -0.3704  0.7195
 8908SOL    HW138183   3.604   0.345  15.032  1.0849 -1.9329 -1.6479
 8908SOL    HW238184   3.567   0.219  14.980 -0.3322  2.0495 -0.6527
 8909SOL     OW38185   1.087   4.231   8.176  0.4777 -0.0981 -0.3883
 8909SOL    HW138186   1.032   4.225   8.098 -1.0401  2.4890  0.5007
 8909SOL    HW238187   1.063   4.143   8.207 -0.0624  0.9038  2.0078
 8910SOL     OW38188   2.912   3.075   0.914  0.3305 -0.2236  0.1130
 8910SOL    HW138189   2.983   3.046   0.857  0.6088 -0.2295  0.4585
 8910SOL    HW238190   2.954   3.104   0.995 -0.2582  0.2138  0.2546
 8911SOL     OW38191   1.313   3.446   6.570 -0.0987  0.7869 -0.3735
 8911SOL    HW138192   1.232   3.474   6.528 -1.2817 -0.3186  1.2369
 8911SOL    HW238193   1.292   3.466   6.661  0.2925  0.0137 -0.1167
 8912SOL     OW38194   3.914   1.996   5.661 -0.5614  0.7082 -0.3755
 8912SOL    HW138195   3.986   1.974   5.720 -1.5079  3.0914  1.6657
 8912SOL    HW238196   3.840   2.003   5.721 -0.7850 -3.1049 -0.2304
 8913SOL     OW38197   1.985   0.182   7.094 -0.3815  0.3716  0.0278
 8913SOL    HW138198   2.051   0.126   7.134 -0.3253  0.5761  0.2192
 8913SOL    HW238199   1.950   0.234   7.166  0.8720  1.5905 -0.2402
 8914SOL     OW38200   1.374   2.740   3.892  0.4527  0.1556  0.1121
 8914SOL    HW138201   1.437   2.728   3.821  0.0311  2.7626 -0.7005
 8914SOL    HW238202   1.435   2.771   3.960  0.0667  0.1545  0.4617
 8915SOL     OW38203   4.292   0.922  15.106 -0.0905 -0.4071 -0.3188
 8915SOL    HW138204   4.354   0.902  15.036 -0.0410  3.6977 -1.4319
 8915SOL    HW238205   4.243   0.840  15.114  0.5451 -0.8705 -1.0889
 8916SOL     OW38206   2.969   0.446   2.770  0.0590 -0.8076  0.0470
 8916SOL    HW138207   2.942   0.482   2.685  0.9315 -0.0049  0.1145
 8916SOL    HW238208   2.944   0.354   2.765 -0.2998 -0.8266  2.0609
 8917SOL     OW38209   3.012   0.134  16.452  0.0109  0.4074 -0.3731
 8917SOL    HW138210   2.925   0.137  16.413  0.0904 -0.6629 -0.6394
 8917SOL    HW238211   3.051   0.050  16.426 -0.5130  0.2612 -0.6853
 8918SOL     OW38212   2.229   2.689  10.594 -0.2461  0.1119 -0.2534
 8918SOL    HW138213   2.267   2.608  10.560 -1.5600 -0.3420 -0.6078
 8918SOL    HW238214   2.249   2.752  10.525  0.1319 -1.3421 -1.4581
 8919SOL     OW38215   2.917   0.361   3.384 -0.5575 -0.4641  0.7943
 8919SOL    HW138216   2.847   0.425   3.393  0.1456  0.0681  2.5999
 8919SOL    HW238217   2.877   0.302   3.320  1.3420  0.5147 -1.2888
 8920SOL     OW38218   0.817   2.129  10.712 -0.6788  0.7107 -0.3603
 8920SOL    HW138219   0.788   2.070  10.781  0.1339 -0.1450 -0.7522
 8920SOL    HW238220   0.890   2.077  10.679 -0.1071  0.2955  1.5746
 8921SOL     OW38221   0.941   2.840   0.894  0.2526 -0.3022 -0.1326
 8921SOL    HW138222   1.032   2.862   0.916  0.1277 -0.5349  0.6328
 8921SOL    HW238223   0.901   2.919   0.859  0.2005 -0.3995 -0.2954
 8922SOL     OW38224   1.583   0.727   0.423  0.4132  0.0640  0.5286
 8922SOL    HW138225   1.603   0.737   0.516 -0.0249 -2.0246  0.8395
 8922SOL    HW238226   1.642   0.796   0.393 -1.2526  0.7099 -1.2486
 8923SOL     OW38227   2.285   0.282   2.010 -0.1773 -0.0445  0.4662
 8923SOL    HW138228   2.236   0.203   2.032 -0.2094 -0.2652 -0.3897
 8923SOL    HW238229   2.220   0.352   2.008  0.5095  0.5726 -0.1367
 8924SOL     OW38230   2.547   1.124   1.429 -0.2481 -0.0960  0.3676
 8924SOL    HW138231   2.471   1.085   1.472  1.2735 -4.3731 -0.8296
 8924SOL    HW238232   2.496   1.154   1.354  0.7501 -0.4065 -0.4391
 8925SOL     OW38233   1.380   1.686   1.549 -0.4635 -0.1580  0.8523
 8925SOL    HW138234   1.371   1.642   1.465 -1.6823  0.5219  0.6321
 8925SOL    HW238235   1.370   1.609   1.605 -0.2478  0.0985  1.2419
 8926SOL     OW38236   4.308   1.159   3.098 -0.0978 -0.6210  0.4967
 8926SOL    HW138237   4.401   1.181   3.108 -0.2025 -0.3455  0.8733
 8926SOL    HW238238   4.308   1.108   3.017  0.9233 -1.3064  0.9217
 8927SOL     OW38239   0.003   1.390   6.286  0.1524  0.2677  0.1135
 8927SOL    HW138240   0.004   1.328   6.359 -2.8367 -0.7028 -0.6919
 8927SOL    HW238241   0.097   1.401   6.269  0.1408 -1.0092 -0.7540
 8928SOL     OW38242   4.338   1.091   0.333  0.3522  0.0632  0.5957
 8928SOL    HW138243   4.385   1.064   0.253  2.1689  0.4614  1.5280
 8928SOL    HW238244   4.401   1.073   0.402 -0.6377 -0.6258  1.3161
 8929SOL     OW38245   1.523   0.614   2.128  0.0962 -0.8349 -0.4226
 8929SOL    HW138246   1.558   0.677   2.066  0.8049 -2.5983 -1.7972
 8929SOL    HW238247   1.450   0.573   2.081 -1.3242  1.8099 -0.5023
 8930SOL     OW38248   4.408   3.795   1.870  0.0168 -0.0433 -0.2639
 8930SOL    HW138249   4.424   3.771   1.779  2.4787 -2.4259  0.8173
 8930SOL    HW238250   4.483   3.851   1.887 -0.3386  1.0525 -2.3179
 8931SOL     OW38251   1.829   3.044   7.782  0.0819  0.5342  0.2715
 8931SOL    HW138252   1.741   3.035   7.820  0.3739  0.3344  0.9045
 8931SOL    HW238253   1.808   2.972   7.722  0.9925 -0.5806  1.2679
 8932SOL     OW38254   3.980   4.123  12.978  0.7005 -0.1724 -0.5110
 8932SOL    HW138255   4.049   4.125  12.912 -0.1783  2.7546 -1.3535
 8932SOL    HW238256   4.031   4.122  13.059  0.6936 -1.9410 -0.5326
 8933SOL     OW38257   0.124   1.783   3.780  0.4213  0.1245  0.0208
 8933SOL    HW138258   0.209   1.826   3.788  0.6074 -0.0808 -0.8944
 8933SOL    HW238259   0.138   1.690   3.798  2.3266  0.2597 -0.7868
 8934SOL     OW38260   4.204   3.995   4.290 -0.3406  0.1325 -0.2146
 8934SOL    HW138261   4.289   3.956   4.270 -0.8337 -1.4922  0.8851
 8934SOL    HW238262   4.219   4.085   4.263  2.2576 -1.0745 -2.7397
 8935SOL     OW38263   3.917   1.460   7.107  0.2817  0.1768  0.4769
 8935SOL    HW138264   3.858   1.413   7.047  0.4331 -1.5158  1.6418
 8935SOL    HW238265   3.847   1.509   7.151  0.8250  0.7742  0.6657
 8936SOL     OW38266   4.338   4.464   6.302 -0.2420 -0.1277 -0.4379
 8936SOL    HW138267   4.295   4.427   6.225 -0.9082  0.2974 -0.2752
 8936SOL    HW238268   4.270   4.448   6.367 -0.6790  0.3825 -0.7668
 8937SOL     OW38269   3.080   2.106   7.465 -0.0956 -0.7717 -0.0974
 8937SOL    HW138270   3.053   2.179   7.520  1.7717  1.1387 -1.7228
 8937SOL    HW238271   3.173   2.129   7.464 -0.6349  1.3973  1.0350
 8938SOL     OW38272   1.937   1.877   3.007  0.2410  0.1541  0.1553
 8938SOL    HW138273   1.956   1.830   3.088  1.1040 -0.8514 -0.6248
 8938SOL    HW238274   2.021   1.880   2.962 -0.3060  1.3623 -0.8051
 8939SOL     OW38275   4.430   0.183  15.028 -0.0052  0.2977  0.4747
 8939SOL    HW138276   4.519   0.195  15.061  0.3173  1.3530 -0.7687
 8939SOL    HW238277   4.447   0.152  14.940 -0.0699  2.4889 -0.3235
 8940SOL     OW38278   3.975   3.158  16.934  0.3543 -0.0915 -0.1426
 8940SOL    HW138279   3.903   3.220  16.927  1.1526  0.9971  1.2295
 8940SOL    HW238280   4.013   3.174  17.020  0.4205 -0.9024 -0.0186
 8941SOL     OW38281   0.074   0.416   5.807 -0.0702 -0.2279  0.3199
 8941SOL    HW138282   4.722   0.456   5.843 -1.0287  0.0327 -2.0384
 8941SOL    HW238283   0.113   0.372   5.882  1.2422  1.5680  0.6828
 8942SOL     OW38284   3.521   2.757   3.885 -0.2660 -0.5564 -0.1248
 8942SOL    HW138285   3.529   2.816   3.809 -0.4348  0.9329  1.0048
 8942SOL    HW238286   3.537   2.814   3.960 -1.3673 -1.0871  0.5175
 8943SOL     OW38287   0.792   3.774   2.541  0.0549  0.1059 -0.0562
 8943SOL    HW138288   0.723   3.766   2.607 -1.2190  1.9055 -1.1485
 8943SOL    HW238289   0.765   3.840   2.477  1.4284  0.3903 -0.3292
 8944SOL     OW38290   2.388   2.032   2.767 -0.0205 -0.1007 -0.4692
 8944SOL    HW138291   2.411   2.115   2.809 -0.1189  0.0119 -0.6423
 8944SOL    HW238292   2.474   2.019   2.726 -0.4899 -0.0842 -1.4426
 8945SOL     OW38293   3.872   2.355  15.425 -0.6005  0.1552 -0.6949
 8945SOL    HW138294   3.855   2.293  15.496  0.0684  1.5778  0.6971
 8945SOL    HW238295   3.967   2.345  15.424 -0.4484  1.7411 -1.4354
 8946SOL     OW38296   1.262   3.839   3.440  0.3779 -0.5888  0.2083
 8946SOL    HW138297   1.242   3.750   3.466  0.7321 -1.1852 -1.5358
 8946SOL    HW238298   1.220   3.846   3.354  3.5732  0.4507 -1.2817
 8947SOL     OW38299   4.026   1.675   9.527  0.1213 -0.1565  0.0569
 8947SOL    HW138300   3.981   1.704   9.606  0.5555 -2.1653  1.0371
 8947SOL    HW238301   4.059   1.587   9.548  0.3838  0.2605  1.4109
 8948SOL     OW38302   2.380   2.918   6.531 -0.0532 -0.1068 -0.2957
 8948SOL    HW138303   2.421   3.004   6.539  0.4032 -0.2053 -1.6988
 8948SOL    HW238304   2.302   2.942   6.480  0.2346  0.5030 -0.4418
 8949SOL     OW38305   3.199   2.930   3.595  0.1178  0.1039 -0.3722
 8949SOL    HW138306   3.132   2.997   3.583 -2.3331 -2.3266  0.0033
 8949SOL    HW238307   3.148   2.857   3.627 -0.0659 -0.7400 -2.5918
 8950SOL     OW38308   3.116   2.732   2.406 -0.4656 -0.1799 -0.2671
 8950SOL    HW138309   3.028   2.768   2.418 -0.6425 -0.2391 -1.3989
 8950SOL    HW238310   3.153   2.803   2.354  1.2330  0.4986  1.8403
 8951SOL     OW38311   4.078   2.555   2.866  0.0956 -0.3561 -0.2700
 8951SOL    HW138312   4.040   2.473   2.897 -3.4208 -0.0693 -3.8270
 8951SOL    HW238313   4.097   2.602   2.947  4.4848 -0.2721 -1.3346
 8952SOL     OW38314   3.373   3.734   8.173 -0.3811  0.4993  0.1514
 8952SOL    HW138315   3.299   3.683   8.206  0.1661  0.0498  0.6851
 8952SOL    HW238316   3.435   3.673   8.132 -0.0343  1.0883 -0.1928
 8953SOL     OW38317   1.594   4.173   5.248 -0.5453 -0.2839  0.3862
 8953SOL    HW138318   1.643   4.159   5.329  1.2578  1.4118 -0.4094
 8953SOL    HW238319   1.569   4.264   5.261 -0.3002 -0.2491  0.6351
 8954SOL     OW38320   1.911   2.366   7.293  0.3507  0.1642  0.1447
 8954SOL    HW138321   1.866   2.312   7.228  1.6805  0.0893 -0.7129
 8954SOL    HW238322   1.877   2.454   7.276 -0.8100 -0.2559  0.2674
 8955SOL     OW38323   1.865   3.995   7.643 -0.0019 -0.2639  0.4692
 8955SOL    HW138324   1.830   4.028   7.560 -0.1259  0.9230  0.9904
 8955SOL    HW238325   1.886   4.081   7.680  0.9110 -0.0416 -0.5567
 8956SOL     OW38326   3.852   3.285   1.371 -0.0403 -0.3424 -0.7638
 8956SOL    HW138327   3.907   3.291   1.449  0.8892 -1.2107 -1.3465
 8956SOL    HW238328   3.784   3.221   1.394 -0.1865  0.1866  0.3054
 8957SOL     OW38329   4.588   1.852   8.054 -0.0682  0.2458  0.1919
 8957SOL    HW138330   4.495   1.861   8.031 -0.5056 -2.1229  0.9982
 8957SOL    HW238331   4.568   1.846   8.148 -1.5031 -1.7889 -0.2399
 8958SOL     OW38332   3.690   1.643   0.421  0.1040  0.2157  0.1090
 8958SOL    HW138333   3.733   1.728   0.416 -1.8033  1.1575 -0.1856
 8958SOL    HW238334   3.702   1.622   0.514 -0.7331  2.1804  0.6506
 8959SOL     OW38335   0.039   3.770   6.176  0.0423  0.3798  0.2925
 8959SOL    HW138336   0.002   3.753   6.089  0.5670 -0.6540  0.2661
 8959SOL    HW238337   4.686   3.790   6.227 -0.5334 -1.8749  0.2995
 8960SOL     OW38338   3.205   2.487   8.457 -0.1065  0.2040 -0.0035
 8960SOL    HW138339   3.172   2.564   8.411  1.8906  1.0927  0.0006
 8960SOL    HW238340   3.164   2.411   8.417  0.9827 -1.1303  1.4121
 8961SOL     OW38341   3.622   3.246  14.609  0.1589  0.2757  0.3835
 8961SOL    HW138342   3.708   3.205  14.616 -1.3718 -2.7345  1.6175
 8961SOL    HW238343   3.574   3.175  14.566 -2.7333  2.7841 -0.5077
 8962SOL     OW38344   0.258   2.262   0.468  0.4201 -1.1267  0.1330
 8962SOL    HW138345   0.184   2.253   0.529 -0.7883  3.1838 -0.6746
 8962SOL    HW238346   0.331   2.233   0.522  1.4838  2.4019  0.5733
 8963SOL     OW38347   1.117   2.788   8.776  0.5463 -0.6443 -0.7106
 8963SOL    HW138348   1.076   2.721   8.722 -1.3633 -0.4725  0.5183
 8963SOL    HW238349   1.053   2.789   8.847  1.9620  0.2047  0.5586
 8964SOL     OW38350   2.155   4.575   3.181  0.1002  0.1847 -0.1134
 8964SOL    HW138351   2.127   4.488   3.210  0.4578  0.0057 -0.3127
 8964SOL    HW238352   2.190   4.559   3.093 -0.3954  0.9682 -0.4466
 8965SOL     OW38353   4.428   3.885   3.512 -0.3075  0.4443 -0.8086
 8965SOL    HW138354   4.410   3.791   3.519 -0.9291  0.5004 -1.6669
 8965SOL    HW238355   4.483   3.895   3.589  1.9669  0.9375 -2.4932
 8966SOL     OW38356   3.088   4.620   8.532 -0.5265 -0.3525 -0.0752
 8966SOL    HW138357   3.051   4.667   8.607  0.5522  1.6651 -0.7956
 8966SOL    HW238358   3.161   4.681   8.525 -0.8194 -0.0330 -0.3434
 8967SOL     OW38359   0.464   4.446   7.436  0.3851 -0.0622  0.0906
 8967SOL    HW138360   0.492   4.419   7.523 -1.0123 -2.1254 -0.1027
 8967SOL    HW238361   0.418   4.529   7.443  0.1083 -0.1393 -0.7258
 8968SOL     OW38362   4.058   4.523   3.667  0.3698  0.3761  0.4822
 8968SOL    HW138363   4.021   4.475   3.741 -0.4827 -0.9952 -0.8163
 8968SOL    HW238364   4.055   4.613   3.698  0.2586  0.1013  1.2669
 8969SOL     OW38365   2.436   2.378   0.211 -0.1399  0.9355  0.4730
 8969SOL    HW138366   2.450   2.420   0.296  2.0595  2.0022 -0.4473
 8969SOL    HW238367   2.498   2.426   0.158 -0.3983  0.0600 -0.6152
 8970SOL     OW38368   3.380   0.444   6.807 -0.2863 -0.2523 -0.4807
 8970SOL    HW138369   3.461   0.443   6.755 -0.4783 -0.4317 -0.7738
 8970SOL    HW238370   3.307   0.426   6.748  0.1619 -1.7478 -0.5719
 8971SOL     OW38371   4.151   0.640   7.592  0.4550  0.4615  0.3012
 8971SOL    HW138372   4.083   0.599   7.646  0.6052  0.2278  0.3128
 8971SOL    HW238373   4.237   0.608   7.618 -0.1780 -0.4768  1.2347
 8972SOL     OW38374   4.104   3.409   2.558 -0.0588  0.2158 -0.2755
 8972SOL    HW138375   4.138   3.448   2.478 -2.0162  0.1804 -1.1051
 8972SOL    HW238376   4.018   3.377   2.533  1.3405 -3.2712 -0.6038
 8973SOL     OW38377   4.723   0.448   7.104 -0.2849  0.8525 -0.1705
 8973SOL    HW138378   0.080   0.496   7.103 -0.6586  1.5080 -0.4590
 8973SOL    HW238379   4.698   0.470   7.194  1.5195 -2.5276  1.1205
 8974SOL     OW38380   1.054   3.287   8.948 -0.3451  0.3819 -0.3765
 8974SOL    HW138381   1.116   3.289   8.876  0.3138  0.2965  0.1937
 8974SOL    HW238382   1.097   3.241   9.020  1.1974 -1.3650 -2.4461
 8975SOL     OW38383   4.193   3.750   0.792 -0.0186  0.7150 -0.0597
 8975SOL    HW138384   4.107   3.766   0.830  0.0474  0.3548  0.2451
 8975SOL    HW238385   4.202   3.816   0.723  0.8692 -1.9239 -2.4945
 8976SOL     OW38386   4.098   4.422  15.008  0.1554 -0.3617  0.3199
 8976SOL    HW138387   4.085   4.330  14.985 -1.9302 -0.3903  1.6257
 8976SOL    HW238388   4.161   4.425  15.080  1.5497  1.4010 -0.9685
 8977SOL     OW38389   0.624   3.834   5.937 -0.3553 -0.0557  0.2000
 8977SOL    HW138390   0.670   3.861   6.016  0.9322  3.1246 -1.6768
 8977SOL    HW238391   0.549   3.893   5.939 -0.3486  0.0375 -1.8705
 8978SOL     OW38392   1.465   0.611   8.306  0.2609 -0.7168 -0.2139
 8978SOL    HW138393   1.409   0.668   8.253  0.4725  0.2989  0.6392
 8978SOL    HW238394   1.532   0.676   8.329 -0.3787 -0.1618  0.0796
 8979SOL     OW38395   4.479   0.212   8.783 -0.2803 -0.1715 -0.1813
 8979SOL    HW138396   4.469   0.129   8.829 -0.8376 -0.2347 -0.4220
 8979SOL    HW238397   4.455   0.275   8.851  0.2523  0.8161 -0.9069
 8980SOL     OW38398   1.132   0.402  15.694 -0.0245 -0.1706  0.4120
 8980SOL    HW138399   1.108   0.472  15.754 -0.4830 -0.9427  1.1402
 8980SOL    HW238400   1.152   0.335  15.759  2.1201  3.0529  3.0218
 8981SOL     OW38401   4.182   1.822  12.228 -0.5786 -0.8429 -0.0246
 8981SOL    HW138402   4.249   1.828  12.160 -2.8733  2.9091 -1.9736
 8981SOL    HW238403   4.151   1.913  12.229  0.7726 -0.3786 -1.2795
 8982SOL     OW38404   4.693   0.635  17.033  0.4278 -0.1468 -0.4207
 8982SOL    HW138405   4.667   0.553  17.076  1.4788 -0.4057 -0.2654
 8982SOL    HW238406   4.722   0.588  16.955  0.5134  0.2704 -0.6375
 8983SOL     OW38407   2.814   3.540  10.602 -0.3121  0.2255 -0.6100
 8983SOL    HW138408   2.768   3.456  10.599 -1.0552  0.5559  1.2791
 8983SOL    HW238409   2.896   3.519  10.559 -1.0056 -1.9376 -0.8799
 8984SOL     OW38410   0.943   1.154   8.095  0.4438  0.2165 -0.3680
 8984SOL    HW138411   0.911   1.064   8.086 -0.1552  0.2366  1.7635
 8984SOL    HW238412   1.036   1.143   8.111  0.2837 -1.0601 -0.3310
 8985SOL     OW38413   4.615   4.051   9.342  0.3342 -0.6516  0.8269
 8985SOL    HW138414   4.575   4.026   9.425 -2.1570  1.3366  0.2561
 8985SOL    HW238415   4.707   4.039   9.364  0.5857 -1.1771 -0.4919
 8986SOL     OW38416   0.426   2.871   2.121  0.3372 -0.2047 -0.1966
 8986SOL    HW138417   0.378   2.789   2.114 -0.5347  0.4896 -2.4837
 8986SOL    HW238418   0.426   2.885   2.216  0.0107 -1.0117 -0.0762
 8987SOL     OW38419   0.196   0.954  11.758  0.2654 -0.3522 -0.0011
 8987SOL    HW138420   0.141   0.928  11.684  2.0340 -0.5372 -1.2442
 8987SOL    HW238421   0.205   1.048  11.743 -0.8211 -0.5708 -2.0608
 8988SOL     OW38422   3.610   4.177   9.162  0.1083 -0.0870  0.2257
 8988SOL    HW138423   3.648   4.263   9.183 -1.4974  0.3555  1.2888
 8988SOL    HW238424   3.688   4.124   9.179  0.9727  1.9667  2.5836
 8989SOL     OW38425   2.343   1.954   0.309  0.1707 -0.4559 -0.0817
 8989SOL    HW138426   2.304   1.877   0.269 -0.9226  0.3749 -0.6309
 8989SOL    HW238427   2.344   2.010   0.231  3.0313 -0.5121 -0.0679
 8990SOL     OW38428   4.386   4.047   3.233  0.2645  0.1805  0.4767
 8990SOL    HW138429   4.414   3.956   3.226 -0.3257 -0.1765  2.7516
 8990SOL    HW238430   4.304   4.038   3.281  0.3900  0.7821  0.8144
 8991SOL     OW38431   2.247   2.998   8.434 -0.2993 -0.0531 -0.3609
 8991SOL    HW138432   2.327   3.012   8.484 -0.9467  2.0404  0.0794
 8991SOL    HW238433   2.275   2.973   8.345 -1.7115  1.6063 -1.2681
 8992SOL     OW38434   1.816   1.258   8.679  1.0774  0.2913 -0.2106
 8992SOL    HW138435   1.876   1.187   8.701 -0.2353 -0.9633 -0.7020
 8992SOL    HW238436   1.837   1.309   8.758  2.5754 -2.5858  1.2602
 8993SOL     OW38437   2.151   3.126   5.267  0.2946 -0.4196  0.2093
 8993SOL    HW138438   2.118   3.154   5.352  2.3101 -0.0799  0.8655
 8993SOL    HW238439   2.077   3.070   5.241 -2.8938  2.8573  2.0968
 8994SOL     OW38440   3.641   3.822   3.262 -0.4328 -0.6520  0.2547
 8994SOL    HW138441   3.562   3.849   3.309  0.3093  1.5276  0.2696
 8994SOL    HW238442   3.616   3.845   3.173 -3.0982  0.2983  1.2523
 8995SOL     OW38443   4.539   1.796   1.742  0.1032  0.4724 -0.1831
 8995SOL    HW138444   4.517   1.750   1.823  0.9749 -1.4628 -1.0256
 8995SOL    HW238445   4.625   1.754   1.732 -0.2372 -0.4727  0.8629
 8996SOL     OW38446   0.727   3.637  16.878  1.0734  0.1589  0.3630
 8996SOL    HW138447   0.729   3.631  16.783  4.7270 -0.8181  0.4965
 8996SOL    HW238448   0.744   3.543  16.887 -0.8367 -0.1598  0.7983
 8997SOL     OW38449   2.721   3.521   8.708 -0.5183  0.2879 -0.7534
 8997SOL    HW138450   2.785   3.545   8.641 -2.3075  0.8893 -2.2396
 8997SOL    HW238451   2.793   3.536   8.770 -0.7800  2.1222 -0.9032
 8998SOL     OW38452   0.136   2.676   5.720 -0.0321 -0.0996  0.4105
 8998SOL    HW138453   0.145   2.627   5.638  2.6689  0.8212  0.1376
 8998SOL    HW238454   0.207   2.739   5.709  1.0415 -1.5548 -1.0563
 8999SOL     OW38455   3.459   2.031   4.512 -0.4819  0.1528 -0.5541
 8999SOL    HW138456   3.505   2.057   4.432 -2.3764 -1.4209 -2.1475
 8999SOL    HW238457   3.386   2.093   4.511 -1.5308 -1.0577  2.2213
 9000SOL     OW38458   1.719   2.336   4.398  0.6669 -0.3348 -0.6404
 9000SOL    HW138459   1.653   2.272   4.424 -0.0869 -0.2370 -2.3400
 9000SOL    HW238460   1.776   2.339   4.475  1.2730  0.4203 -1.1210
 9001SOL     OW38461   2.163   2.214   6.098 -0.1993  0.0939  0.3864
 9001SOL    HW138462   2.220   2.149   6.057 -0.9001  1.1485 -2.2264
 9001SOL    HW238463   2.210   2.226   6.181  0.8999 -0.6205 -0.1416
 9002SOL     OW38464   0.347   0.140   8.866 -0.6217  0.1988 -0.1799
 9002SOL    HW138465   0.394   0.160   8.947  0.8161 -1.3076 -0.6452
 9002SOL    HW238466   0.268   0.115   8.915 -0.7878 -0.1096 -0.6038
 9003SOL     OW38467   0.193   2.421  13.095  0.7118  0.1732 -0.4017
 9003SOL    HW138468   0.286   2.434  13.115  0.9231 -3.9336  1.3582
 9003SOL    HW238469   0.148   2.472  13.162 -0.4626  1.0961 -1.9065
 9004SOL     OW38470   2.642   3.919   9.819 -0.2843  0.3610  0.2716
 9004SOL    HW138471   2.716   3.882   9.868 -0.6095  1.3743  1.5442
 9004SOL    HW238472   2.617   3.843   9.766 -1.6447 -0.6383  2.3266
 9005SOL     OW38473   3.544   3.625  13.540  0.2052 -0.6034 -0.7252
 9005SOL    HW138474   3.506   3.655  13.623 -0.9104 -1.8894 -0.7667
 9005SOL    HW238475   3.465   3.585  13.503  0.4834 -2.3372  0.5268
 9006SOL     OW38476   1.881   4.706   2.940 -0.2820 -0.3719 -0.2297
 9006SOL    HW138477   1.795   4.706   2.982 -0.2662  0.1431 -0.2018
 9006SOL    HW238478   1.924   4.622   2.958 -1.6456 -1.1064 -0.3493
 9007SOL     OW38479   4.327   2.216   9.629  0.6479 -0.4297  0.0505
 9007SOL    HW138480   4.237   2.216   9.660  0.4149 -1.5231 -0.6052
 9007SOL    HW238481   4.332   2.126   9.595  1.1642 -0.2177 -0.4366
 9008SOL     OW38482   2.286   2.876   5.341  0.1394 -0.2980 -0.0867
 9008SOL    HW138483   2.248   2.962   5.324 -1.2148 -0.8601  0.0573
 9008SOL    HW238484   2.260   2.821   5.267  1.1611  1.6467 -1.8793
 9009SOL     OW38485   0.914   2.086   5.470 -0.1528  0.0727 -0.1625
 9009SOL    HW138486   0.945   2.172   5.500  1.3579  0.0927 -1.7851
 9009SOL    HW238487   0.996   2.040   5.487 -0.4070 -0.1790  0.3993
 9010SOL     OW38488   1.259   1.851   5.056  0.1350 -0.0516 -0.0145
 9010SOL    HW138489   1.226   1.763   5.035  0.3032  0.1792 -1.2624
 9010SOL    HW238490   1.224   1.898   4.980  2.6556  0.6719 -0.7131
 9011SOL     OW38491   2.726   0.913   4.566  0.3877 -0.7412  0.0998
 9011SOL    HW138492   2.666   0.910   4.492 -0.7277  1.1550  0.9232
 9011SOL    HW238493   2.781   0.839   4.540  2.3305  0.1835  1.5586
 9012SOL     OW38494   2.700   0.761   7.416 -0.5781 -0.0495 -0.1250
 9012SOL    HW138495   2.771   0.821   7.391  1.4325 -2.6250 -0.5011
 9012SOL    HW238496   2.691   0.694   7.348  1.6614 -0.5927  0.1330
 9013SOL     OW38497   0.576   2.824  10.572 -0.2694  0.0009 -0.1564
 9013SOL    HW138498   0.634   2.788  10.639  1.5711 -0.8492 -2.1956
 9013SOL    HW238499   0.525   2.746  10.553  2.4742 -1.9431  0.4136
 9014SOL     OW38500   0.554   2.842  14.170 -0.4779 -0.3930 -0.1130
 9014SOL    HW138501   0.603   2.831  14.251  0.7893  1.8504 -0.5433
 9014SOL    HW238502   0.492   2.912  14.192 -1.2294 -0.4660 -1.9775
 9015SOL     OW38503   4.120   3.809  11.127  0.0226 -0.2314 -0.6241
 9015SOL    HW138504   4.180   3.735  11.119  0.0805 -0.0994 -1.4041
 9015SOL    HW238505   4.187   3.874  11.107  1.0759 -0.7790  1.1170
 9016SOL     OW38506   2.555   3.099   9.293  0.0782  0.5884 -0.0277
 9016SOL    HW138507   2.497   3.026   9.317 -0.1121  0.8872  0.4187
 9016SOL    HW238508   2.546   3.098   9.198  0.7987 -1.0310 -0.0803
 9017SOL     OW38509   0.431   1.778   7.063 -0.0821  0.1290  0.1854
 9017SOL    HW138510   0.419   1.850   7.125 -0.1155  0.4131 -0.1487
 9017SOL    HW238511   0.349   1.788   7.014  0.7552  2.6497 -0.7140
 9018SOL     OW38512   4.145   3.574  11.642 -0.2455  0.0669 -0.8004
 9018SOL    HW138513   4.087   3.626  11.697  1.0896  0.3261  0.3550
 9018SOL    HW238514   4.189   3.514  11.702 -0.2713  0.6052 -0.2448
 9019SOL     OW38515   2.574   3.199   5.363 -0.3952  0.3681  0.0090
 9019SOL    HW138516   2.627   3.278   5.357 -1.1415  0.7963 -0.8789
 9019SOL    HW238517   2.546   3.194   5.454  0.2808 -2.1405  0.0962
 9020SOL     OW38518   0.640   2.288  16.277 -0.1831 -0.3898 -0.4357
 9020SOL    HW138519   0.621   2.208  16.229 -0.1166 -0.7192  0.0923
 9020SOL    HW238520   0.560   2.340  16.267 -1.7014 -2.2396  2.2081
 9021SOL     OW38521   2.680   3.320   9.367  0.0719  0.0034 -0.6931
 9021SOL    HW138522   2.627   3.251   9.326  0.6639 -0.9982  0.2201
 9021SOL    HW238523   2.746   3.266   9.412 -0.0567  0.1805 -0.2982
 9022SOL     OW38524   3.665   1.111   8.232 -0.9215 -0.1899  0.6941
 9022SOL    HW138525   3.631   1.027   8.200 -0.0404 -1.0175  1.9390
 9022SOL    HW238526   3.631   1.161   8.158 -4.1734 -1.4154  1.3524
 9023SOL     OW38527   1.222   2.081   8.660 -0.1531  0.4333 -0.6031
 9023SOL    HW138528   1.317   2.082   8.649 -0.1474  0.4076 -0.5549
 9023SOL    HW238529   1.215   2.174   8.684 -0.7683  0.0095  0.8640
 9024SOL     OW38530   2.094   0.208   1.055 -0.1653  0.4670  0.1280
 9024SOL    HW138531   2.051   0.202   0.970 -0.8815 -1.4341  0.6281
 9024SOL    HW238532   2.163   0.268   1.026  2.0844 -1.3502  1.6366
 9025SOL     OW38533   2.600   0.914   1.899 -0.3379  0.2869 -0.0209
 9025SOL    HW138534   2.554   0.851   1.844  0.4553 -1.3239  1.1934
 9025SOL    HW238535   2.669   0.855   1.928  1.6324  3.0256  0.9720
 9026SOL     OW38536   2.609   2.016   6.554  0.1803  0.6341  0.3620
 9026SOL    HW138537   2.590   1.922   6.548 -1.3520  1.0054 -0.7226
 9026SOL    HW238538   2.528   2.051   6.516  0.9177  1.5398 -0.3394
 9027SOL     OW38539   4.288   2.987   7.967 -0.2312  0.4216  0.0527
 9027SOL    HW138540   4.258   2.911   8.016  1.7408  1.0987  2.3340
 9027SOL    HW238541   4.297   3.049   8.040  0.9649 -1.6186  1.6485
 9028SOL     OW38542   4.498   0.247   9.536 -0.0894 -0.1359 -0.0043
 9028SOL    HW138543   4.510   0.156   9.565 -0.6304 -0.5307 -1.0104
 9028SOL    HW238544   4.412   0.266   9.572 -1.1191 -1.7056 -1.6367
 9029SOL     OW38545   1.011   2.932  13.836 -0.1232  0.1314 -0.6094
 9029SOL    HW138546   0.950   2.877  13.787 -0.7453 -1.1353  1.5868
 9029SOL    HW238547   0.990   2.909  13.927  0.6796  1.2561 -0.1422
 9030SOL     OW38548   4.336   2.189   8.383  0.3328 -1.1223 -0.3212
 9030SOL    HW138549   4.425   2.219   8.369 -0.8238  2.1086 -0.7530
 9030SOL    HW238550   4.290   2.273   8.375 -1.7956 -2.1852  0.7952
 9031SOL     OW38551   1.269   0.740   4.637 -0.3177  0.2158 -0.3768
 9031SOL    HW138552   1.343   0.712   4.691 -0.3642 -0.7955 -0.8209
 9031SOL    HW238553   1.236   0.650   4.635  1.3027 -0.4108  1.0068
 9032SOL     OW38554   2.047   3.828   0.186  0.1807  0.0334  0.1143
 9032SOL    HW138555   2.076   3.737   0.195  2.6413  0.7449 -0.6692
 9032SOL    HW238556   2.038   3.829   0.091 -1.1775 -0.6708  0.2349
 9033SOL     OW38557   3.966   2.950   1.211  0.2859  0.2392 -0.5603
 9033SOL    HW138558   3.942   2.901   1.132  0.5729 -0.7975 -0.0006
 9033SOL    HW238559   3.944   3.039   1.185 -0.7979  0.3415  0.7318
 9034SOL     OW38560   4.516   0.585  11.955  0.2752 -0.3565  0.5117
 9034SOL    HW138561   4.569   0.658  11.987 -0.7938  0.0061  1.4533
 9034SOL    HW238562   4.566   0.554  11.880 -1.5782  0.3358 -0.9989
 9035SOL     OW38563   4.545   4.647   8.225  0.6944  0.2699 -0.4195
 9035SOL    HW138564   4.619   4.665   8.282  0.5581 -0.9662  0.1528
 9035SOL    HW238565   4.483   4.711   8.260  0.7889  0.5312 -0.7255
 9036SOL     OW38566   3.942   2.835   9.974  0.0347  0.4412  0.5435
 9036SOL    HW138567   3.961   2.846  10.067 -1.3160  0.9252  0.7580
 9036SOL    HW238568   3.875   2.903   9.968  0.4772  0.8783  0.5307
 9037SOL     OW38569   2.485   4.582   3.080  0.4969 -0.4880  0.0010
 9037SOL    HW138570   2.406   4.620   3.041  1.9878  2.4184 -0.2450
 9037SOL    HW238571   2.501   4.520   3.009  0.2850  1.9611 -2.1984
 9038SOL     OW38572   4.546   2.077   2.478 -0.8273  0.5167  0.0562
 9038SOL    HW138573   4.487   2.032   2.418  1.8921 -0.3651 -1.9486
 9038SOL    HW238574   4.535   2.028   2.559  1.6915  1.6153  1.0664
 9039SOL     OW38575   2.212   2.201  16.182  0.1814 -0.2039  0.2603
 9039SOL    HW138576   2.222   2.282  16.232 -1.5646  0.7963 -0.9893
 9039SOL    HW238577   2.260   2.234  16.107  2.7482 -1.3808  1.4016
 9040SOL     OW38578   1.133   4.273   8.918  0.1576 -0.0223  0.2715
 9040SOL    HW138579   1.187   4.234   8.849  0.5317 -0.5586  0.8612
 9040SOL    HW238580   1.059   4.300   8.865  1.0177 -0.1271 -0.9772
 9041SOL     OW38581   3.186   2.301   5.253 -0.2155 -0.8036  0.0560
 9041SOL    HW138582   3.265   2.306   5.307 -1.0322  1.9964  1.0309
 9041SOL    HW238583   3.214   2.355   5.180 -2.7475 -1.0554 -1.0983
 9042SOL     OW38584   0.510   3.243   2.029  0.3306  0.4211 -0.2337
 9042SOL    HW138585   0.542   3.312   1.971 -0.5437  0.2812 -0.8707
 9042SOL    HW238586   0.566   3.264   2.104  1.0950 -1.2426 -0.3374
 9043SOL     OW38587   3.730   3.739   0.923 -0.3598 -0.5084 -0.0708
 9043SOL    HW138588   3.640   3.764   0.905 -0.6374 -1.9595 -0.7112
 9043SOL    HW238589   3.779   3.765   0.845 -0.2535 -0.8317 -0.1117
 9044SOL     OW38590   1.534   2.365   2.992 -0.1181  0.3320 -0.2888
 9044SOL    HW138591   1.537   2.276   2.957  2.2861  0.9485 -1.6638
 9044SOL    HW238592   1.567   2.342   3.079  1.3469  1.3906 -0.5599
 9045SOL     OW38593   3.931   4.269   5.754  0.0330  0.0026  0.2821
 9045SOL    HW138594   3.972   4.209   5.691  1.0087  0.0213  0.9017
 9045SOL    HW238595   3.955   4.353   5.715 -0.2607  0.1197  0.3590
 9046SOL     OW38596   1.957   4.674  10.100  0.1963  0.3079  0.0538
 9046SOL    HW138597   2.006   4.629  10.170 -1.7058  2.4717  2.7629
 9046SOL    HW238598   1.872   4.691  10.139  1.1331  0.0324  2.2295
 9047SOL     OW38599   4.169   2.239  15.915  0.4537 -0.3479 -0.4541
 9047SOL    HW138600   4.122   2.218  15.834  0.6088 -2.7711  0.1053
 9047SOL    HW238601   4.256   2.249  15.877  0.2267  0.7348 -0.7102
 9048SOL     OW38602   0.167   1.055  16.856  0.0678 -0.5200 -0.0669
 9048SOL    HW138603   0.086   1.032  16.902  0.3379  0.2800  0.7998
 9048SOL    HW238604   0.147   1.149  16.854 -1.8164 -0.8311  3.8556
 9049SOL     OW38605   3.051   0.272   2.205 -0.7710  0.3170 -0.1255
 9049SOL    HW138606   3.110   0.233   2.139 -1.1347 -0.7249  0.1578
 9049SOL    HW238607   2.962   0.263   2.170 -1.3525  1.1296  1.1700
 9050SOL     OW38608   4.485   0.404  11.049 -0.2376  0.4309  0.8408
 9050SOL    HW138609   4.489   0.476  10.986  2.1696 -0.0746  0.4136
 9050SOL    HW238610   4.397   0.400  11.087  0.1695 -3.5288  1.3926
 9051SOL     OW38611   2.405   2.222   8.335  0.2512 -0.0499  0.4745
 9051SOL    HW138612   2.339   2.153   8.329  0.7137 -0.2473 -2.1315
 9051SOL    HW238613   2.341   2.291   8.318  1.0917  0.3961 -0.8620
 9052SOL     OW38614   2.793   3.330   8.023 -0.0523 -0.0821 -0.2248
 9052SOL    HW138615   2.820   3.334   7.932  0.2621 -0.6350 -0.1554
 9052SOL    HW238616   2.707   3.372   8.012  0.4059  0.3556 -1.9707
 9053SOL     OW38617   3.873   2.984  14.940  0.0076  0.0436 -0.0926
 9053SOL    HW138618   3.935   2.952  15.005  0.4969  1.9771  0.3956
 9053SOL    HW238619   3.830   3.057  14.984  0.1327  0.3163 -0.4237
 9054SOL     OW38620   0.312   0.694   4.746  0.3575  0.3721  0.2448
 9054SOL    HW138621   0.349   0.717   4.831 -1.8236 -0.5514  1.4512
 9054SOL    HW238622   0.233   0.748   4.747  0.0744  0.0062 -2.6467
 9055SOL     OW38623   1.100   1.764   0.950 -0.4206 -0.1922 -0.0809
 9055SOL    HW138624   1.042   1.742   0.877 -1.1933 -1.5989  0.9548
 9055SOL    HW238625   1.119   1.679   0.990  3.1371  0.1162 -1.1141
 9056SOL     OW38626   3.505   0.297  13.845 -0.7643 -0.1596 -0.0633
 9056SOL    HW138627   3.425   0.349  13.842 -1.0428 -0.6883 -1.9125
 9056SOL    HW238628   3.505   0.254  13.760  1.1278 -1.0801  0.3955
 9057SOL     OW38629   2.020   2.137   2.781 -0.1028  0.2908 -0.3149
 9057SOL    HW138630   2.052   2.226   2.797  1.2570 -0.4450  1.1151
 9057SOL    HW238631   2.058   2.088   2.854 -1.8751 -0.3940  0.1553
 9058SOL     OW38632   1.815   3.106   8.827 -0.1915  0.1989  0.1318
 9058SOL    HW138633   1.759   3.183   8.834  2.8504  2.3623  0.4188
 9058SOL    HW238634   1.742   3.044   8.831 -0.5493  0.4781 -2.1768
 9059SOL     OW38635   0.837   1.837   2.458  0.5596 -0.2486  0.6703
 9059SOL    HW138636   0.877   1.874   2.380  0.8708 -0.1716  0.8675
 9059SOL    HW238637   0.857   1.745   2.442 -1.5196 -0.8564  1.5231
 9060SOL     OW38638   1.869   3.554  11.006 -0.1781  0.5483 -0.9388
 9060SOL    HW138639   1.843   3.636  11.047 -1.1448  0.3848 -1.2209
 9060SOL    HW238640   1.957   3.567  10.970  0.3238  0.1671  0.1442
 9061SOL     OW38641   2.312   4.591   8.861  0.1078 -0.1079  0.2174
 9061SOL    HW138642   2.368   4.611   8.936 -0.2893 -2.1547  1.0355
 9061SOL    HW238643   2.315   4.496   8.872 -1.1463 -0.1469  0.2982
 9062SOL     OW38644   3.435   1.413   3.085  0.3160  0.0968  0.0309
 9062SOL    HW138645   3.422   1.366   3.167  1.7717  1.8473  1.2521
 9062SOL    HW238646   3.508   1.370   3.041  1.1491  0.2626  1.2589
 9063SOL     OW38647   1.917   4.231   7.789 -0.6036  0.0059 -0.0772
 9063SOL    HW138648   1.826   4.251   7.766 -0.1396  1.3353 -0.8040
 9063SOL    HW238649   1.955   4.319   7.784  2.4076 -1.4521 -3.2109
 9064SOL     OW38650   1.185   2.647   6.442 -0.1471 -0.2936 -0.3068
 9064SOL    HW138651   1.096   2.645   6.478  0.0911  2.0602  0.3855
 9064SOL    HW238652   1.236   2.617   6.517  1.3208  1.3267 -0.6505
 9065SOL     OW38653   3.785   1.517  11.295  0.3226  0.2769  0.1440
 9065SOL    HW138654   3.710   1.482  11.344  0.5130 -0.1199  0.1587
 9065SOL    HW238655   3.798   1.449  11.229 -1.7926  0.2786 -0.2781
 9066SOL     OW38656   3.143   4.126   8.079 -0.5241 -0.0092  0.2799
 9066SOL    HW138657   3.117   4.217   8.092 -2.2659 -0.1585 -2.2555
 9066SOL    HW238658   3.174   4.101   8.166 -1.0401  0.2740  0.5474
 9067SOL     OW38659   3.666   4.308   7.388  0.0218  0.0902 -0.0370
 9067SOL    HW138660   3.690   4.275   7.301  1.0751  0.9927 -0.0858
 9067SOL    HW238661   3.674   4.400   7.362 -1.5010  0.7231  1.7838
 9068SOL     OW38662   0.998   1.614   3.889 -0.6678  0.2284  0.3130
 9068SOL    HW138663   0.925   1.557   3.864 -0.1408 -0.8482  1.2172
 9068SOL    HW238664   1.014   1.580   3.977 -0.2174 -1.1425 -0.3038
 9069SOL     OW38665   2.487   3.989   6.238 -0.2072  0.2957 -0.2747
 9069SOL    HW138666   2.566   3.947   6.272 -0.7479 -0.9038 -0.5072
 9069SOL    HW238667   2.428   3.917   6.217 -1.9602  2.3104 -2.3070
 9070SOL     OW38668   0.207   3.156  13.018 -0.3020 -0.3850  0.4717
 9070SOL    HW138669   0.293   3.123  12.991 -0.1537 -0.9655  1.6517
 9070SOL    HW238670   0.227   3.248  13.034  1.7062 -0.7897  0.2891
 9071SOL     OW38671   4.224   4.700   4.896  0.1076 -0.1045 -0.0195
 9071SOL    HW138672   4.228   4.637   4.825  1.1509  0.8336 -0.7973
 9071SOL    HW238673   4.310   4.681   4.932  0.1750  0.2144 -0.0129
 9072SOL     OW38674   3.027   4.262   5.920  0.4224 -0.6021  0.0362
 9072SOL    HW138675   3.027   4.170   5.896  2.3999 -1.4332  3.2005
 9072SOL    HW238676   3.030   4.254   6.016  0.6155  0.9661  0.1541
 9073SOL     OW38677   3.917   2.554   5.664 -0.4689 -0.2196  0.0634
 9073SOL    HW138678   3.911   2.460   5.650 -0.2842 -0.3110  0.5820
 9073SOL    HW238679   3.842   2.574   5.721  0.6890 -0.6888  1.7382
 9074SOL     OW38680   4.331   2.359   8.081 -0.1045 -0.0223  0.4643
 9074SOL    HW138681   4.385   2.327   8.008 -0.3552  0.3568  0.1162
 9074SOL    HW238682   4.290   2.279   8.113 -3.1237  1.1967 -0.3739
 9075SOL     OW38683   3.092   3.048   6.396  0.1230  0.2154  0.0954
 9075SOL    HW138684   3.088   3.001   6.313  1.6290  0.4707 -0.1321
 9075SOL    HW238685   3.178   3.021   6.430 -0.4249 -1.4944  0.0835
 9076SOL     OW38686   4.260   1.497  17.507 -0.2922  0.1645 -0.3166
 9076SOL    HW138687   4.313   1.575  17.522  0.6204 -0.6644  0.8503
 9076SOL    HW238688   4.185   1.520  17.562 -0.1843  1.1075 -0.5581
 9077SOL     OW38689   4.614   0.309  13.073 -0.6085 -0.1925  0.4572
 9077SOL    HW138690   4.633   0.312  12.979 -0.1363  2.4089  0.6367
 9077SOL    HW238691   4.698   0.307  13.119  1.0593  0.7969 -2.5606
 9078SOL     OW38692   2.667   0.781  15.533  0.0409  0.3501 -0.3508
 9078SOL    HW138693   2.740   0.784  15.594  1.1094 -0.6524 -1.5677
 9078SOL    HW238694   2.599   0.842  15.562 -0.5142 -1.6871  2.5254
 9079SOL     OW38695   2.870   2.549  12.645  0.4203 -0.5444 -0.7146
 9079SOL    HW138696   2.931   2.620  12.624  2.2424 -2.1335 -0.7818
 9079SOL    HW238697   2.800   2.603  12.681  1.4252 -0.0656  0.5099
 9080SOL     OW38698   4.668   0.537  15.250 -0.0921  0.3141 -0.4167
 9080SOL    HW138699   4.599   0.597  15.279 -0.3562 -0.5717  0.8165
 9080SOL    HW238700   0.024   0.574  15.283 -1.3796  1.5358  1.4180
 9081SOL     OW38701   3.168   2.437   7.501 -0.1162 -0.0480  0.0569
 9081SOL    HW138702   3.088   2.435   7.449  0.3548  1.3040 -0.7217
 9081SOL    HW238703   3.216   2.366   7.457 -0.8158 -0.3335 -0.2464
 9082SOL     OW38704   4.438   4.238   4.803 -0.0054  0.2423  0.3895
 9082SOL    HW138705   4.424   4.187   4.723  0.9225  2.9758 -1.5582
 9082SOL    HW238706   4.534   4.241   4.809 -0.2389  2.6911  2.7406
 9083SOL     OW38707   3.394   2.688   6.124  0.1016 -0.0286  0.4742
 9083SOL    HW138708   3.333   2.706   6.195 -0.8215  1.4563 -0.6866
 9083SOL    HW238709   3.382   2.769   6.074  3.3692  0.3006  0.2592
 9084SOL     OW38710   1.190   1.872   3.459 -0.9714  0.4645  0.6576
 9084SOL    HW138711   1.095   1.881   3.462 -1.3995 -3.4591 -1.1335
 9084SOL    HW238712   1.198   1.794   3.404 -2.8074  0.4043  0.4782
 9085SOL     OW38713   0.845   0.801   8.307 -0.0509 -0.0167 -0.2605
 9085SOL    HW138714   0.761   0.826   8.267  0.3149  1.0847 -0.3593
 9085SOL    HW238715   0.834   0.707   8.300  2.4799 -0.3382  0.1672
 9086SOL     OW38716   2.892   4.709   4.046  0.3349 -0.3180 -0.3472
 9086SOL    HW138717   2.852   4.625   4.022  1.1506 -1.1112  1.0612
 9086SOL    HW238718   2.879   0.036   3.968  0.6595 -1.6213 -1.2949
 9087SOL     OW38719   4.114   1.282   0.310  0.3356  0.1079  0.0731
 9087SOL    HW138720   4.180   1.214   0.323 -1.6237 -1.5823  1.0207
 9087SOL    HW238721   4.133   1.330   0.391 -1.0691 -0.0447  0.4911
 9088SOL     OW38722   0.498   1.484   1.554  0.2362  0.1037  0.0285
 9088SOL    HW138723   0.506   1.393   1.525  1.8442  0.2243  0.1386
 9088SOL    HW238724   0.515   1.474   1.647  0.7090 -2.1897 -0.3106
 9089SOL     OW38725   2.829   2.011   6.101  0.5606  0.0273  0.5495
 9089SOL    HW138726   2.906   2.000   6.046  0.4912  2.1460  0.0255
 9089SOL    HW238727   2.791   2.096   6.077 -2.4923 -1.5950 -0.3701
 9090SOL     OW38728   3.630   4.003  13.802 -0.2826  0.0513 -0.1165
 9090SOL    HW138729   3.642   4.095  13.777  1.7659  0.0717  0.9695
 9090SOL    HW238730   3.639   3.953  13.721 -0.1255 -0.4344  0.2000
 9091SOL     OW38731   3.428   0.451   5.496 -0.3175  0.5815 -0.2385
 9091SOL    HW138732   3.349   0.458   5.443  0.5104  0.9773 -1.4353
 9091SOL    HW238733   3.419   0.536   5.539 -0.5964 -0.0972  1.0736
 9092SOL     OW38734   3.914   1.320   1.167  0.5783  0.5442  0.2421
 9092SOL    HW138735   3.928   1.309   1.073 -0.7579 -0.7055  0.1953
 9092SOL    HW238736   3.831   1.365   1.177  0.3533  0.3490 -0.7268
 9093SOL     OW38737   1.060   2.602   6.678  0.4991  0.2353  0.7260
 9093SOL    HW138738   0.980   2.570   6.719  0.4067  0.3244  0.6157
 9093SOL    HW238739   1.102   2.637   6.757  2.2844  2.3646 -1.1291
 9094SOL     OW38740   0.573   0.855  16.525  0.3411 -0.2046 -0.4467
 9094SOL    HW138741   0.532   0.810  16.451  1.7708 -0.0322 -1.3568
 9094SOL    HW238742   0.541   0.945  16.527 -0.4426 -0.5342  1.6003
 9095SOL     OW38743   2.087   4.368   8.858 -0.1473 -0.4018  0.1702
 9095SOL    HW138744   2.001   4.409   8.867  0.3340  1.0914 -2.0945
 9095SOL    HW238745   2.108   4.372   8.951  1.1058 -0.6417 -0.1047
 9096SOL     OW38746   0.790   0.215   5.482  0.3187  0.1857  0.0440
 9096SOL    HW138747   0.877   0.182   5.505  0.0216 -1.1254 -0.6762
 9096SOL    HW238748   0.816   0.275   5.413  0.8575  0.7012  0.6967
 9097SOL     OW38749   0.390   2.391   9.343  0.1700  0.0432  0.4316
 9097SOL    HW138750   0.307   2.440   9.349  0.5483  0.9689 -1.9592
 9097SOL    HW238751   0.360   2.304   9.317 -1.5705  0.6067  0.5288
 9098SOL     OW38752   0.179   1.473   2.234 -0.1101 -0.1627  0.3469
 9098SOL    HW138753   0.195   1.567   2.241 -1.5531  0.0838  0.2147
 9098SOL    HW238754   0.116   1.464   2.163 -1.8253 -0.1458  1.8914
 9099SOL     OW38755   2.698   1.586   4.351  0.3530 -0.2228  0.0670
 9099SOL    HW138756   2.785   1.625   4.355  0.9998 -1.7058  0.2138
 9099SOL    HW238757   2.703   1.510   4.408 -1.2659 -1.8473 -1.9323
 9100SOL     OW38758   1.187   1.145   6.011 -0.0295 -0.0390 -0.2070
 9100SOL    HW138759   1.138   1.226   6.028 -0.3987 -0.5756  1.3461
 9100SOL    HW238760   1.163   1.093   6.088 -1.8060 -0.7970 -1.2832
 9101SOL     OW38761   0.566   3.681  11.080  0.2468  0.3622 -0.5249
 9101SOL    HW138762   0.625   3.716  11.146  2.1613  1.2121 -2.6723
 9101SOL    HW238763   0.521   3.764  11.064 -0.6616 -0.1326 -0.5287
 9102SOL     OW38764   1.689   4.397   7.761  0.1619 -0.2955  0.1339
 9102SOL    HW138765   1.632   4.411   7.685  0.5570 -0.3448 -0.1774
 9102SOL    HW238766   1.685   4.484   7.799  0.1598  0.5312 -1.7763
 9103SOL     OW38767   0.950   1.377   1.810 -0.0887 -0.4363 -0.2071
 9103SOL    HW138768   0.981   1.287   1.824  3.0380  0.8929  1.4898
 9103SOL    HW238769   0.895   1.378   1.732 -0.2175  0.0875 -0.1056
 9104SOL     OW38770   3.227   4.470   5.500  0.2733 -0.0696 -0.0650
 9104SOL    HW138771   3.139   4.451   5.467  0.9514 -0.3206 -1.7264
 9104SOL    HW238772   3.224   4.433   5.588  0.2636  0.9754  0.3689
 9105SOL     OW38773   0.020   4.581   3.146 -0.0624  0.1027  0.0599
 9105SOL    HW138774   4.664   4.593   3.098 -0.8545  1.5321  1.7464
 9105SOL    HW238775   0.081   4.620   3.084  0.8680 -0.1587  0.8052
 9106SOL     OW38776   0.400   4.093   8.506 -0.1682 -0.0404 -0.0182
 9106SOL    HW138777   0.361   4.027   8.563  0.9981 -0.6152  0.0975
 9106SOL    HW238778   0.454   4.136   8.573 -0.1087  1.5156 -1.0683
 9107SOL     OW38779   3.920   1.357   2.650 -0.1769 -0.0835 -0.2100
 9107SOL    HW138780   3.860   1.289   2.681  0.5604 -1.0879 -0.9814
 9107SOL    HW238781   3.893   1.420   2.717  0.3482  2.4086 -2.3573
 9108SOL     OW38782   0.211   0.542   4.196  0.6306  0.1386  0.4927
 9108SOL    HW138783   0.208   0.449   4.172  1.0355  0.3641 -0.4394
 9108SOL    HW238784   0.118   0.559   4.183  0.7733 -0.0381 -0.7845
 9109SOL     OW38785   1.031   3.596   9.098  0.0126 -0.0767 -0.4038
 9109SOL    HW138786   1.008   3.681   9.136 -1.9818  0.3725 -2.6235
 9109SOL    HW238787   1.057   3.538   9.170  0.0825 -0.4746 -0.7454
 9110SOL     OW38788   3.656   3.792  15.100 -0.4597  0.0176 -0.6353
 9110SOL    HW138789   3.719   3.792  15.172 -2.4029 -1.0215  1.0761
 9110SOL    HW238790   3.570   3.791  15.141  0.2089  2.8656  0.8632
 9111SOL     OW38791   3.812   1.710   6.737  0.4638  0.3066  0.1822
 9111SOL    HW138792   3.872   1.672   6.800 -1.8451 -0.6047  1.8571
 9111SOL    HW238793   3.731   1.670   6.770 -1.0579  2.1648 -1.2398
 9112SOL     OW38794   3.486   3.108   2.717  0.1405  0.1167 -0.1333
 9112SOL    HW138795   3.434   3.154   2.650 -0.1841  0.7744  0.5688
 9112SOL    HW238796   3.529   3.181   2.762  0.7362 -1.3851  1.7468
 9113SOL     OW38797   2.840   4.378  11.817 -0.2951  0.3427  0.5141
 9113SOL    HW138798   2.904   4.416  11.757  0.7432 -0.2134  1.2888
 9113SOL    HW238799   2.831   4.291  11.778  1.5703  1.1962 -1.8035
 9114SOL     OW38800   3.753   3.089   3.504  0.2026 -0.6761  0.1586
 9114SOL    HW138801   3.704   3.032   3.562  0.5143 -2.1191 -0.9855
 9114SOL    HW238802   3.799   3.020   3.456 -0.1227 -0.8644  0.1238
 9115SOL     OW38803   1.769   0.525   1.896 -0.0809  0.0121  0.9426
 9115SOL    HW138804   1.786   0.521   1.802  1.6971 -0.2418  1.2846
 9115SOL    HW238805   1.722   0.442   1.899 -0.7646  0.3767  0.1202
 9116SOL     OW38806   2.463   3.021   8.035  0.3367 -0.0823  0.4588
 9116SOL    HW138807   2.399   3.085   8.065 -0.1692 -0.5362  0.3572
 9116SOL    HW238808   2.408   2.945   8.057  3.4543 -2.1339  1.2985
 9117SOL     OW38809   3.426   1.478   7.070  0.0550 -0.2712 -0.1083
 9117SOL    HW138810   3.344   1.468   7.022  0.5877 -1.9087 -0.6634
 9117SOL    HW238811   3.441   1.572   7.072  3.0500 -0.7142 -0.8656
 9118SOL     OW38812   1.771   1.826   8.456 -0.3839  0.2636  0.0553
 9118SOL    HW138813   1.748   1.733   8.449  0.8474 -0.0144 -0.4092
 9118SOL    HW238814   1.782   1.837   8.550  1.7726  1.2249 -0.3053
 9119SOL     OW38815   1.166   2.463   3.042 -0.2215 -0.1808  0.0047
 9119SOL    HW138816   1.257   2.436   3.056 -0.2280 -0.1804  0.0468
 9119SOL    HW238817   1.165   2.467   2.946  1.6371 -2.3120 -0.1315
 9120SOL     OW38818   0.310   1.012   8.046  0.0769  0.0765 -0.2478
 9120SOL    HW138819   0.401   1.023   8.073  0.5780 -1.3812 -1.3651
 9120SOL    HW238820   0.280   1.101   8.025  1.0498  0.7168  1.0815
 9121SOL     OW38821   1.393   2.954  11.288 -0.4641  0.6768  0.1738
 9121SOL    HW138822   1.432   3.040  11.306  1.5845 -0.2182 -0.0344
 9121SOL    HW238823   1.360   2.933  11.375 -2.0638  0.5906 -0.4525
 9122SOL     OW38824   0.941   2.531   8.329  0.0724  0.3873  0.2358
 9122SOL    HW138825   0.916   2.587   8.256 -0.2725  1.4881  1.1940
 9122SOL    HW238826   0.857   2.505   8.366 -0.0644  0.4854 -0.0072
 9123SOL     OW38827   4.320   2.788   2.035  0.5025 -0.0597  0.2829
 9123SOL    HW138828   4.404   2.805   1.993  0.5454  1.2831  0.9214
 9123SOL    HW238829   4.330   2.694   2.052  2.2230  0.2217  0.7965
 9124SOL     OW38830   4.511   4.707  10.748  0.2754 -0.6772  0.3749
 9124SOL    HW138831   4.494   0.025  10.832 -1.1445 -2.5703  1.0884
 9124SOL    HW238832   4.599   4.676  10.770  2.0125  3.9195 -0.1187
 9125SOL     OW38833   3.205   2.297   9.251 -0.6169 -0.2587 -0.4660
 9125SOL    HW138834   3.176   2.293   9.342 -1.2862  0.4361 -0.6514
 9125SOL    HW238835   3.189   2.209   9.215  3.3466 -1.3159  0.3435
 9126SOL     OW38836   2.055   2.726   6.228 -0.2244 -0.5583 -1.1477
 9126SOL    HW138837   1.980   2.675   6.260 -1.6855  2.6688  0.5658
 9126SOL    HW238838   2.102   2.666   6.170 -1.0537 -1.5054 -0.8379
 9127SOL     OW38839   0.910   0.067   3.002  0.3497  0.2648  1.0376
 9127SOL    HW138840   0.840   0.101   2.947 -1.5144 -1.9987  2.0259
 9127SOL    HW238841   0.916   4.707   2.960  0.7214  0.9188 -0.2319
 9128SOL     OW38842   2.157   2.633   1.477 -0.5253 -0.3455  0.7657
 9128SOL    HW138843   2.181   2.692   1.406  0.3698  0.4084  1.6938
 9128SOL    HW238844   2.223   2.654   1.543  0.2089  0.5023 -0.2482
 9129SOL     OW38845   1.389   0.451   0.210  0.2861  0.2105 -0.1892
 9129SOL    HW138846   1.439   0.406   0.278 -0.1491  0.0021 -0.0068
 9129SOL    HW238847   1.306   0.450   0.257  0.6710 -0.9029  0.4634
 9130SOL     OW38848   3.201   0.517  16.218 -0.2134 -0.2504 -0.1231
 9130SOL    HW138849   3.258   0.474  16.154 -1.8579 -0.7178 -1.2684
 9130SOL    HW238850   3.260   0.582  16.258 -1.7195  1.4602 -0.6792
 9131SOL     OW38851   4.111   2.165  17.012 -0.3519  0.0974 -0.2537
 9131SOL    HW138852   4.048   2.153  17.083  1.6736 -0.1696  1.4893
 9131SOL    HW238853   4.092   2.097  16.947  2.5444  0.5060 -1.5305
 9132SOL     OW38854   4.493   0.689  17.304  0.1947 -0.0041  0.2390
 9132SOL    HW138855   4.507   0.762  17.244 -0.0035  0.1584  0.3931
 9132SOL    HW238856   4.582   0.687  17.340 -0.7537 -0.8003  2.5524
 9133SOL     OW38857   3.739   1.616   7.215 -0.3943 -0.2332 -0.2209
 9133SOL    HW138858   3.694   1.672   7.152  0.8078 -0.4382 -1.2755
 9133SOL    HW238859   3.721   1.653   7.301  0.4634 -2.0378  0.7214
 9134SOL     OW38860   1.687   0.511  17.383  0.0914  0.3574 -0.7253
 9134SOL    HW138861   1.735   0.558  17.315  1.2066  0.6291  0.2551
 9134SOL    HW238862   1.728   0.534  17.466 -1.2453  0.1882 -0.0045
 9135SOL     OW38863   1.031   1.248   9.208  0.4177  0.1662 -0.1319
 9135SOL    HW138864   0.942   1.280   9.194 -1.8154 -4.6287  3.0440
 9135SOL    HW238865   1.035   1.163   9.163  0.7922 -0.4182  1.0052
 9136SOL     OW38866   2.857   3.724  11.504 -0.3473 -0.5472  0.1951
 9136SOL    HW138867   2.895   3.811  11.499 -1.3387 -0.2102 -1.4247
 9136SOL    HW238868   2.941   3.678  11.499 -0.2159 -0.1576 -1.2687
 9137SOL     OW38869   3.735   2.986   4.943 -0.2645 -0.2644 -0.4727
 9137SOL    HW138870   3.799   2.967   5.012 -1.1025  3.4231  1.3166
 9137SOL    HW238871   3.792   2.966   4.869 -2.4080 -2.1395 -1.6325
 9138SOL     OW38872   0.408   0.990   1.699  0.0897 -0.8301  0.4933
 9138SOL    HW138873   0.422   1.039   1.780  0.3024 -0.1214  0.0298
 9138SOL    HW238874   0.474   0.922   1.712 -0.0156 -0.7388  1.5063
 9139SOL     OW38875   4.493   0.616   6.165  0.1612  0.0194 -0.1981
 9139SOL    HW138876   4.437   0.679   6.120  0.2875  1.2509  1.3432
 9139SOL    HW238877   4.435   0.542   6.180 -0.6934  0.5942 -0.6623
 9140SOL     OW38878   0.092   4.600   1.199 -0.1248  0.0821 -0.0243
 9140SOL    HW138879   0.055   4.606   1.287  0.9093  1.6764  0.2887
 9140SOL    HW238880   0.154   4.529   1.210 -3.0315 -2.3574  0.5828
 9141SOL     OW38881   1.060   3.916  13.607  0.4101 -0.3811  0.2114
 9141SOL    HW138882   1.037   3.823  13.602  1.1317 -0.5829  0.7625
 9141SOL    HW238883   0.994   3.960  13.553  1.6384  1.2256  0.0189
 9142SOL     OW38884   1.140   0.508   6.877 -0.1845 -0.2144  0.5397
 9142SOL    HW138885   1.106   0.597   6.874 -2.7979 -1.2004  0.3865
 9142SOL    HW238886   1.219   0.500   6.930 -1.0605 -0.8571  1.7630
 9143SOL     OW38887   3.828   2.852   4.016 -0.4105  0.0268  0.3385
 9143SOL    HW138888   3.864   2.790   3.953 -0.3244  0.2320  0.1838
 9143SOL    HW238889   3.760   2.796   4.054  0.2949 -0.7785  0.4158
 9144SOL     OW38890   2.323   2.604  15.150  0.1749 -0.0976 -0.2337
 9144SOL    HW138891   2.371   2.609  15.067  0.3943  0.0194 -0.1013
 9144SOL    HW238892   2.319   2.509  15.158  4.6087 -0.2037  0.7928
 9145SOL     OW38893   0.011   0.517   1.366  0.7454  0.4278  0.3333
 9145SOL    HW138894   0.053   0.444   1.321  0.0940  1.6081 -2.2246
 9145SOL    HW238895   4.724   0.581   1.296 -0.9523 -0.9724 -0.6237
 9146SOL     OW38896   0.651   3.616   4.486  0.2937 -0.2675  0.0045
 9146SOL    HW138897   0.672   3.523   4.488  0.6062 -0.1701  1.4838
 9146SOL    HW238898   0.594   3.627   4.562 -3.1743 -4.2760 -2.0238
 9147SOL     OW38899   4.502   4.371  16.754 -0.0853  0.6250 -0.1865
 9147SOL    HW138900   4.497   4.360  16.849  1.7431 -0.0805 -0.1755
 9147SOL    HW238901   4.478   4.283  16.724  0.0652  0.3239  0.5812
 9148SOL     OW38902   4.481   1.277   6.956 -0.0790 -0.2967  0.0855
 9148SOL    HW138903   4.387   1.293   6.945 -0.1132  0.0908  0.9944
 9148SOL    HW238904   4.510   1.212   6.892  0.0477 -1.0483  0.9249
 9149SOL     OW38905   0.979   3.392   6.850 -0.4209  0.4142 -0.1621
 9149SOL    HW138906   0.923   3.388   6.773  2.4782 -1.7716 -2.1517
 9149SOL    HW238907   1.063   3.423   6.816  0.0265 -0.1698  0.4119
 9150SOL     OW38908   4.682   2.379   2.197 -0.0526 -1.1077 -0.1023
 9150SOL    HW138909   0.029   2.396   2.137 -0.6219  0.3235 -0.3951
 9150SOL    HW238910   4.625   2.343   2.129 -0.0111  1.0204 -1.2446
 9151SOL     OW38911   0.370   0.773  16.281 -0.1021  0.3362  0.3025
 9151SOL    HW138912   0.344   0.865  16.294  0.7891  0.3477  2.0963
 9151SOL    HW238913   0.392   0.771  16.188 -2.4827  1.8481 -0.3026
 9152SOL     OW38914   2.033   4.358   2.248 -0.1733  1.0068  0.0049
 9152SOL    HW138915   2.083   4.283   2.276  0.5681  0.7625 -1.9460
 9152SOL    HW238916   2.087   4.434   2.271  1.4531 -0.0053 -0.4691
 9153SOL     OW38917   0.952   0.885   1.143 -0.0163  0.1346 -0.3659
 9153SOL    HW138918   1.025   0.938   1.113  0.6949 -1.3824 -1.3177
 9153SOL    HW238919   0.876   0.940   1.123 -0.5662 -0.3060  0.4980
 9154SOL     OW38920   2.170   4.333   4.649  0.0233 -0.4890  0.3291
 9154SOL    HW138921   2.171   4.269   4.578 -1.4837  1.8603 -1.7798
 9154SOL    HW238922   2.094   4.311   4.704  0.1296 -2.2247 -0.2177
 9155SOL     OW38923   0.601   3.924   9.249 -0.0871 -0.5041 -0.2151
 9155SOL    HW138924   0.590   4.018   9.258  0.3250 -0.4960  0.1559
 9155SOL    HW238925   0.623   3.908   9.157  0.4653 -1.0915  0.0193
 9156SOL     OW38926   2.907   0.952   3.221  0.5704  0.0828 -0.3414
 9156SOL    HW138927   2.890   1.011   3.148  0.2729  0.1086 -0.2509
 9156SOL    HW238928   3.000   0.940   3.200  0.5243 -0.8360 -0.0155
 9157SOL     OW38929   1.947   1.894  14.298  0.4840  0.0962 -0.2853
 9157SOL    HW138930   1.853   1.911  14.292  0.0213 -2.3886 -0.1509
 9157SOL    HW238931   1.990   1.969  14.258 -0.6639  1.2992  0.7069
 9158SOL     OW38932   3.982   2.363   3.033  0.1844 -0.0997 -0.5897
 9158SOL    HW138933   4.045   2.342   3.101  1.3283  1.0073 -1.2909
 9158SOL    HW238934   3.909   2.370   3.094 -0.2417  1.7946 -1.3147
 9159SOL     OW38935   0.997   0.869   7.918 -0.0921  0.5251  0.2891
 9159SOL    HW138936   0.989   0.781   7.956  2.2347  0.0118 -0.4209
 9159SOL    HW238937   0.932   0.859   7.848  0.3695  1.0028 -0.2076
 9160SOL     OW38938   0.033   1.377   1.997 -0.6594 -0.1822 -0.3193
 9160SOL    HW138939   0.122   1.350   1.974 -0.7207  0.4018 -1.2635
 9160SOL    HW238940   4.722   1.381   1.909  0.4601 -3.2044 -0.9480
 9161SOL     OW38941   0.557   1.261   0.144 -0.1148  0.8320 -0.6689
 9161SOL    HW138942   0.646   1.248   0.110  0.8068 -0.5714  2.2747
 9161SOL    HW238943   0.582   1.293   0.231  1.2500 -1.8556 -0.0743
 9162SOL     OW38944   0.886   2.146   7.450  0.0704 -0.1954 -0.2484
 9162SOL    HW138945   0.846   2.063   7.476 -1.5638  0.2876 -1.1836
 9162SOL    HW238946   0.975   2.112   7.458 -0.0809 -0.4403  0.4363
 9163SOL     OW38947   3.688   1.328   6.144  0.6185 -0.0481 -0.1023
 9163SOL    HW138948   3.668   1.256   6.203 -1.1686 -0.1077 -0.7526
 9163SOL    HW238949   3.780   1.321   6.121  1.1319 -0.9510  2.2617
 9164SOL     OW38950   0.209   0.224  15.167 -0.5126  0.1182 -0.3344
 9164SOL    HW138951   0.232   0.177  15.087 -1.9676  0.0809 -0.7299
 9164SOL    HW238952   0.116   0.241  15.152 -0.4569  0.5816 -0.1865
 9165SOL     OW38953   3.567   4.719  11.557  0.3697  0.8482  0.1714
 9165SOL    HW138954   3.659   0.010  11.573  0.2814  0.7373  0.7964
 9165SOL    HW238955   3.570   4.712  11.461  1.4055 -1.0238  0.3446
 9166SOL     OW38956   3.505   3.822   3.644  0.1504 -0.1126  0.3740
 9166SOL    HW138957   3.567   3.860   3.582 -0.8458 -0.3066 -0.7494
 9166SOL    HW238958   3.567   3.788   3.708  0.4630 -0.7365 -0.2538
 9167SOL     OW38959   0.165   1.549  17.413  0.7036  0.1451  1.0359
 9167SOL    HW138960   0.211   1.628  17.440  1.6159 -0.5585  1.5647
 9167SOL    HW238961   0.081   1.593  17.405  0.7465  0.9095  4.7449
 9168SOL     OW38962   0.358   2.235   8.486 -0.5240 -0.6182 -0.0898
 9168SOL    HW138963   0.453   2.252   8.488 -0.2775 -1.7461 -1.4785
 9168SOL    HW238964   0.356   2.141   8.503 -0.8508 -0.4350  0.8439
 9169SOL     OW38965   3.391   3.123   3.101  0.4185  0.0513 -0.3894
 9169SOL    HW138966   3.354   3.161   3.021  0.0026 -0.4458 -0.4342
 9169SOL    HW238967   3.395   3.199   3.160  0.6872 -0.6277  0.4600
 9170SOL     OW38968   0.734   0.043   7.083 -0.2795  0.1925 -0.3428
 9170SOL    HW138969   0.801   4.726   7.030  0.0843 -1.8574  1.8030
 9170SOL    HW238970   0.652   4.721   7.075 -0.5225  0.0152  3.0228
 9171SOL     OW38971   1.737   2.495   8.890  0.3525 -0.0722  0.2017
 9171SOL    HW138972   1.819   2.471   8.934  0.6951  0.4323 -0.1592
 9171SOL    HW238973   1.763   2.502   8.798 -0.0396 -2.3042 -0.0943
 9172SOL     OW38974   2.216   3.901   4.647  0.1903  0.0301 -0.3734
 9172SOL    HW138975   2.291   3.856   4.607 -0.2198  0.9080 -2.1684
 9172SOL    HW238976   2.205   3.980   4.593  2.5108  2.0707  2.0803
 9173SOL     OW38977   4.149   4.662   3.982 -0.6179  0.6710  0.9439
 9173SOL    HW138978   4.149   4.721   4.057  0.3898  0.8277  0.8227
 9173SOL    HW238979   4.117   4.712   3.907 -0.0565  0.9584  0.8929
 9174SOL     OW38980   2.031   2.155  16.735 -0.1900 -0.2622 -0.3041
 9174SOL    HW138981   2.049   2.094  16.664  0.6096 -0.5721  0.1633
 9174SOL    HW238982   1.972   2.106  16.793  0.0418 -1.9657 -1.5218
 9175SOL     OW38983   2.324   2.929  11.013 -0.2347  0.0260  0.2274
 9175SOL    HW138984   2.245   2.956  11.060 -0.1113 -0.0876  0.5018
 9175SOL    HW238985   2.299   2.836  11.010  1.1931 -0.4360  2.1361
 9176SOL     OW38986   1.303   3.267  12.827 -0.1068  0.1072  0.7330
 9176SOL    HW138987   1.225   3.267  12.773  1.0903 -1.6763 -0.9954
 9176SOL    HW238988   1.339   3.352  12.803 -1.3016 -0.3485 -2.6687
 9177SOL     OW38989   2.860   1.617  10.736 -0.4678  0.0662 -0.0959
 9177SOL    HW138990   2.790   1.577  10.683 -0.8723  4.5995 -2.9751
 9177SOL    HW238991   2.836   1.595  10.826  1.0803 -0.9441  0.0696
 9178SOL     OW38992   0.985   0.155   5.908  0.1641  0.2075  0.0658
 9178SOL    HW138993   0.910   0.111   5.949 -1.1851  2.0166 -0.4303
 9178SOL    HW238994   0.960   0.245   5.886 -1.3360  0.1192  1.4075
 9179SOL     OW38995   2.455   0.025  15.298 -0.1560  0.0213 -0.0023
 9179SOL    HW138996   2.532   0.079  15.317 -0.0433  0.0957 -0.6830
 9179SOL    HW238997   2.412   0.029  15.384  2.0704 -0.8679  1.1561
 9180SOL     OW38998   0.469   0.676  17.122 -0.0009 -0.2259  0.2205
 9180SOL    HW138999   0.473   0.772  17.124  0.8035 -0.2441 -0.2624
 9180SOL    HW239000   0.376   0.657  17.117 -0.3593  1.7852 -1.1795
 9181SOL     OW39001   2.801   2.548  16.896  0.4804  0.1047  0.7295
 9181SOL    HW139002   2.802   2.453  16.882  2.6385  0.0491  1.1532
 9181SOL    HW239003   2.829   2.573  16.807  1.4468  1.2341  1.3554
 9182SOL     OW39004   3.657   0.466  14.915 -0.3508  0.5743  0.1767
 9182SOL    HW139005   3.587   0.527  14.938 -1.7867 -1.4391  1.1804
 9182SOL    HW239006   3.692   0.505  14.835  0.3204  1.7524  1.0410
 9183SOL     OW39007   0.474   3.312   6.498  0.0935  0.5733  0.5359
 9183SOL    HW139008   0.461   3.290   6.405  0.6365  1.2173  0.3090
 9183SOL    HW239009   0.560   3.353   6.493 -0.1579  0.8493 -1.7119
 9184SOL     OW39010   1.315   0.201   4.652  0.1279 -0.0390 -0.7136
 9184SOL    HW139011   1.249   0.147   4.695  1.3397 -0.6013  0.4505
 9184SOL    HW239012   1.307   0.152   4.570 -0.5026  1.9060 -1.8366
 9185SOL     OW39013   2.228   1.838   9.189 -0.6900 -0.2185  0.1352
 9185SOL    HW139014   2.148   1.786   9.189 -1.1469  0.4960 -1.5256
 9185SOL    HW239015   2.191   1.921   9.220 -1.2659 -1.2399  2.2225
 9186SOL     OW39016   3.450   2.689   5.349 -0.0748  0.0555  0.7168
 9186SOL    HW139017   3.502   2.747   5.293  1.2014 -0.7797  1.0359
 9186SOL    HW239018   3.507   2.613   5.359  3.8702  2.6864 -1.5262
 9187SOL     OW39019   4.714   4.342   3.285 -0.2389 -0.3936  0.1630
 9187SOL    HW139020   4.714   4.431   3.249 -2.9996  0.8529  3.2051
 9187SOL    HW239021   4.628   4.336   3.327 -0.9828 -1.8128 -1.5654
 9188SOL     OW39022   2.018   1.015   6.471  0.0342  0.1833 -0.3587
 9188SOL    HW139023   2.053   0.982   6.388  0.9157 -0.9012  0.4408
 9188SOL    HW239024   2.069   1.096   6.463  0.8570 -0.4935 -2.0055
 9189SOL     OW39025   1.902   3.246   1.913  0.0200  0.4445  0.1809
 9189SOL    HW139026   1.903   3.251   2.009  2.1814  0.8412  0.1505
 9189SOL    HW239027   1.974   3.308   1.897  0.7276 -0.3183  0.4393
 9190SOL     OW39028   4.485   3.969   1.495 -0.6048 -0.4010 -0.5532
 9190SOL    HW139029   4.559   4.027   1.512 -0.1753 -1.1898  0.2752
 9190SOL    HW239030   4.510   3.938   1.408  1.3805 -0.6178  0.0959
 9191SOL     OW39031   4.646   4.593  11.489  0.4152  0.0756  0.1549
 9191SOL    HW139032   4.635   4.598  11.584 -1.1544  0.2053 -0.0358
 9191SOL    HW239033   0.007   4.553  11.493  1.1460  1.7675  1.2118
 9192SOL     OW39034   1.490   3.341  15.010  0.0892  0.7143 -0.7712
 9192SOL    HW139035   1.522   3.398  15.080 -0.2203 -1.5031  1.1831
 9192SOL    HW239036   1.574   3.327  14.965  0.4686 -0.3582  0.2765
 9193SOL     OW39037   2.361   2.062  10.396  0.1771  0.3087 -0.3362
 9193SOL    HW139038   2.450   2.029  10.409 -0.1430  0.8981  3.4877
 9193SOL    HW239039   2.357   2.128  10.465 -0.2152  1.8050 -1.7871
 9194SOL     OW39040   4.020   0.126   2.017  0.1091  0.3474 -0.3952
 9194SOL    HW139041   4.032   0.077   1.935 -0.4995  2.5606 -1.8076
 9194SOL    HW239042   3.980   0.060   2.073  2.5850 -0.3079  0.6285
 9195SOL     OW39043   1.526   3.365  14.610  0.2517  0.3305 -0.0091
 9195SOL    HW139044   1.450   3.424  14.618  0.8807  1.0844  0.4666
 9195SOL    HW239045   1.576   3.381  14.691  1.0521  1.9189 -0.8208
 9196SOL     OW39046   1.355   1.230   4.492 -0.5201 -0.5962 -0.1605
 9196SOL    HW139047   1.375   1.215   4.399  2.4261 -1.2555  0.5708
 9196SOL    HW239048   1.404   1.312   4.499  1.7041 -1.8820 -0.2902
 9197SOL     OW39049   2.103   3.354   6.784  0.4478 -0.0429  0.5099
 9197SOL    HW139050   2.023   3.345   6.834  0.2894 -0.7178  0.1355
 9197SOL    HW239051   2.166   3.374   6.853 -0.7427 -1.6090  2.0164
 9198SOL     OW39052   0.942   4.512   6.061  0.6266 -0.1514 -0.5062
 9198SOL    HW139053   0.951   4.483   5.970  0.2901 -0.6423 -0.3861
 9198SOL    HW239054   0.985   4.438   6.102  2.9370  1.3904 -0.1702
 9199SOL     OW39055   1.618   1.116   6.205 -0.2720 -0.1784  0.6116
 9199SOL    HW139056   1.547   1.051   6.204 -1.1024  0.7207  0.6471
 9199SOL    HW239057   1.679   1.073   6.264 -0.9875  1.0661  2.2602
 9200SOL     OW39058   0.494   3.464  12.139  0.4408  0.4177 -0.1469
 9200SOL    HW139059   0.429   3.532  12.121 -1.5964 -1.7771 -1.0596
 9200SOL    HW239060   0.511   3.468  12.233 -0.7163  0.7942  0.0508
 9201SOL     OW39061   0.644   0.733   9.423  0.7109  0.0763 -0.2390
 9201SOL    HW139062   0.579   0.796   9.393 -0.4806 -0.3807  1.3993
 9201SOL    HW239063   0.623   0.658   9.367  1.3416 -1.7149  1.9392
 9202SOL     OW39064   3.977   1.929   1.797  0.3143  0.0333 -0.0505
 9202SOL    HW139065   3.995   1.916   1.704 -0.7941  2.1903 -0.5459
 9202SOL    HW239066   4.063   1.942   1.838  1.2731  0.0943 -2.0683
 9203SOL     OW39067   1.171   1.512  13.771  0.5465 -0.2058  0.1781
 9203SOL    HW139068   1.153   1.509  13.677  1.9763  1.1486 -0.1318
 9203SOL    HW239069   1.152   1.604  13.792  0.1853 -0.2369 -0.0179
 9204SOL     OW39070   3.836   4.198   3.132 -0.5211 -0.6319 -0.0041
 9204SOL    HW139071   3.883   4.215   3.050  1.1541 -0.3176  1.0113
 9204SOL    HW239072   3.747   4.201   3.096 -1.2453 -1.3727  1.7684
 9205SOL     OW39073   2.644   0.754   8.096  0.4580 -0.0043 -0.0194
 9205SOL    HW139074   2.670   0.835   8.140 -1.2042 -0.9985  2.7759
 9205SOL    HW239075   2.722   0.722   8.052  0.6651  0.7501 -0.1992
 9206SOL     OW39076   1.249   1.194  16.202 -0.0740 -0.0997  0.0465
 9206SOL    HW139077   1.185   1.256  16.165  0.3533 -0.2320 -0.9122
 9206SOL    HW239078   1.192   1.160  16.270  1.0324  0.2436  1.1520
 9207SOL     OW39079   3.493   0.479   9.113  0.7467  0.6335  0.2624
 9207SOL    HW139080   3.510   0.436   9.197  0.3986  0.9756  0.5114
 9207SOL    HW239081   3.581   0.493   9.077  0.5726  4.2195  1.1827
 9208SOL     OW39082   2.105   2.821   5.543 -0.1817 -0.1987  0.1645
 9208SOL    HW139083   2.175   2.829   5.478 -0.6006 -1.2227 -0.4114
 9208SOL    HW239084   2.118   2.730   5.571 -0.1824  0.1333  1.2398
 9209SOL     OW39085   0.818   1.284   6.757  0.6716 -0.7449 -0.1244
 9209SOL    HW139086   0.745   1.255   6.812  1.3531  0.6800  1.5183
 9209SOL    HW239087   0.860   1.349   6.814  0.5328  0.5754 -1.5272
 9210SOL     OW39088   3.665   2.500   4.701 -0.2499 -0.2895  0.5018
 9210SOL    HW139089   3.622   2.579   4.668  0.4830  0.6054  1.7006
 9210SOL    HW239090   3.745   2.498   4.650 -0.5347 -0.3936  0.0588
 9211SOL     OW39091   0.387   3.185   5.403 -0.0443 -0.5243  0.3173
 9211SOL    HW139092   0.462   3.177   5.345 -1.6039 -0.7920 -1.6807
 9211SOL    HW239093   0.424   3.133   5.475  1.9112  0.7878  0.2314
 9212SOL     OW39094   4.226   0.986   2.195 -0.1887  0.1752  0.0882
 9212SOL    HW139095   4.205   1.065   2.244 -1.1788  0.3506 -0.6153
 9212SOL    HW239096   4.148   0.983   2.138 -1.4464  0.6597  1.7765
 9213SOL     OW39097   0.180   1.804   3.183 -0.0121 -0.5041  0.2551
 9213SOL    HW139098   0.163   1.711   3.170 -1.3798 -0.1066 -0.8184
 9213SOL    HW239099   0.275   1.796   3.191 -0.2197 -1.5348  1.7099
 9214SOL     OW39100   4.319   2.567  16.200  0.6094  0.1827 -0.1225
 9214SOL    HW139101   4.302   2.660  16.183  0.2384  0.5855  2.4520
 9214SOL    HW239102   4.412   2.567  16.224  0.4889  1.8691  0.3504
 9215SOL     OW39103   0.939   3.785  17.199  0.1142 -0.0109 -0.5082
 9215SOL    HW139104   0.997   3.716  17.231 -1.5401 -0.5378  1.3070
 9215SOL    HW239105   1.002   3.849  17.164  1.8417 -1.3997  0.0924
 9216SOL     OW39106   0.955   1.542   5.838 -0.2166 -0.0037  0.4047
 9216SOL    HW139107   0.983   1.632   5.821 -2.4321  1.0450  2.4163
 9216SOL    HW239108   0.864   1.551   5.810 -0.5533  1.5003  2.0191
 9217SOL     OW39109   1.729   0.020  11.976  0.1794  0.8780 -0.4206
 9217SOL    HW139110   1.777   4.670  11.945 -0.8058  0.2314 -0.3395
 9217SOL    HW239111   1.718   0.001  12.069 -0.6114  2.0766 -0.2698
 9218SOL     OW39112   2.369   0.571   7.248  0.1471 -0.0373  0.0390
 9218SOL    HW139113   2.395   0.576   7.340 -1.5157  0.9414  0.4577
 9218SOL    HW239114   2.309   0.496   7.252  1.3510 -0.9881  0.2512
 9219SOL     OW39115   1.576   2.680  10.024 -0.3055  0.2175 -0.2043
 9219SOL    HW139116   1.526   2.758  10.000  0.8465  1.2804  0.8432
 9219SOL    HW239117   1.528   2.638  10.096 -0.8545 -2.1011 -1.9217
 9220SOL     OW39118   0.980   2.438   4.745 -0.1027  0.1226  0.7498
 9220SOL    HW139119   1.052   2.416   4.687  0.2080 -0.9056  1.5165
 9220SOL    HW239120   0.963   2.355   4.791  0.0102 -1.2751 -1.7470
 9221SOL     OW39121   1.225   0.430  15.425  0.5995  0.0335 -0.5539
 9221SOL    HW139122   1.179   0.446  15.507 -0.6404 -0.4941 -1.1498
 9221SOL    HW239123   1.152   0.409  15.367  1.5853  0.9153 -2.1302
 9222SOL     OW39124   0.051   1.534   3.196  0.2774  0.5191  0.6507
 9222SOL    HW139125   0.040   1.462   3.133 -1.3365  1.2242  0.1202
 9222SOL    HW239126   0.110   1.503   3.264  0.0484  0.1578  0.6863
 9223SOL     OW39127   2.114   4.047   5.740 -0.2921 -0.1327  0.4393
 9223SOL    HW139128   2.163   3.994   5.677  3.2419  0.7541  2.4676
 9223SOL    HW239129   2.180   4.030   5.806  1.5604  0.3376 -1.2789
 9224SOL     OW39130   2.610   0.240   6.180 -0.0980  0.2903 -0.4896
 9224SOL    HW139131   2.679   0.304   6.197  1.8448 -1.0079 -3.5037
 9224SOL    HW239132   2.606   0.244   6.085  1.2001 -1.8225 -0.6492
 9225SOL     OW39133   2.095   3.551   3.952 -0.0913 -0.2995  0.0592
 9225SOL    HW139134   2.128   3.615   3.889 -1.7275  0.7403  0.2463
 9225SOL    HW239135   2.174   3.498   3.950  1.4409  2.0514 -1.8460
 9226SOL     OW39136   4.121   2.398   3.510  0.0484 -0.5105  0.1563
 9226SOL    HW139137   4.085   2.327   3.456 -2.1612  1.0989 -0.4788
 9226SOL    HW239138   4.191   2.436   3.457 -1.3649 -0.7769 -1.8851
 9227SOL     OW39139   1.929   4.430   3.659 -0.0237 -0.1960  0.3362
 9227SOL    HW139140   1.923   4.508   3.714  1.4265 -0.1790  0.4502
 9227SOL    HW239141   1.985   4.462   3.589 -0.3319  0.9735  0.6219
 9228SOL     OW39142   2.717   2.957   7.413 -0.6010  0.4239 -0.2947
 9228SOL    HW139143   2.723   2.963   7.318 -0.2911  1.2234 -0.2306
 9228SOL    HW239144   2.728   3.045   7.449  1.5623 -1.0513  2.6222
 9229SOL     OW39145   4.035   1.867   3.188 -0.1525  0.1930 -0.6313
 9229SOL    HW139146   4.005   1.935   3.128  3.3062 -0.0058 -2.5639
 9229SOL    HW239147   4.033   1.785   3.138  0.7376 -0.8610  1.0654
 9230SOL     OW39148   2.305   1.235   7.088 -0.0117 -0.3329  0.2260
 9230SOL    HW139149   2.320   1.175   7.161 -1.4847  0.0793  0.8410
 9230SOL    HW239150   2.370   1.299   7.117  0.3746 -1.0712  0.9701
 9231SOL     OW39151   0.634   2.977   4.780 -0.0531 -0.3166 -0.2526
 9231SOL    HW139152   0.634   2.916   4.706 -0.5518  0.5031 -0.9233
 9231SOL    HW239153   0.693   3.049   4.758  1.0579 -0.4752  2.1672
 9232SOL     OW39154   1.025   2.639   5.755  0.1737  0.2954  0.0638
 9232SOL    HW139155   0.995   2.550   5.770  1.0650 -0.2204 -1.2086
 9232SOL    HW239156   0.990   2.678   5.835 -0.3439  1.3146 -0.6583
 9233SOL     OW39157   3.842   0.184   3.136 -1.1056  0.0227 -0.4893
 9233SOL    HW139158   3.832   0.124   3.211  0.1218  0.0217 -0.3318
 9233SOL    HW239159   3.889   0.262   3.164 -0.5673 -0.2534 -0.6249
 9234SOL     OW39160   0.900   1.635   4.482  0.2312 -0.7901  0.2350
 9234SOL    HW139161   0.947   1.671   4.407 -0.2223 -0.2721  0.1995
 9234SOL    HW239162   0.810   1.659   4.463  0.9266  0.2549 -1.7050
 9235SOL     OW39163   4.216   1.343   7.745 -0.0691 -0.0048  0.2026
 9235SOL    HW139164   4.134   1.296   7.760  1.3755 -2.6699 -0.2454
 9235SOL    HW239165   4.188   1.434   7.737 -1.1506 -0.1425  2.2616
 9236SOL     OW39166   3.523   2.365   6.956  0.2687 -0.0558 -0.2160
 9236SOL    HW139167   3.582   2.290   6.965  0.9007  0.6737  1.5337
 9236SOL    HW239168   3.553   2.403   6.873 -1.1469  1.4125 -0.0383
 9237SOL     OW39169   1.646   3.305   8.123 -0.3582 -0.2001 -0.2738
 9237SOL    HW139170   1.677   3.362   8.194 -2.2638  1.7892 -1.0454
 9237SOL    HW239171   1.701   3.228   8.139 -2.2072 -1.5043 -0.2462
 9238SOL     OW39172   4.115   1.732   8.650 -0.0397  0.3381 -0.1737
 9238SOL    HW139173   4.105   1.706   8.559  1.3059 -0.6856 -0.0347
 9238SOL    HW239174   4.047   1.799   8.656  0.0965  0.5136 -0.6636
 9239SOL     OW39175   3.396   3.164   7.810 -0.5200 -0.3803  0.0067
 9239SOL    HW139176   3.308   3.202   7.814 -1.0218 -1.5740  0.5896
 9239SOL    HW239177   3.378   3.070   7.818  0.8860 -0.7683 -1.4250
 9240SOL     OW39178   4.665   4.623   5.390 -0.1922  0.7069  0.4828
 9240SOL    HW139179   4.662   4.617   5.294 -1.5825 -1.2573  0.6385
 9240SOL    HW239180   0.009   4.559   5.405 -1.6260 -1.5178 -2.1983
 9241SOL     OW39181   0.094   1.063   2.082  0.8114 -0.0982 -0.0246
 9241SOL    HW139182   0.180   1.096   2.110  0.1998  1.5395 -0.1045
 9241SOL    HW239183   0.063   1.015   2.159  0.7307  0.3726  0.2352
 9242SOL     OW39184   2.311   2.578  16.908  0.0014 -0.2084  0.0952
 9242SOL    HW139185   2.283   2.487  16.898 -0.8813  0.5427 -4.3452
 9242SOL    HW239186   2.381   2.577  16.843 -0.6667 -1.3145 -0.6107
 9243SOL     OW39187   0.057   0.083   7.920 -0.1534  0.6139 -0.6682
 9243SOL    HW139188   4.720   0.103   7.851 -1.4557 -0.8869  0.0655
 9243SOL    HW239189   0.056   0.164   7.971  0.6652  1.4232 -1.9534
 9244SOL     OW39190   1.234   2.201  10.529 -0.7010 -0.1584 -0.4595
 9244SOL    HW139191   1.271   2.156  10.453 -0.8563  1.7615 -1.6573
 9244SOL    HW239192   1.165   2.142  10.559 -0.8644  0.6031  0.6381
 9245SOL     OW39193   2.070   3.007   4.532 -0.0481  0.0794 -0.1572
 9245SOL    HW139194   2.163   2.985   4.525  0.4598  1.6448  1.3442
 9245SOL    HW239195   2.050   3.031   4.442  0.4977 -1.5558 -0.7095
 9246SOL     OW39196   1.214   0.196   0.127  0.4272 -0.5529  0.1380
 9246SOL    HW139197   1.260   0.270   0.088 -0.0580 -0.5274 -0.3875
 9246SOL    HW239198   1.281   0.127   0.129  1.9577  0.8653 -2.6158
 9247SOL     OW39199   2.823   4.415   2.769  0.1008 -0.9529  0.1768
 9247SOL    HW139200   2.751   4.415   2.832  0.4365 -0.1812  0.5638
 9247SOL    HW239201   2.808   4.327   2.734  1.1733 -0.6911 -0.9320
 9248SOL     OW39202   4.010   1.408   9.567 -0.2400 -0.2102 -0.3310
 9248SOL    HW139203   3.998   1.367   9.481 -2.8422  1.0901 -0.6038
 9248SOL    HW239204   4.064   1.347   9.616 -0.4931  0.2559  0.5269
 9249SOL     OW39205   2.396   1.323   8.633 -0.1193  0.0196 -0.0934
 9249SOL    HW139206   2.367   1.357   8.717  1.2460  0.3550  0.2390
 9249SOL    HW239207   2.488   1.349   8.626 -0.2074  0.7576  1.5976
 9250SOL     OW39208   0.759   0.651   2.841  0.2912 -0.6401 -0.0486
 9250SOL    HW139209   0.736   0.614   2.927 -0.5666  2.1129  0.9086
 9250SOL    HW239210   0.678   0.647   2.792 -1.5826  1.3924  2.8508
 9251SOL     OW39211   1.162   0.382   1.492 -0.0877 -0.0472  0.4781
 9251SOL    HW139212   1.067   0.387   1.497  0.0166  1.3771  1.1268
 9251SOL    HW239213   1.182   0.366   1.400  1.7809 -0.8802  1.0343
 9252SOL     OW39214   3.094   2.009   7.969  0.2265 -0.6578 -0.1591
 9252SOL    HW139215   3.011   1.968   7.994  0.7827 -1.1974  0.8197
 9252SOL    HW239216   3.079   2.102   7.989  0.3681 -0.4619 -0.9492
 9253SOL     OW39217   2.890   1.807  16.395  0.2874  0.5264 -0.2120
 9253SOL    HW139218   2.914   1.866  16.466 -3.3118  2.2457 -0.4216
 9253SOL    HW239219   2.896   1.857  16.313 -0.1693 -1.5877 -1.5378
 9254SOL     OW39220   0.037   4.176   4.341 -0.2108 -0.0312  0.5390
 9254SOL    HW139221   4.706   4.213   4.409 -0.1111  1.0263  0.0518
 9254SOL    HW239222   0.117   4.225   4.358  0.8323 -2.0991  1.5953
 9255SOL     OW39223   2.942   0.177   6.819 -0.3103  0.0658 -0.2707
 9255SOL    HW139224   2.908   0.102   6.771  0.6599 -0.0357 -0.8099
 9255SOL    HW239225   3.036   0.175   6.799 -1.2870  1.9959 -5.1731
 9256SOL     OW39226   4.701   1.529   1.338  0.3731 -0.2000 -0.2164
 9256SOL    HW139227   0.015   1.452   1.298 -0.1258 -1.4852  1.7835
 9256SOL    HW239228   4.619   1.488   1.365  0.1015 -0.3148 -1.1980
 9257SOL     OW39229   0.628   0.343   6.813  0.4954 -0.2552  0.0586
 9257SOL    HW139230   0.705   0.314   6.765  0.3582  1.4753 -1.2021
 9257SOL    HW239231   0.604   0.263   6.860 -2.0841  0.6159  0.2452
 9258SOL     OW39232   4.412   4.644   4.348  0.5446  0.2943 -0.6520
 9258SOL    HW139233   4.392   4.631   4.441 -1.5864 -0.1206 -1.1847
 9258SOL    HW239234   4.503   4.613   4.342  0.7460  0.7387  0.1427
 9259SOL     OW39235   3.695   3.482   3.582 -0.4534 -0.1646 -0.1977
 9259SOL    HW139236   3.638   3.492   3.506 -0.9324  2.1464  0.4583
 9259SOL    HW239237   3.775   3.455   3.536  0.4448  1.2873  0.5122
 9260SOL     OW39238   1.720   1.297   9.993 -0.8410  0.3456  0.5759
 9260SOL    HW139239   1.757   1.226   9.941 -1.5593  0.1855  0.2810
 9260SOL    HW239240   1.636   1.302   9.947  0.2063  1.2276 -1.2685
 9261SOL     OW39241   2.998   1.107   1.334  0.1486 -0.0959  0.0044
 9261SOL    HW139242   2.960   1.135   1.417  1.1677 -0.0289  0.4532
 9261SOL    HW239243   3.078   1.068   1.370 -1.2249 -2.2032  0.7314
 9262SOL     OW39244   2.301   1.064   5.024 -0.3478  0.1574 -0.4692
 9262SOL    HW139245   2.280   0.989   4.969  1.1792 -0.9593  0.4693
 9262SOL    HW239246   2.347   1.031   5.101 -1.5785 -1.5564 -0.4717
 9263SOL     OW39247   1.366   0.670   7.354  0.5660  0.6926 -0.2326
 9263SOL    HW139248   1.377   0.758   7.391  1.9600  0.8802 -1.0834
 9263SOL    HW239249   1.445   0.638   7.399  2.1875 -0.0972 -3.6193
 9264SOL     OW39250   0.417   0.700   5.589 -0.4850 -0.6441 -0.1334
 9264SOL    HW139251   0.452   0.614   5.612  1.4830  0.6197  1.5818
 9264SOL    HW239252   0.428   0.756   5.666 -1.2215  1.4036 -1.5434
 9265SOL     OW39253   4.120   0.790   6.661 -0.2127  0.3132 -0.1598
 9265SOL    HW139254   4.176   0.716   6.641  0.9502  1.0394  0.3908
 9265SOL    HW239255   4.094   0.770   6.751  0.4631 -1.3794 -0.3449
 9266SOL     OW39256   0.594   3.923   6.652 -0.1149 -0.1867 -0.0271
 9266SOL    HW139257   0.553   3.969   6.725 -0.1530  1.4314 -1.0701
 9266SOL    HW239258   0.684   3.922   6.685 -0.0856 -2.1310 -0.1264
 9267SOL     OW39259   2.060   4.087   9.899  0.2165  0.1959 -0.1134
 9267SOL    HW139260   2.105   4.125   9.824  1.5348 -0.5280  0.3106
 9267SOL    HW239261   2.088   4.137   9.975 -3.2073 -0.1205  1.3850
 9268SOL     OW39262   3.808   0.097   3.401  0.3443 -0.6091  0.6238
 9268SOL    HW139263   3.746   0.129   3.466 -0.8128 -0.7720 -0.4104
 9268SOL    HW239264   3.822   0.008   3.434  1.0979 -0.8731 -0.4075
 9269SOL     OW39265   2.570   3.322  13.104  0.0073  0.2849 -0.1863
 9269SOL    HW139266   2.662   3.299  13.088  0.5344  0.8245  2.0172
 9269SOL    HW239267   2.576   3.417  13.111  0.3547  0.0720  2.5580
 9270SOL     OW39268   0.088   0.872   5.375  0.3094 -0.2277  0.0351
 9270SOL    HW139269   0.117   0.927   5.448 -0.0042  0.4372 -0.3482
 9270SOL    HW239270   0.000   0.904   5.357  0.8639  2.7326  2.6014
 9271SOL     OW39271   4.382   0.454  16.354  0.3508  0.5957 -0.1464
 9271SOL    HW139272   4.380   0.466  16.259 -3.1341  0.9047 -0.0070
 9271SOL    HW239273   4.290   0.459  16.380  0.4048  0.7066  0.0268
 9272SOL     OW39274   1.180   4.256   8.629  0.4802  0.1785 -0.0759
 9272SOL    HW139275   1.208   4.333   8.580 -1.1660  0.6488 -0.2667
 9272SOL    HW239276   1.085   4.266   8.633  0.4556 -0.6218  1.2915
 9273SOL     OW39277   3.982   0.410   9.743  0.4958 -0.1034  0.3617
 9273SOL    HW139278   3.925   0.466   9.794  1.7597  0.2268  1.4152
 9273SOL    HW239279   3.919   0.339   9.728  0.2767  0.0389  0.6215
 9274SOL     OW39280   1.469   1.955  14.695  0.5126 -0.1136  0.2274
 9274SOL    HW139281   1.541   1.999  14.649 -1.8635  2.4720 -1.0070
 9274SOL    HW239282   1.408   1.942  14.623 -0.6965  1.7017  0.9301
 9275SOL     OW39283   4.355   4.681   8.893  0.3004  0.4567 -0.3667
 9275SOL    HW139284   4.376   4.596   8.855 -3.1658 -0.4597 -0.1783
 9275SOL    HW239285   4.291   4.712   8.829 -0.6752  0.1045  0.4511
 9276SOL     OW39286   1.719   4.401   2.971  0.0171  0.2103  0.4840
 9276SOL    HW139287   1.654   4.342   3.011 -0.2357 -1.1125 -1.9052
 9276SOL    HW239288   1.780   4.337   2.935  0.6078  0.9384  0.2058
 9277SOL     OW39289   0.184   2.304   7.017  0.5139 -0.1749  0.1314
 9277SOL    HW139290   0.230   2.295   6.934  1.8373 -2.1863  1.0902
 9277SOL    HW239291   0.129   2.380   6.996  0.6438 -0.7924 -2.4173
 9278SOL     OW39292   4.225   0.851  14.648  0.1198 -0.0859 -0.5420
 9278SOL    HW139293   4.299   0.904  14.678 -1.4653  1.0035  1.4662
 9278SOL    HW239294   4.210   0.880  14.558 -0.4633 -2.7925 -1.2915
 9279SOL     OW39295   2.936   0.347  14.680  0.3238 -0.3517 -0.1732
 9279SOL    HW139296   2.996   0.399  14.733  0.7248 -0.3173 -0.6588
 9279SOL    HW239297   2.997   0.283  14.643  0.2327  0.0776 -1.0697
 9280SOL     OW39298   2.304   2.029   6.428  0.0223  0.6705  0.2669
 9280SOL    HW139299   2.270   1.980   6.354  0.3868  0.7692  0.0334
 9280SOL    HW239300   2.310   2.115   6.386 -2.1867  0.5695 -0.2531
 9281SOL     OW39301   4.301   0.068   6.179 -0.5823 -0.2657  0.3625
 9281SOL    HW139302   4.392   0.080   6.153 -0.7032  2.1570  1.0437
 9281SOL    HW239303   4.249   0.083   6.100 -0.7097 -1.8686  0.1465
 9282SOL     OW39304   2.932   4.507   8.319  0.3314 -0.1803 -0.5368
 9282SOL    HW139305   2.978   4.549   8.392 -0.6298  1.3642 -0.8324
 9282SOL    HW239306   2.855   4.484   8.371  0.1217  0.9344 -0.3494
 9283SOL     OW39307   1.507   0.692   3.234  0.1371 -0.1801  0.7624
 9283SOL    HW139308   1.556   0.774   3.245  0.1519 -0.0908  0.0455
 9283SOL    HW239309   1.570   0.620   3.233 -0.0629 -0.3288 -0.7910
 9284SOL     OW39310   1.576   4.413   2.495  0.3570  0.1092  0.2734
 9284SOL    HW139311   1.579   4.434   2.588  0.1948  0.4405  0.2044
 9284SOL    HW239312   1.667   4.395   2.474  0.3755 -1.1306  1.4217
 9285SOL     OW39313   2.803   3.638  14.113  0.0936 -0.0496  0.1844
 9285SOL    HW139314   2.797   3.734  14.121 -1.7175 -0.1271 -0.2788
 9285SOL    HW239315   2.711   3.620  14.091  0.6824 -0.2390 -2.0416
 9286SOL     OW39316   4.724   0.897   6.643  0.3461  1.1416  0.1532
 9286SOL    HW139317   4.649   0.851   6.605  1.8001 -1.8529  0.9306
 9286SOL    HW239318   4.679   0.976   6.672 -0.1900  0.5685  0.8821
 9287SOL     OW39319   0.254   3.243   4.220 -0.4801 -0.7122 -0.6800
 9287SOL    HW139320   0.309   3.321   4.220  0.8326 -1.6500  0.5240
 9287SOL    HW239321   0.183   3.285   4.269  0.6429 -1.1108  1.2564
 9288SOL     OW39322   0.368   2.605  12.310  0.4002 -0.4257 -0.1613
 9288SOL    HW139323   0.419   2.564  12.241 -1.2651 -2.7459 -0.0071
 9288SOL    HW239324   0.432   2.660  12.355 -0.5859  0.9713 -0.4460
 9289SOL     OW39325   2.187   3.254   8.969  0.4774  0.0358  0.0175
 9289SOL    HW139326   2.184   3.334   9.020 -0.4917 -0.0416  0.0980
 9289SOL    HW239327   2.145   3.192   9.030  0.2765 -1.3123 -1.4749
 9290SOL     OW39328   2.191   4.199  14.928 -0.0150  0.3591  0.1027
 9290SOL    HW139329   2.284   4.181  14.913 -0.3062  0.8754 -2.3764
 9290SOL    HW239330   2.158   4.181  14.840  1.5287  1.5790 -0.7287
 9291SOL     OW39331   2.434   2.532   5.975 -0.5955  0.1953  0.1807
 9291SOL    HW139332   2.465   2.489   5.895 -1.7409 -1.7317  0.7859
 9291SOL    HW239333   2.421   2.618   5.934  0.0434  0.3505  0.2984
 9292SOL     OW39334   1.308   3.420   6.037  0.4750  0.1035  0.6016
 9292SOL    HW139335   1.305   3.325   6.049  0.1585  0.1933  1.2393
 9292SOL    HW239336   1.393   3.425   5.993  0.0005  1.2423 -0.2050
 9293SOL     OW39337   3.401   4.039   9.115  0.0279 -0.4332 -0.0079
 9293SOL    HW139338   3.354   4.108   9.068 -0.4095 -0.4557  0.3893
 9293SOL    HW239339   3.484   4.085   9.127  0.7435 -1.2675 -1.8128
 9294SOL     OW39340   2.388   3.048   7.161 -0.0631 -0.7860 -0.0159
 9294SOL    HW139341   2.481   3.028   7.176 -0.5358 -1.2142  2.3206
 9294SOL    HW239342   2.384   3.118   7.225 -0.7233 -0.1749 -0.7392
 9295SOL     OW39343   3.263   4.605  15.423  0.3237  0.4635  0.3055
 9295SOL    HW139344   3.244   4.523  15.377 -0.1408  0.8887 -0.2581
 9295SOL    HW239345   3.254   4.577  15.514 -1.7105  1.6995  0.4809
 9296SOL     OW39346   4.707   0.596   8.054 -0.4235  0.1490 -0.6341
 9296SOL    HW139347   4.646   0.627   7.988 -0.2186  0.5314 -0.6425
 9296SOL    HW239348   0.048   0.663   8.047 -0.8685  0.5964 -0.5958
 9297SOL     OW39349   3.534   4.062   5.401 -0.4274  0.2033  0.7059
 9297SOL    HW139350   3.479   4.040   5.325 -0.2332  0.7168  0.4126
 9297SOL    HW239351   3.468   4.111   5.450 -1.1782 -0.1399  0.0558
 9298SOL     OW39352   1.570   3.457   1.401 -0.0367 -0.1523 -0.3420
 9298SOL    HW139353   1.654   3.445   1.446 -0.9192  0.7314  1.5602
 9298SOL    HW239354   1.577   3.391   1.332 -1.3108 -1.5479  0.8388
 9299SOL     OW39355   0.873   0.093   2.049 -0.1200 -0.3880 -0.0976
 9299SOL    HW139356   0.791   0.069   2.091 -0.4777  1.7050  0.4303
 9299SOL    HW239357   0.893   0.173   2.099 -0.3464 -0.1134 -0.4495
 9300SOL     OW39358   4.578   2.894   1.918  0.2581  0.0129 -0.4683
 9300SOL    HW139359   4.547   2.973   1.961 -3.5498 -1.4420 -0.5473
 9300SOL    HW239360   4.656   2.882   1.972 -0.9952  2.3974  1.8807
 9301SOL     OW39361   2.302   4.701   9.140  0.3545 -0.1338  0.6281
 9301SOL    HW139362   2.379   0.000   9.190 -0.3536  0.6508  1.3099
 9301SOL    HW239363   2.234   0.008   9.198  1.1928  1.4559  0.6915
 9302SOL     OW39364   0.895   2.971   4.659  0.1359 -0.1808 -0.0198
 9302SOL    HW139365   0.849   2.892   4.631  0.0673 -0.4942  1.0029
 9302SOL    HW239366   0.964   2.953   4.595  1.0999 -1.6492  1.4128
 9303SOL     OW39367   2.467   0.829   1.000 -0.0704 -0.4933 -0.1818
 9303SOL    HW139368   2.431   0.898   1.056  1.8707  0.6542 -0.3517
 9303SOL    HW239369   2.393   0.819   0.941  0.7818 -0.1127 -1.3113
 9304SOL     OW39370   2.066   1.717   5.986 -0.1272 -0.1610  0.5786
 9304SOL    HW139371   2.010   1.722   5.909 -1.2084 -1.2115  1.2977
 9304SOL    HW239372   2.154   1.726   5.948 -0.3494 -2.6444 -0.4926
 9305SOL     OW39373   0.577   3.379   6.789 -0.3072  0.2701 -0.4833
 9305SOL    HW139374   0.638   3.429   6.735 -0.8824  1.3732 -0.1150
 9305SOL    HW239375   0.612   3.290   6.778  1.9499  1.0399  0.6194
 9306SOL     OW39376   1.307   1.155   4.986  0.1898 -0.0802 -0.3065
 9306SOL    HW139377   1.222   1.199   4.985  0.7891  1.0557 -0.2362
 9306SOL    HW239378   1.303   1.112   4.901 -1.8961 -0.7413  0.1269
 9307SOL     OW39379   0.937   1.087   6.276 -0.1365  0.4296  0.2349
 9307SOL    HW139380   0.912   1.146   6.348  0.0113 -0.1663  0.7799
 9307SOL    HW239381   0.896   1.124   6.198 -1.2623 -0.3350  0.4586
 9308SOL     OW39382   3.786   0.596  14.701 -0.0358  0.1154  0.0872
 9308SOL    HW139383   3.826   0.683  14.698  1.8947 -0.8575 -1.6964
 9308SOL    HW239384   3.862   0.543  14.678 -1.4968 -1.4073 -1.1201
 9309SOL     OW39385   1.604   0.056   0.582 -0.0166  0.5046  0.6535
 9309SOL    HW139386   1.697   0.034   0.570 -0.2057 -0.6413  1.3113
 9309SOL    HW239387   1.622   0.132   0.638  0.6460  0.6402  0.2612
 9310SOL     OW39388   4.481   1.328   4.469  0.2579  0.1342 -0.4760
 9310SOL    HW139389   4.406   1.325   4.410 -0.4962  0.0085  0.4981
 9310SOL    HW239390   4.469   1.410   4.516 -2.2260 -1.1705  1.1696
 9311SOL     OW39391   4.008   0.962   9.257  0.6509 -0.2387  0.4131
 9311SOL    HW139392   3.964   0.999   9.180  1.4961 -1.2352 -0.5619
 9311SOL    HW239393   4.026   0.875   9.221 -3.4942 -0.8473 -0.2218
 9312SOL     OW39394   1.471   0.279   3.932  0.4910 -0.1325  0.1945
 9312SOL    HW139395   1.413   0.307   3.861 -0.8588 -1.4902  0.7907
 9312SOL    HW239396   1.548   0.334   3.912 -0.1452  0.3522 -0.9020
 9313SOL     OW39397   0.014   0.003  11.049 -0.3548 -0.5998 -0.1124
 9313SOL    HW139398   4.664   0.006  11.108  0.2160  0.9331  0.5453
 9313SOL    HW239399   0.087   0.035  11.101 -0.6504 -1.5472  0.9008
 9314SOL     OW39400   2.919   3.684   6.552  0.1743  1.2151  0.2414
 9314SOL    HW139401   2.836   3.641   6.573 -0.4655  1.6366 -1.3834
 9314SOL    HW239402   2.952   3.642   6.473  1.2349 -2.4065  2.6253
 9315SOL     OW39403   4.113   2.114   5.919  0.0493  0.2001  0.3391
 9315SOL    HW139404   4.127   2.207   5.906  0.9837  0.3245  2.1839
 9315SOL    HW239405   4.190   2.082   5.871 -0.0955  0.7505 -0.2661
 9316SOL     OW39406   1.658   3.659  12.231 -0.1627  0.1985 -0.3859
 9316SOL    HW139407   1.583   3.715  12.254 -0.9195 -0.1344 -2.0983
 9316SOL    HW239408   1.630   3.579  12.275 -2.0040 -0.3535 -2.5392
 9317SOL     OW39409   3.584   3.087   0.634  0.0042 -0.0368  0.4667
 9317SOL    HW139410   3.524   3.158   0.609 -0.9864 -1.5027 -1.2881
 9317SOL    HW239411   3.623   3.063   0.550 -0.9805 -1.6655  0.4802
 9318SOL     OW39412   0.329   1.280  16.526 -0.0764  0.0515  0.5105
 9318SOL    HW139413   0.414   1.265  16.568  0.3949 -1.3243 -0.9487
 9318SOL    HW239414   0.270   1.294  16.599 -0.7899  1.6382 -0.3932
 9319SOL     OW39415   4.389   1.111   5.012 -0.1243  0.4114 -0.3752
 9319SOL    HW139416   4.458   1.050   4.984  0.6574  1.5878 -1.0430
 9319SOL    HW239417   4.352   1.063   5.086 -0.8509  2.4094  0.5673
 9320SOL     OW39418   1.624   2.895  14.782 -0.4744  0.0820 -0.1579
 9320SOL    HW139419   1.641   2.929  14.869 -0.0211  0.3750 -0.3610
 9320SOL    HW239420   1.530   2.877  14.785 -0.6149  0.9965  0.6494
 9321SOL     OW39421   1.449   3.377   4.067 -0.1801  0.7563 -0.6491
 9321SOL    HW139422   1.416   3.425   4.143  3.9770 -0.5120  1.9143
 9321SOL    HW239423   1.486   3.306   4.120  1.1995  1.1273 -1.1200
 9322SOL     OW39424   3.390   3.523   7.204  0.5117  0.7040  0.5380
 9322SOL    HW139425   3.346   3.597   7.246 -1.2352 -0.4187  0.6958
 9322SOL    HW239426   3.351   3.449   7.250  1.1557 -0.5006 -0.8536
 9323SOL     OW39427   0.085   0.414   6.595 -0.4577 -0.3493  0.4374
 9323SOL    HW139428   0.011   0.423   6.655  0.7370  1.3159  1.6704
 9323SOL    HW239429   0.039   0.441   6.515 -1.9455 -2.4981  0.5661
 9324SOL     OW39430   2.080   0.908   5.634 -0.3960  0.3449  0.1184
 9324SOL    HW139431   2.112   0.991   5.669  1.2901  0.3870 -1.5068
 9324SOL    HW239432   2.094   0.914   5.540 -0.1693  1.9088  0.2612
 9325SOL     OW39433   0.812   4.151   6.916  0.1980  0.3774 -0.2596
 9325SOL    HW139434   0.900   4.180   6.941  0.4374  0.3336 -1.0390
 9325SOL    HW239435   0.833   4.058   6.922  1.6167  0.6462 -0.9366
 9326SOL     OW39436   2.105   4.438   1.106 -0.1315 -0.7760 -0.2159
 9326SOL    HW139437   2.133   4.527   1.088 -1.2533 -0.4533 -0.3104
 9326SOL    HW239438   2.126   4.391   1.025 -1.9662 -2.7570  0.4513
 9327SOL     OW39439   3.726   3.685   3.772 -0.1322  0.1075  0.2647
 9327SOL    HW139440   3.698   3.629   3.699  0.5689 -2.2339  1.7606
 9327SOL    HW239441   3.805   3.736   3.754 -0.2916  0.4366  0.5151
 9328SOL     OW39442   1.657   1.906   7.946  0.4805  0.2607 -0.1651
 9328SOL    HW139443   1.732   1.919   8.004  1.7592  1.6365 -2.1273
 9328SOL    HW239444   1.640   1.813   7.965 -0.7581 -0.0701 -2.8436
 9329SOL     OW39445   0.390   3.482  10.647 -0.1271 -0.2103  0.1462
 9329SOL    HW139446   0.336   3.403  10.640  0.6550 -0.7619  0.3250
 9329SOL    HW239447   0.424   3.475  10.736 -1.4544 -1.9899  0.5053
 9330SOL     OW39448   1.938   1.627   7.462 -0.1532  0.7250  0.6373
 9330SOL    HW139449   1.866   1.587   7.413  0.7191  0.4042 -0.3910
 9330SOL    HW239450   2.000   1.639   7.390  0.0137 -0.2447  0.6208
 9331SOL     OW39451   4.419   4.503   1.899 -0.2707  0.2580 -0.1179
 9331SOL    HW139452   4.501   4.528   1.857 -0.1784 -0.2068 -0.2148
 9331SOL    HW239453   4.392   4.581   1.946 -1.5855 -0.3415  0.1177
 9332SOL     OW39454   2.083   1.531  10.321 -0.1794 -0.8075 -0.2698
 9332SOL    HW139455   2.110   1.546  10.230  2.4396 -0.6449  0.5515
 9332SOL    HW239456   1.995   1.501  10.298 -1.8582  1.4623  3.2750
 9333SOL     OW39457   3.180   2.280  13.090  0.4630  0.0780  0.2919
 9333SOL    HW139458   3.152   2.369  13.111  1.0542  0.6582 -1.3536
 9333SOL    HW239459   3.127   2.231  13.153  2.1838 -1.2325  0.7363
 9334SOL     OW39460   0.199   2.061   2.247  0.1841  0.1128  0.1658
 9334SOL    HW139461   0.138   2.111   2.193 -1.6988 -0.6945  1.5340
 9334SOL    HW239462   0.218   1.979   2.203  1.2926 -0.5410  1.8624
 9335SOL     OW39463   2.182   0.790  14.265  0.2102  0.7121 -0.1710
 9335SOL    HW139464   2.127   0.829  14.197  0.1485  0.8830 -0.0251
 9335SOL    HW239465   2.130   0.715  14.293  1.7360 -0.0723  0.5684
 9336SOL     OW39466   2.179   0.114   0.395  0.0446 -0.7218  0.0786
 9336SOL    HW139467   2.143   0.148   0.477 -2.4637 -0.1438 -1.2796
 9336SOL    HW239468   2.130   0.169   0.334  0.9694 -0.8004 -0.7477
 9337SOL     OW39469   3.398   2.428  10.004 -0.2245 -0.3507 -0.1466
 9337SOL    HW139470   3.335   2.469   9.945 -1.5987  0.8062  2.1058
 9337SOL    HW239471   3.342   2.361  10.043  2.2008 -2.0151  0.4751
 9338SOL     OW39472   1.006   0.511   4.258  0.1432 -0.2493 -0.0456
 9338SOL    HW139473   1.037   0.422   4.247 -1.2261 -0.4915 -1.9821
 9338SOL    HW239474   0.918   0.496   4.293  0.3422 -0.4314  0.3662
 9339SOL     OW39475   2.528   3.285   3.399  0.3321  0.8235 -0.4547
 9339SOL    HW139476   2.586   3.296   3.474  0.6454  2.4335 -0.9289
 9339SOL    HW239477   2.596   3.292   3.332 -1.1388 -2.0537 -2.2617
 9340SOL     OW39478   3.023   4.257   6.187  0.1979  0.1314 -0.0588
 9340SOL    HW139479   2.966   4.332   6.202  1.5262  0.8489  1.3213
 9340SOL    HW239480   3.086   4.264   6.258 -2.6531 -1.6643  2.6675
 9341SOL     OW39481   3.495   0.640   7.088 -0.1534 -0.4376 -0.0015
 9341SOL    HW139482   3.458   0.628   7.176  1.4261 -0.9758  0.5917
 9341SOL    HW239483   3.566   0.575   7.093  0.8337  0.5840 -0.6874
 9342SOL     OW39484   4.564   1.321   9.097 -0.1763 -0.2199  0.4182
 9342SOL    HW139485   4.500   1.363   9.039  0.2911  0.4487  0.3962
 9342SOL    HW239486   4.597   1.258   9.032  0.3156  1.6126 -1.0925
 9343SOL     OW39487   4.415   0.797   1.917  0.3642  0.5425  0.3266
 9343SOL    HW139488   4.414   0.706   1.944  0.4610  0.6181  0.5905
 9343SOL    HW239489   4.503   0.803   1.880 -0.2685  1.7748 -1.0230
 9344SOL     OW39490   1.949   4.001   4.683 -0.2550  1.1051  0.1962
 9344SOL    HW139491   1.954   4.094   4.705 -0.1183  0.8060  1.4214
 9344SOL    HW239492   2.031   3.964   4.716 -0.3855  0.3019 -0.3675
 9345SOL     OW39493   0.333   1.860   9.039  0.5789  0.0643 -0.7951
 9345SOL    HW139494   0.425   1.837   9.033  0.6601  0.0410  0.6883
 9345SOL    HW239495   0.287   1.783   9.006 -0.8252  0.2944  0.6275
 9346SOL     OW39496   1.240   0.518   2.700  0.6160 -0.5245  0.2668
 9346SOL    HW139497   1.214   0.609   2.715 -2.0103 -1.0660 -0.8210
 9346SOL    HW239498   1.184   0.479   2.767  0.7403 -1.6058 -0.2601
 9347SOL     OW39499   0.246   2.369   4.316  0.2204 -0.6963 -0.2339
 9347SOL    HW139500   0.279   2.283   4.343  1.6037 -0.1061 -0.0400
 9347SOL    HW239501   0.189   2.360   4.239  3.2419 -2.1903 -2.2690
 9348SOL     OW39502   3.131   2.542  13.862 -0.2423 -0.2375 -0.1249
 9348SOL    HW139503   3.043   2.505  13.870 -0.2242 -0.0004  1.0468
 9348SOL    HW239504   3.121   2.628  13.902 -1.2457 -2.3816  4.2296
 9349SOL     OW39505   3.663   3.505  13.212  0.4177 -0.0623 -0.0999
 9349SOL    HW139506   3.730   3.564  13.179  1.3384 -0.3500  1.2658
 9349SOL    HW239507   3.621   3.559  13.278  1.9901 -0.5868  1.3163
 9350SOL     OW39508   2.613   1.843   1.832 -0.1893  0.0197 -0.4878
 9350SOL    HW139509   2.674   1.829   1.760  0.0176 -1.0176 -0.1091
 9350SOL    HW239510   2.553   1.770   1.816  0.1429 -0.5355  0.7705
 9351SOL     OW39511   0.137   2.422   5.868  0.0652  0.3182  0.0631
 9351SOL    HW139512   0.215   2.429   5.923  0.4832  0.8666 -0.5996
 9351SOL    HW239513   0.138   2.508   5.826  1.8609 -0.2942 -1.1586
 9352SOL     OW39514   1.893   2.580   4.109 -0.2542  0.3433 -0.3385
 9352SOL    HW139515   1.799   2.587   4.089 -0.5847 -1.6307  0.5842
 9352SOL    HW239516   1.934   2.616   4.030 -0.4601 -1.1282 -1.1089
 9353SOL     OW39517   4.646   4.570   0.978  0.2892 -0.1331  0.7008
 9353SOL    HW139518   0.001   4.597   1.021 -0.7280 -0.4809  2.8390
 9353SOL    HW239519   4.594   4.570   1.059  0.5228  0.1662  0.8550
 9354SOL     OW39520   4.472   3.896   7.724  0.1841 -0.3362  0.3703
 9354SOL    HW139521   4.484   3.920   7.816 -1.0933  1.9156 -0.0449
 9354SOL    HW239522   4.386   3.855   7.736 -0.0435  0.2115  0.6413
 9355SOL     OW39523   2.628   3.772   4.904  0.2490 -0.7952 -0.4794
 9355SOL    HW139524   2.648   3.722   4.824  0.3184  0.3578 -1.1856
 9355SOL    HW239525   2.716   3.803   4.926  1.1198 -2.3140 -1.7570
 9356SOL     OW39526   0.232   0.571   7.107  0.2998  0.9167 -0.2507
 9356SOL    HW139527   0.215   0.665   7.112 -0.5214  0.7090  0.9591
 9356SOL    HW239528   0.285   0.566   7.027  1.2183 -1.2680  0.5070
 9357SOL     OW39529   3.691   1.931  11.006 -0.6938 -0.0086 -0.4426
 9357SOL    HW139530   3.748   2.007  11.020 -0.1870 -0.7265  1.4429
 9357SOL    HW239531   3.745   1.856  11.035  0.4233  2.4097  3.7972
 9358SOL     OW39532   1.207   4.020   7.721  0.0479 -1.1936 -0.0357
 9358SOL    HW139533   1.291   4.062   7.740  1.2764 -3.1015 -1.2272
 9358SOL    HW239534   1.213   3.943   7.778  2.2254  0.9682  2.6896
 9359SOL     OW39535   1.372   2.142  13.492  0.5024 -0.6265  0.1341
 9359SOL    HW139536   1.314   2.087  13.439  1.1623 -1.2738  0.1006
 9359SOL    HW239537   1.456   2.097  13.494  0.0639 -1.4358  0.1440
 9360SOL     OW39538   1.447   4.126  13.196 -0.0048 -0.2935 -0.0185
 9360SOL    HW139539   1.375   4.107  13.256 -3.1092 -0.1324 -3.6923
 9360SOL    HW239540   1.519   4.125  13.259 -1.3479 -0.8737  1.5234
 9361SOL     OW39541   3.814   0.611  10.240 -0.6122 -0.1319 -0.2977
 9361SOL    HW139542   3.876   0.556  10.289 -1.4801  1.5589  2.6611
 9361SOL    HW239543   3.769   0.667  10.303  0.1202 -1.9376  1.8491
 9362SOL     OW39544   0.946   4.021  14.974 -0.7273  0.3769  0.5349
 9362SOL    HW139545   0.877   3.964  14.939 -0.1336  0.4846 -0.8349
 9362SOL    HW239546   0.910   4.026  15.062  1.5661  0.3223  1.4670
 9363SOL     OW39547   3.052   2.332  17.562  0.1450 -0.2172  0.5233
 9363SOL    HW139548   3.130   2.387  17.576  1.2333 -1.7163  0.3691
 9363SOL    HW239549   2.977   2.391  17.553 -0.3618 -0.7052  1.5348
 9364SOL     OW39550   2.730   3.256   0.386 -0.3238 -0.6673  0.7385
 9364SOL    HW139551   2.786   3.221   0.317 -1.0070 -1.2637  0.4741
 9364SOL    HW239552   2.663   3.289   0.326  2.2579 -1.2316 -2.4272
 9365SOL     OW39553   1.590   2.786  11.136  0.1145  0.4495 -0.2615
 9365SOL    HW139554   1.512   2.820  11.180  1.1372 -0.2511  2.0668
 9365SOL    HW239555   1.582   2.817  11.046 -3.2815  1.6756  0.4785
 9366SOL     OW39556   4.366   0.025   2.043  0.0093  0.1245 -0.1954
 9366SOL    HW139557   4.305   0.076   2.097 -0.7705 -0.6598 -0.3442
 9366SOL    HW239558   4.448   0.049   2.086 -0.6147  1.3542  0.3380
 9367SOL     OW39559   1.517   1.180   4.234  0.0426 -0.6329  0.4841
 9367SOL    HW139560   1.568   1.181   4.153  1.7072  0.9019  1.5425
 9367SOL    HW239561   1.434   1.157   4.192  0.3371  1.5697 -1.3069
 9368SOL     OW39562   2.079   0.886   4.774 -0.2305  0.5533 -0.2130
 9368SOL    HW139563   2.039   0.932   4.700 -0.3304 -0.3205 -0.6972
 9368SOL    HW239564   2.038   0.929   4.848  0.5765  1.0948 -0.0700
 9369SOL     OW39565   0.804   0.270   4.544 -0.6810 -0.3508 -0.3660
 9369SOL    HW139566   0.814   0.178   4.570 -2.2453 -0.5534 -0.4951
 9369SOL    HW239567   0.754   0.265   4.463 -0.6797 -0.6771 -0.3458
 9370SOL     OW39568   4.150   1.636   5.508  0.3769 -0.2974 -1.2668
 9370SOL    HW139569   4.078   1.664   5.450 -2.2547 -4.3139  0.0950
 9370SOL    HW239570   4.131   1.543   5.506 -2.0454  0.1679  1.2844
 9371SOL     OW39571   3.578   1.975   6.543 -0.2598 -0.1210  0.6455
 9371SOL    HW139572   3.612   2.063   6.524 -1.0076  0.3451  1.4417
 9371SOL    HW239573   3.537   1.979   6.456  0.6096 -0.0208  0.2411
 9372SOL     OW39574   2.315   3.566   0.367 -1.0195 -0.2519  0.4038
 9372SOL    HW139575   2.325   3.471   0.376  2.1150  0.3891  3.3028
 9372SOL    HW239576   2.233   3.575   0.318 -1.2421 -2.0523  0.4483
 9373SOL     OW39577   2.731   3.284   6.980 -0.0358 -0.1926  0.4035
 9373SOL    HW139578   2.653   3.336   7.002  0.2331  0.6811 -0.6817
 9373SOL    HW239579   2.808   3.313   7.028 -1.2841 -1.5900  3.2428
 9374SOL     OW39580   4.237   3.849  16.665  0.0331  0.1279  0.3805
 9374SOL    HW139581   4.258   3.892  16.748  2.7665  1.2813 -0.8857
 9374SOL    HW239582   4.315   3.794  16.656  1.1716  1.0892  4.1815
 9375SOL     OW39583   3.484   4.559   8.390 -0.5027  0.0270 -0.1247
 9375SOL    HW139584   3.571   4.549   8.430 -1.7949  2.1345  3.2032
 9375SOL    HW239585   3.486   4.478   8.339  2.1449 -0.9523  1.5033
 9376SOL     OW39586   2.404   2.295   1.914  0.7738 -0.3839  0.3667
 9376SOL    HW139587   2.441   2.207   1.902 -0.8831 -1.2245  1.3923
 9376SOL    HW239588   2.477   2.357   1.917  0.0941  0.4221  0.0553
 9377SOL     OW39589   3.568   3.351   1.708 -0.3766 -0.6691  0.4495
 9377SOL    HW139590   3.494   3.356   1.647  1.1107 -0.1479 -1.2935
 9377SOL    HW239591   3.617   3.282   1.663  3.1136  1.8563  0.3637
 9378SOL     OW39592   2.360   3.669  10.181  0.5707 -0.1922  0.1627
 9378SOL    HW139593   2.309   3.592  10.208 -2.2593  1.0385 -1.7259
 9378SOL    HW239594   2.325   3.748  10.221  1.3145 -0.0329  0.4880
 9379SOL     OW39595   0.751   3.376  16.911 -0.2928 -0.3882 -0.3050
 9379SOL    HW139596   0.659   3.392  16.931  0.4300  2.8157  0.4965
 9379SOL    HW239597   0.787   3.325  16.984  0.7305 -1.1826 -1.3633
 9380SOL     OW39598   0.835   1.276   0.083  0.3282  0.1097  0.8208
 9380SOL    HW139599   0.886   1.350   0.114 -0.9250  1.2155  0.2338
 9380SOL    HW239600   0.880   1.264  17.704 -3.5847 -0.0240 -1.2149
 9381SOL     OW39601   4.566   2.579  10.810  0.4269  0.1455 -0.0015
 9381SOL    HW139602   4.657   2.606  10.808  1.0616 -1.8604  2.0859
 9381SOL    HW239603   4.544   2.650  10.749 -0.8408 -1.3462 -1.2847
 9382SOL     OW39604   1.787   3.160  14.586  0.0274 -0.2799  0.5593
 9382SOL    HW139605   1.881   3.172  14.570 -0.3551  2.6211  0.5361
 9382SOL    HW239606   1.781   3.069  14.613 -0.2252 -1.2730 -2.8925
 9383SOL     OW39607   1.125   0.864   7.442 -0.6557  0.6440 -0.4752
 9383SOL    HW139608   1.160   0.778   7.466 -0.6874  0.0419 -2.5637
 9383SOL    HW239609   1.170   0.932   7.491  2.1633 -1.2943 -0.3778
 9384SOL     OW39610   3.235   4.608   4.071  0.2808  0.2180 -0.4591
 9384SOL    HW139611   3.263   4.681   4.015  1.2361 -0.9486 -1.5063
 9384SOL    HW239612   3.322   4.568   4.076  1.2528  2.4842  0.4238
 9385SOL     OW39613   0.114   3.377   9.786  0.0361  0.4514  0.1192
 9385SOL    HW139614   0.109   3.285   9.760 -2.2379  0.3289  0.9652
 9385SOL    HW239615   0.023   3.403   9.776 -0.0062 -0.9058 -2.8706
 9386SOL     OW39616   4.148   3.882   2.363 -0.2545 -0.0628  0.4393
 9386SOL    HW139617   4.105   3.896   2.278  0.2497  0.2595  0.2365
 9386SOL    HW239618   4.182   3.970   2.378  2.1493 -1.3720  2.5353
 9387SOL     OW39619   1.867   4.096   3.279 -0.8645  0.1972 -0.3852
 9387SOL    HW139620   1.859   4.180   3.234  0.5426  0.8316  0.5548
 9387SOL    HW239621   1.935   4.119   3.342 -2.0377 -1.4133  1.4704
 9388SOL     OW39622   2.107   2.391  10.483 -0.3215 -0.8369 -0.0736
 9388SOL    HW139623   2.199   2.391  10.510  0.1884 -0.9014 -1.7790
 9388SOL    HW239624   2.123   2.378  10.389  1.0008 -0.7612  0.1423
 9389SOL     OW39625   1.293   0.801  15.932 -0.6740  0.2975 -0.2805
 9389SOL    HW139626   1.227   0.742  15.896  0.2663 -1.3073  0.6067
 9389SOL    HW239627   1.349   0.737  15.977 -0.8277 -0.9060 -1.7955
 9390SOL     OW39628   2.688   0.763   2.182 -0.0553 -0.0410 -0.9960
 9390SOL    HW139629   2.630   0.687   2.181  0.8334 -0.7687  1.2742
 9390SOL    HW239630   2.679   0.797   2.272 -2.0859 -0.4671 -1.0253
 9391SOL     OW39631   2.110   2.915   3.544 -0.3494 -0.3027  0.2443
 9391SOL    HW139632   2.164   2.919   3.623 -0.3579  1.1109  0.1802
 9391SOL    HW239633   2.100   2.820   3.535 -0.5560 -0.1609 -1.0847
 9392SOL     OW39634   3.930   2.031   8.221  0.0070 -0.6723  0.2023
 9392SOL    HW139635   4.008   2.029   8.276  0.4512 -2.8045 -0.5057
 9392SOL    HW239636   3.860   2.073   8.271 -0.7141 -0.0789 -1.2782
 9393SOL     OW39637   2.029   1.501   3.450 -0.2704  0.4504  0.4400
 9393SOL    HW139638   2.103   1.560   3.464 -0.5605  1.0273 -0.4172
 9393SOL    HW239639   2.015   1.526   3.358 -2.5962 -1.2546  0.3445
 9394SOL     OW39640   4.566   1.112  14.016 -0.1015  0.4578  0.1811
 9394SOL    HW139641   4.540   1.201  14.043 -1.8445  0.8475 -2.8898
 9394SOL    HW239642   4.553   1.063  14.097 -3.9325 -0.4586 -1.0235
 9395SOL     OW39643   3.805   2.992  15.310  0.1488  0.3917 -0.3225
 9395SOL    HW139644   3.892   2.956  15.294  0.4333  1.4088 -1.0232
 9395SOL    HW239645   3.796   3.072  15.259 -1.0794 -0.4986 -1.4818
 9396SOL     OW39646   2.038   2.080   4.004 -0.3928  0.5108  0.0354
 9396SOL    HW139647   1.983   2.125   4.067 -0.3792 -0.0231  0.4315
 9396SOL    HW239648   1.975   2.027   3.956 -1.8616  1.1979  1.1947
 9397SOL     OW39649   4.436   2.607  12.435 -0.7655 -0.3908 -0.3701
 9397SOL    HW139650   4.503   2.596  12.503 -2.2457  0.6675  1.2657
 9397SOL    HW239651   4.415   2.700  12.431 -0.2238 -0.2719 -0.4945
 9398SOL     OW39652   1.698   0.985  16.093  0.5126  0.1287 -0.4214
 9398SOL    HW139653   1.720   1.001  16.185  0.2539 -1.7143 -0.0468
 9398SOL    HW239654   1.640   0.910  16.105  0.8280  0.1649  1.4642
 9399SOL     OW39655   1.768   2.021   2.835 -0.4183  0.1478 -0.3655
 9399SOL    HW139656   1.832   2.090   2.850  0.1957 -0.2376 -1.2037
 9399SOL    HW239657   1.808   1.959   2.896 -2.9171 -1.9687 -0.8637
 9400SOL     OW39658   0.948   2.354   8.769  0.1279  0.1827 -0.6814
 9400SOL    HW139659   0.983   2.326   8.854  1.2295  0.8567 -0.9091
 9400SOL    HW239660   1.027   2.352   8.715 -0.6348  1.3233 -1.8115
 9401SOL     OW39661   0.219   2.090  12.128  0.0165  0.0624  0.6601
 9401SOL    HW139662   0.274   2.015  12.150 -2.5167 -1.2502  2.4709
 9401SOL    HW239663   0.267   2.167  12.155 -0.6345  0.7525 -0.1301
 9402SOL     OW39664   4.024   0.853   4.093  0.0956  0.6352  0.0881
 9402SOL    HW139665   3.988   0.810   4.171 -3.1438  1.7743 -0.7990
 9402SOL    HW239666   3.972   0.816   4.023  1.4564 -0.8176 -0.1568
 9403SOL     OW39667   3.876   0.298   7.854 -0.3532  0.0563  0.0373
 9403SOL    HW139668   3.796   0.287   7.802 -0.2652  3.8894 -0.9294
 9403SOL    HW239669   3.938   0.266   7.788  0.3478  0.2129  0.6270
 9404SOL     OW39670   1.188   3.030   3.576  0.4359 -0.6324 -0.2151
 9404SOL    HW139671   1.181   2.990   3.663  0.3192  0.9801  0.5137
 9404SOL    HW239672   1.219   2.950   3.533 -0.5580 -1.3178  0.3230
 9405SOL     OW39673   3.134   4.154   4.592 -0.1725 -0.2125 -0.1091
 9405SOL    HW139674   3.150   4.140   4.685 -0.9547 -1.7356 -0.1946
 9405SOL    HW239675   3.219   4.188   4.563  0.8497  0.5191  3.8027
 9406SOL     OW39676   1.979   1.258   0.544 -0.4125  0.5327 -0.3392
 9406SOL    HW139677   1.906   1.315   0.567 -0.7818 -0.7189  1.5850
 9406SOL    HW239678   2.013   1.291   0.461  3.0795 -1.2040  0.4137
 9407SOL     OW39679   2.727   4.110  12.805  0.0978  0.1980 -0.1519
 9407SOL    HW139680   2.789   4.037  12.804 -1.9249 -1.5189 -0.2524
 9407SOL    HW239681   2.676   4.085  12.882 -0.1533  0.5190 -0.2134
 9408SOL     OW39682   3.561   2.248   4.271  0.4438 -0.2300  0.1735
 9408SOL    HW139683   3.643   2.263   4.223  0.0743 -0.2203 -0.4534
 9408SOL    HW239684   3.519   2.176   4.225  2.7821 -1.5889  0.1782
 9409SOL     OW39685   0.499   3.190  14.889 -0.0101 -0.0156 -0.0155
 9409SOL    HW139686   0.566   3.124  14.907 -0.7420 -1.1737 -1.5326
 9409SOL    HW239687   0.553   3.268  14.885  0.8620 -0.6988 -1.3160
 9410SOL     OW39688   0.806   2.546   4.534  0.4670 -0.0430 -0.4327
 9410SOL    HW139689   0.721   2.539   4.578  0.0797  3.2227 -0.7016
 9410SOL    HW239690   0.849   2.498   4.605 -1.6261 -1.2636  0.0316
 9411SOL     OW39691   3.288   0.317   4.969  0.2924  0.0320  0.2238
 9411SOL    HW139692   3.243   0.282   4.893  0.4479  0.0837  0.1090
 9411SOL    HW239693   3.367   0.265   4.973  1.1719  1.2856 -1.0441
 9412SOL     OW39694   1.729   2.221   3.243 -0.1609 -0.4008 -0.2031
 9412SOL    HW139695   1.655   2.198   3.300 -0.0080  0.0806  0.1888
 9412SOL    HW239696   1.798   2.178   3.294  0.5696 -0.6416 -1.3966
 9413SOL     OW39697   3.691   2.476   6.740 -0.0859  0.4974  0.1907
 9413SOL    HW139698   3.632   2.551   6.752  2.3676  2.0999  2.5309
 9413SOL    HW239699   3.718   2.499   6.651  1.9089  1.5437  1.0654
 9414SOL     OW39700   2.324   0.721  12.336  0.1503  0.4398 -0.2981
 9414SOL    HW139701   2.369   0.677  12.407 -0.0157 -0.1875 -0.5842
 9414SOL    HW239702   2.303   0.649  12.276  1.9343 -0.7830  0.5814
 9415SOL     OW39703   3.426   3.664   9.672 -0.5371 -0.1741  0.0987
 9415SOL    HW139704   3.339   3.640   9.639 -1.3686  2.5706  0.3034
 9415SOL    HW239705   3.399   3.718   9.747 -0.5118  1.1785 -0.8711
 9416SOL     OW39706   2.374   1.390  13.573 -0.0019 -0.3598  0.1341
 9416SOL    HW139707   2.339   1.478  13.586  1.9234  0.5409 -0.8648
 9416SOL    HW239708   2.409   1.373  13.660 -0.7896 -1.7528  0.1883
 9417SOL     OW39709   1.594   4.551   5.806 -0.1979 -0.2870 -0.6123
 9417SOL    HW139710   1.582   4.586   5.718  0.8040 -1.0325 -1.0430
 9417SOL    HW239711   1.514   4.498   5.810 -0.2170 -0.0814  2.0028
 9418SOL     OW39712   0.726   1.044   5.519  0.3367  0.4165  0.3883
 9418SOL    HW139713   0.691   0.970   5.570  1.6561 -0.0431  0.6329
 9418SOL    HW239714   0.800   1.067   5.576  1.8815 -0.3084 -1.3452
 9419SOL     OW39715   1.122   2.083   7.007  0.0235  0.4664  0.9307
 9419SOL    HW139716   1.030   2.055   7.004  1.1054 -2.9087 -1.2447
 9419SOL    HW239717   1.160   2.035   6.933 -1.2835 -0.6403  0.9697
 9420SOL     OW39718   3.713   2.153   7.350  0.4496 -0.5878  0.6711
 9420SOL    HW139719   3.798   2.123   7.383  1.5717  0.6154 -1.0854
 9420SOL    HW239720   3.663   2.072   7.350  0.2868 -0.4859  0.7994
 9421SOL     OW39721   0.840   3.038   6.055 -0.7264  0.6013  0.1503
 9421SOL    HW139722   0.879   3.099   6.117  1.1336 -1.2172  0.7785
 9421SOL    HW239723   0.754   3.080   6.058 -1.0534 -0.1056  0.7142
 9422SOL     OW39724   2.762   3.194   4.002 -0.1983 -0.0654  0.4585
 9422SOL    HW139725   2.719   3.276   4.027 -1.5946 -0.9066  0.7905
 9422SOL    HW239726   2.826   3.168   4.069  1.8317 -0.0711 -1.4911
 9423SOL     OW39727   1.122   3.585  12.820 -0.0108  0.0120  0.1252
 9423SOL    HW139728   1.143   3.627  12.904 -0.7360 -0.4458  0.5411
 9423SOL    HW239729   1.206   3.600  12.776  1.1138 -0.9380  1.9234
 9424SOL     OW39730   2.788   0.447   6.140 -0.0622  0.4696 -0.0974
 9424SOL    HW139731   2.738   0.529   6.140  0.6262  0.9042 -2.6363
 9424SOL    HW239732   2.850   0.475   6.072 -1.1509  0.5291 -1.0739
 9425SOL     OW39733   1.650   4.541   6.422  0.0471 -0.0430 -0.3345
 9425SOL    HW139734   1.623   4.550   6.331 -0.6700 -1.1614 -0.2198
 9425SOL    HW239735   1.735   4.501   6.404  0.9123  2.6877 -2.3821
 9426SOL     OW39736   0.912   4.394  16.606  0.1684 -0.2222  0.3680
 9426SOL    HW139737   1.000   4.369  16.579 -0.8700 -0.0398 -3.3010
 9426SOL    HW239738   0.895   4.322  16.667  0.8049 -1.1876 -0.5915
 9427SOL     OW39739   4.641   1.208  15.907 -0.2061 -0.2439  0.0900
 9427SOL    HW139740   4.706   1.242  15.968 -0.6822 -2.8478  2.0302
 9427SOL    HW239741   4.568   1.232  15.963 -1.3191 -3.4436  0.0033
 9428SOL     OW39742   2.812   0.621   4.776 -0.1052  0.0676  0.1038
 9428SOL    HW139743   2.828   0.626   4.682  2.0157  0.2407  0.4641
 9428SOL    HW239744   2.809   0.526   4.779 -0.6371  0.1184  1.2938
 9429SOL     OW39745   2.023   2.611   5.842 -0.3275  0.1818 -0.2242
 9429SOL    HW139746   2.020   2.707   5.839  2.5199  0.3055  0.7610
 9429SOL    HW239747   2.077   2.591   5.918 -1.8115 -0.0265  0.7892
 9430SOL     OW39748   3.828   0.777   8.213 -0.0294 -0.5351  0.7468
 9430SOL    HW139749   3.795   0.749   8.298  0.8130 -1.4056  0.7857
 9430SOL    HW239750   3.759   0.826   8.168  0.5706 -1.1553 -0.8723
 9431SOL     OW39751   2.401   1.393   3.289  0.1413  0.1890 -0.7104
 9431SOL    HW139752   2.468   1.330   3.315 -0.7189 -0.5400 -0.2562
 9431SOL    HW239753   2.323   1.337   3.288  0.6333 -0.4885  2.3698
 9432SOL     OW39754   2.683   0.280   8.058 -0.0240  0.6196  0.0508
 9432SOL    HW139755   2.701   0.205   8.001  0.5418  0.2965  0.6505
 9432SOL    HW239756   2.746   0.346   8.029 -1.0881  0.6591 -2.1554
 9433SOL     OW39757   0.019   4.609   3.418  0.1214  0.4518  0.1859
 9433SOL    HW139758   0.036   4.585   3.327  1.4824 -1.4598  0.9282
 9433SOL    HW239759   0.101   4.573   3.452  0.0687  1.5057  1.4305
 9434SOL     OW39760   1.993   1.893   6.493 -0.5630 -0.1091  1.0420
 9434SOL    HW139761   2.054   1.897   6.566  0.2776 -0.3942  0.3519
 9434SOL    HW239762   2.003   1.979   6.452 -1.9294 -1.3256 -1.8853
 9435SOL     OW39763   3.518   4.526  12.796 -0.0820 -0.9159 -0.0773
 9435SOL    HW139764   3.612   4.528  12.782 -0.0379  2.3927  0.4854
 9435SOL    HW239765   3.508   4.537  12.891 -1.9374 -1.0391 -0.2456
 9436SOL     OW39766   1.259   3.548   8.327 -0.1967  0.0447 -0.4533
 9436SOL    HW139767   1.291   3.502   8.249  0.2069 -0.1376 -0.1771
 9436SOL    HW239768   1.305   3.493   8.390  0.0246  0.7826  0.0247
 9437SOL     OW39769   1.424   4.511   3.234 -0.1762 -0.0084  0.1064
 9437SOL    HW139770   1.352   4.550   3.184 -0.6049 -0.2123  0.5801
 9437SOL    HW239771   1.375   4.440   3.274 -1.5449  0.2191 -1.1582
 9438SOL     OW39772   1.051   2.943  12.145 -0.4180  0.0034  0.5731
 9438SOL    HW139773   1.049   2.848  12.154  0.5083 -0.0908 -0.2284
 9438SOL    HW239774   1.031   2.952  12.052  0.7120  2.4211  0.5398
 9439SOL     OW39775   3.989   3.005   3.793  0.5750 -0.0200 -0.4256
 9439SOL    HW139776   3.946   2.926   3.825  1.1610  0.0862  0.6199
 9439SOL    HW239777   4.045   3.039   3.863 -0.1518  0.8862 -0.2778
 9440SOL     OW39778   1.176   2.613   7.204 -0.2593 -0.7369 -0.0539
 9440SOL    HW139779   1.086   2.627   7.235 -0.3374 -1.0210 -0.1593
 9440SOL    HW239780   1.218   2.678   7.261 -0.2542  1.4983 -2.5770
 9441SOL     OW39781   4.326   1.850   7.563  0.2258 -0.1964 -0.1878
 9441SOL    HW139782   4.305   1.798   7.485  0.1973 -1.0788  0.4006
 9441SOL    HW239783   4.347   1.934   7.523  3.8336  0.0378  2.1926
 9442SOL     OW39784   0.567   2.865  17.548  0.1334  0.2444  0.0288
 9442SOL    HW139785   0.619   2.794  17.511 -0.7579  0.0052 -0.7619
 9442SOL    HW239786   0.477   2.834  17.546  0.4558 -0.6171 -1.4583
 9443SOL     OW39787   1.083   2.900   2.841  0.4037  0.3471  0.6167
 9443SOL    HW139788   1.111   2.841   2.771 -0.1408 -0.2032  0.8601
 9443SOL    HW239789   1.017   2.846   2.885  0.4659  0.4579  0.8427
 9444SOL     OW39790   0.226   2.219   9.623 -0.0025  0.2861  0.4869
 9444SOL    HW139791   0.262   2.304   9.648 -0.5117  0.8623 -0.7355
 9444SOL    HW239792   0.289   2.191   9.556  1.3891  3.8085  0.3472
 9445SOL     OW39793   1.148   4.305   3.889  0.1604  0.0965 -0.5726
 9445SOL    HW139794   1.235   4.272   3.913 -1.2265 -1.0753  2.9024
 9445SOL    HW239795   1.119   4.217   3.863 -2.4899  0.5205  0.9453
 9446SOL     OW39796   3.696   2.671   8.650 -0.2459 -0.2534  0.4158
 9446SOL    HW139797   3.713   2.711   8.735 -1.0099  0.6813  0.1220
 9446SOL    HW239798   3.775   2.684   8.597  0.1438 -1.3609  0.7217
 9447SOL     OW39799   4.241   0.725   2.265 -0.3962 -0.2156  0.2308
 9447SOL    HW139800   4.219   0.813   2.233  0.3310 -0.2727 -0.4376
 9447SOL    HW239801   4.334   0.738   2.244 -0.6401  0.4931 -0.4268
 9448SOL     OW39802   2.883   2.230  16.336 -0.1070  0.3377  0.2132
 9448SOL    HW139803   2.912   2.185  16.257  0.0606 -1.9252  1.5437
 9448SOL    HW239804   2.818   2.172  16.376  0.7544 -0.5946  0.2580
 9449SOL     OW39805   3.143   1.863   1.668 -0.2631 -0.3351 -0.1092
 9449SOL    HW139806   3.117   1.954   1.681 -1.0077 -0.4801 -0.5964
 9449SOL    HW239807   3.188   1.848   1.751  0.1000  0.3203 -0.1880
 9450SOL     OW39808   3.205   2.428  15.513 -0.5768 -0.6302 -0.4110
 9450SOL    HW139809   3.164   2.342  15.525  1.4052 -1.7009 -1.2662
 9450SOL    HW239810   3.257   2.408  15.435  0.5739 -1.2144  0.5058
 9451SOL     OW39811   3.027   1.681   5.926 -0.1397  0.5720 -0.3003
 9451SOL    HW139812   2.986   1.766   5.942  1.4826  1.3698 -0.3797
 9451SOL    HW239813   2.956   1.623   5.952  0.1347  0.9259  1.2596
 9452SOL     OW39814   2.750   2.458   4.598  0.3010 -0.3294 -0.6030
 9452SOL    HW139815   2.805   2.506   4.535 -0.2950 -0.0582 -0.9132
 9452SOL    HW239816   2.771   2.370   4.567 -2.1154 -0.4396 -1.9075
 9453SOL     OW39817   1.234   1.761   1.905 -0.7313 -0.2255  0.1150
 9453SOL    HW139818   1.188   1.844   1.891  0.1954  0.3598  0.5563
 9453SOL    HW239819   1.162   1.698   1.900  0.4010 -1.4137 -1.2176
 9454SOL     OW39820   3.662   3.275   3.813  1.2301 -0.5379  0.2948
 9454SOL    HW139821   3.699   3.350   3.860 -0.9175  0.5764  0.1991
 9454SOL    HW239822   3.577   3.313   3.793  1.0375 -1.0865  0.0788
 9455SOL     OW39823   3.713   2.308   4.054 -0.5215 -0.4291 -0.0398
 9455SOL    HW139824   3.680   2.232   4.005  0.9447 -1.3087  0.3237
 9455SOL    HW239825   3.694   2.377   3.990 -0.0092  0.3107  0.6135
 9456SOL     OW39826   0.567   3.883   8.940 -0.4962 -1.0785  0.0269
 9456SOL    HW139827   0.491   3.924   8.898 -0.1959 -0.9195 -0.3655
 9456SOL    HW239828   0.555   3.791   8.918  1.6575 -1.1096 -1.0207
 9457SOL     OW39829   4.248   3.825   9.604 -0.9344  0.2694  0.6365
 9457SOL    HW139830   4.330   3.839   9.557 -1.0048  1.3325  0.8266
 9457SOL    HW239831   4.235   3.731   9.595 -1.9863  0.4168  0.6119
 9458SOL     OW39832   2.943   3.162   5.995 -0.5042 -0.3707  0.2896
 9458SOL    HW139833   2.935   3.168   5.900  0.0805 -2.0025  0.1365
 9458SOL    HW239834   2.854   3.142   6.023  0.0613 -0.6482  1.9190
 9459SOL     OW39835   3.207   0.491  13.467 -0.2230 -0.5949 -0.2138
 9459SOL    HW139836   3.230   0.549  13.540 -2.8280  0.2152 -0.0243
 9459SOL    HW239837   3.216   0.557  13.399 -0.8289 -1.4251 -1.1087
 9460SOL     OW39838   3.212   2.631  14.604 -0.4858 -0.2988 -0.0576
 9460SOL    HW139839   3.148   2.684  14.556  1.1506  1.7126  0.0216
 9460SOL    HW239840   3.199   2.652  14.697 -0.5568 -1.6482  0.2389
 9461SOL     OW39841   4.681   2.801   3.843 -0.2984 -0.0153  0.0834
 9461SOL    HW139842   4.674   2.705   3.843 -1.4686  0.0767 -1.5514
 9461SOL    HW239843   0.042   2.812   3.880  0.0231 -0.4719 -0.5461
 9462SOL     OW39844   3.291   0.705   6.527 -0.2474 -0.1450 -0.5136
 9462SOL    HW139845   3.216   0.763   6.508 -0.6157 -0.2888  0.5186
 9462SOL    HW239846   3.256   0.662   6.605 -1.0992  1.0460 -0.2348
 9463SOL     OW39847   1.841   4.657   9.775 -0.3187  0.1377 -0.4371
 9463SOL    HW139848   1.916   4.684   9.722 -0.5840 -1.4945 -1.6304
 9463SOL    HW239849   1.887   4.604   9.840 -0.8151 -1.4455 -1.3867
 9464SOL     OW39850   3.788   0.409   7.438  0.0552  0.4945  0.0798
 9464SOL    HW139851   3.775   0.360   7.519 -1.1801 -2.1996 -1.7288
 9464SOL    HW239852   3.759   0.492   7.475 -0.4406  0.7618 -0.8941
 9465SOL     OW39853   0.158   4.427   5.928 -0.6616  0.0162 -0.2614
 9465SOL    HW139854   0.250   4.448   5.942 -0.5765  0.6063 -1.6846
 9465SOL    HW239855   0.123   4.459   6.011 -1.2912  0.2577 -0.6150
 9466SOL     OW39856   0.122   1.745   1.194  0.5361  0.4794  0.2543
 9466SOL    HW139857   0.079   1.659   1.197  1.7689 -0.1585 -0.7810
 9466SOL    HW239858   0.199   1.743   1.251  2.4282 -0.6880 -2.3885
 9467SOL     OW39859   2.536   0.373   2.437  0.0307 -0.2457  0.0501
 9467SOL    HW139860   2.573   0.364   2.525 -4.8107 -1.6519  1.9148
 9467SOL    HW239861   2.446   0.405   2.445 -0.3251 -1.6599  1.6551
 9468SOL     OW39862   1.921   2.055  10.209  0.4227  0.0278  0.5360
 9468SOL    HW139863   1.861   2.078  10.279 -1.6787 -0.7520 -0.9878
 9468SOL    HW239864   1.861   2.061  10.134  0.4964  2.1913  0.6512
 9469SOL     OW39865   1.062   4.514   4.352 -0.5147 -0.8704 -0.1387
 9469SOL    HW139866   1.155   4.540   4.351 -0.1158 -2.2530  1.7280
 9469SOL    HW239867   1.024   4.596   4.319  2.9130  1.4837  1.7162
 9470SOL     OW39868   1.640   2.896   8.849  0.2352  0.7654 -0.2796
 9470SOL    HW139869   1.591   2.824   8.888 -0.8977  1.6345 -0.1219
 9470SOL    HW239870   1.619   2.897   8.755  1.6733 -3.2452 -0.6545
 9471SOL     OW39871   1.023   4.407   5.123 -0.0103 -0.2431  0.2515
 9471SOL    HW139872   1.085   4.348   5.082 -1.5601 -0.2163 -2.1535
 9471SOL    HW239873   1.001   4.458   5.044 -0.7282  0.3925  0.8648
 9472SOL     OW39874   3.905   2.120  15.242  0.0976  0.2381 -0.3718
 9472SOL    HW139875   3.984   2.174  15.248  1.3440 -1.3577 -2.5337
 9472SOL    HW239876   3.855   2.146  15.164  0.1413  0.9512 -0.1604
 9473SOL     OW39877   1.374   3.362  15.643  0.3473 -0.2607 -0.2809
 9473SOL    HW139878   1.362   3.371  15.738  0.7141 -1.0815 -0.1509
 9473SOL    HW239879   1.467   3.339  15.635  0.5873 -0.7653  3.8318
 9474SOL     OW39880   2.683   3.486   0.048 -0.3471 -0.3925 -0.1233
 9474SOL    HW139881   2.643   3.420   0.105  2.0576 -0.1976  1.7875
 9474SOL    HW239882   2.684   3.438  17.672  0.2562  0.0025 -0.3396
 9475SOL     OW39883   0.840   2.463   3.754 -0.2218  0.3993 -0.0207
 9475SOL    HW139884   0.893   2.515   3.694 -0.9032 -0.0181 -0.9856
 9475SOL    HW239885   0.819   2.383   3.705 -2.0319 -0.4249  2.1181
 9476SOL     OW39886   2.296   4.584   6.636 -0.5674 -0.4006 -0.1154
 9476SOL    HW139887   2.371   4.525   6.645 -0.4293 -0.2366 -0.1972
 9476SOL    HW239888   2.270   4.585   6.729  1.9599 -1.0279  0.5782
 9477SOL     OW39889   0.133   0.651   7.423  0.0320  0.5375 -0.0112
 9477SOL    HW139890   0.176   0.650   7.509  1.5144  0.4791 -0.7528
 9477SOL    HW239891   0.130   0.746   7.407 -2.0827  0.5290  0.2966
 9478SOL     OW39892   0.511   4.725   9.965 -0.4440  0.1664  0.2926
 9478SOL    HW139893   0.535   4.633   9.978 -1.6768 -0.1423  0.3725
 9478SOL    HW239894   0.570   0.049  10.021 -0.7400 -0.0943  0.8448
 9479SOL     OW39895   2.286   0.729  16.028  0.1541 -0.1586  0.0200
 9479SOL    HW139896   2.273   0.634  16.019 -1.1580  0.1875 -1.6808
 9479SOL    HW239897   2.326   0.724  16.115 -1.0717  0.4768  0.6216
 9480SOL     OW39898   0.451   3.453   4.207  1.1623 -0.3817  0.3152
 9480SOL    HW139899   0.546   3.461   4.215  0.8820  1.3745  1.8409
 9480SOL    HW239900   0.447   3.504   4.126  0.0697 -0.7056  0.1703
 9481SOL     OW39901   2.459   4.419   9.466  0.1442 -0.3416 -0.3218
 9481SOL    HW139902   2.533   4.415   9.527 -2.4154  0.6403  2.8535
 9481SOL    HW239903   2.439   4.326   9.464  0.3558 -0.3888 -0.2688
 9482SOL     OW39904   3.248   0.595   0.595  0.0976 -0.1579  0.0946
 9482SOL    HW139905   3.172   0.607   0.652  1.7438  2.5463  1.6920
 9482SOL    HW239906   3.235   0.503   0.570  1.3632 -0.2158 -0.3905
 9483SOL     OW39907   4.203   0.590   7.256 -0.6671  0.3081  0.1142
 9483SOL    HW139908   4.166   0.625   7.337 -0.7775 -1.4695  0.8331
 9483SOL    HW239909   4.146   0.513   7.252  0.3857 -0.5496  1.5965
 9484SOL     OW39910   3.423   1.452   0.100  0.0156 -0.1296  0.0082
 9484SOL    HW139911   3.385   1.511   0.035 -1.5584 -0.8389  0.2795
 9484SOL    HW239912   3.428   1.375   0.043  0.2225 -0.3713  0.3560
 9485SOL     OW39913   2.848   0.764  15.786  0.3432 -0.1440 -0.1677
 9485SOL    HW139914   2.865   0.772  15.880 -1.7704 -0.7859  0.2793
 9485SOL    HW239915   2.775   0.826  15.787  0.0632 -0.4781  0.5608
 9486SOL     OW39916   4.647   2.131   4.357  0.2326  0.2315 -0.4357
 9486SOL    HW139917   4.603   2.159   4.277  0.6659  0.0546 -0.7321
 9486SOL    HW239918   4.705   2.202   4.381  0.3054 -0.3352  1.0714
 9487SOL     OW39919   1.996   1.853   4.216  0.2018  0.9158 -0.1624
 9487SOL    HW139920   1.953   1.933   4.187 -1.9731 -0.8273 -1.7614
 9487SOL    HW239921   2.065   1.845   4.150 -3.1545 -0.2926 -3.5937
 9488SOL     OW39922   3.454   1.174   0.548  0.7036 -0.1120  0.1400
 9488SOL    HW139923   3.435   1.231   0.473  1.4755 -2.9921 -2.1990
 9488SOL    HW239924   3.465   1.233   0.623  0.7203 -0.7028  0.5967
 9489SOL     OW39925   4.367   1.465   8.921 -0.0602 -0.4864  0.5026
 9489SOL    HW139926   4.285   1.417   8.934  0.6832 -1.8619  0.2031
 9489SOL    HW239927   4.333   1.551   8.898  0.1133 -0.3230  0.8669
 9490SOL     OW39928   0.249   2.557   9.034  0.7080  0.1272  0.0763
 9490SOL    HW139929   0.295   2.628   9.078  1.0688  1.4371 -2.4320
 9490SOL    HW239930   0.157   2.577   9.047  0.1309 -2.0000 -0.7061
 9491SOL     OW39931   3.795   0.439   3.664  0.0900 -0.3070  0.7533
 9491SOL    HW139932   3.773   0.509   3.726 -2.3375 -0.1964 -0.2436
 9491SOL    HW239933   3.784   0.350   3.698 -0.9315 -1.2592 -2.1450
 9492SOL     OW39934   0.646   4.262   3.531  0.2362 -0.5678  0.1439
 9492SOL    HW139935   0.593   4.291   3.605  2.6247 -0.5098  1.8359
 9492SOL    HW239936   0.691   4.192   3.577 -0.5020 -0.3031  1.2696
 9493SOL     OW39937   4.673   4.719   5.710  0.3659  0.5142 -0.1350
 9493SOL    HW139938   4.725   0.047   5.650 -0.9439  1.0826 -0.7381
 9493SOL    HW239939   4.673   0.047   5.789  0.6819 -1.2923  1.1030
 9494SOL     OW39940   2.227   4.053  10.470 -0.4191  0.2499 -0.0392
 9494SOL    HW139941   2.203   3.964  10.496  1.9435 -0.6732 -0.9813
 9494SOL    HW239942   2.312   4.074  10.510 -0.2118 -0.6746 -0.0007
 9495SOL     OW39943   1.041   1.188   1.256  0.4206  0.1440  0.1282
 9495SOL    HW139944   0.952   1.221   1.245 -0.0574 -1.0503  0.4115
 9495SOL    HW239945   1.065   1.168   1.165  0.7505  1.7897 -0.1551
 9496SOL     OW39946   1.622   4.507   9.810  0.5444 -0.7583  0.2273
 9496SOL    HW139947   1.603   4.554   9.891 -0.7190  0.8137 -0.9725
 9496SOL    HW239948   1.704   4.548   9.783 -0.2988  1.0358  0.4224
 9497SOL     OW39949   1.386   0.020   3.935  0.8768 -0.6395  0.3573
 9497SOL    HW139950   1.413   0.104   3.899 -0.0766 -0.4169  0.1753
 9497SOL    HW239951   1.316   0.060   3.986  1.7844  0.6168  0.6293
 9498SOL     OW39952   0.748   3.238  16.674 -0.1600  0.7715 -0.5328
 9498SOL    HW139953   0.737   3.143  16.672  0.4489  0.6540  1.6955
 9498SOL    HW239954   0.731   3.257  16.767 -1.6516  0.1309 -0.6685
 9499SOL     OW39955   0.524   0.089   2.556 -0.2462  0.1343  0.1872
 9499SOL    HW139956   0.505   0.175   2.518  1.2489  0.2971 -0.1932
 9499SOL    HW239957   0.595   0.062   2.497  0.6434 -0.2667  1.4294
 9500SOL     OW39958   2.216   1.811   0.977  0.0551  0.8678 -0.3513
 9500SOL    HW139959   2.232   1.900   1.008 -0.8468  0.9773 -0.2064
 9500SOL    HW239960   2.280   1.754   1.020 -1.6997 -0.8202  0.0483
 9501SOL     OW39961   0.357   4.411   3.440 -1.1198  0.3714  0.2297
 9501SOL    HW139962   0.425   4.477   3.451 -0.6630  0.0406 -0.6058
 9501SOL    HW239963   0.309   4.422   3.522 -0.7330  2.7136  0.1437
 9502SOL     OW39964   3.845   0.438  15.515 -0.3979  0.3707  0.0375
 9502SOL    HW139965   3.781   0.375  15.482 -1.4701  0.4856  1.9033
 9502SOL    HW239966   3.799   0.519  15.493 -1.3208  0.3107  1.7619
 9503SOL     OW39967   0.740   1.935  14.519 -0.4284  0.4011 -0.2460
 9503SOL    HW139968   0.692   1.858  14.547  1.2498 -1.5920 -2.8393
 9503SOL    HW239969   0.760   1.973  14.605  2.5695 -0.5984 -0.4941
 9504SOL     OW39970   0.869   1.693   8.413 -0.0505 -0.5582  0.1605
 9504SOL    HW139971   0.918   1.624   8.371  2.9638  1.4018  0.4792
 9504SOL    HW239972   0.855   1.654   8.499 -0.7669 -1.6263 -0.4475
 9505SOL     OW39973   3.219   1.063   3.832 -0.6868 -0.4040 -0.2925
 9505SOL    HW139974   3.268   1.001   3.886 -0.9885 -0.5447 -0.1829
 9505SOL    HW239975   3.273   1.141   3.845  0.7385 -1.4358  0.0311
 9506SOL     OW39976   0.122   0.744   6.299  0.0566  0.0631  0.5068
 9506SOL    HW139977   0.090   0.748   6.209  2.2004 -0.1086 -0.2483
 9506SOL    HW239978   0.097   0.655   6.324 -1.4026  0.1201 -0.7331
 9507SOL     OW39979   0.145   2.951   8.026  0.0294  0.1249 -0.0341
 9507SOL    HW139980   0.073   2.899   8.062  0.8248  0.0870  1.4870
 9507SOL    HW239981   0.095   3.028   7.999 -1.2019 -0.6365  0.0260
 9508SOL     OW39982   2.563   0.825  12.226 -0.2686 -0.5347 -0.2851
 9508SOL    HW139983   2.471   0.834  12.249 -0.2070 -0.6866  0.0152
 9508SOL    HW239984   2.587   0.915  12.203  0.5962 -0.0033  2.7001
 9509SOL     OW39985   0.344   0.698   7.791 -0.0034 -0.2966 -0.7378
 9509SOL    HW139986   0.332   0.611   7.830  1.3079 -0.6987 -1.2008
 9509SOL    HW239987   0.262   0.745   7.795  1.0814  1.6351 -1.3723
 9510SOL     OW39988   1.358   4.550   2.497  0.4541  0.3123 -0.0907
 9510SOL    HW139989   1.313   4.527   2.415  0.9806 -1.4046  0.0958
 9510SOL    HW239990   1.434   4.492   2.492  1.0105  1.1459 -1.3352
 9511SOL     OW39991   3.439   4.584   5.959  0.3666  0.3198 -0.5455
 9511SOL    HW139992   3.461   4.510   6.016  0.8345  1.9842  1.4432
 9511SOL    HW239993   3.350   4.563   5.930  0.2874  0.2521 -0.2558
 9512SOL     OW39994   2.436   3.161   4.214 -0.4691  0.1375  0.3073
 9512SOL    HW139995   2.403   3.166   4.304 -0.6106  1.1981  0.1953
 9512SOL    HW239996   2.417   3.070   4.194 -0.7883  0.1688  0.4739
 9513SOL     OW39997   1.934   3.538   9.122 -0.3660 -0.3414 -0.2986
 9513SOL    HW139998   1.843   3.510   9.112 -0.9512  1.4434  0.0405
 9513SOL    HW239999   1.948   3.504   9.211 -0.0876 -0.5114 -0.4087
 9514SOL     OW40000   1.805   1.883   4.553  0.4187 -0.0336  0.2702
 9514SOL    HW140001   1.740   1.941   4.513  1.3265  0.3663 -0.6196
 9514SOL    HW240002   1.890   1.912   4.519 -0.6452  1.3541 -1.2409
 9515SOL     OW40003   3.992   2.381  12.452 -0.1453 -0.1166  0.0647
 9515SOL    HW140004   3.953   2.441  12.514 -0.3681 -0.9919  0.7695
 9515SOL    HW240005   4.087   2.396  12.460 -0.0430  0.3364 -1.7928
 9516SOL     OW40006   0.765   1.711  10.699  0.0903  0.4280 -0.1028
 9516SOL    HW140007   0.729   1.624  10.679 -0.6597  0.7307 -0.0524
 9516SOL    HW240008   0.851   1.691  10.661  0.4593 -1.5830  1.7661
 9517SOL     OW40009   0.068   0.387   4.688  0.2665 -0.1418  0.1000
 9517SOL    HW140010   0.001   0.365   4.623 -0.3908  1.2832  0.2849
 9517SOL    HW240011   0.121   0.454   4.645  0.6514 -1.9056 -2.1720
 9518SOL     OW40012   3.463   0.232   6.167  0.0507 -0.0727 -0.5146
 9518SOL    HW140013   3.501   0.242   6.254  0.5906 -1.5448 -0.5802
 9518SOL    HW240014   3.398   0.302   6.169 -1.5345 -1.5789  1.6870
 9519SOL     OW40015   0.416   1.876  12.170 -0.5113 -0.0225  0.1921
 9519SOL    HW140016   0.483   1.832  12.119 -0.2241 -0.7041  1.1664
 9519SOL    HW240017   0.455   1.954  12.209  1.7675 -0.4023 -1.3079
 9520SOL     OW40018   0.367   0.826   4.998 -0.2956  0.0171  0.1048
 9520SOL    HW140019   0.322   0.895   5.047 -1.9411 -0.8279 -0.2196
 9520SOL    HW240020   0.444   0.813   5.053 -0.7887  0.4729  0.9044
 9521SOL     OW40021   0.179   1.602   6.585 -0.3464  0.0440  0.1610
 9521SOL    HW140022   0.131   1.581   6.665 -0.8757 -1.3561 -0.5211
 9521SOL    HW240023   0.153   1.686   6.548 -0.8591 -0.5583 -0.8468
 9522SOL     OW40024   1.645   1.156  13.910  0.3639  0.3628  1.3095
 9522SOL    HW140025   1.631   1.121  13.822 -1.5630 -0.1507  1.8217
 9522SOL    HW240026   1.577   1.113  13.963 -0.5243  0.5703  0.3539
 9523SOL     OW40027   4.624   0.563  12.241 -0.1819 -0.1929 -0.3391
 9523SOL    HW140028   4.641   0.641  12.188 -0.6815 -0.5279 -1.0082
 9523SOL    HW240029   4.649   0.584  12.331  0.5465 -0.1323 -0.5536
 9524SOL     OW40030   4.030   1.855   5.871  0.0679 -0.0832 -0.0895
 9524SOL    HW140031   4.118   1.842   5.835  0.6166 -2.1742  1.9685
 9524SOL    HW240032   4.045   1.934   5.923 -0.2966  0.1171 -0.2910
 9525SOL     OW40033   1.982   2.520   7.999  0.5413  0.0329  0.5846
 9525SOL    HW140034   2.024   2.554   7.920 -1.2722  0.3575 -0.2333
 9525SOL    HW240035   1.931   2.447   7.964 -2.5161  3.3028 -1.8515
 9526SOL     OW40036   2.634   3.361   2.091 -0.1591 -0.0936 -1.1550
 9526SOL    HW140037   2.692   3.298   2.049  0.5012  1.0452 -1.9409
 9526SOL    HW240038   2.707   3.410   2.129 -1.8295  0.7094  1.0074
 9527SOL     OW40039   0.114   2.830   4.871  0.1641 -0.7091 -0.9633
 9527SOL    HW140040   0.198   2.871   4.851 -0.4685  0.1379 -1.8957
 9527SOL    HW240041   0.081   2.787   4.792 -1.9837 -0.8535  0.0031
 9528SOL     OW40042   0.592   4.168  10.603  0.4619  0.0311 -0.2581
 9528SOL    HW140043   0.673   4.118  10.590  0.6685  0.3189 -0.0835
 9528SOL    HW240044   0.594   4.181  10.697  1.2017 -0.5917 -0.1850
 9529SOL     OW40045   3.058   1.241   7.721 -0.2582 -0.5120  0.1284
 9529SOL    HW140046   3.107   1.210   7.645 -0.6674  0.2593 -0.4417
 9529SOL    HW240047   3.050   1.335   7.704  1.5721 -0.1998  1.0278
 9530SOL     OW40048   1.412   2.852   5.814 -0.0074 -0.4057 -0.2002
 9530SOL    HW140049   1.320   2.880   5.811 -0.3174 -1.4658 -0.6128
 9530SOL    HW240050   1.397   2.757   5.819 -0.9923 -0.1188  2.2432
 9531SOL     OW40051   0.370   1.346   1.104 -0.0494  0.2708 -0.1330
 9531SOL    HW140052   0.294   1.372   1.052  0.8681  1.2413 -1.0069
 9531SOL    HW240053   0.366   1.417   1.168  0.5355  0.8321 -0.7099
 9532SOL     OW40054   1.549   2.695  16.062 -0.1178 -0.1212  0.5016
 9532SOL    HW140055   1.623   2.733  16.014 -1.1607 -0.0087 -1.0170
 9532SOL    HW240056   1.548   2.765  16.127  2.8935 -0.2684  0.7133
 9533SOL     OW40057   3.691   1.003  13.263 -0.3192  0.2053 -0.2679
 9533SOL    HW140058   3.666   1.029  13.352  0.8384  2.1805 -0.5207
 9533SOL    HW240059   3.787   1.011  13.260 -0.3311  1.9760  3.5103
 9534SOL     OW40060   3.479   4.541   4.621  0.0918 -0.1726 -0.0024
 9534SOL    HW140061   3.524   4.601   4.560  2.8053 -0.1906  1.9765
 9534SOL    HW240062   3.495   4.577   4.708  0.9538  0.7130 -0.5156
 9535SOL     OW40063   1.189   2.559  12.303 -0.2020 -0.1498  0.4071
 9535SOL    HW140064   1.127   2.487  12.294  1.1318 -1.1115 -0.9567
 9535SOL    HW240065   1.149   2.619  12.240  0.1110  0.0483  0.3940
 9536SOL     OW40066   1.586   2.653   7.431 -0.2555 -0.0561  0.4631
 9536SOL    HW140067   1.615   2.606   7.509 -0.1161 -2.8894 -1.2883
 9536SOL    HW240068   1.584   2.584   7.365 -1.4302  0.5478 -0.1287
 9537SOL     OW40069   0.857   2.702  12.970 -0.0978 -0.2428  0.1353
 9537SOL    HW140070   0.930   2.670  13.023 -1.0996 -0.4813  1.3651
 9537SOL    HW240071   0.817   2.766  13.029 -0.2849 -0.6402  0.4367
 9538SOL     OW40072   3.075   3.086   1.141 -0.5775  0.0773 -0.0102
 9538SOL    HW140073   3.126   3.133   1.207 -0.1556  1.5127 -1.3851
 9538SOL    HW240074   3.110   2.997   1.149  1.1639  0.7022 -0.8026
 9539SOL     OW40075   3.895   0.869   3.592 -0.1725  0.1669  0.3670
 9539SOL    HW140076   3.952   0.838   3.662 -0.3654 -0.0416  0.4320
 9539SOL    HW240077   3.958   0.885   3.522 -0.6048  0.8708  0.1403
 9540SOL     OW40078   0.793   0.270   4.928 -0.3195  0.1169 -0.0498
 9540SOL    HW140079   0.717   0.329   4.922 -0.2812 -0.0049 -1.8241
 9540SOL    HW240080   0.863   0.318   4.883 -0.3240 -0.6045 -0.8407
 9541SOL     OW40081   3.649   2.260   8.048 -0.1423  0.5768 -0.0633
 9541SOL    HW140082   3.630   2.350   8.021  2.7420  0.6613 -1.8102
 9541SOL    HW240083   3.569   2.211   8.031  0.2904 -0.6195  1.3083
 9542SOL     OW40084   1.988   0.568   5.416 -0.5332  0.5461 -0.1765
 9542SOL    HW140085   2.028   0.485   5.392 -1.1249  0.5459 -1.1342
 9542SOL    HW240086   2.034   0.624   5.353  1.1044  0.0558  0.5745
 9543SOL     OW40087   4.317   3.245   9.182 -0.5332  0.1414  0.0450
 9543SOL    HW140088   4.234   3.259   9.136  0.0438  2.4263 -0.3001
 9543SOL    HW240089   4.367   3.204   9.112 -1.2247  3.0393 -2.1222
 9544SOL     OW40090   1.782   4.558   9.395  0.2611 -0.7646  1.0262
 9544SOL    HW140091   1.813   4.502   9.466  2.0290  1.6297  2.1437
 9544SOL    HW240092   1.744   4.634   9.440 -0.8405 -0.0906 -1.0452
 9545SOL     OW40093   0.298   2.447   8.138 -0.4191 -0.2965 -0.4738
 9545SOL    HW140094   0.250   2.457   8.220 -0.6338 -0.3808 -0.5887
 9545SOL    HW240095   0.222   2.445   8.080  0.3939  2.0636 -1.6195
 9546SOL     OW40096   1.245   1.129   4.122  0.0723 -0.0306  0.1016
 9546SOL    HW140097   1.216   1.199   4.180 -2.0133 -0.2888 -0.6645
 9546SOL    HW240098   1.165   1.092   4.085  0.1728  1.2139 -1.3340
 9547SOL     OW40099   2.657   1.250  11.060  0.1743  0.6202 -0.5160
 9547SOL    HW140100   2.572   1.292  11.059  0.0423  0.3511 -0.8059
 9547SOL    HW240101   2.660   1.216  10.970  0.9491 -0.1470 -0.2115
 9548SOL     OW40102   3.758   1.536   0.673 -0.3421  0.1536  0.3160
 9548SOL    HW140103   3.819   1.503   0.739  1.7809  0.1265 -1.6441
 9548SOL    HW240104   3.741   1.622   0.713  1.0761 -0.5862  2.5132
 9549SOL     OW40105   3.859   0.085   8.844 -0.1629  0.5708  0.2151
 9549SOL    HW140106   3.893   0.098   8.932 -0.1220 -2.2651  0.6272
 9549SOL    HW240107   3.923   0.017   8.820 -3.0051 -2.0160 -0.0531
 9550SOL     OW40108   4.286   2.373  13.625 -0.1590  0.2832  0.3132
 9550SOL    HW140109   4.229   2.437  13.583 -0.9204 -0.6431 -0.0724
 9550SOL    HW240110   4.313   2.320  13.550 -3.8929  1.0779 -1.5579
 9551SOL     OW40111   3.247   0.411   6.256  0.0415  0.3505 -0.1248
 9551SOL    HW140112   3.188   0.345   6.293 -0.6052  0.8796 -0.2188
 9551SOL    HW240113   3.182   0.481   6.257 -1.4751 -1.0997  3.2329
 9552SOL     OW40114   3.627   1.005   2.682  0.1214 -0.3991  0.0509
 9552SOL    HW140115   3.559   1.037   2.741  0.1559  0.9591 -0.6316
 9552SOL    HW240116   3.581   0.933   2.640  1.3601 -0.9048 -0.4590
 9553SOL     OW40117   2.985   1.009  11.771  0.5418  0.2928 -0.4746
 9553SOL    HW140118   3.058   0.952  11.747  0.0186 -0.9516  0.9076
 9553SOL    HW240119   2.999   1.101  11.750  0.6419  0.4614  0.3560
 9554SOL     OW40120   2.436   1.204  12.581 -0.2456  0.2529  0.0732
 9554SOL    HW140121   2.492   1.127  12.574  0.3760  0.8695 -1.5686
 9554SOL    HW240122   2.500   1.275  12.586 -1.3858  1.1729  1.7927
 9555SOL     OW40123   1.853   1.383   6.613  0.4670 -0.1715 -0.6559
 9555SOL    HW140124   1.796   1.457   6.635  2.4177  1.4120 -1.0106
 9555SOL    HW240125   1.938   1.415   6.643  0.6868 -1.4510  0.0722
 9556SOL     OW40126   1.119   4.382   9.417 -0.4884 -0.1295 -0.2642
 9556SOL    HW140127   1.196   4.427   9.382 -0.6694  0.8596  0.6150
 9556SOL    HW240128   1.139   4.302   9.464 -0.2331 -0.2490 -0.5754
 9557SOL     OW40129   4.259   0.595   6.998 -0.2093  0.0624 -0.3022
 9557SOL    HW140130   4.256   0.592   7.094  1.7685  0.3731 -0.2176
 9557SOL    HW240131   4.350   0.621   6.982 -0.2904  1.4152  1.3391
 9558SOL     OW40132   1.343   2.634   8.745  0.2088 -0.1461  0.1742
 9558SOL    HW140133   1.260   2.681   8.743  0.3902  0.1800  0.2156
 9558SOL    HW240134   1.378   2.673   8.825 -2.3283 -0.2983  1.3329
 9559SOL     OW40135   1.855   4.365   9.596 -0.5900  0.1606 -0.4534
 9559SOL    HW140136   1.903   4.394   9.674  1.8328 -2.0262 -1.1704
 9559SOL    HW240137   1.845   4.271   9.610 -1.0160  0.2855  0.1158
 9560SOL     OW40138   1.337   0.491   8.522  0.1581  0.4938 -0.0328
 9560SOL    HW140139   1.372   0.531   8.601 -1.0046 -0.2133  0.8458
 9560SOL    HW240140   1.381   0.545   8.456  0.0467  2.5108  1.5178
 9561SOL     OW40141   0.284   1.573  13.167 -0.1711  0.5795  0.0693
 9561SOL    HW140142   0.228   1.530  13.231 -0.9390 -0.4112 -1.2707
 9561SOL    HW240143   0.267   1.509  13.098 -0.4013  0.1995  0.4812
 9562SOL     OW40144   1.825   2.099   9.731 -0.0395 -0.7196  0.4031
 9562SOL    HW140145   1.894   2.166   9.728 -1.9960  1.2439 -0.5706
 9562SOL    HW240146   1.791   2.103   9.642 -0.1380  2.0456  0.5670
 9563SOL     OW40147   2.596   3.588  13.083  0.0678  0.9079 -0.3155
 9563SOL    HW140148   2.594   3.667  13.137 -1.7077  1.2716 -0.9301
 9563SOL    HW240149   2.556   3.616  13.001 -0.4291 -1.1284 -0.7826
 9564SOL     OW40150   3.977   4.270  17.445  0.0974  0.8220  0.0545
 9564SOL    HW140151   3.929   4.346  17.476 -0.7838 -0.1959  1.2040
 9564SOL    HW240152   3.990   4.221  17.526  1.7481  0.1649 -0.6227
 9565SOL     OW40153   0.586   4.689  10.448 -0.4764  0.2922  0.0903
 9565SOL    HW140154   0.505   4.665  10.404 -0.7931  1.0115  0.2809
 9565SOL    HW240155   0.624   0.013  10.376 -0.8832  0.4247 -0.0289
   4.72620   4.72620  17.70588
