Membrane in water
40155
    1TCq1    O1    1   3.939   1.123  10.843  0.6584  0.0238  0.1649
    1TCq1    C1    2   3.901   1.029  10.923  0.1861 -0.0708  0.0515
    1TCq1    O2    3   3.790   1.016  10.968  0.2990 -0.1376 -0.0985
    1TCq1    C2    4   4.005   0.953  10.988  0.1780  0.2247  0.4838
    1TCq1    C3    5   4.134   0.991  10.981 -0.2273 -0.3706 -0.2568
    1TCq1    C4    6   4.222   0.918  11.059 -0.3290 -0.1269  0.4010
    1TCq1    C5    7   4.179   0.816  11.137 -0.2699 -0.5409  0.3525
    1TCq1    C6    8   4.052   0.769  11.126  0.2462 -0.2808 -0.2460
    1TCq1    C7    9   3.965   0.846  11.060 -0.1648  0.2627  0.4531
    1TCq1    C8   10   3.998   0.680  11.229  1.0054 -0.2454 -0.3124
    1TCq1    O4   11   4.052   0.672  11.337 -0.5168 -0.0918 -0.1665
    1TCq1    C9   12   4.364   0.943  11.042 -0.6614  0.3503 -0.4335
    1TCq1    O5   13   4.402   1.033  10.966 -0.3252  0.0151  0.2654
    1TCq1    O6   14   4.444   0.860  11.088  0.5431  0.3846  0.1605
    1TCq1    H1   15   4.033   1.134  10.819  0.0547 -0.6372 -2.5008
    1TCq1    H2   16   4.177   1.079  10.934 -1.3089 -0.8332 -2.0900
    1TCq1    H3   17   4.244   0.760  11.203  1.8290  0.9711 -0.4641
    1TCq1    H4   18   3.858   0.833  11.073 -0.2726 -0.0494 -0.7554
    2MPD2     C   19   3.621   0.416  11.446 -0.1915 -0.7685 -0.3729
    2MPD2    C1   20   3.713   0.500  11.503 -0.2512  0.2370 -0.0960
    2MPD2    C2   21   3.801   0.560  11.417 -0.7476 -0.6085 -0.2313
    2MPD2    C3   22   3.802   0.546  11.281 -0.3885  0.4942 -0.6204
    2MPD2    C4   23   3.702   0.463  11.232 -0.7220 -0.3064  0.4599
    2MPD2    C5   24   3.615   0.391  11.314 -0.2572  0.2983 -0.1317
    2MPD2     H   25   3.878   0.615  11.470 -1.6343  0.2603  0.1682
    2MPD2    H1   26   3.690   0.449  11.125  0.8624  0.2955  0.2033
    2MPD2    H2   27   3.549   0.360  11.505 -0.9949  0.5368 -0.0962
    2MPD2    H3   28   3.535   0.331  11.272  0.9090 -2.8210  2.0983
    2MPD2     N   29   3.887   0.609  11.191  0.0962 -0.0452  0.2387
    2MPD2    H5   30   3.871   0.602  11.092  3.1872  0.4614 -0.2934
    2MPD2    N1   31   3.727   0.532  11.640 -0.0806 -0.5965 -0.1571
    2MPD2    H7   32   3.814   0.580  11.662 -0.1094 -0.4978 -0.2612
    3TCq1    O1   33   3.120   1.783  10.659 -0.5341 -0.2161  0.6257
    3TCq1    C1   34   3.182   1.891  10.608  0.1761 -0.0319 -0.0328
    3TCq1    O2   35   3.217   1.907  10.490 -0.3012 -0.0802 -0.4827
    3TCq1    C2   36   3.210   2.002  10.701  0.6960  0.5680 -0.0020
    3TCq1    C3   37   3.299   2.098  10.659  0.3832 -0.7731  0.4800
    3TCq1    C4   38   3.302   2.214  10.725 -0.6708 -0.3648  0.1125
    3TCq1    C5   39   3.221   2.236  10.838 -0.1588  0.5234 -0.2548
    3TCq1    C6   40   3.145   2.133  10.882  0.1504  0.0957  0.2750
    3TCq1    C7   41   3.137   2.010  10.816 -0.4755 -0.2552  0.4084
    3TCq1    C8   42   3.052   2.164  10.991 -0.3690 -0.4192 -0.2130
    3TCq1    O4   43   2.984   2.075  11.041  0.0915 -0.5160  0.1957
    3TCq1    C9   44   3.391   2.320  10.690 -0.6612  0.2382 -0.7842
    3TCq1    O5   45   3.478   2.302  10.593 -0.0237  0.0668 -0.4098
    3TCq1    O6   46   3.369   2.434  10.743  0.5343 -0.4491 -0.2623
    3TCq1    H1   47   3.145   1.779  10.754  0.7329 -0.7591  0.2642
    3TCq1    H2   48   3.347   2.092  10.562 -2.7459 -0.6956 -1.0718
    3TCq1    H3   49   3.248   2.322  10.898  0.5674  0.5197 -0.5698
    3TCq1    H4   50   3.067   1.930  10.840  0.5796 -1.1613  0.4648
    4MPD2     C   51   2.780   2.498  11.279 -0.5234 -0.8010  0.7824
    4MPD2    C1   52   2.830   2.563  11.164  0.3465  0.0644  0.2018
    4MPD2    C2   53   2.912   2.495  11.081 -0.0711  0.2526 -0.2161
    4MPD2    C3   54   2.945   2.360  11.102 -0.8235 -0.0350  0.0418
    4MPD2    C4   55   2.903   2.297  11.218  0.1813 -0.1761  0.0744
    4MPD2    C5   56   2.826   2.367  11.304 -0.2540 -0.8484  0.1879
    4MPD2     H   57   2.952   2.534  10.988 -2.7571 -1.0098 -1.8958
    4MPD2    H1   58   2.922   2.196  11.253 -2.4519 -0.3620  1.0157
    4MPD2    H2   59   2.716   2.546  11.352 -1.6569  0.8658 -1.3141
    4MPD2    H3   60   2.804   2.330  11.403 -0.0768 -1.7676 -0.1107
    4MPD2     N   61   3.035   2.297  11.010  0.1317  0.5075 -0.2571
    4MPD2    H5   62   3.078   2.365  10.948  1.6246  0.0571  0.2843
    4MPD2    N1   63   2.780   2.686  11.117  0.0182  0.1745  0.0705
    4MPD2    H7   64   2.817   2.721  11.029 -0.0318  0.2272  0.0703
    5TCq1    O1   65   3.694   4.290   9.575 -0.2617 -0.4530 -0.5494
    5TCq1    C1   66   3.675   4.242   9.700  0.0079  0.2290  0.0666
    5TCq1    O2   67   3.718   4.301   9.800  0.1036  0.2279 -0.2264
    5TCq1    C2   68   3.664   4.100   9.689 -0.1601 -0.3752 -0.0898
    5TCq1    C3   69   3.595   4.048   9.587 -0.3276  0.0869 -0.8663
    5TCq1    C4   70   3.591   3.916   9.569 -0.5125  0.0362 -0.7758
    5TCq1    C5   71   3.663   3.842   9.659  0.3713  0.0197  0.0845
    5TCq1    C6   72   3.749   3.897   9.749 -0.4480  0.4843 -0.9099
    5TCq1    C7   73   3.747   4.034   9.768 -0.3352 -0.1775 -0.2224
    5TCq1    C8   74   3.826   3.801   9.833 -0.0431  0.2119 -0.1430
    5TCq1    O4   75   3.785   3.687   9.830  0.2663 -1.2209 -0.1334
    5TCq1    C9   76   3.515   3.852   9.465 -0.3620 -0.7186  0.4502
    5TCq1    O5   77   3.524   3.727   9.456 -0.0639  0.5058 -0.0656
    5TCq1    O6   78   3.422   3.923   9.407  0.2447 -0.2816  0.0640
    5TCq1    H1   79   3.689   4.215   9.512  1.5863 -1.5753  0.6425
    5TCq1    H2   80   3.527   4.107   9.526  0.6529  2.8408  0.6934
    5TCq1    H3   81   3.639   3.736   9.660 -2.0679  0.5543 -1.5718
    5TCq1    H4   82   3.811   4.081   9.841  1.4080  0.7817 -2.3647
    6MPD2     C   83   4.108   3.888  10.037 -0.9018  0.2796  0.3822
    6MPD2    C1   84   4.021   3.804   9.975  0.1926  0.2060  0.3692
    6MPD2    C2   85   4.033   3.672  10.003 -0.7724  1.0202  0.2707
    6MPD2    C3   86   4.142   3.617  10.079  0.2160 -0.2748 -0.3669
    6MPD2    C4   87   4.237   3.705  10.118 -0.7447  0.0098 -0.3379
    6MPD2    C5   88   4.215   3.839  10.106 -0.7122  0.3079  0.0817
    6MPD2     H   89   3.953   3.610   9.962  1.2550 -0.4143 -1.5288
    6MPD2    H1   90   4.324   3.669  10.172  0.2578  1.2870 -1.1011
    6MPD2    H2   91   4.102   3.994  10.016 -3.9950  0.0488  0.1036
    6MPD2    H3   92   4.272   3.909  10.166  0.9052 -1.0168  0.1032
    6MPD2     N   93   4.164   3.486  10.122 -0.0877 -0.1831 -0.5552
    6MPD2    H5   94   4.244   3.455  10.177 -1.9617 -0.4374  2.0045
    6MPD2    N1   95   3.924   3.866   9.902 -0.0221 -0.0524 -0.2194
    6MPD2    H7   96   3.930   3.967   9.904 -1.1242 -0.0102  0.8640
    7TCq1    O1   97   1.026   4.014  13.719 -0.2510 -0.0905  0.8450
    7TCq1    C1   98   0.905   4.005  13.650 -0.5389  0.4831  0.1767
    7TCq1    O2   99   0.841   4.101  13.602 -0.8309 -0.5821 -0.0589
    7TCq1    C2  100   0.886   3.871  13.607  0.2850 -0.3010  0.2025
    7TCq1    C3  101   0.759   3.841  13.567  0.2864 -0.1766 -0.1794
    7TCq1    C4  102   0.736   3.711  13.523 -0.4489 -0.0242 -0.3304
    7TCq1    C5  103   0.833   3.616  13.533  0.2111  0.1168  0.3912
    7TCq1    C6  104   0.958   3.648  13.578 -0.2675 -0.1564  0.0496
    7TCq1    C7  105   0.989   3.780  13.610 -0.5666  0.1903  0.1986
    7TCq1    C8  106   1.044   3.535  13.605 -0.7954 -0.5573 -0.3627
    7TCq1    O4  107   0.996   3.423  13.606 -0.0581  0.2381 -0.4521
    7TCq1    C9  108   0.615   3.673  13.462  0.2974 -0.3492 -0.0953
    7TCq1    O5  109   0.613   3.552  13.434 -0.5576  0.2113  0.0661
    7TCq1    O6  110   0.516   3.748  13.453 -0.0084  0.1900 -0.0473
    7TCq1    H1  111   1.065   3.939  13.769  1.2783 -0.2231 -0.5524
    7TCq1    H2  112   0.674   3.908  13.558  0.5858  0.5820  2.5402
    7TCq1    H3  113   0.814   3.511  13.516 -0.0747  0.2078  0.1435
    7TCq1    H4  114   1.094   3.803  13.628 -0.2447  1.0250 -2.7736
    8MPD2     C  115   1.497   3.288  13.631 -0.5675 -0.4406  0.2660
    8MPD2    C1  116   1.370   3.243  13.660 -0.4557  0.0834 -0.0818
    8MPD2    C2  117   1.266   3.339  13.654  0.3196  0.7379 -0.3525
    8MPD2    C3  118   1.283   3.472  13.614 -0.3256  0.0669  0.0071
    8MPD2    C4  119   1.414   3.512  13.595 -0.0160 -0.0691  0.3174
    8MPD2    C5  120   1.514   3.417  13.592  0.3249  0.4388 -0.3655
    8MPD2     H  121   1.167   3.302  13.676  1.0529 -0.1364  1.4242
    8MPD2    H1  122   1.422   3.618  13.574  0.2242 -0.4878 -1.6206
    8MPD2    H2  123   1.589   3.232  13.627 -0.8828 -0.7386 -3.0599
    8MPD2    H3  124   1.611   3.452  13.560 -0.6449  0.1825 -3.5996
    8MPD2     N  125   1.178   3.564  13.602 -0.0877  0.3981  0.5654
    8MPD2    H5  126   1.205   3.661  13.599 -0.5510  0.4404 -2.2666
    8MPD2    N1  127   1.359   3.104  13.679  0.7575 -0.0705  0.3159
    8MPD2    H7  128   1.443   3.049  13.689  1.8080  1.5297  0.2609
    9TCq1    O1  129   3.378   1.773  10.872 -0.0080 -0.2300 -0.4225
    9TCq1    C1  130   3.479   1.830  10.947  0.3786 -0.0514 -0.4548
    9TCq1    O2  131   3.472   1.855  11.064 -0.5796 -0.7405  0.3678
    9TCq1    C2  132   3.601   1.796  10.878 -0.9962  0.6217  1.1934
    9TCq1    C3  133   3.612   1.821  10.745  0.0951 -0.0440  0.7515
    9TCq1    C4  134   3.741   1.795  10.691 -0.8158  0.6228 -0.3764
    9TCq1    C5  135   3.837   1.736  10.772 -0.6080  0.0959  0.4386
    9TCq1    C6  136   3.816   1.712  10.900 -0.6623 -0.1142  0.1494
    9TCq1    C7  137   3.693   1.736  10.955  0.7369  0.2668  0.0980
    9TCq1    C8  138   3.928   1.680  10.984 -0.3247 -0.2215 -0.5110
    9TCq1    O4  139   4.034   1.680  10.921 -0.4245 -0.1453 -0.2260
    9TCq1    C9  140   3.781   1.841  10.566  0.1183  0.7474  0.0271
    9TCq1    O5  141   3.857   1.769  10.497 -0.2148 -0.0442 -0.6365
    9TCq1    O6  142   3.697   1.923  10.515 -0.0331  0.3081 -0.1562
    9TCq1    H1  143   3.415   1.719  10.799  0.0659  0.5037 -0.9303
    9TCq1    H2  144   3.535   1.884  10.700  1.4915  0.0365 -1.5222
    9TCq1    H3  145   3.936   1.730  10.730 -0.4457 -1.2573  1.0002
    9TCq1    H4  146   3.666   1.728  11.060  0.4937 -0.5448 -0.0329
   10MPD2     C  147   4.126   1.626  11.203  0.6290 -0.4452  0.4585
   10MPD2    C1  148   3.992   1.643  11.224 -0.5366 -0.8540  0.3037
   10MPD2    C2  149   3.953   1.640  11.357  0.1540  0.3796  0.2631
   10MPD2    C3  150   4.041   1.641  11.460  0.1716  0.3568 -0.2750
   10MPD2    C4  151   4.175   1.633  11.437 -1.3787 -0.8444  0.4201
   10MPD2    C5  152   4.214   1.613  11.310 -0.2294  0.3892 -1.0362
   10MPD2     H  153   3.848   1.635  11.384 -0.5166  3.0974 -1.8583
   10MPD2    H1  154   4.246   1.631  11.519 -0.6629 -0.7479 -0.1981
   10MPD2    H2  155   4.158   1.625  11.099  2.1877 -0.1881  0.9224
   10MPD2    H3  156   4.321   1.599  11.300 -0.1587  0.1153  0.1421
   10MPD2     N  157   3.980   1.634  11.585  0.3307 -0.3589 -0.3269
   10MPD2    H5  158   3.879   1.632  11.594  0.0979 -0.3173 -2.8606
   10MPD2    N1  159   3.901   1.667  11.120 -0.1746  0.4514 -0.4520
   10MPD2    H7  160   3.809   1.693  11.153 -0.5560 -0.7732 -0.5392
   11TCq1    O1  161   0.420   2.377  14.464 -0.2204 -0.1378 -0.4176
   11TCq1    C1  162   0.478   2.255  14.438  0.4062 -0.5722 -0.3057
   11TCq1    O2  163   0.558   2.204  14.512  0.2204  0.5619 -0.0519
   11TCq1    C2  164   0.393   2.174  14.352 -0.3722 -0.6407  0.0190
   11TCq1    C3  165   0.454   2.067  14.295  0.5642 -0.7009 -0.3293
   11TCq1    C4  166   0.384   1.972  14.228  0.0556 -0.5555  0.6608
   11TCq1    C5  167   0.244   1.978  14.229  0.0564 -0.2969 -0.3475
   11TCq1    C6  168   0.181   2.092  14.294 -0.0647 -0.4499 -0.2473
   11TCq1    C7  169   0.258   2.182  14.355 -0.2241  0.1097  0.0611
   11TCq1    C8  170   0.039   2.121  14.271  0.4099 -1.1376  0.3808
   11TCq1    O4  171   4.724   2.233  14.298  0.6344 -0.0365 -0.1910
   11TCq1    C9  172   0.451   1.861  14.161 -0.5895 -0.9484 -0.2493
   11TCq1    O5  173   0.375   1.772  14.116 -0.2273 -0.0044 -0.5602
   11TCq1    O6  174   0.568   1.879  14.127 -0.1163  0.1428  0.2149
   11TCq1    H1  175   0.368   2.408  14.387  0.5614  1.6633 -0.2318
   11TCq1    H2  176   0.561   2.056  14.311  0.7417 -0.1660 -1.1641
   11TCq1    H3  177   0.184   1.906  14.174  1.4702 -2.3858  0.8272
   11TCq1    H4  178   0.202   2.249  14.420 -2.5106 -0.7454 -1.0183
   12MPD2     C  179   4.496   2.153  14.142 -0.4387  0.5585 -0.4476
   12MPD2    C1  180   4.564   2.028  14.155 -0.0750  0.0271 -0.6074
   12MPD2    C2  181   4.499   1.920  14.107 -0.3292  0.0781 -0.0592
   12MPD2    C3  182   4.391   1.936  14.023  0.4424  0.6045 -0.6876
   12MPD2    C4  183   4.331   2.057  14.013  0.5393  0.1790  0.1267
   12MPD2    C5  184   4.372   2.168  14.081 -0.2130 -0.1025 -0.1480
   12MPD2     H  185   4.536   1.819  14.119 -0.8768 -0.4510 -2.9694
   12MPD2    H1  186   4.248   2.070  13.945 -0.6420 -0.9744  1.3592
   12MPD2    H2  187   4.543   2.244  14.175  0.1563 -0.5132  1.6596
   12MPD2    H3  188   4.326   2.265  14.069  2.4425  1.2218  0.3734
   12MPD2     N  189   4.327   1.833  13.950 -0.5085 -0.0230 -0.4451
   12MPD2    H5  190   4.244   1.858  13.897 -1.7813  0.0768  1.5917
   12MPD2    N1  191   4.693   2.015  14.210  0.1345  0.2670  1.0029
   12MPD2    H7  192   0.010   1.923  14.201 -1.2390 -0.1173 -1.2868
   13TCq1    O1  193   4.229   1.254  11.469 -0.0673 -0.0800 -0.5166
   13TCq1    C1  194   4.301   1.293  11.366  0.3582 -0.0602  1.1626
   13TCq1    O2  195   4.399   1.367  11.361 -0.2543 -0.3390  0.3920
   13TCq1    C2  196   4.223   1.282  11.249  0.7745  0.1677 -0.4585
   13TCq1    C3  197   4.284   1.310  11.133  0.0359  0.3532 -0.2069
   13TCq1    C4  198   4.218   1.326  11.024  0.0672 -0.5001 -0.2950
   13TCq1    C5  199   4.084   1.323  11.035 -0.1168  0.6558  0.4490
   13TCq1    C6  200   4.013   1.295  11.155 -0.6066 -0.8858  0.4553
   13TCq1    C7  201   4.087   1.269  11.262 -0.3679 -0.3521  0.1871
   13TCq1    C8  202   3.866   1.314  11.160 -0.3122 -0.1391 -0.0240
   13TCq1    O4  203   3.819   1.326  11.274  0.2041 -0.1794  0.9783
   13TCq1    C9  204   4.289   1.343  10.901 -1.0466  0.0403 -0.3115
   13TCq1    O5  205   4.415   1.345  10.915 -0.1729  0.6953 -0.2087
   13TCq1    O6  206   4.218   1.360  10.799 -0.6010 -0.0724 -0.6970
   13TCq1    H1  207   4.168   1.179  11.451  0.9268 -1.2555  1.0344
   13TCq1    H2  208   4.391   1.301  11.123  0.1167 -0.2039  1.1985
   13TCq1    H3  209   4.039   1.358  10.943  1.1485 -1.3192 -0.9325
   13TCq1    H4  210   4.034   1.261  11.356 -0.0372 -0.7972  0.3367
   14MPD2     C  211   3.624   1.367  10.900 -0.0292 -0.2992 -0.6048
   14MPD2    C1  212   3.680   1.391  11.019  0.1336 -0.0140 -0.0215
   14MPD2    C2  213   3.615   1.462  11.115 -0.0839  0.4798 -0.5401
   14MPD2    C3  214   3.482   1.503  11.090 -0.2721 -0.0906  0.8041
   14MPD2    C4  215   3.414   1.456  10.974  0.3334 -0.4183  0.1752
   14MPD2    C5  216   3.494   1.406  10.873  0.4192  0.1261 -0.1567
   14MPD2     H  217   3.661   1.477  11.212  0.1903  0.8243 -0.7211
   14MPD2    H1  218   3.314   1.488  10.948  0.7460 -0.3366 -1.2835
   14MPD2    H2  219   3.671   1.300  10.829 -1.2152 -1.8327  0.0425
   14MPD2    H3  220   3.456   1.385  10.773  0.6000 -0.0949 -0.1798
   14MPD2     N  221   3.418   1.587  11.177 -0.1453  0.4670  0.5463
   14MPD2    H5  222   3.482   1.631  11.242  1.2519 -2.2682  1.0077
   14MPD2    N1  223   3.811   1.330  11.035 -0.0316 -0.5880  0.1181
   14MPD2    H7  224   3.862   1.276  10.966 -1.5565 -0.3076 -1.2327
   15TCq1    O1  225   0.154   0.761   1.739 -0.0452 -0.7014  0.1588
   15TCq1    C1  226   0.235   0.679   1.674  0.3577 -0.1681  0.3552
   15TCq1    O2  227   0.214   0.620   1.569 -0.5884 -0.2209  0.1166
   15TCq1    C2  228   0.352   0.658   1.747  0.9153 -0.0787  0.1952
   15TCq1    C3  229   0.351   0.656   1.882 -0.1931 -0.3815  1.5067
   15TCq1    C4  230   0.480   0.641   1.936  0.2687  0.0481 -0.5320
   15TCq1    C5  231   0.598   0.634   1.868 -0.3423 -0.0874  0.5898
   15TCq1    C6  232   0.583   0.626   1.735  0.3460 -0.0766  0.6813
   15TCq1    C7  233   0.461   0.636   1.675 -0.1095 -0.2737 -0.3457
   15TCq1    C8  234   0.700   0.601   1.658 -0.4024  0.0055 -0.3839
   15TCq1    O4  235   0.807   0.616   1.717 -0.0542 -0.3690  0.2776
   15TCq1    C9  236   0.484   0.635   2.085 -0.4137  0.8436 -0.0589
   15TCq1    O5  237   0.603   0.637   2.137  0.0331  0.3423  0.7605
   15TCq1    O6  238   0.371   0.631   2.152  0.5468 -0.1470 -0.3769
   15TCq1    H1  239   0.204   0.809   1.808  0.7940 -1.3709  0.0204
   15TCq1    H2  240   0.261   0.657   1.942 -0.8328  3.0900  0.4730
   15TCq1    H3  241   0.692   0.648   1.921 -0.2522 -1.0698  0.6851
   15TCq1    H4  242   0.451   0.652   1.568 -0.1178  0.6212 -0.2109
   16MPD2     C  243   0.670   0.492   1.311 -0.1398  0.4356  0.0792
   16MPD2    C1  244   0.746   0.530   1.419  0.1113 -1.2639  0.0474
   16MPD2    C2  245   0.878   0.541   1.413  0.1182 -0.5885  0.3902
   16MPD2    C3  246   0.947   0.491   1.308  0.2545  0.3396  0.0839
   16MPD2    C4  247   0.871   0.464   1.194  0.1791  1.0006 -0.1123
   16MPD2    C5  248   0.732   0.467   1.190  0.9263  0.4776  0.3036
   16MPD2     H  249   0.932   0.580   1.498 -0.7281 -1.9334  1.5370
   16MPD2    H1  250   0.910   0.440   1.096  0.3412  2.1326 -0.3244
   16MPD2    H2  251   0.562   0.496   1.323 -0.1677  0.8661 -0.3003
   16MPD2    H3  252   0.684   0.452   1.094  0.6457 -1.2241  0.7027
   16MPD2     N  253   1.086   0.473   1.325 -0.2010 -0.4799  0.3622
   16MPD2    H5  254   1.131   0.496   1.413 -2.0144  1.3936  0.7844
   16MPD2    N1  255   0.665   0.555   1.534  0.5838 -0.1917 -0.0721
   16MPD2    H7  256   0.566   0.537   1.526  0.7320 -0.7699 -0.5377
   17TCq1    O1  257   3.526   0.971  11.015  0.1349 -0.5433  0.9239
   17TCq1    C1  258   3.468   1.036  10.918  0.6045  0.4336  0.5925
   17TCq1    O2  259   3.373   1.114  10.934 -0.3851  0.1248 -0.8507
   17TCq1    C2  260   3.525   0.994  10.786  0.0822 -0.7799  0.0905
   17TCq1    C3  261   3.531   1.088  10.686  0.5454  0.3973  0.0433
   17TCq1    C4  262   3.596   1.066  10.574  0.1762 -0.8087  0.0149
   17TCq1    C5  263   3.669   0.945  10.561 -0.3444  0.4345 -0.4190
   17TCq1    C6  264   3.666   0.855  10.663  0.6086 -0.3134  0.2420
   17TCq1    C7  265   3.588   0.875  10.778  0.3165 -0.1197 -0.0028
   17TCq1    C8  266   3.743   0.740  10.656 -0.1116 -0.2063  0.4972
   17TCq1    O4  267   3.704   0.646  10.722  0.5555  0.4428 -0.1671
   17TCq1    C9  268   3.610   1.170  10.481  0.3112  0.6698  0.0355
   17TCq1    O5  269   3.696   1.154  10.393 -0.3412  0.1024  0.0079
   17TCq1    O6  270   3.548   1.274  10.501 -0.1132  0.0376 -0.2153
   17TCq1    H1  271   3.611   0.933  10.983 -0.4535 -2.0159  1.0912
   17TCq1    H2  272   3.470   1.177  10.686 -0.2353 -0.1492 -1.4486
   17TCq1    H3  273   3.734   0.935  10.475 -0.0873  1.1082 -0.3007
   17TCq1    H4  274   3.565   0.799  10.852  0.2250  0.6048  0.7052
   18MPD2     C  275   3.940   0.534  10.591  0.3572 -0.0009  0.3863
   18MPD2    C1  276   3.965   0.664  10.565  0.2266 -0.1031  0.3991
   18MPD2    C2  277   4.088   0.707  10.520  0.3943  0.1723 -0.1777
   18MPD2    C3  278   4.191   0.618  10.492 -0.1384 -0.1546  0.3812
   18MPD2    C4  279   4.165   0.480  10.513 -0.8199  0.4654 -0.0061
   18MPD2    C5  280   4.038   0.443  10.568 -0.4425  0.4071 -0.3380
   18MPD2     H  281   4.104   0.814  10.507 -0.1265 -0.1575 -3.5600
   18MPD2    H1  282   4.236   0.404  10.484 -1.8499 -1.7731  3.3236
   18MPD2    H2  283   3.849   0.489  10.629 -0.0679  1.1175  0.6837
   18MPD2    H3  284   4.022   0.339  10.593 -0.5495  0.2361 -1.1116
   18MPD2     N  285   4.318   0.667  10.460  0.4239  0.2884  0.0733
   18MPD2    H5  286   4.386   0.596  10.436 -0.4090 -0.9159  1.3385
   18MPD2    N1  287   3.865   0.761  10.590  0.2018 -0.1693  0.2015
   18MPD2    H7  288   3.886   0.852  10.550  1.5304 -0.5675 -0.0188
   19TMC2    C1  289   0.926   1.490  13.633 -0.0907 -0.2425 -0.5795
   19TMC2    C2  290   0.919   1.477  13.498 -0.1919  0.0013  0.0001
   19TMC2    C3  291   0.803   1.443  13.433 -0.1386  0.0646  0.3238
   19TMC2    C4  292   0.815   1.459  13.705 -0.1009  0.8573  0.1613
   19TMC2    C5  293   0.692   1.427  13.639 -0.1080 -0.4230 -0.3594
   19TMC2    C6  294   0.688   1.423  13.501 -0.1909  0.5464 -0.2218
   19TMC2     C  295   1.042   1.512  13.699 -0.4284 -0.1956 -0.0022
   19TMC2     O  296   1.131   1.566  13.634 -0.0740 -0.0282 -0.0101
   19TMC2     H  297   1.011   1.487  13.442  1.3279 -0.0532  2.5185
   19TMC2    H1  298   0.822   1.475  13.812  0.4284 -0.4834  0.3294
   19TMC2    H2  299   0.599   1.406  13.441  0.1572  0.9672 -0.8501
   19TMC2    C7  300   0.578   1.357  13.706  0.4043  0.2649 -0.3965
   19TMC2    C8  301   0.805   1.442  13.284 -0.4115  0.1137  0.0548
   19TMC2    O1  302   0.602   1.280  13.798  0.1246 -0.5162 -0.0218
   19TMC2    O2  303   0.738   1.359  13.224  0.2310  0.7573 -0.8339
   19TMC2    O5  304   0.869   1.555  13.238  0.1131 -0.2263  0.2616
   19TMC2    H5  305   0.888   1.626  13.303 -1.1239 -0.8806  1.3476
   20MPD2     C  306   1.294   1.543  13.843 -0.2948  0.9278  0.8543
   20MPD2    C1  307   1.187   1.477  13.892  1.2117 -0.4224 -0.8870
   20MPD2    C2  308   1.190   1.432  14.022  0.0162 -0.1308 -0.4438
   20MPD2    C3  309   1.298   1.445  14.107 -0.5017  0.4955 -1.0599
   20MPD2    C4  310   1.406   1.518  14.058  0.5259 -0.4045  0.4841
   20MPD2    C5  311   1.400   1.564  13.932  0.0560 -0.0148 -0.0331
   20MPD2     H  312   1.098   1.384  14.055 -0.8493  1.0191 -1.1695
   20MPD2    H1  313   1.494   1.540  14.117  1.2917 -1.1241 -0.3891
   20MPD2    H2  314   1.306   1.585  13.744 -0.9425  1.1073  0.8521
   20MPD2    H3  315   1.495   1.606  13.902 -0.9966  1.6904 -0.9435
   20MPD2     N  316   1.314   1.381  14.235  0.0338 -0.2428 -0.3093
   20MPD2    H5  317   1.409   1.398  14.268  0.4587 -2.3153 -0.5262
   20MPD2    N1  318   1.059   1.463  13.821 -0.1847  0.2683 -0.1051
   20MPD2    H7  319   0.984   1.413  13.868  0.9894 -0.1880  1.2908
   21MPD2     C  320   3.165   2.185  14.246 -0.3599  0.4204 -0.3483
   21MPD2    C1  321   3.194   2.046  14.263 -0.7044 -0.6066  0.2131
   21MPD2    C2  322   3.109   1.976  14.346 -0.2169 -0.0907 -0.2549
   21MPD2    C3  323   3.015   2.048  14.424 -0.5500 -0.0538 -0.0515
   21MPD2    C4  324   3.002   2.183  14.418  0.0888  0.1506  0.6326
   21MPD2    C5  325   3.078   2.250  14.328 -0.0398 -0.1399  0.5850
   21MPD2     H  326   3.114   1.868  14.351  1.5990  0.0245  0.3092
   21MPD2    H1  327   2.927   2.231  14.480  0.6579 -1.0243  2.2161
   21MPD2    H2  328   3.225   2.248  14.182  1.1279 -1.3919 -0.7390
   21MPD2    H3  329   3.080   2.359  14.322  1.3179 -0.1556  0.5904
   21MPD2     N  330   2.939   1.987  14.531 -0.3002 -0.3503  0.1851
   21MPD2    H5  331   2.887   2.051  14.589 -2.4795 -0.1324 -2.0242
   21MPD2    N1  332   3.291   1.980  14.189 -0.0777  0.1756  0.3132
   21MPD2    H7  333   3.306   1.883  14.215 -1.4046  0.5189  2.3692
   22TCq2    C1  334   2.939   1.854  14.563 -0.1783  0.0343  0.3135
   22TCq2    O2  335   2.983   1.761  14.493  0.0451 -0.0071  0.0395
   22TCq2    C2  336   2.869   1.827  14.690  0.4165 -0.5342  0.3920
   22TCq2    C3  337   2.908   1.717  14.756  0.3554  0.2683  0.3469
   22TCq2    C4  338   2.886   1.702  14.888 -0.0103 -0.1939 -0.7535
   22TCq2    C5  339   2.836   1.802  14.955 -0.0140 -0.2401  0.5089
   22TCq2    C6  340   2.785   1.907  14.887 -0.4268  0.2889  0.4743
   22TCq2    C7  341   2.799   1.930  14.751  0.9370  0.3505  0.3892
   22TCq2    C8  342   2.703   1.996  14.956 -0.2412 -1.2332 -0.2253
   22TCq2    O4  343   2.724   2.011  15.079  0.2764 -0.8734  0.2178
   22TCq2    C9  344   2.933   1.575  14.952  0.3883 -0.4151 -0.2378
   22TCq2    O5  345   2.876   1.556  15.062  0.0707 -0.6096  0.3172
   22TCq2    O6  346   3.034   1.515  14.914 -0.0322  0.4523  0.0142
   22TCq2    H2  347   2.982   1.655  14.707 -1.1784 -0.9262 -0.4596
   22TCq2    H3  348   2.818   1.791  15.062 -0.8550 -0.0313  0.3901
   22TCq2    H4  349   2.761   2.019  14.703 -0.3425 -0.8909 -0.8861
   23MPD2     C  350   4.442   3.069  14.759 -0.0593  0.4254 -0.2774
   23MPD2    C1  351   4.363   3.000  14.853  0.5812  0.1532  0.2208
   23MPD2    C2  352   4.225   2.993  14.831 -0.4824 -0.4567  0.6218
   23MPD2    C3  353   4.169   3.063  14.718 -0.6525  0.6089  0.1022
   23MPD2    C4  354   4.246   3.140  14.644  0.1617 -0.1462 -0.0321
   23MPD2    C5  355   4.381   3.145  14.663 -0.2958  0.3315  0.7585
   23MPD2     H  356   4.166   2.937  14.902  0.7994  0.6662  2.5757
   23MPD2    H1  357   4.199   3.209  14.574  0.2406  0.7266  0.7763
   23MPD2    H2  358   4.550   3.062  14.762 -0.0136  0.1319 -2.2029
   23MPD2    H3  359   4.447   3.196  14.594 -0.4840  1.6208  1.5248
   23MPD2     N  360   4.027   3.071  14.697 -1.1153 -0.3235  0.1794
   23MPD2    H5  361   4.000   3.137  14.625  0.7827 -1.4017 -1.5242
   23MPD2    N1  362   4.418   2.933  14.966 -0.0891 -0.3634  0.3888
   23MPD2    H7  363   4.351   2.882  15.022 -0.1346  0.7742  1.3532
   24TCq2    C1  364   3.925   3.004  14.765 -0.9661  0.6341 -0.6151
   24TCq2    O2  365   3.938   2.916  14.850 -0.5481  0.0342 -0.0647
   24TCq2    C2  366   3.794   3.036  14.711 -0.0075  0.4502 -0.0929
   24TCq2    C3  367   3.777   3.165  14.657 -0.4230  0.2334  0.1543
   24TCq2    C4  368   3.669   3.183  14.571 -0.5774 -0.1115 -0.2570
   24TCq2    C5  369   3.582   3.080  14.544  0.0668 -0.1671  0.2621
   24TCq2    C6  370   3.590   2.959  14.612 -0.5494 -0.4127 -0.9570
   24TCq2    C7  371   3.703   2.933  14.687 -0.7543 -0.0636 -0.8242
   24TCq2    C8  372   3.541   2.844  14.539  0.0264 -0.2668 -0.6344
   24TCq2    O4  373   3.623   2.754  14.526 -0.0191 -0.1391 -0.4829
   24TCq2    C9  374   3.637   3.320  14.527  0.5752  0.0329  0.6518
   24TCq2    O5  375   3.723   3.406  14.562  0.2089  0.4006  0.0946
   24TCq2    O6  376   3.545   3.327  14.441  0.1602  0.0690 -0.2449
   24TCq2    H2  377   3.847   3.246  14.678  1.4157 -0.8555 -1.7971
   24TCq2    H3  378   3.499   3.102  14.477 -0.3104  0.0849  0.8105
   24TCq2    H4  379   3.728   2.831  14.716  1.3502  0.7640  0.3163
   25TMC2    C1  380   3.512   0.762  11.295 -0.4356  0.2452 -0.5424
   25TMC2    C2  381   3.622   0.839  11.328 -0.4133  0.5038  0.4351
   25TMC2    C3  382   3.629   0.878  11.457 -0.6803 -0.6578  0.0412
   25TMC2    C4  383   3.420   0.707  11.384  0.1268  0.5922 -0.1671
   25TMC2    C5  384   3.447   0.747  11.520 -0.4046 -0.4232  0.0861
   25TMC2    C6  385   3.534   0.846  11.555  0.4656 -0.0017 -0.2109
   25TMC2     C  386   3.513   0.709  11.162 -0.2386 -0.1526  0.0518
   25TMC2     O  387   3.611   0.724  11.092  0.2145 -0.2807  0.0446
   25TMC2     H  388   3.691   0.867  11.250 -1.1399  0.7296 -0.1297
   25TMC2    H1  389   3.340   0.641  11.355  0.2228  0.8250 -0.9672
   25TMC2    H2  390   3.548   0.887  11.654  3.6724  2.4145 -1.6610
   25TMC2    C7  391   3.344   0.726  11.619 -0.2095  0.8123  0.2502
   25TMC2    C8  392   3.748   0.949  11.504  0.1744  0.5089 -1.1595
   25TMC2    O1  393   3.370   0.777  11.728 -0.1220  0.3144  0.2623
   25TMC2    O2  394   3.816   0.912  11.600  0.1065  0.6637  0.6173
   25TMC2    O5  395   3.800   1.015  11.403  0.3507 -0.3131  0.1946
   25TMC2    H5  396   3.725   1.052  11.352 -0.1788 -2.3467 -0.4850
   26MPD2     C  397   3.300   0.378  10.811  0.1763  0.7754  0.8513
   26MPD2    C1  398   3.213   0.399  10.917  0.3592  0.4457  0.0093
   26MPD2    C2  399   3.250   0.485  11.021  0.6703 -0.0815  0.1199
   26MPD2    C3  400   3.371   0.551  11.018 -0.7390  0.0403  0.1357
   26MPD2    C4  401   3.457   0.527  10.913 -0.5809  1.1089 -0.4266
   26MPD2    C5  402   3.420   0.444  10.814  0.2952 -0.5990 -0.3774
   26MPD2     H  403   3.175   0.516  11.092 -0.7448  0.2337 -1.5096
   26MPD2    H1  404   3.549   0.582  10.895  0.6684 -0.1988  1.9387
   26MPD2    H2  405   3.273   0.315  10.727  0.0365  1.0750  0.6714
   26MPD2    H3  406   3.494   0.440  10.736  0.1284 -1.2814 -0.4967
   26MPD2     N  407   3.396   0.643  11.127  1.0133 -0.1094  0.0527
   26MPD2    H5  408   3.316   0.651  11.190  0.0693  0.4832 -1.2289
   26MPD2    N1  409   3.100   0.311  10.921  0.1900 -0.7317 -0.0654
   26MPD2    H7  410   3.083   0.252  10.840  0.2594  1.9738 -2.0566
   27TMC2    C1  411   2.138   2.254  12.091  0.6211 -0.7249  0.5397
   27TMC2    C2  412   2.079   2.280  11.968 -0.7510  0.5259 -0.1426
   27TMC2    C3  413   2.054   2.405  11.926 -0.6038 -0.1719 -0.7534
   27TMC2    C4  414   2.179   2.358  12.169 -0.1844  0.5998  0.5157
   27TMC2    C5  415   2.132   2.483  12.133  0.2397 -0.2384  0.6392
   27TMC2    C6  416   2.081   2.515  12.011 -0.0054 -0.2885  0.1676
   27TMC2     C  417   2.094   2.137  12.158 -0.4092  0.5517 -0.4757
   27TMC2     O  418   2.101   2.032  12.093  0.3629 -0.5530  0.7453
   27TMC2     H  419   2.053   2.189  11.915 -1.1753  0.1130  0.7792
   27TMC2    H1  420   2.236   2.333  12.258  1.4765 -0.8412 -0.9400
   27TMC2    H2  421   2.034   2.613  12.000  0.7090 -0.0828 -1.0798
   27TMC2    C7  422   2.079   2.535  12.253 -0.2188  0.0096  0.1576
   27TMC2    C8  423   1.949   2.418  11.828 -0.0959 -0.2252 -0.5218
   27TMC2    O1  424   2.073   2.453  12.347  0.4407  0.5795 -0.4930
   27TMC2    O2  425   1.887   2.525  11.815  0.2807 -0.6121 -0.3480
   27TMC2    O5  426   1.915   2.299  11.768  0.4458  0.1392  0.2913
   27TMC2    H5  427   1.998   2.246  11.764 -0.6921 -1.7196  1.5252
   28MPD2     C  428   1.783   1.951  12.508 -0.0860  0.4492  0.2254
   28MPD2    C1  429   1.787   2.085  12.528 -0.0018 -0.5496 -0.5060
   28MPD2    C2  430   1.884   2.155  12.464 -0.0391 -0.4601 -0.2363
   28MPD2    C3  431   1.955   2.097  12.360  0.0375  0.0186  0.3522
   28MPD2    C4  432   1.943   1.963  12.343 -0.1509 -0.6704 -0.2085
   28MPD2    C5  433   1.863   1.889  12.416  0.1313  0.6901  0.5273
   28MPD2     H  434   1.895   2.263  12.472 -1.0478 -0.5641  2.2337
   28MPD2    H1  435   2.017   1.910  12.284  1.4690  1.6379 -0.2353
   28MPD2    H2  436   1.710   1.887  12.556 -0.2189  1.3134  1.1687
   28MPD2    H3  437   1.870   1.780  12.418 -1.9822  0.5852  2.8604
   28MPD2     N  438   2.039   2.174  12.280  0.3461  0.2817 -0.3935
   28MPD2    H5  439   2.056   2.271  12.306 -2.8569  0.8288 -0.3765
   28MPD2    N1  440   1.686   2.147  12.614  0.1779 -0.0665  0.6438
   28MPD2    H7  441   1.620   2.082  12.653  1.4373 -0.8624  1.4379
   29MPD2     C  442   1.342   4.592  14.353 -0.6915  0.6905 -0.6521
   29MPD2    C1  443   1.452   4.568  14.434  0.2975 -0.9218 -0.7553
   29MPD2    C2  444   1.512   4.665  14.512 -0.8740 -0.0708  0.2257
   29MPD2    C3  445   1.467   0.073  14.501 -0.7121 -1.0793 -0.5654
   29MPD2    C4  446   1.356   0.098  14.423  0.1203 -0.3146  0.1220
   29MPD2    C5  447   1.300   0.000  14.341 -1.0693 -0.4003 -0.0851
   29MPD2     H  448   1.597   4.634  14.572 -3.4794 -1.6773  3.1381
   29MPD2    H1  449   1.311   0.196  14.432  0.2152 -0.1698 -0.9745
   29MPD2    H2  450   1.299   4.511  14.294 -0.0932  1.3380 -1.9844
   29MPD2    H3  451   1.213   0.018  14.278 -1.0313 -2.2712 -0.6777
   29MPD2     N  452   1.524   0.176  14.575 -0.0733 -0.3891  0.4293
   29MPD2    H5  453   1.475   0.265  14.579 -1.5635 -1.1949 -0.0125
   29MPD2    N1  454   1.504   4.437  14.453 -0.1093  0.0737 -0.1714
   29MPD2    H7  455   1.592   4.433  14.504 -0.1406 -3.0667 -0.3486
   30TCq2    C1  456   1.609   0.162  14.681 -0.2607 -0.6225 -0.1368
   30TCq2    O2  457   1.643   0.066  14.753 -0.3419 -0.0205  0.6046
   30TCq2    C2  458   1.660   0.291  14.720 -0.3125  0.1254  0.5803
   30TCq2    C3  459   1.718   0.298  14.845  0.7628  0.0020 -0.6034
   30TCq2    C4  460   1.784   0.416  14.878 -0.3202  0.2277  0.1439
   30TCq2    C5  461   1.816   0.512  14.785 -0.2219  0.1063 -0.0662
   30TCq2    C6  462   1.778   0.486  14.659  0.0395  0.2518 -0.1684
   30TCq2    C7  463   1.686   0.388  14.626  0.4875  0.3979  0.0733
   30TCq2    C8  464   1.844   0.543  14.542 -1.2286  0.1419 -0.7490
   30TCq2    O4  465   1.781   0.560  14.437 -0.1401  0.1810 -0.0651
   30TCq2    C9  466   1.834   0.436  15.008  0.1590  0.2352  0.0989
   30TCq2    O5  467   1.803   0.347  15.091 -0.0937  0.3603  0.2890
   30TCq2    O6  468   1.932   0.516  15.021  0.5248  0.5531  0.3004
   30TCq2    H2  469   1.714   0.222  14.923  1.5354  1.4384  0.8386
   30TCq2    H3  470   1.859   0.609  14.808  0.4633 -0.5985  1.6404
   30TCq2    H4  471   1.656   0.369  14.524 -2.4276  1.0042  0.8262
   31MPD2     C  472   4.584   3.822  14.954 -0.3770  0.1428  0.9367
   31MPD2    C1  473   4.459   3.789  14.913 -0.0141 -1.3720  0.3287
   31MPD2    C2  474   4.394   3.684  14.974  0.0372  0.1776 -0.5406
   31MPD2    C3  475   4.456   3.620  15.084  0.4817 -0.5016 -0.7046
   31MPD2    C4  476   4.586   3.650  15.119 -0.9399 -0.5854  0.0135
   31MPD2    C5  477   4.652   3.751  15.051 -0.0155 -0.1317  0.4076
   31MPD2     H  478   4.293   3.657  14.945  1.5272 -2.2406 -3.3711
   31MPD2    H1  479   4.634   3.587  15.194 -0.7555 -0.5353 -0.0613
   31MPD2    H2  480   4.657   3.897  14.926 -1.3354  0.8495  0.3696
   31MPD2    H3  481   0.028   3.786  15.075  0.3899 -1.5247  0.7427
   31MPD2     N  482   4.387   3.516  15.158 -0.4226 -0.0230 -0.3511
   31MPD2    H5  483   4.447   3.462  15.219 -0.2924  0.6886  0.1536
   31MPD2    N1  484   4.395   3.871  14.808  0.3357 -0.3667 -0.0716
   31MPD2    H7  485   4.451   3.938  14.756 -1.3255  0.5780 -0.6627
   32TCq2    C1  486   4.261   3.479  15.137 -0.2256  0.1678 -0.0612
   32TCq2    O2  487   4.171   3.531  15.076  0.6233  0.0531 -0.5025
   32TCq2    C2  488   4.225   3.371  15.225  0.4212 -0.6853 -0.1541
   32TCq2    C3  489   4.090   3.359  15.248 -0.0538  0.1349 -0.2263
   32TCq2    C4  490   4.045   3.233  15.288  0.0906  0.0488 -0.4575
   32TCq2    C5  491   4.131   3.130  15.303  0.7001  0.0253 -0.4093
   32TCq2    C6  492   4.267   3.149  15.291  0.1725  0.2971 -0.1609
   32TCq2    C7  493   4.316   3.274  15.257  0.6200 -0.3650  0.1138
   32TCq2    C8  494   4.359   3.062  15.357 -0.7476 -0.3764 -0.2996
   32TCq2    O4  495   4.477   3.063  15.327  0.1554  0.1429 -0.1532
   32TCq2    C9  496   3.906   3.211  15.290 -0.2114 -0.3468 -0.0492
   32TCq2    O5  497   3.862   3.092  15.297  0.1860 -0.0943 -0.1289
   32TCq2    O6  498   3.839   3.313  15.257  0.0075  0.2723  0.1901
   32TCq2    H2  499   4.022   3.439  15.223 -2.6514 -1.0255  3.1816
   32TCq2    H3  500   4.087   3.032  15.319 -0.2953  0.5606  0.1060
   32TCq2    H4  501   4.422   3.286  15.240  0.4983  0.3443 -0.1482
   33MPD2     C  502   0.210   1.293  10.163  0.2456 -0.4515  0.3506
   33MPD2    C1  503   0.075   1.266  10.177  0.5470  0.1203 -0.0281
   33MPD2    C2  504   4.704   1.360  10.154  0.4135 -0.2008  1.0042
   33MPD2    C3  505   0.022   1.482  10.108 -0.2801  0.2187  0.5849
   33MPD2    C4  506   0.156   1.506  10.087  0.4022  0.7746 -0.2919
   33MPD2    C5  507   0.250   1.412  10.113  0.2237  0.2444  0.0574
   33MPD2     H  508   4.599   1.335  10.142  0.5706 -0.9376  1.1546
   33MPD2    H1  509   0.194   1.598  10.044  1.1872 -0.0021 -1.2391
   33MPD2    H2  510   0.282   1.214  10.183 -0.5658 -1.0115  1.0149
   33MPD2    H3  511   0.349   1.442  10.082  0.9800 -0.6560  1.6007
   33MPD2     N  512   4.656   1.587  10.078 -0.4170 -0.5230 -0.3228
   33MPD2    H5  513   4.696   1.665  10.027  0.2334 -0.8760 -0.3527
   33MPD2    N1  514   0.041   1.149  10.245 -0.2669  0.5979 -0.0130
   33MPD2    H7  515   0.117   1.086  10.267 -0.9226 -0.5831 -1.0943
   34TCq2    C1  516   4.522   1.590  10.111 -0.1801 -0.2411  0.1421
   34TCq2    O2  517   4.455   1.514  10.182 -0.0369  0.3387  0.4950
   34TCq2    C2  518   4.454   1.709  10.045 -0.6425  0.3478  0.0404
   34TCq2    C3  519   4.323   1.719  10.074  0.4142 -0.3969 -0.4901
   34TCq2    C4  520   4.240   1.787   9.982  0.1343  0.5425 -0.6737
   34TCq2    C5  521   4.289   1.851   9.872 -0.1192  0.2062 -0.9135
   34TCq2    C6  522   4.421   1.847   9.855 -0.1771 -0.3002 -0.5772
   34TCq2    C7  523   4.506   1.771   9.931 -0.1466 -0.5388  0.0385
   34TCq2    C8  524   4.477   1.878   9.721 -0.5703 -0.8669  0.9615
   34TCq2    O4  525   4.600   1.894   9.720 -0.1125 -0.1531  0.3395
   34TCq2    C9  526   4.104   1.785  10.003  0.1003  0.1554 -0.2324
   34TCq2    O5  527   4.058   1.776  10.119 -0.2968  0.7274 -0.3841
   34TCq2    O6  528   4.031   1.806   9.906 -0.4059 -0.5257 -0.0705
   34TCq2    H2  529   4.272   1.676  10.159  1.1405 -2.0727 -0.9032
   34TCq2    H3  530   4.221   1.911   9.813  0.8745  1.3811 -0.8818
   34TCq2    H4  531   4.603   1.741   9.893 -0.1952 -1.4662  0.6506
   35MPD2     C  532   1.324   2.968  11.705  0.1857 -0.7043 -0.4237
   35MPD2    C1  533   1.317   2.860  11.792  0.5064 -0.2120  0.2059
   35MPD2    C2  534   1.236   2.752  11.762 -0.0609  0.5130 -0.9596
   35MPD2    C3  535   1.171   2.749  11.642 -0.2675  0.5142  0.4275
   35MPD2    C4  536   1.176   2.863  11.566 -0.5070  0.1538  0.3124
   35MPD2    C5  537   1.258   2.965  11.589 -0.0442  0.3346 -0.9991
   35MPD2     H  538   1.229   2.666  11.829 -1.4212  0.7775 -0.7556
   35MPD2    H1  539   1.113   2.865  11.478 -0.1656 -0.4088  0.0548
   35MPD2    H2  540   1.381   3.058  11.724 -1.9051  1.4458 -4.3279
   35MPD2    H3  541   1.267   3.050  11.523 -1.0767  0.5365 -0.8688
   35MPD2     N  542   1.094   2.637  11.613 -0.1428  0.3434  0.4515
   35MPD2    H5  543   1.090   2.567  11.688  1.1118  0.7218  0.8642
   35MPD2    N1  544   1.399   2.875  11.908 -0.6039  0.0135 -0.4065
   35MPD2    H7  545   1.475   2.938  11.884 -1.4796  1.4398  0.5746
   36TCq2    C1  546   1.029   2.604  11.494 -0.0085 -0.1767 -0.2712
   36TCq2    O2  547   1.068   2.639  11.383  0.1048  0.2822  0.3685
   36TCq2    C2  548   0.936   2.495  11.493 -0.0414  0.2266  0.1595
   36TCq2    C3  549   0.855   2.483  11.384 -0.0217  0.4231  0.7341
   36TCq2    C4  550   0.757   2.389  11.392  0.2570  0.4199  0.0242
   36TCq2    C5  551   0.719   2.320  11.498 -0.5659  0.1795  0.1370
   36TCq2    C6  552   0.788   2.355  11.616 -0.3303  0.2348  0.3883
   36TCq2    C7  553   0.903   2.435  11.611 -0.0845 -0.3404  0.3541
   36TCq2    C8  554   0.748   2.295  11.735 -0.1750 -0.0985  0.2670
   36TCq2    O4  555   0.650   2.224  11.728  0.4718  0.3038  0.4485
   36TCq2    C9  556   0.676   2.377  11.279  0.0298  0.0444  0.5036
   36TCq2    O5  557   0.725   2.420  11.174 -0.0996  0.2435  0.2354
   36TCq2    O6  558   0.555   2.344  11.287 -0.0034  0.5538  0.0578
   36TCq2    H2  559   0.872   2.548  11.298 -4.5783  1.9889  1.0025
   36TCq2    H3  560   0.637   2.249  11.492 -1.6348  1.2455  2.1680
   36TCq2    H4  561   0.977   2.429  11.690  1.1821 -0.2857 -0.8375
   37TMC2    C1  562   3.320   2.758  11.073  0.3793 -0.1497 -0.2275
   37TMC2    C2  563   3.322   2.706  10.952  0.6388  0.8128 -0.5394
   37TMC2    C3  564   3.448   2.698  10.891 -0.0854 -0.8742  0.1607
   37TMC2    C4  565   3.430   2.786  11.148  0.2250 -0.3670  0.3391
   37TMC2    C5  566   3.545   2.770  11.087  0.2149 -0.7846  0.2749
   37TMC2    C6  567   3.565   2.734  10.960  0.1422  0.0577  0.1174
   37TMC2     C  568   3.193   2.750  11.146  0.2060 -0.4684  0.1719
   37TMC2     O  569   3.092   2.756  11.081  0.2801 -0.3862 -0.7904
   37TMC2     H  570   3.234   2.692  10.890 -0.7869  0.6198  1.5079
   37TMC2    H1  571   3.420   2.821  11.249 -0.8335  0.9102 -0.2100
   37TMC2    H2  572   3.654   2.735  10.898  1.3177  0.3547  1.8448
   37TMC2    C7  573   3.659   2.773  11.172  0.9105  0.4038 -0.3371
   37TMC2    C8  574   3.438   2.756  10.756 -0.8211  0.5022  0.8516
   37TMC2    O1  575   3.641   2.820  11.280 -0.1507 -0.2296  0.0857
   37TMC2    O2  576   3.474   2.872  10.737  0.3940 -0.3382 -0.0830
   37TMC2    O5  577   3.342   2.689  10.694 -0.0549 -0.7778  0.1586
   37TMC2    H5  578   3.341   2.598  10.730 -1.5364 -1.3652 -1.3378
   38MPD2     C  579   2.945   2.894  11.571 -0.5530 -0.1049  0.2575
   38MPD2    C1  580   3.057   2.823  11.608  0.2498 -0.0072  0.5846
   38MPD2    C2  581   3.142   2.773  11.511  0.0802 -0.0620 -0.1557
   38MPD2    C3  582   3.111   2.783  11.377  0.1137 -0.4525 -0.1471
   38MPD2    C4  583   2.992   2.852  11.343 -0.3416 -0.4663 -0.1014
   38MPD2    C5  584   2.916   2.899  11.437  0.1760 -0.2728 -0.2068
   38MPD2     H  585   3.228   2.715  11.542  1.9250  1.6946 -1.9471
   38MPD2    H1  586   2.959   2.858  11.240 -2.3589  0.2167  0.5870
   38MPD2    H2  587   2.887   2.939  11.651 -1.5104 -2.4536  0.8929
   38MPD2    H3  588   2.820   2.947  11.417  0.3494 -0.6644 -2.0154
   38MPD2     N  589   3.206   2.740  11.276  0.2653  0.0766  0.7920
   38MPD2    H5  590   3.291   2.699  11.315  0.3420 -0.8662 -0.3586
   38MPD2    N1  591   3.093   2.788  11.739  0.5389 -0.3438  0.0187
   38MPD2    H7  592   3.177   2.732  11.750 -1.1935 -2.2084  3.5734
   39MPD2     C  593   1.586   4.722   1.545 -0.1646  1.0951  0.2933
   39MPD2    C1  594   1.513   0.111   1.580  0.5494  0.0030 -0.1360
   39MPD2    C2  595   1.384   0.124   1.526  0.2415 -0.0974 -0.1081
   39MPD2    C3  596   1.324   0.026   1.444  0.3222 -0.1234 -0.0179
   39MPD2    C4  597   1.400   4.639   1.413  0.0575 -0.5834  0.3387
   39MPD2    C5  598   1.525   4.625   1.463  0.2466  0.1679  0.0164
   39MPD2     H  599   1.329   0.215   1.546  0.5112  0.0532 -0.0489
   39MPD2    H1  600   1.360   4.562   1.348  2.2234  0.9236 -2.7898
   39MPD2    H2  601   1.675   4.691   1.600 -0.0697 -0.8829 -0.9649
   39MPD2    H3  602   1.576   4.533   1.437 -0.2723 -0.7412  2.1878
   39MPD2     N  603   1.194   0.039   1.380 -0.0358 -0.2090  0.1570
   39MPD2    H5  604   1.162   4.681   1.329  0.1890  0.0008 -0.3162
   39MPD2    N1  605   1.570   0.197   1.671 -0.4483 -0.2908  0.2345
   39MPD2    H7  606   1.667   0.183   1.698  0.2332  1.5595 -1.2175
   40TCq2    C1  607   1.513   0.305   1.740 -0.5886 -0.6701  0.3788
   40TCq2    O2  608   1.399   0.347   1.741 -0.1301 -0.3657  0.0719
   40TCq2    C2  609   1.600   0.368   1.840  0.3708 -0.3206 -0.0582
   40TCq2    C3  610   1.542   0.475   1.909 -0.2284 -0.2207  0.3484
   40TCq2    C4  611   1.629   0.564   1.964  0.2663 -0.6132  0.2194
   40TCq2    C5  612   1.764   0.556   1.958 -0.2867  0.8558 -0.1811
   40TCq2    C6  613   1.807   0.442   1.894 -0.0199  0.3789  0.3870
   40TCq2    C7  614   1.734   0.344   1.833 -0.4493  0.3407 -0.0382
   40TCq2    C8  615   1.956   0.424   1.896 -0.6777 -0.5795  0.7979
   40TCq2    O4  616   1.999   0.312   1.915  0.8382 -0.2041 -0.0348
   40TCq2    C9  617   1.585   0.678   2.035  0.4450  0.0316 -0.5157
   40TCq2    O5  618   1.465   0.709   2.012 -0.3495 -0.3636 -0.1071
   40TCq2    O6  619   1.662   0.738   2.113 -0.1940 -0.0885  0.1657
   40TCq2    H2  620   1.438   0.482   1.938 -0.3334  1.2883 -0.3771
   40TCq2    H3  621   1.828   0.627   2.011 -1.8046  2.7039 -0.8182
   40TCq2    H4  622   1.774   0.258   1.781 -0.9379  0.0156  0.1196
   41TMC2    C1  623   0.403   3.036  13.590 -0.2179  0.0923  0.8746
   41TMC2    C2  624   0.479   3.117  13.668 -0.0580  0.7648 -0.3472
   41TMC2    C3  625   0.554   3.221  13.611  0.3257 -0.0722 -0.0426
   41TMC2    C4  626   0.401   3.047  13.453 -0.5942 -0.0845  0.5244
   41TMC2    C5  627   0.477   3.158  13.400  0.2425 -0.0416 -0.5980
   41TMC2    C6  628   0.543   3.250  13.476  1.0560 -0.1196 -0.7036
   41TMC2     C  629   0.304   2.943  13.653 -0.6210 -0.1377 -0.4353
   41TMC2     O  630   0.228   2.893  13.571  0.7414 -0.0728  0.3181
   41TMC2     H  631   0.485   3.099  13.774  2.3303  0.7401 -0.5017
   41TMC2    H1  632   0.334   2.985  13.394 -1.2445  3.1790 -2.1589
   41TMC2    H2  633   0.611   3.317  13.424 -0.6590  1.5855 -0.7855
   41TMC2    C7  634   0.458   3.184  13.256  0.0165 -0.7925  0.2170
   41TMC2    C8  635   0.587   3.331  13.710 -0.2700  0.4262 -0.5617
   41TMC2    O1  636   0.468   3.303  13.235 -0.1583  0.1140 -0.8477
   41TMC2    O2  637   0.581   3.305  13.831 -0.0170  0.2134 -1.0176
   41TMC2    O5  638   0.547   3.447  13.654 -0.2382 -0.4684  0.2040
   41TMC2    H5  639   0.566   3.465  13.559 -2.0144 -2.3013 -0.4950
   42MPD2     C  640   0.080   2.832  13.839  0.7602  0.1069  0.4800
   42MPD2    C1  641   0.203   2.881  13.882 -0.1155 -0.1962 -1.0176
   42MPD2    C2  642   0.230   2.895  14.017 -0.5440 -0.1823  0.8321
   42MPD2    C3  643   0.143   2.840  14.106  0.3590  1.0614  0.5381
   42MPD2    C4  644   0.015   2.801  14.064 -0.1306 -0.2150 -0.0590
   42MPD2    C5  645   4.709   2.806  13.932  0.3824  0.1035 -0.5826
   42MPD2     H  646   0.325   2.937  14.047  1.2819 -2.6575 -1.4512
   42MPD2    H1  647   4.667   2.758  14.133  1.5453 -2.7322  0.1117
   42MPD2    H2  648   0.053   2.819  13.735  0.9579 -1.1382  0.5900
   42MPD2    H3  649   4.608   2.785  13.897  0.1787 -3.3703  2.1601
   42MPD2     N  650   0.180   2.811  14.241  0.3497  0.1735  0.1373
   42MPD2    H5  651   0.102   2.790  14.302  0.6183  0.0105  0.4253
   42MPD2    N1  652   0.301   2.942  13.793  0.2288  0.3076 -0.6836
   42MPD2    H7  653   0.381   2.982  13.841 -0.9940  1.2060  0.6355
   43MPD2     C  654   2.456   1.388   0.350 -0.3323 -0.0728 -0.0602
   43MPD2    C1  655   2.483   1.355   0.484 -0.7367  0.0688 -0.2840
   43MPD2    C2  656   2.379   1.359   0.579 -0.2308 -0.6529  0.8403
   43MPD2    C3  657   2.254   1.395   0.538 -0.1781 -0.1184  0.3746
   43MPD2    C4  658   2.225   1.429   0.406 -0.3877 -0.2704  0.7415
   43MPD2    C5  659   2.333   1.428   0.314 -0.1162 -0.6972 -0.4975
   43MPD2     H  660   2.398   1.343   0.684 -1.2610  0.2099  1.1557
   43MPD2    H1  661   2.129   1.472   0.382 -0.9379 -1.8621  0.0884
   43MPD2    H2  662   2.534   1.405   0.277 -1.0336 -1.8520 -1.2409
   43MPD2    H3  663   2.312   1.453   0.210 -1.5160 -0.3949 -0.1468
   43MPD2     N  664   2.150   1.407   0.631 -0.0074  0.4226 -0.2602
   43MPD2    H5  665   2.066   1.460   0.615 -3.2447 -4.3256  0.7964
   43MPD2    N1  666   2.608   1.305   0.528  0.0270 -0.4207 -0.3602
   43MPD2    H7  667   2.622   1.296   0.629 -2.0591  2.0892  0.1433
   44TCq2    C1  668   1.866   1.214   1.098  0.1364  0.5126  0.2647
   44TCq2    O2  669   1.948   1.125   1.113 -0.2413 -0.1474  0.2743
   44TCq2    C2  670   1.899   1.314   0.997 -0.4687 -0.3403 -0.6319
   44TCq2    C3  671   1.861   1.443   1.011  0.1471  0.2669  0.4837
   44TCq2    C4  672   1.903   1.539   0.930  0.3726  0.7383  0.2601
   44TCq2    C5  673   1.994   1.500   0.833  0.2924  0.2961 -0.0680
   44TCq2    C6  674   2.034   1.371   0.827  0.4823  0.0330 -1.0738
   44TCq2    C7  675   1.983   1.274   0.898 -0.7138 -0.2961  0.2498
   44TCq2    C8  676   2.150   1.336   0.748  0.4204 -0.3825 -0.5675
   44TCq2    O4  677   2.222   1.242   0.778  0.3460 -0.0427  0.8994
   44TCq2    C9  678   1.872   1.682   0.951  0.1065  1.0624 -0.4532
   44TCq2    O5  679   1.953   1.754   0.897  0.1698 -0.4010  0.0481
   44TCq2    O6  680   1.794   1.705   1.046  0.3933 -0.2101 -0.0548
   44TCq2    H2  681   1.785   1.468   1.084  0.4672 -0.9070  1.2150
   44TCq2    H3  682   2.032   1.581   0.772 -0.2555 -0.2776 -1.1851
   44TCq2    H4  683   2.023   1.173   0.893  0.3987  0.2027 -0.8873
   45TMC2    C1  684   2.057   3.389   9.474 -0.6824  0.0156  0.5382
   45TMC2    C2  685   1.989   3.388   9.593  0.2675  0.2761  0.5230
   45TMC2    C3  686   2.003   3.493   9.673 -0.4680 -0.1462  0.1400
   45TMC2    C4  687   2.145   3.493   9.439  0.0537 -0.4797  0.0043
   45TMC2    C5  688   2.151   3.598   9.528 -0.3815  0.9884 -0.1630
   45TMC2    C6  689   2.076   3.600   9.642 -0.5075  0.5959 -0.0409
   45TMC2     C  690   2.090   3.257   9.425  0.7609 -0.2799  0.0605
   45TMC2     O  691   2.200   3.238   9.370 -0.0340 -0.2948  0.2349
   45TMC2     H  692   1.930   3.308   9.636  2.8374 -1.6088  0.5734
   45TMC2    H1  693   2.196   3.491   9.343 -0.9271 -3.0156 -0.4806
   45TMC2    H2  694   2.077   3.676   9.719 -1.8794 -1.4824  2.0022
   45TMC2    C7  695   2.186   3.725   9.472 -0.0666  0.2842 -0.4294
   45TMC2    C8  696   1.944   3.485   9.805 -0.2272  0.0552 -0.4464
   45TMC2    O1  697   2.172   3.735   9.349 -0.4049 -0.0290  0.0616
   45TMC2    O2  698   1.826   3.449   9.820 -0.8771  0.4695  0.1322
   45TMC2    O5  699   2.048   3.487   9.897  0.0182  0.3426  0.0853
   45TMC2    H5  700   2.140   3.499   9.867 -0.0117 -0.6815 -0.4236
   46MPD2     C  701   2.068   2.971   9.356 -0.2721 -1.2380  0.2358
   46MPD2    C1  702   1.961   3.055   9.377 -0.0134 -0.3557 -0.3892
   46MPD2    C2  703   1.842   3.008   9.342 -0.2337  0.6309  0.4442
   46MPD2    C3  704   1.816   2.886   9.281 -0.3295 -0.0406 -0.5711
   46MPD2    C4  705   1.921   2.815   9.239 -0.2067  1.3186  0.1993
   46MPD2    C5  706   2.044   2.861   9.280  0.4215 -0.0102  0.3715
   46MPD2     H  707   1.762   3.081   9.342 -0.7345  0.0730 -0.3460
   46MPD2    H1  708   1.911   2.720   9.187 -2.5690  0.8102  1.5189
   46MPD2    H2  709   2.172   2.991   9.378 -0.4175 -1.5671  1.2480
   46MPD2    H3  710   2.127   2.804   9.240  0.3318 -0.5995  1.0339
   46MPD2     N  711   1.687   2.856   9.242  0.1544  0.1919 -0.3662
   46MPD2    H5  712   1.619   2.927   9.266 -0.5294 -0.3511 -0.6788
   46MPD2    N1  713   1.970   3.189   9.429 -0.4981  0.5847 -0.4938
   46MPD2    H7  714   1.884   3.241   9.449 -0.6646  1.5270 -3.6050
   47TMC2    C1  715   0.083   3.182   9.039 -0.9151  0.2290 -0.3142
   47TMC2    C2  716   0.166   3.190   8.930  0.8647  0.1423  0.9631
   47TMC2    C3  717   0.107   3.168   8.805 -0.3742  0.3601  0.5776
   47TMC2    C4  718   4.673   3.179   9.028 -0.5160 -0.7365  0.4124
   47TMC2    C5  719   4.625   3.180   8.899 -0.3924  0.4326  0.5246
   47TMC2    C6  720   4.698   3.179   8.786  0.1066  0.1763  0.0927
   47TMC2     C  721   0.133   3.246   9.156 -0.1800 -0.6526  0.1794
   47TMC2     O  722   0.048   3.306   9.222 -0.0721  0.2271  0.0295
   47TMC2     H  723   0.273   3.206   8.939  0.9072  2.0928 -3.2113
   47TMC2    H1  724   4.615   3.181   9.119 -1.2487  0.3940 -0.0795
   47TMC2    H2  725   4.651   3.160   8.690 -1.7588  1.2177  0.8126
   47TMC2    C7  726   4.481   3.161   8.880 -0.0149  0.0327  0.1263
   47TMC2    C8  727   0.192   3.194   8.692 -0.0510  0.0844  0.6954
   47TMC2    O1  728   4.423   3.123   8.980 -0.1680  0.1719 -0.0166
   47TMC2    O2  729   0.302   3.235   8.726 -0.2113  0.5488  0.3845
   47TMC2    O5  730   0.137   3.190   8.565 -0.5509 -0.4164 -0.1995
   47TMC2    H5  731   0.055   3.135   8.559 -0.9666  0.1107  0.6839
   48MPD2     C  732   0.278   3.346   9.402  0.1133 -0.1108  0.0840
   48MPD2    C1  733   0.316   3.233   9.328 -0.3283  0.4854 -0.3056
   48MPD2    C2  734   0.411   3.153   9.384 -0.1261 -0.0046 -0.9348
   48MPD2    C3  735   0.465   3.177   9.508 -0.2469  0.3249  0.1074
   48MPD2    C4  736   0.433   3.294   9.569 -0.6573  0.0564 -0.1814
   48MPD2    C5  737   0.345   3.382   9.514  0.2719 -0.3159  0.3048
   48MPD2     H  738   0.447   3.075   9.319  0.0961 -0.7921  0.1394
   48MPD2    H1  739   0.471   3.322   9.667 -1.1894  1.6390 -0.4167
   48MPD2    H2  740   0.212   3.423   9.365 -0.3142 -1.0729 -1.1182
   48MPD2    H3  741   0.319   3.475   9.564 -0.8091 -0.1099 -0.6357
   48MPD2     N  742   0.549   3.080   9.559 -0.4717 -0.0767 -0.3248
   48MPD2    H5  743   0.576   3.003   9.499 -1.2515 -0.5455 -0.0679
   48MPD2    N1  744   0.256   3.206   9.200 -0.1411  0.4565 -0.1715
   48MPD2    H7  745   0.307   3.134   9.150 -0.4732 -0.7988  1.2850
   49MPD2     C  746   2.961   0.327  10.042 -0.2257  0.1320  0.2877
   49MPD2    C1  747   2.979   0.327  10.183  0.4630  0.1027 -0.0921
   49MPD2    C2  748   2.980   0.450  10.243  0.3860  0.4319  0.4820
   49MPD2    C3  749   2.966   0.575  10.172 -0.4942 -0.0010 -0.3027
   49MPD2    C4  750   2.953   0.563  10.037 -0.0662 -0.5797 -0.3023
   49MPD2    C5  751   2.951   0.443   9.973 -0.3589 -0.1129  0.0656
   49MPD2     H  752   2.999   0.449  10.350  1.9282  0.5480  0.2151
   49MPD2    H1  753   2.929   0.649   9.974  0.2721 -0.1218  0.1981
   49MPD2    H2  754   2.962   0.237   9.981  1.6343  0.6971 -0.5048
   49MPD2    H3  755   2.947   0.437   9.864  0.1330 -2.5013  0.1728
   49MPD2     N  756   2.964   0.697  10.236 -0.2949  0.8471 -0.1249
   49MPD2    H5  757   2.972   0.779  10.176 -0.2988  0.8370 -0.1393
   49MPD2    N1  758   3.014   0.214  10.255 -0.0631  0.4638 -0.7718
   49MPD2    H7  759   3.020   0.222  10.356  1.6335 -2.7941 -0.6076
   50TCq2    C1  760   3.026   0.085  10.214  0.4322  0.2430 -0.1509
   50TCq2    O2  761   3.033   0.043  10.099  0.3645 -0.2164  0.1496
   50TCq2    C2  762   3.032   4.712  10.331  0.8891 -0.0304  0.6425
   50TCq2    C3  763   3.044   4.578  10.295  0.4072 -0.2979  0.9284
   50TCq2    C4  764   3.079   4.492  10.396  0.2866 -0.1578 -1.0371
   50TCq2    C5  765   3.093   4.535  10.527 -0.3385  0.4398 -0.2187
   50TCq2    C6  766   3.061   4.664  10.560 -0.4978 -0.4088  0.2056
   50TCq2    C7  767   3.041   0.028  10.461 -0.7833 -0.2489  0.0842
   50TCq2    C8  768   3.098   4.715  10.689 -0.4394 -0.2463 -1.1102
   50TCq2    O4  769   3.127   0.109  10.704 -0.4144 -0.9141 -0.1881
   50TCq2    C9  770   3.065   4.354  10.373 -0.5269 -0.0334  0.9623
   50TCq2    O5  771   3.011   4.316  10.266 -0.3473 -0.3979 -0.3238
   50TCq2    O6  772   3.087   4.272  10.463 -0.3773  0.0532  0.0657
   50TCq2    H2  773   3.037   4.548  10.191 -0.1256 -0.5873  1.0419
   50TCq2    H3  774   3.119   4.454  10.595  1.8924  1.8202  0.6016
   50TCq2    H4  775   3.048   0.135  10.480 -1.3724 -0.1185 -0.4126
   51MPD2     C  776   3.729   4.196   1.405  0.0957 -0.1606  0.0243
   51MPD2    C1  777   3.606   4.224   1.345  0.5241 -0.3147 -0.7790
   51MPD2    C2  778   3.545   4.344   1.374  0.4082 -0.5676 -0.5332
   51MPD2    C3  779   3.593   4.434   1.464 -0.2757 -0.0218  0.0829
   51MPD2    C4  780   3.705   4.410   1.529 -0.4374  0.9772  0.4413
   51MPD2    C5  781   3.773   4.293   1.496  0.0753  0.7043 -0.2560
   51MPD2     H  782   3.445   4.349   1.332 -0.3786 -0.3861  1.3928
   51MPD2    H1  783   3.737   4.477   1.609  0.1105  1.3399 -0.0750
   51MPD2    H2  784   3.792   4.108   1.396  1.4622  0.7600  0.4103
   51MPD2    H3  785   3.868   4.276   1.546 -0.2227  0.0444  0.0907
   51MPD2     N  786   3.518   4.545   1.519 -0.3903 -0.3234 -0.2067
   51MPD2    H5  787   3.566   4.584   1.599 -1.1522  1.4296 -0.6122
   51MPD2    N1  788   3.552   4.135   1.245  0.2773 -0.0773  0.7854
   51MPD2    H7  789   3.467   4.166   1.199  0.1633  0.9095  1.6619
   52TCq2    C1  790   3.404   4.596   1.465  0.1111 -0.4381 -0.4642
   52TCq2    O2  791   3.357   4.587   1.351 -0.1786  0.4578 -0.2129
   52TCq2    C2  792   3.358   4.702   1.560 -0.7054 -0.0042 -0.2681
   52TCq2    C3  793   3.281   0.073   1.505  0.0226 -1.0741  0.1713
   52TCq2    C4  794   3.225   0.166   1.596  0.1090 -0.2463  0.0271
   52TCq2    C5  795   3.243   0.152   1.731  0.2050  0.1857 -0.0173
   52TCq2    C6  796   3.332   0.056   1.780 -0.0508 -0.3568  0.2428
   52TCq2    C7  797   3.381   4.690   1.692 -1.0108  0.0539  1.5253
   52TCq2    C8  798   3.386   0.056   1.916 -0.6030  0.5218 -0.4246
   52TCq2    O4  799   3.468   4.694   1.953 -0.1595 -0.0763 -0.9926
   52TCq2    C9  800   3.148   0.277   1.543  0.3247  0.9668  0.1461
   52TCq2    O5  801   3.085   0.353   1.624  0.4517 -0.2344 -0.4145
   52TCq2    O6  802   3.150   0.283   1.416  0.4255 -0.5925  0.5554
   52TCq2    H2  803   3.260   0.068   1.399  0.0540  0.2157  0.0968
   52TCq2    H3  804   3.191   0.228   1.788 -1.5179 -1.2891  0.3849
   52TCq2    H4  805   3.441   4.608   1.729 -0.7205  0.0317  1.0071
   53TMC2    C1  806   4.159   2.804  11.726 -0.9257  0.6247  0.8216
   53TMC2    C2  807   4.261   2.798  11.815  0.1521 -0.8567 -0.8556
   53TMC2    C3  808   4.254   2.860  11.939  0.0632 -0.2489 -0.0045
   53TMC2    C4  809   4.033   2.854  11.770  0.3109  0.1179 -0.0385
   53TMC2    C5  810   4.031   2.907  11.895 -0.0512  0.1786  0.0244
   53TMC2    C6  811   4.138   2.917  11.975 -0.1531 -0.1163  0.1136
   53TMC2     C  812   4.172   2.747  11.590  0.1036 -0.2130  0.1296
   53TMC2     O  813   4.274   2.688  11.564 -0.2064  0.6963 -0.6600
   53TMC2     H  814   4.354   2.757  11.779 -0.1243 -1.0628 -1.3336
   53TMC2    H1  815   3.939   2.844  11.717  0.0413  1.9413  0.1024
   53TMC2    H2  816   4.138   2.952  12.078 -2.3203  0.7096 -0.1706
   53TMC2    C7  817   3.899   2.934  11.945  0.0917 -0.0594  0.5885
   53TMC2    C8  818   4.336   2.824  12.059 -0.1459  0.1345 -0.6210
   53TMC2    O1  819   3.808   2.937  11.862  0.6528  0.8644 -0.1628
   53TMC2    O2  820   4.423   2.905  12.083  0.0853  0.6964 -0.0967
   53TMC2    O5  821   4.366   2.700  12.031 -0.2301  0.6350 -0.0023
   53TMC2    H5  822   4.286   2.651  12.001  1.8897 -2.3246 -0.7366
   54MPD2     C  823   4.137   2.645  11.304  1.0813 -0.3658  0.4586
   54MPD2    C1  824   4.039   2.702  11.381  0.1577  0.0065 -0.2779
   54MPD2    C2  825   3.915   2.726  11.321 -0.3353  0.2206 -0.0683
   54MPD2    C3  826   3.890   2.696  11.187 -0.0757 -0.2786  0.7825
   54MPD2    C4  827   3.989   2.633  11.120 -0.0234 -0.0881 -0.3952
   54MPD2    C5  828   4.106   2.597  11.183 -0.1494  0.0021 -0.1709
   54MPD2     H  829   3.844   2.755  11.398 -0.8637 -0.8761 -0.1308
   54MPD2    H1  830   3.989   2.610  11.014 -0.0913  1.2572 -0.6828
   54MPD2    H2  831   4.239   2.630  11.337  0.9405  1.9408  1.9737
   54MPD2    H3  832   4.183   2.560  11.116 -0.8239  0.7971 -1.3863
   54MPD2     N  833   3.769   2.714  11.118  0.0994  0.8256 -0.1305
   54MPD2    H5  834   3.776   2.688  11.020 -0.2131 -1.1290  0.3741
   54MPD2    N1  835   4.056   2.750  11.514 -0.6925  0.1122 -0.2011
   54MPD2    H7  836   3.979   2.804  11.553  1.4014  2.2135  1.0282
   55MPD2     C  837   4.715   0.470   0.841  0.0866  0.0179 -0.2583
   55MPD2    C1  838   4.609   0.421   0.910 -0.0036  0.2929  0.6181
   55MPD2    C2  839   4.493   0.502   0.902 -1.1364  0.2807 -0.3465
   55MPD2    C3  840   4.489   0.606   0.817  0.2760  0.1957  0.0326
   55MPD2    C4  841   4.598   0.637   0.742 -0.0704  0.6068  0.7440
   55MPD2    C5  842   4.711   0.571   0.759 -0.3975 -0.1045  0.0338
   55MPD2     H  843   4.404   0.488   0.962 -1.7363 -0.8557 -1.5113
   55MPD2    H1  844   4.592   0.722   0.676 -2.9211 -1.5750 -1.8019
   55MPD2    H2  845   0.083   0.412   0.841 -0.3737 -0.7170  1.3911
   55MPD2    H3  846   0.078   0.586   0.703  0.3318  0.2770  1.3199
   55MPD2     N  847   4.366   0.681   0.816  0.2233 -0.5729 -0.2705
   55MPD2    H5  848   4.296   0.651   0.883  0.3527 -1.1792 -0.4120
   55MPD2    N1  849   4.628   0.314   0.995  0.0543  0.7436 -0.0875
   55MPD2    H7  850   4.722   0.286   1.019  0.4035  1.4224 -0.6688
   56TCq2    C1  851   4.526   0.246   1.053  0.2269  0.2303 -0.3946
   56TCq2    O2  852   4.408   0.275   1.055  0.1057 -0.0171 -0.1747
   56TCq2    C2  853   4.584   0.142   1.145  0.5656  0.0127  0.4977
   56TCq2    C3  854   4.690   0.182   1.220 -0.5535  0.0521  0.5160
   56TCq2    C4  855   0.003   0.116   1.336 -0.5678  0.1267  0.2017
   56TCq2    C5  856   4.650   0.016   1.382 -0.1915 -0.8329 -0.5347
   56TCq2    C6  857   4.544   4.703   1.310  0.5946  0.6652 -0.5805
   56TCq2    C7  858   4.506   0.035   1.187 -0.1077 -0.9620  0.6646
   56TCq2    C8  859   4.457   4.604   1.361  0.5314  0.6582 -0.0591
   56TCq2    O4  860   4.491   4.509   1.432 -0.1665  0.7005  0.6187
   56TCq2    C9  861   0.118   0.163   1.407  0.6115  0.2914  0.4066
   56TCq2    O5  862   0.178   0.265   1.367  0.0871 -1.1006 -0.4378
   56TCq2    O6  863   0.121   0.116   1.526  0.2341 -0.8078 -0.4241
   56TCq2    H2  864   0.014   0.278   1.203  0.5720 -0.5236  0.4559
   56TCq2    H3  865   4.664   4.705   1.483  2.8771 -3.1061 -1.7652
   56TCq2    H4  866   4.420   0.004   1.129 -0.8640 -0.1094  1.3361
   57TMC2    C1  867   3.778   2.076  13.491  1.1805  0.1921 -0.0724
   57TMC2    C2  868   3.874   2.054  13.584 -0.1442  0.5533  0.5691
   57TMC2    C3  869   3.997   2.002  13.548 -0.0330  0.5259 -0.4966
   57TMC2    C4  870   3.811   2.038  13.365 -0.0051 -0.1153 -0.3276
   57TMC2    C5  871   3.932   1.990  13.328  0.2101 -0.0273  0.3209
   57TMC2    C6  872   4.028   1.956  13.420 -0.6005  0.5785  0.1430
   57TMC2     C  873   3.647   2.053  13.543  0.2738  0.3587  0.1440
   57TMC2     O  874   3.631   2.105  13.652 -0.0264 -0.1375  0.3067
   57TMC2     H  875   3.851   2.074  13.688  0.4102  2.4807  0.3280
   57TMC2    H1  876   3.752   2.069  13.279 -0.2773 -1.0415 -0.4786
   57TMC2    H2  877   4.132   1.937  13.399 -0.4456  1.0593  0.4856
   57TMC2    C7  878   3.961   1.961  13.184 -0.4297 -0.1635 -0.4148
   57TMC2    C8  879   4.073   1.937  13.653 -0.1085 -0.7211 -0.1035
   57TMC2    O1  880   3.885   2.015  13.100  0.4875 -0.1941  0.2060
   57TMC2    O2  881   4.152   1.850  13.628  0.5596  0.3026 -0.3383
   57TMC2    O5  882   4.051   1.992  13.774 -0.8886 -0.2319 -0.1186
   57TMC2    H5  883   4.011   2.081  13.759 -0.7436 -0.4445 -1.7692
   58MPD2     C  884   3.255   1.757  13.647  0.1784 -0.3726  0.4746
   58MPD2    C1  885   3.281   1.884  13.698 -0.2319  0.0029  0.0186
   58MPD2    C2  886   3.393   1.947  13.646  1.1103  0.0868  0.0485
   58MPD2    C3  887   3.471   1.893  13.544 -0.0374  0.7445  0.1380
   58MPD2    C4  888   3.429   1.770  13.492 -0.7106 -0.5904  0.1952
   58MPD2    C5  889   3.311   1.712  13.540  0.3589 -0.0777  0.0719
   58MPD2     H  890   3.413   2.044  13.691 -0.7102  0.7311 -0.5220
   58MPD2    H1  891   3.491   1.727  13.414  1.0129 -0.2271  1.3762
   58MPD2    H2  892   3.166   1.704  13.678 -0.8217  1.0733  0.0972
   58MPD2    H3  893   3.268   1.629  13.486 -1.1026  1.0725 -0.5189
   58MPD2     N  894   3.585   1.944  13.492 -0.1592  0.0235  0.1573
   58MPD2    H5  895   3.646   1.884  13.438  1.0691  1.6208 -0.1967
   58MPD2    N1  896   3.199   1.955  13.791 -0.3027 -0.1505  0.5306
   58MPD2    H7  897   3.225   2.052  13.805 -2.8193  0.5452  0.5376
   59MPD2     C  898   1.404   1.794  13.371 -0.2138 -0.3816 -0.1937
   59MPD2    C1  899   1.418   1.895  13.275 -0.5410  0.3267 -0.1664
   59MPD2    C2  900   1.509   1.994  13.290 -0.6923  0.2793 -0.6049
   59MPD2    C3  901   1.567   2.001  13.418  0.3744 -1.0224  0.4649
   59MPD2    C4  902   1.552   1.905  13.515 -0.9792 -0.7522  0.5460
   59MPD2    C5  903   1.467   1.805  13.488 -0.0641  0.6813  0.2853
   59MPD2     H  904   1.543   2.066  13.218 -1.2595 -0.4480 -1.5958
   59MPD2    H1  905   1.599   1.901  13.612 -1.5859 -0.6847  0.8427
   59MPD2    H2  906   1.333   1.714  13.358 -1.0095  0.1791  0.6752
   59MPD2    H3  907   1.449   1.724  13.558  0.4117  2.5020  2.5165
   59MPD2     N  908   1.655   2.115  13.453 -0.0694  0.1325  0.1923
   59MPD2    H5  909   1.695   2.110  13.546 -2.0643 -0.1943  1.0311
   59MPD2    N1  910   1.350   1.886  13.146 -0.5531  0.0674 -0.2158
   59MPD2    H7  911   1.376   1.951  13.073 -0.8581 -0.0322 -0.4148
   60TCq2    C1  912   1.232   1.807  13.128  0.0204 -1.0513 -0.0882
   60TCq2    O2  913   1.160   1.748  13.206  0.4182  0.4623  0.3580
   60TCq2    C2  914   1.190   1.815  12.991 -0.3483 -0.3724 -0.4543
   60TCq2    C3  915   1.052   1.827  12.969  0.8928  0.0665  0.5241
   60TCq2    C4  916   1.009   1.855  12.841  0.3710 -0.3841  0.1054
   60TCq2    C5  917   1.102   1.883  12.742 -0.1123  0.1768  0.2980
   60TCq2    C6  918   1.237   1.862  12.760 -0.2328  0.6219  0.1473
   60TCq2    C7  919   1.282   1.815  12.888 -0.3446  0.8691 -0.5448
   60TCq2    C8  920   1.333   1.913  12.655  0.7440 -0.6919 -0.0760
   60TCq2    O4  921   1.452   1.891  12.678 -0.1630  0.2620  0.5017
   60TCq2    C9  922   0.874   1.912  12.820 -0.4092  0.5076  0.1665
   60TCq2    O5  923   0.864   1.992  12.725  0.2541 -0.1995 -0.0122
   60TCq2    O6  924   0.786   1.898  12.912  0.6673  0.3014  0.2340
   60TCq2    H2  925   0.977   1.817  13.047  0.3814 -1.4878 -0.1721
   60TCq2    H3  926   1.066   1.925  12.648  1.3934 -1.8668 -1.1702
   60TCq2    H4  927   1.390   1.815  12.898 -0.3622  0.6936 -0.3617
   61MPD2     C  928   0.682   3.134  15.753  0.6165  0.0634 -0.1827
   61MPD2    C1  929   0.645   3.243  15.674  0.4428 -0.7090 -0.1462
   61MPD2    C2  930   0.718   3.267  15.558 -0.0284  0.4970  0.4254
   61MPD2    C3  931   0.823   3.181  15.526 -0.5367  0.5133 -0.0810
   61MPD2    C4  932   0.855   3.072  15.600  0.1848 -0.1348  0.0468
   61MPD2    C5  933   0.781   3.052  15.716  0.1153  0.5872 -0.9460
   61MPD2     H  934   0.704   3.357  15.500 -0.1156  0.0033 -0.3217
   61MPD2    H1  935   0.937   3.011  15.564  1.0130  1.5200 -0.8056
   61MPD2    H2  936   0.628   3.102  15.842  1.2599 -1.6811 -0.4323
   61MPD2    H3  937   0.802   2.966  15.778 -0.8615  0.4344 -0.8292
   61MPD2     N  938   0.911   3.215  15.417 -0.0594 -0.2817  0.3636
   61MPD2    H5  939   1.001   3.169  15.406  0.0385  0.7990 -3.1753
   61MPD2    N1  940   0.547   3.339  15.719 -0.5260  0.0826 -0.1842
   61MPD2    H7  941   0.523   3.408  15.648 -1.0293 -0.4918 -0.5798
   62TCq2    C1  942   0.482   3.347  15.837 -0.4991 -0.0776  0.2852
   62TCq2    O2  943   0.498   3.287  15.941  0.4104  0.5936 -0.2502
   62TCq2    C2  944   0.418   3.475  15.844 -0.2020 -0.4372 -0.4256
   62TCq2    C3  945   0.316   3.496  15.934  0.2633 -0.3600  0.0419
   62TCq2    C4  946   0.267   3.618  15.961  0.0363 -0.0389 -0.5336
   62TCq2    C5  947   0.304   3.726  15.891  0.1115  0.3632  0.4608
   62TCq2    C6  948   0.407   3.706  15.793  0.5278  0.3949 -0.0713
   62TCq2    C7  949   0.462   3.584  15.770  0.3693 -0.6084  0.6547
   62TCq2    C8  950   0.438   3.818  15.701  0.2231 -0.5642  0.4763
   62TCq2    O4  951   0.526   3.787  15.621  0.1911  0.3542 -0.4570
   62TCq2    C9  952   0.184   3.638  16.076  0.0494 -0.2871  0.5769
   62TCq2    O5  953   0.128   3.751  16.088 -0.3743  0.1201  0.1944
   62TCq2    O6  954   0.173   3.543  16.156 -0.4393  0.4607 -0.0328
   62TCq2    H2  955   0.288   3.403  15.981 -1.2427  0.4656  0.7820
   62TCq2    H3  956   0.255   3.819  15.915  1.9705  1.5463 -0.3388
   62TCq2    H4  957   0.543   3.577  15.698  0.9538 -1.7116  1.4086
   63TMC2    C1  958   0.420   3.440  10.985 -0.0220 -0.8865 -0.1813
   63TMC2    C2  959   0.470   3.534  11.081 -0.4900  0.2383 -0.5026
   63TMC2    C3  960   0.554   3.625  11.036 -0.1673  0.3951  0.4574
   63TMC2    C4  961   0.447   3.447  10.851 -0.0707  0.5520 -0.3750
   63TMC2    C5  962   0.530   3.549  10.815  0.2027  0.0799  0.7190
   63TMC2    C6  963   0.587   3.630  10.903 -0.8445  0.5131  0.7045
   63TMC2     C  964   0.321   3.346  11.027  1.1489  0.2156 -0.1533
   63TMC2     O  965   0.261   3.383  11.127  0.0172  0.5184 -0.1272
   63TMC2     H  966   0.435   3.543  11.184 -0.1430 -0.0100 -0.3615
   63TMC2    H1  967   0.400   3.384  10.776 -0.3934  0.3581 -0.0148
   63TMC2    H2  968   0.658   3.704  10.867 -1.6541  0.6348 -0.6494
   63TMC2    C7  969   0.512   3.590  10.677 -0.0509 -0.4480  0.3199
   63TMC2    C8  970   0.622   3.717  11.130  0.0737 -0.6185  0.0049
   63TMC2    O1  971   0.460   3.518  10.597 -0.1764  0.2102  0.1805
   63TMC2    O2  972   0.672   3.825  11.102  0.2538  0.4313 -0.4589
   63TMC2    O5  973   0.624   3.658  11.252 -0.5795 -0.0801 -0.5679
   63TMC2    H5  974   0.613   3.561  11.247 -2.6787  0.1163  0.3832
   64MPD2     C  975   0.055   2.903  10.989 -0.2086  0.2493 -0.4361
   64MPD2    C1  976   0.161   2.902  10.897 -0.4528  0.2549  0.1133
   64MPD2    C2  977   0.250   3.011  10.898  0.2208 -0.3552  0.1309
   64MPD2    C3  978   0.229   3.119  10.975  0.3759  0.1423 -0.2487
   64MPD2    C4  979   0.125   3.119  11.067  0.1166  0.2313  0.3523
   64MPD2    C5  980   0.047   3.010  11.078  0.6057 -1.0575  0.5038
   64MPD2     H  981   0.336   3.010  10.833 -0.5237 -0.2818 -0.8494
   64MPD2    H1  982   0.095   3.206  11.123 -1.1199  0.8229 -1.2502
   64MPD2    H2  983   4.709   2.820  10.989  2.1735 -1.7621  0.3801
   64MPD2    H3  984   4.697   3.009  11.157 -0.2647  2.3823 -0.2590
   64MPD2     N  985   0.323   3.228  10.955 -0.0592  0.3511 -0.2141
   64MPD2    H5  986   0.389   3.215  10.879  0.4535 -0.6899  0.4007
   64MPD2    N1  987   0.186   2.789  10.819  0.3152 -0.1895  0.1924
   64MPD2    H7  988   0.261   2.794  10.750  0.1721 -1.0909 -0.0358
   65MPD2     C  989   1.676   2.682  15.881  0.1716  0.5757  0.1032
   65MPD2    C1  990   1.663   2.654  15.750  0.1203 -0.3895 -0.4419
   65MPD2    C2  991   1.659   2.520  15.715  0.0064 -0.0849 -0.4291
   65MPD2    C3  992   1.635   2.424  15.812 -0.7180 -0.7477  0.3557
   65MPD2    C4  993   1.655   2.458  15.939  0.3454  0.0021  0.1313
   65MPD2    C5  994   1.679   2.579  15.977  0.9166 -0.0887 -0.5461
   65MPD2     H  995   1.680   2.498  15.611  0.5925 -2.4237  0.1808
   65MPD2    H1  996   1.643   2.385  16.018  1.2921  0.9726  1.1599
   65MPD2    H2  997   1.688   2.785  15.915  0.6137  0.0602  1.4997
   65MPD2    H3  998   1.691   2.599  16.083 -0.4695  0.0141 -0.4092
   65MPD2     N  999   1.594   2.291  15.800 -0.1350 -0.1751  0.0087
   65MPD2    H5 1000   1.567   2.245  15.886 -2.4526  1.7070  0.3063
   65MPD2    N1 1001   1.675   2.753  15.660 -0.2707  0.1146 -0.8905
   65MPD2    H7 1002   1.694   2.720  15.566 -1.3832 -1.0321 -0.7135
   66TCq2    C1 1003   1.638   2.890  15.676  0.6830 -0.4170 -0.2030
   66TCq2    O2 1004   1.583   2.947  15.767  0.0832  0.3582  0.0592
   66TCq2    C2 1005   1.672   2.966  15.553  0.4265 -0.3228  0.6748
   66TCq2    C3 1006   1.783   2.937  15.473  0.2074 -0.0742 -0.1850
   66TCq2    C4 1007   1.813   3.038  15.389 -0.5814  0.2228  0.1381
   66TCq2    C5 1008   1.746   3.158  15.380  0.2249  0.2715  0.4139
   66TCq2    C6 1009   1.629   3.175  15.453  0.2308  0.7393  0.5118
   66TCq2    C7 1010   1.591   3.082  15.545  0.0116  0.2397 -0.0701
   66TCq2    C8 1011   1.558   3.296  15.451 -0.7417  0.3285  0.4989
   66TCq2    O4 1012   1.580   3.354  15.347 -0.5788  0.3761 -0.2481
   66TCq2    C9 1013   1.931   3.021  15.305 -0.6290 -0.5127 -0.7409
   66TCq2    O5 1014   1.971   3.119  15.236  0.1606  0.7549  0.8368
   66TCq2    O6 1015   1.981   2.905  15.310  0.1165 -0.1413  0.2424
   66TCq2    H2 1016   1.856   2.859  15.490  0.2258 -0.0777 -0.2810
   66TCq2    H3 1017   1.774   3.231  15.304 -0.8821 -0.4133 -0.6582
   66TCq2    H4 1018   1.501   3.087  15.605 -1.2036 -0.2425 -1.8294
   67MPD2     C 1019   1.632   1.956  14.244  0.7474  0.4212  0.5193
   67MPD2    C1 1020   1.593   2.083  14.287  0.2696  0.4166  0.7545
   67MPD2    C2 1021   1.488   2.145  14.224 -0.1443  0.3067  0.3626
   67MPD2    C3 1022   1.414   2.077  14.130 -0.1884 -0.9273 -0.7051
   67MPD2    C4 1023   1.440   1.947  14.105 -0.7010 -0.7058 -0.0556
   67MPD2    C5 1024   1.552   1.890  14.155  0.8409  0.1702  0.2254
   67MPD2     H 1025   1.450   2.239  14.263 -1.9802 -0.4009  0.2611
   67MPD2    H1 1026   1.384   1.888  14.034 -1.6329  0.9660 -0.7321
   67MPD2    H2 1027   1.723   1.910  14.280  0.6116 -0.1211  0.1602
   67MPD2    H3 1028   1.575   1.790  14.121  1.0920  0.6606 -1.0703
   67MPD2     N 1029   1.296   2.134  14.075 -0.1068 -0.2262  0.4818
   67MPD2    H5 1030   1.241   2.072  14.016 -1.5437  1.0293  0.5200
   67MPD2    N1 1031   1.644   2.141  14.404 -0.8836 -0.4973  0.5925
   67MPD2    H7 1032   1.613   2.238  14.413  0.5752  0.1058 -1.0224
   68TCq2    C1 1033   1.720   2.077  14.496 -0.4537 -0.5538  0.6682
   68TCq2    O2 1034   1.782   1.970  14.496 -0.1485  0.4200  0.7499
   68TCq2    C2 1035   1.730   2.155  14.622 -0.5499  0.3221 -0.3117
   68TCq2    C3 1036   1.628   2.237  14.662 -0.5413 -0.3984 -0.0711
   68TCq2    C4 1037   1.617   2.277  14.793 -0.1743 -0.7492 -0.2815
   68TCq2    C5 1038   1.704   2.231  14.882  0.3215  0.5801  0.6119
   68TCq2    C6 1039   1.806   2.144  14.844  0.2393 -0.1210  0.7955
   68TCq2    C7 1040   1.819   2.103  14.711 -0.2699  0.3103 -0.3903
   68TCq2    C8 1041   1.927   2.122  14.919 -0.3151 -0.3409 -0.2481
   68TCq2    O4 1042   1.995   2.031  14.873 -0.0859  0.1406  0.4501
   68TCq2    C9 1043   1.518   2.376  14.833  0.2392 -0.1323 -0.4005
   68TCq2    O5 1044   1.466   2.436  14.738 -0.5840 -0.3013  0.1361
   68TCq2    O6 1045   1.503   2.395  14.956 -0.4787 -0.1934 -0.3142
   68TCq2    H2 1046   1.551   2.271  14.593 -0.0427  1.1597  0.1310
   68TCq2    H3 1047   1.695   2.272  14.982  2.2801  0.3187  0.9044
   68TCq2    H4 1048   1.902   2.042  14.679 -0.5089  0.4160 -1.1951
   69TMC2    C1 1049   3.100   3.571  11.674  0.1012 -0.1927  0.1662
   69TMC2    C2 1050   2.974   3.542  11.637  0.1477  0.4748  1.1455
   69TMC2    C3 1051   2.945   3.530  11.504 -0.1720 -0.7409  0.0043
   69TMC2    C4 1052   3.198   3.594  11.586 -0.6481  0.4296 -0.1159
   69TMC2    C5 1053   3.175   3.585  11.451  0.0061  0.0272 -0.5657
   69TMC2    C6 1054   3.045   3.551  11.410 -0.4095 -0.4000 -0.1773
   69TMC2     C 1055   3.141   3.558  11.810  0.3480 -0.4121  0.1027
   69TMC2     O 1056   3.056   3.505  11.880 -0.0895 -0.5032  0.3102
   69TMC2     H 1057   2.899   3.509  11.708 -2.0583  1.2926 -0.7805
   69TMC2    H1 1058   3.301   3.599  11.618 -0.3021 -2.4281 -0.7707
   69TMC2    H2 1059   3.030   3.555  11.303 -2.3121  2.5988  0.2019
   69TMC2    C7 1060   3.281   3.514  11.381 -0.4471 -0.2442  0.4521
   69TMC2    C8 1061   2.810   3.534  11.457 -0.0763 -0.0060 -0.7091
   69TMC2    O1 1062   3.371   3.478  11.455  0.7715 -0.0247 -0.3188
   69TMC2    O2 1063   2.786   3.516  11.337 -0.4028 -0.6493 -0.4708
   69TMC2    O5 1064   2.755   3.635  11.532 -0.6903  0.1126 -0.8630
   69TMC2    H5 1065   2.797   3.642  11.620  0.2909  1.6967 -1.4510
   70MPD2     C 1066   3.426   3.689  11.997  0.2121  0.1429 -1.3127
   70MPD2    C1 1067   3.321   3.614  11.970 -0.1283  0.3380 -0.6269
   70MPD2    C2 1068   3.262   3.544  12.081 -0.7586 -0.7186  0.0005
   70MPD2    C3 1069   3.332   3.537  12.198 -0.4442  0.4073 -0.0570
   70MPD2    C4 1070   3.446   3.610  12.215  0.4090 -0.5089 -0.6041
   70MPD2    C5 1071   3.488   3.693  12.121 -0.4490 -0.2608 -0.4765
   70MPD2     H 1072   3.180   3.474  12.070 -1.1454 -0.1788 -0.5242
   70MPD2    H1 1073   3.501   3.609  12.309  2.4973 -1.9206 -1.8391
   70MPD2    H2 1074   3.473   3.747  11.918  3.3233 -2.2974 -1.2237
   70MPD2    H3 1075   3.578   3.749  12.143 -0.5491  0.0570 -0.8872
   70MPD2     N 1076   3.285   3.470  12.317 -1.0867  0.0556 -0.3434
   70MPD2    H5 1077   3.352   3.477  12.394  0.9901 -0.7477 -2.0841
   70MPD2    N1 1078   3.267   3.606  11.836  0.5344 -0.0830  0.1978
   70MPD2    H7 1079   3.303   3.659  11.757  1.0248  0.4155  0.7517
   71TMC2    C1 1080   1.023   4.341   1.878 -1.2184  0.0497 -0.2179
   71TMC2    C2 1081   1.104   4.414   1.961 -0.4907  0.4410  0.4977
   71TMC2    C3 1082   1.054   4.453   2.083 -0.2270 -0.7474  0.1111
   71TMC2    C4 1083   0.903   4.301   1.916  0.6120  0.4664  0.5436
   71TMC2    C5 1084   0.855   4.344   2.036 -0.9000  0.2378  0.3014
   71TMC2    C6 1085   0.929   4.415   2.124  0.1892 -0.1739 -0.4298
   71TMC2     C 1086   1.086   4.302   1.754 -0.4196  0.2563  0.0129
   71TMC2     O 1087   1.208   4.313   1.751 -0.3891  0.0291  0.0434
   71TMC2     H 1088   1.211   4.429   1.947 -0.5931  0.4131 -0.2995
   71TMC2    H1 1089   0.843   4.242   1.847 -1.6569  1.4224  1.7318
   71TMC2    H2 1090   0.880   4.445   2.216  1.9639  0.3374  0.3420
   71TMC2    C7 1091   0.718   4.324   2.071  0.0205 -0.2454  0.2338
   71TMC2    C8 1092   1.146   4.507   2.180  0.4333 -0.5695 -0.7917
   71TMC2    O1 1093   0.685   4.344   2.186  0.2657 -1.0402 -0.0814
   71TMC2    O2 1094   1.269   4.498   2.161 -0.0144 -0.1704  0.2086
   71TMC2    O5 1095   1.090   4.604   2.260  0.4905  0.0465 -0.2445
   71TMC2    H5 1096   0.992   4.605   2.258  0.5222  1.3362 -0.8264
   72MPD2     C 1097   1.106   4.176   1.257 -1.0229 -0.6479  0.1400
   72MPD2    C1 1098   1.201   4.163   1.353 -0.4867 -0.5291  0.6472
   72MPD2    C2 1099   1.171   4.182   1.484 -0.1913  0.1905  1.4142
   72MPD2    C3 1100   1.039   4.232   1.522  0.0138 -0.3008 -0.2231
   72MPD2    C4 1101   0.947   4.247   1.416 -0.0655  0.1952  0.0421
   72MPD2    C5 1102   0.981   4.209   1.291 -0.2004 -0.1046  0.0071
   72MPD2     H 1103   1.244   4.180   1.564  0.5288 -1.3849  0.7115
   72MPD2    H1 1104   0.846   4.287   1.425 -0.5613 -1.1162  0.2829
   72MPD2    H2 1105   1.123   4.148   1.154 -0.0055  1.2717 -0.2062
   72MPD2    H3 1106   0.907   4.213   1.212  1.6292 -1.3030 -1.7335
   72MPD2     N 1107   0.995   4.258   1.653 -0.3474 -0.0887  0.5264
   72MPD2    H5 1108   0.896   4.266   1.675 -0.6727  0.9500 -1.3380
   72MPD2    N1 1109   1.339   4.139   1.314 -0.0340  0.4009  0.1680
   72MPD2    H7 1110   1.411   4.155   1.383 -0.6861  2.3469  0.3920
   73TMC2    C1 1111   0.698   0.841  14.025 -0.4682  0.1828 -0.1132
   73TMC2    C2 1112   0.612   0.915  14.102  0.4926  0.3883  0.3813
   73TMC2    C3 1113   0.634   0.908  14.236 -0.3346 -0.7944  0.3045
   73TMC2    C4 1114   0.796   0.762  14.079  0.2486 -0.2384 -0.1208
   73TMC2    C5 1115   0.816   0.759  14.212 -0.1140 -0.0338 -0.5763
   73TMC2    C6 1116   0.735   0.835  14.296  0.3989 -0.3454 -0.2795
   73TMC2     C 1117   0.746   0.876  13.890  0.2227 -0.1586  0.6203
   73TMC2     O 1118   0.870   0.859  13.878  0.3678 -0.3269  0.6710
   73TMC2     H 1119   0.518   0.947  14.060  1.0108 -0.2806 -1.2544
   73TMC2    H1 1120   0.843   0.693  14.009 -1.9662 -1.1045 -0.7491
   73TMC2    H2 1121   0.768   0.853  14.398  1.6075  1.5655 -0.9965
   73TMC2    C7 1122   0.958   0.784  14.241 -0.0070  0.4591  0.0644
   73TMC2    C8 1123   0.533   0.963  14.325 -0.2720  0.0489 -0.6923
   73TMC2    O1 1124   1.005   0.783  14.352 -0.0965  0.0458 -0.5669
   73TMC2    O2 1125   0.508   0.920  14.436 -0.0309 -0.2668  0.1189
   73TMC2    O5 1126   0.485   1.076  14.271 -0.9180 -0.6026  0.2505
   73TMC2    H5 1127   0.534   1.104  14.191 -2.2191  2.0233  0.3471
   74MPD2     C 1128   0.745   1.078  13.420 -0.1799 -0.5174 -0.4492
   74MPD2    C1 1129   0.844   1.069  13.512 -0.5697 -0.4472  0.0366
   74MPD2    C2 1130   0.816   1.013  13.634 -0.2269  0.4746  0.1249
   74MPD2    C3 1131   0.690   0.975  13.674  0.5821  0.2265  0.3729
   74MPD2    C4 1132   0.590   0.995  13.577 -0.3685  0.2746 -0.3248
   74MPD2    C5 1133   0.618   1.047  13.453  0.7147 -0.3885 -0.1500
   74MPD2     H 1134   0.895   0.995  13.706 -0.0307 -4.8747 -1.3764
   74MPD2    H1 1135   0.487   0.979  13.609  0.1796 -0.8200  0.8769
   74MPD2    H2 1136   0.764   1.118  13.321 -0.1740  0.0431 -0.2168
   74MPD2    H3 1137   0.538   1.067  13.382 -0.4678  0.2155  1.3736
   74MPD2     N 1138   0.653   0.932  13.798  0.5820 -0.3930  0.1670
   74MPD2    H5 1139   0.552   0.930  13.810  0.8755  1.7066  2.7809
   74MPD2    N1 1140   0.972   1.123  13.489 -0.9386 -0.7291  0.2699
   74MPD2    H7 1141   0.991   1.143  13.391  0.3441 -1.4922  0.3628
   75TCq2    C1 1142   1.258   2.269  14.082  0.5954 -0.4336  0.0187
   75TCq2    O2 1143   1.321   2.364  14.121  0.1573  0.3459 -0.0940
   75TCq2    C2 1144   1.135   2.290  14.017 -0.6126  0.2311  0.4448
   75TCq2    C3 1145   1.036   2.191  14.024 -0.2697  0.3524 -1.0341
   75TCq2    C4 1146   0.912   2.232  13.988 -0.0950  0.5406  0.8139
   75TCq2    C5 1147   0.879   2.359  13.944 -0.6313  1.1757  0.4015
   75TCq2    C6 1148   0.980   2.449  13.930 -0.1321 -0.7184 -0.1945
   75TCq2    C7 1149   1.104   2.418  13.976 -0.2886 -0.2507  0.0270
   75TCq2    C8 1150   0.960   2.566  13.846  0.6390 -0.8075 -0.0790
   75TCq2    O4 1151   1.021   2.669  13.870  0.0969  0.0335 -0.0379
   75TCq2    C9 1152   0.813   2.128  13.992 -0.0234  0.2317  0.1300
   75TCq2    O5 1153   0.849   2.010  13.983 -0.1896  0.9513  0.2838
   75TCq2    O6 1154   0.699   2.159  13.951 -0.9761  0.3188 -0.2363
   75TCq2    H2 1155   1.058   2.090  14.056 -1.7560  0.3781  0.0588
   75TCq2    H3 1156   0.781   2.395  13.916 -0.6011  0.0547 -1.1272
   75TCq2    H4 1157   1.185   2.487  13.957  0.0039 -0.7288 -0.4466
   76MPD2     C 1158   4.273   3.159  11.726 -0.4234 -0.2071  0.7766
   76MPD2    C1 1159   4.307   3.100  11.613 -0.2133  0.8756  0.0648
   76MPD2    C2 1160   4.433   3.042  11.602 -0.5028 -0.3671  0.2381
   76MPD2    C3 1161   4.521   3.040  11.713 -0.8553  0.1583  0.0116
   76MPD2    C4 1162   4.479   3.099  11.832  0.2024  0.0778 -0.1458
   76MPD2    C5 1163   4.353   3.156  11.835  0.1516  0.3740  0.3116
   76MPD2     H 1164   4.448   2.972  11.521  0.3701  1.6623 -1.3297
   76MPD2    H1 1165   4.543   3.111  11.918 -0.0356  1.2981 -0.1383
   76MPD2    H2 1166   4.175   3.204  11.728 -0.3953 -0.1233  0.3826
   76MPD2    H3 1167   4.315   3.203  11.924  0.8958  0.2133  0.7106
   76MPD2     N 1168   4.638   2.971  11.713 -0.4080  1.1274 -0.1664
   76MPD2    H5 1169   4.679   2.937  11.799  0.0316  1.0624 -0.3972
   76MPD2    N1 1170   4.218   3.078  11.506 -0.6030  0.6245 -0.4434
   76MPD2    H7 1171   4.265   3.052  11.420 -0.2708  0.7161 -0.2896
   77TCq2    C1 1172   4.694   2.936  11.598 -0.0518 -0.4829 -0.3139
   77TCq2    O2 1173   4.677   2.983  11.483  0.3349  0.0709  0.0228
   77TCq2    C2 1174   0.054   2.821  11.613  0.2837 -0.2342 -0.2467
   77TCq2    C3 1175   0.075   2.739  11.506 -0.3637 -0.4277 -0.1768
   77TCq2    C4 1176   0.138   2.620  11.522 -0.4380 -0.5599  0.3055
   77TCq2    C5 1177   0.192   2.590  11.639  0.1453  0.0961  0.4336
   77TCq2    C6 1178   0.177   2.679  11.742 -0.0047 -0.2128  1.0258
   77TCq2    C7 1179   0.113   2.799  11.734  0.2399 -0.0141 -0.0336
   77TCq2    C8 1180   0.237   2.651  11.870  0.8828 -0.5286  0.1559
   77TCq2    O4 1181   0.296   2.743  11.918 -0.0794 -0.2221  0.1979
   77TCq2    C9 1182   0.159   2.526  11.410 -0.6536 -0.3201 -0.1198
   77TCq2    O5 1183   0.129   2.565  11.294  0.5567  0.2383  0.9415
   77TCq2    O6 1184   0.194   2.405  11.442 -0.0557  0.4880 -0.2167
   77TCq2    H2 1185   0.023   2.767  11.415 -0.2136 -0.4017 -0.2548
   77TCq2    H3 1186   0.240   2.493  11.650 -0.3968 -0.3585 -1.2308
   77TCq2    H4 1187   0.099   2.857  11.824 -1.1082 -1.3950  0.6403
   78MPD1     C 1188   0.065   3.624   1.437 -0.1598  0.6644  0.5866
   78MPD1    C1 1189   0.067   3.658   1.576  0.6861 -0.2757 -0.1072
   78MPD1    C2 1190   0.182   3.712   1.631  0.5478 -0.2706 -0.2597
   78MPD1    C3 1191   0.296   3.722   1.554 -0.2597  0.4041 -0.2756
   78MPD1    C4 1192   0.287   3.694   1.423 -0.4908  0.5685  1.0016
   78MPD1    C5 1193   0.179   3.643   1.361 -0.0948  0.2654 -1.1121
   78MPD1     H 1194   0.172   3.730   1.737 -1.4386 -0.2192 -0.4557
   78MPD1    H1 1195   0.368   3.706   1.351  0.6708 -0.7429  2.0854
   78MPD1    H2 1196   4.709   3.567   1.390  0.3572  0.1390  0.3378
   78MPD1    H3 1197   0.184   3.616   1.256  1.6375 -1.0216 -0.6825
   78MPD1     N 1198   0.421   3.757   1.602 -1.0815 -0.5355 -0.0092
   78MPD1    H5 1199   0.501   3.756   1.538 -1.6327  0.5653 -0.7294
   78MPD1    N1 1200   4.684   3.623   1.663 -0.0006  0.4368 -0.1763
   78MPD1    H6 1201   4.589   3.642   1.631 -0.3929 -1.6565 -0.2069
   78MPD1    H7 1202   4.691   3.685   1.743 -3.2830  0.2377  0.2437
   79TCq2    C1 1203   0.457   3.797   1.731  0.0288  0.1340  0.7650
   79TCq2    O2 1204   0.386   3.797   1.829 -0.5755  0.4874  0.2793
   79TCq2    C2 1205   0.593   3.862   1.732  0.0483  0.2418  0.0648
   79TCq2    C3 1206   0.643   3.889   1.859 -0.0631 -0.4304  0.2978
   79TCq2    C4 1207   0.765   3.935   1.870  0.5773 -0.5913 -0.4612
   79TCq2    C5 1208   0.849   3.952   1.761 -0.3072 -0.3700 -1.1812
   79TCq2    C6 1209   0.797   3.931   1.639  0.2406 -0.5641 -0.0562
   79TCq2    C7 1210   0.668   3.875   1.620 -0.3290 -0.1790 -0.1722
   79TCq2    C8 1211   0.904   3.904   1.541  0.6040 -0.8511 -0.1280
   79TCq2    O4 1212   1.012   3.869   1.591 -0.0470 -0.0379  0.1023
   79TCq2    C9 1213   0.826   3.946   1.999  0.1706  0.0482 -0.1436
   79TCq2    O5 1214   0.768   3.904   2.101 -0.6717  0.6190  0.5031
   79TCq2    O6 1215   0.933   4.012   2.006  0.0236 -0.3050 -0.2672
   79TCq2    H2 1216   0.582   3.878   1.948 -0.9590 -1.8811 -0.4853
   79TCq2    H3 1217   0.954   3.976   1.770 -0.6924  1.3291 -1.2288
   79TCq2    H4 1218   0.639   3.862   1.516  0.7545  1.0871 -0.6439
   80MPD2     C 1219   3.953   2.641  12.153 -0.2159 -0.9727 -0.7316
   80MPD2    C1 1220   3.869   2.591  12.050 -0.2365  0.1807  0.1494
   80MPD2    C2 1221   3.730   2.614  12.049  0.4519  0.5521  0.7321
   80MPD2    C3 1222   3.671   2.696  12.154  0.6585  0.9459 -0.0057
   80MPD2    C4 1223   3.753   2.733  12.259  0.5271  0.6467  0.4877
   80MPD2    C5 1224   3.888   2.703  12.257  0.0237 -0.5540 -0.2435
   80MPD2     H 1225   3.666   2.576  11.970  2.2027  0.3009 -0.5577
   80MPD2    H1 1226   3.712   2.792  12.341 -2.2770  1.2270 -1.3266
   80MPD2    H2 1227   4.059   2.617  12.157 -0.2876 -1.2695 -0.6164
   80MPD2    H3 1228   3.949   2.737  12.340 -0.7405  0.0050  0.0979
   80MPD2     N 1229   3.540   2.738  12.160 -0.2351  0.3513  0.0392
   80MPD2    H5 1230   3.505   2.779  12.246 -0.2000 -2.0239  1.1836
   80MPD2    N1 1231   3.925   2.524  11.942  0.0847  0.1054 -0.2626
   80MPD2    H7 1232   3.861   2.499  11.867 -0.4201  0.1733  0.1445
   81TCq2    C1 1233   4.058   2.499  11.912  0.1829 -0.4064 -0.2299
   81TCq2    O2 1234   4.159   2.551  11.962 -0.2299  0.3491 -0.0690
   81TCq2    C2 1235   4.063   2.419  11.792  0.5691  0.1678 -0.3762
   81TCq2    C3 1236   4.189   2.412  11.731  0.9246  0.5362 -0.5001
   81TCq2    C4 1237   4.199   2.315  11.636 -0.3606 -0.0496  0.0699
   81TCq2    C5 1238   4.109   2.209  11.623  0.2386 -0.7293 -0.7939
   81TCq2    C6 1239   4.001   2.204  11.705  0.1498 -0.3632 -0.8037
   81TCq2    C7 1240   3.978   2.310  11.785 -0.7799  0.8897 -0.2925
   81TCq2    C8 1241   3.896   2.110  11.665 -1.3139 -0.5492 -0.2301
   81TCq2    O4 1242   3.911   2.040  11.567  0.4154  0.2415  0.2750
   81TCq2    C9 1243   4.321   2.307  11.555 -0.4077  0.5292  0.0100
   81TCq2    O5 1244   4.419   2.381  11.598  0.0949 -0.6403 -0.1995
   81TCq2    O6 1245   4.338   2.205  11.487  0.6806 -0.3725  0.2332
   81TCq2    H2 1246   4.259   2.494  11.739 -0.2294  1.3731  1.1127
   81TCq2    H3 1247   4.124   2.136  11.544  2.7235 -0.9731 -0.1063
   81TCq2    H4 1248   3.902   2.302  11.862  0.4547  1.7883  1.0087
   82MPD2     C 1249   1.692   2.296  10.721  0.5939  0.3958  0.2427
   82MPD2    C1 1250   1.699   2.165  10.667  0.1517  0.1097  0.1818
   82MPD2    C2 1251   1.790   2.076  10.721  0.3790  0.3169 -0.3323
   82MPD2    C3 1252   1.859   2.106  10.833  0.3720 -0.0173 -0.0738
   82MPD2    C4 1253   1.846   2.231  10.884 -0.0375  0.4111  0.5938
   82MPD2    C5 1254   1.765   2.329  10.828  0.0109  0.2910  0.5240
   82MPD2     H 1255   1.793   1.974  10.685  2.9630  0.0567  0.6329
   82MPD2    H1 1256   1.913   2.260  10.964  1.8920 -0.0781 -0.8310
   82MPD2    H2 1257   1.627   2.369  10.674 -1.0939  0.9134  3.3523
   82MPD2    H3 1258   1.764   2.427  10.875  0.9981  0.0165  1.1256
   82MPD2     N 1259   1.943   2.020  10.897 -0.3509  0.4831 -0.6891
   82MPD2    H5 1260   1.990   2.047  10.982 -0.4202 -2.0635  0.1479
   82MPD2    N1 1261   1.633   2.143  10.540  0.2411  0.1675 -0.4182
   82MPD2    H7 1262   1.579   2.222  10.504  0.7173  0.9938  0.6958
   83TCq2    C1 1263   1.992   1.902  10.845  1.0794 -0.0219  0.1508
   83TCq2    O2 1264   1.971   1.843  10.740 -0.4286  0.4140 -0.1782
   83TCq2    C2 1265   2.097   1.835  10.928 -0.4538  0.2840  0.1986
   83TCq2    C3 1266   2.185   1.921  10.988 -0.4773 -0.1208  0.9357
   83TCq2    C4 1267   2.251   1.860  11.090  0.1617 -0.5128 -0.3498
   83TCq2    C5 1268   2.223   1.729  11.134  0.1622 -0.3218 -0.3312
   83TCq2    C6 1269   2.130   1.650  11.063  0.1461  0.0607  0.1790
   83TCq2    C7 1270   2.064   1.705  10.961  0.0535  0.1465  0.6802
   83TCq2    C8 1271   2.065   1.540  11.138 -0.3188 -0.3153 -1.0366
   83TCq2    O4 1272   2.073   1.543  11.262  0.6513  0.0355  0.4535
   83TCq2    C9 1273   2.347   1.944  11.164 -0.7519 -0.4675 -0.5272
   83TCq2    O5 1274   2.401   1.891  11.266  0.4930  0.4052 -0.5301
   83TCq2    O6 1275   2.411   2.026  11.094 -0.5737  0.1321 -0.9683
   83TCq2    H2 1276   2.204   2.021  10.951  1.3552 -0.7700  0.1374
   83TCq2    H3 1277   2.279   1.690  11.219 -1.8678  0.8340  1.5240
   83TCq2    H4 1278   1.985   1.662  10.901  0.5661 -0.9980  0.8396
   84TCq2    C1 1279   2.957   0.716  10.375  0.2214  0.4501  0.3755
   84TCq2    O2 1280   2.898   0.641  10.453  0.1455  0.2273  0.0558
   84TCq2    C2 1281   2.999   0.847  10.418 -0.3652 -0.2467 -0.1144
   84TCq2    C3 1282   3.055   0.945  10.336 -0.2383 -0.1020  0.5910
   84TCq2    C4 1283   3.096   1.066  10.378 -0.1699 -0.6286  0.7427
   84TCq2    C5 1284   3.075   1.099  10.514  0.0267  0.0649  0.2482
   84TCq2    C6 1285   3.022   1.003  10.596  0.0962 -1.0910  0.3814
   84TCq2    C7 1286   2.978   0.881  10.552  0.0638 -0.3664 -0.9688
   84TCq2    C8 1287   2.974   1.053  10.726  0.1655 -0.0689 -0.5671
   84TCq2    O4 1288   2.986   1.170  10.757 -0.0129 -0.5605 -0.5757
   84TCq2    C9 1289   3.164   1.160  10.293 -0.2177 -0.5904  0.2977
   84TCq2    O5 1290   3.178   1.133  10.171  0.3463  0.0206 -0.4612
   84TCq2    O6 1291   3.215   1.259  10.352 -0.0328  0.2338 -0.1892
   84TCq2    H2 1292   3.093   0.925  10.237  2.0808  2.2324  1.0104
   84TCq2    H3 1293   3.104   1.191  10.563 -0.2597  0.0841  0.3783
   84TCq2    H4 1294   2.935   0.812  10.623 -0.2959  0.5926 -0.2580
   85MPD2     C 1295   3.478   3.596  16.294  0.2672 -0.1246  0.9866
   85MPD2    C1 1296   3.363   3.632  16.232 -0.3251 -0.9315  0.0271
   85MPD2    C2 1297   3.359   3.743  16.149  0.1547 -0.0118 -0.0817
   85MPD2    C3 1298   3.469   3.824  16.125 -0.2649  0.3704 -0.3723
   85MPD2    C4 1299   3.587   3.792  16.195  0.2567 -0.0866  0.1496
   85MPD2    C5 1300   3.587   3.680  16.272  0.9607  0.7150  0.5199
   85MPD2     H 1301   3.271   3.762  16.088  1.3932  0.2325 -1.7818
   85MPD2    H1 1302   3.684   3.839  16.182 -0.2427  0.8989  0.0240
   85MPD2    H2 1303   3.492   3.507  16.354 -0.9992 -2.1655 -1.8116
   85MPD2    H3 1304   3.679   3.653  16.322  1.3421  2.3762  0.6966
   85MPD2     N 1305   3.454   3.923  16.026  0.0154  0.8766  0.3816
   85MPD2    H5 1306   3.362   3.929  15.985 -0.2520  2.9828  1.2887
   85MPD2    N1 1307   3.247   3.556  16.239  0.4018  0.3657  0.1728
   85MPD2    H7 1308   3.168   3.576  16.178  0.0056  1.5545  1.0662
   86TCq2    C1 1309   3.557   4.002  15.986  0.2601 -0.5468  0.4045
   86TCq2    O2 1310   3.676   3.991  16.011  0.8527 -0.7582  0.5244
   86TCq2    C2 1311   3.520   4.106  15.894 -0.6707 -0.7948  0.0005
   86TCq2    C3 1312   3.390   4.144  15.896 -0.6073 -0.4764 -0.3012
   86TCq2    C4 1313   3.360   4.254  15.813  0.2944  0.1587  0.6788
   86TCq2    C5 1314   3.442   4.299  15.717 -0.0104 -0.3324 -0.0306
   86TCq2    C6 1315   3.574   4.257  15.722 -0.1497  0.0568  0.9051
   86TCq2    C7 1316   3.607   4.156  15.810  0.4310  0.1192 -0.0204
   86TCq2    C8 1317   3.656   4.299  15.604 -0.2138  0.0184  0.0320
   86TCq2    O4 1318   3.596   4.346  15.504  0.0300  0.3713 -0.6460
   86TCq2    C9 1319   3.227   4.293  15.821  0.1001  0.2895  0.1612
   86TCq2    O5 1320   3.181   4.367  15.735 -0.1267 -0.2055  0.1783
   86TCq2    O6 1321   3.163   4.244  15.917  0.4142  0.1464  0.1217
   86TCq2    H2 1322   3.320   4.104  15.969 -0.4080 -1.2705 -0.5487
   86TCq2    H3 1323   3.406   4.371  15.645  2.8884  1.4593  0.2980
   86TCq2    H4 1324   3.710   4.125  15.817 -0.2608 -2.8271 -2.9519
   87MPD2     C 1325   1.296   2.904   1.930 -0.7880 -0.3784  0.5228
   87MPD2    C1 1326   1.311   2.918   1.790  0.2262 -0.0542  0.3701
   87MPD2    C2 1327   1.275   3.041   1.738  0.6161 -0.0234  0.4807
   87MPD2    C3 1328   1.232   3.147   1.820  0.7433 -0.1454 -0.0744
   87MPD2    C4 1329   1.229   3.136   1.961 -0.7823 -0.1194 -0.0423
   87MPD2    C5 1330   1.253   3.012   2.003  0.2009  0.7618 -0.4065
   87MPD2     H 1331   1.281   3.059   1.632  0.0986  0.6606  0.5720
   87MPD2    H1 1332   1.202   3.215   2.031 -2.6272 -0.7545 -0.0469
   87MPD2    H2 1333   1.310   2.806   1.975  1.5947  0.3494  1.3695
   87MPD2    H3 1334   1.249   3.003   2.111 -2.3785  1.7949 -0.4234
   87MPD2     N 1335   1.195   3.274   1.766  0.3977  0.0229 -0.2326
   87MPD2    H5 1336   1.167   3.351   1.825  3.8903 -0.5029  2.0644
   87MPD2    N1 1337   1.316   2.802   1.714  0.2620  0.7307  0.2159
   87MPD2    H7 1338   1.301   2.713   1.759  0.3438  0.8142  0.4076
   88TCq2    C1 1339   1.346   2.801   1.581 -0.2975  0.2527 -0.3817
   88TCq2    O2 1340   1.381   2.898   1.508 -0.3239  0.1699 -0.6101
   88TCq2    C2 1341   1.300   2.675   1.515  0.3587  0.0722 -0.6587
   88TCq2    C3 1342   1.196   2.610   1.575 -0.1444  0.2838 -0.1208
   88TCq2    C4 1343   1.134   2.512   1.500  0.0200  0.3467  0.0071
   88TCq2    C5 1344   1.161   2.493   1.365  0.1355 -0.2904  0.0540
   88TCq2    C6 1345   1.259   2.568   1.307  0.6238  0.5030  0.6911
   88TCq2    C7 1346   1.327   2.665   1.385  0.9436  0.8764 -0.0229
   88TCq2    C8 1347   1.322   2.557   1.172 -0.2576  0.0509  0.1886
   88TCq2    O4 1348   1.424   2.621   1.151 -0.2263  0.4867  0.1870
   88TCq2    C9 1349   1.044   2.420   1.567 -0.6234  0.0512 -0.0406
   88TCq2    O5 1350   0.971   2.465   1.659 -0.2266  0.1141  0.4442
   88TCq2    O6 1351   1.022   2.308   1.515 -0.8961 -0.4402 -0.5309
   88TCq2    H2 1352   1.164   2.613   1.678  1.3876  1.5721  0.3074
   88TCq2    H3 1353   1.116   2.411   1.310 -0.3350 -0.7874  1.1822
   88TCq2    H4 1354   1.404   2.725   1.337  1.6792 -0.3492 -0.3931
   89MPD2     C 1355   2.255   0.453   1.920  0.3268 -1.0864 -0.3119
   89MPD2    C1 1356   2.167   0.556   1.933 -0.0677  0.1508 -0.9330
   89MPD2    C2 1357   2.209   0.682   1.963 -0.0510 -0.4068  0.2356
   89MPD2    C3 1358   2.346   0.709   1.975 -1.2751 -0.1571 -0.5957
   89MPD2    C4 1359   2.431   0.608   1.952 -0.0240  0.0530  0.5034
   89MPD2    C5 1360   2.386   0.481   1.928 -0.9831  0.5947 -0.5736
   89MPD2     H 1361   2.133   0.759   1.966  1.1183  0.6845  1.6659
   89MPD2    H1 1362   2.538   0.615   1.941  0.2050 -0.0804  2.5555
   89MPD2    H2 1363   2.217   0.352   1.910  0.4604 -1.2044  0.3342
   89MPD2    H3 1364   2.457   0.403   1.908 -0.9076  0.6968 -0.7051
   89MPD2     N 1365   2.386   0.844   2.015 -0.2282  0.0731  0.4369
   89MPD2    H5 1366   2.309   0.907   2.037 -0.0562  0.7690 -0.9351
   89MPD2    N1 1367   2.028   0.538   1.913  0.0550 -0.2504 -0.3405
   89MPD2    H7 1368   1.963   0.616   1.915  0.0008 -0.2519 -1.8189
   90TCq2    C1 1369   2.515   0.891   2.016  0.0160 -0.2252 -0.0211
   90TCq2    O2 1370   2.612   0.839   1.962 -0.2608 -0.0702 -0.2560
   90TCq2    C2 1371   2.528   1.022   2.078 -0.0107 -0.8971  0.3578
   90TCq2    C3 1372   2.436   1.075   2.164 -0.0275  0.5982 -0.1633
   90TCq2    C4 1373   2.457   1.188   2.236 -0.0420 -0.2594 -0.2241
   90TCq2    C5 1374   2.579   1.248   2.215  0.2497  0.2652  0.9197
   90TCq2    C6 1375   2.669   1.191   2.131  0.5774  0.6298 -0.9625
   90TCq2    C7 1376   2.648   1.082   2.056 -0.8152 -0.0727  0.4555
   90TCq2    C8 1377   2.793   1.263   2.109 -0.3501 -0.0303  0.1444
   90TCq2    O4 1378   2.840   1.333   2.198 -0.2536  0.3268  0.1767
   90TCq2    C9 1379   2.350   1.235   2.330 -0.8852  0.2922  0.4811
   90TCq2    O5 1380   2.367   1.352   2.367  0.6569  0.2208  0.0961
   90TCq2    O6 1381   2.260   1.151   2.367  0.0428  0.2224  0.1254
   90TCq2    H2 1382   2.337   1.032   2.173  0.0126  0.5408 -0.0003
   90TCq2    H3 1383   2.610   1.338   2.267  0.5340  0.1681  0.9209
   90TCq2    H4 1384   2.724   1.018   2.012 -0.4785  1.7497 -1.6192
   91TMC2    C1 1385   3.934   4.620  16.726 -0.3447  0.4553 -0.1224
   91TMC2    C2 1386   4.002   4.634  16.841  0.5454 -0.2782 -0.0684
   91TMC2    C3 1387   3.925   4.672  16.948  0.3003 -0.5863 -0.6503
   91TMC2    C4 1388   3.797   4.631  16.724  0.2494 -0.5213  0.0094
   91TMC2    C5 1389   3.723   4.669  16.832  0.5089 -0.5326 -0.3953
   91TMC2    C6 1390   3.790   4.688  16.947  0.3551 -0.5896  0.0653
   91TMC2     C 1391   3.998   4.573  16.605 -0.1470 -0.2242  0.0353
   91TMC2     O 1392   3.938   4.521  16.510 -0.1039 -0.2317 -0.0557
   91TMC2     H 1393   4.109   4.618  16.846  0.0150 -2.8692  2.8380
   91TMC2    H1 1394   3.753   4.620  16.626 -1.6596 -1.0499  0.9198
   91TMC2    H2 1395   3.736   4.710  17.039 -1.4498 -0.6060 -0.9896
   91TMC2    C7 1396   3.575   4.645  16.849  0.2334  0.3274  0.2783
   91TMC2    C8 1397   3.983   4.679  17.079 -0.4389  0.2091 -0.1547
   91TMC2    O1 1398   3.532   4.637  16.963 -0.3548  0.4125 -0.9607
   91TMC2    O2 1399   3.929   0.009  17.174  0.1306  0.3223  0.2083
   91TMC2    O5 1400   4.057   4.575  17.093  0.6863  0.4090 -0.2140
   91TMC2    H5 1401   4.075   4.533  17.006  0.1632  1.4351 -0.8090
   92MPD2     C 1402   4.214   4.453  16.434  0.4347  0.1851  0.1356
   92MPD2    C1 1403   4.221   4.566  16.512 -0.5118  0.2474 -0.7309
   92MPD2    C2 1404   4.344   4.640  16.508  0.6301 -0.2788  0.2062
   92MPD2    C3 1405   4.437   4.607  16.411 -0.5411 -0.0564 -0.4531
   92MPD2    C4 1406   4.417   4.503  16.327 -0.2121 -0.4410  0.1020
   92MPD2    C5 1407   4.308   4.429  16.337  0.3813  0.1964  0.3421
   92MPD2     H 1408   4.365   4.724  16.573 -1.4452  0.1132  0.3800
   92MPD2    H1 1409   4.484   4.485  16.243  0.7108  0.3344  0.6745
   92MPD2    H2 1410   4.141   4.372  16.446 -0.1286  0.9435  1.8135
   92MPD2    H3 1411   4.297   4.331  16.292 -0.3204  1.0359 -1.3091
   92MPD2     N 1412   4.555   4.691  16.403 -0.1483 -0.4928 -0.5983
   92MPD2    H5 1413   4.562   0.046  16.466  0.3765 -2.3407  1.6799
   92MPD2    N1 1414   4.135   4.594  16.619 -0.7017  0.1736 -0.0051
   92MPD2    H7 1415   4.162   4.663  16.688  0.5377 -0.0967 -0.2280
   93MPD2     C 1416   1.015   4.394  13.814  0.3748 -0.4800  0.0548
   93MPD2    C1 1417   1.003   4.528  13.799 -0.0495 -0.2352 -0.4745
   93MPD2    C2 1418   0.876   4.581  13.794  0.5006  0.2118 -0.5079
   93MPD2    C3 1419   0.770   4.502  13.784  0.0796 -0.0895 -0.3192
   93MPD2    C4 1420   0.781   4.363  13.800 -0.1038 -0.2369 -0.0798
   93MPD2    C5 1421   0.907   4.315  13.827  0.2917 -0.4633 -0.0823
   93MPD2     H 1422   0.859   4.688  13.799  2.0495  0.4873 -1.1279
   93MPD2    H1 1423   0.694   4.299  13.794 -0.6182  0.7177 -2.7744
   93MPD2    H2 1424   1.109   4.340  13.823  0.4328 -0.2303  0.9787
   93MPD2    H3 1425   0.923   4.208  13.841  3.6754  0.4867  3.3228
   93MPD2     N 1426   0.640   4.556  13.777 -0.9580 -0.2781  0.1616
   93MPD2    H5 1427   0.561   4.492  13.776  0.9155 -2.5787 -0.8794
   93MPD2    N1 1428   1.113   4.620  13.806  0.4865  0.1075  0.2476
   93MPD2    H7 1429   1.101   4.720  13.818  0.0979  0.0231  0.5604
   94TCq2    C1 1430   1.251   4.586  13.820 -0.2339 -0.2988 -0.0070
   94TCq2    O2 1431   1.302   4.475  13.838  0.2543  0.2218 -0.8044
   94TCq2    C2 1432   1.330   4.705  13.819 -0.0569 -0.4793 -0.5941
   94TCq2    C3 1433   1.274   0.103  13.795 -0.7682  0.6105  1.0166
   94TCq2    C4 1434   1.343   0.215  13.809 -0.5218  0.5744  0.2610
   94TCq2    C5 1435   1.474   0.204  13.838 -0.3842  0.1327 -0.3761
   94TCq2    C6 1436   1.531   0.082  13.870 -0.3074 -0.7180  0.5750
   94TCq2    C7 1437   1.458   4.692  13.863  0.1446  0.0772  1.1192
   94TCq2    C8 1438   1.677   0.073  13.868 -0.7197 -0.3607  0.6860
   94TCq2    O4 1439   1.729   4.689  13.841 -0.1100 -0.0293  0.0507
   94TCq2    C9 1440   1.285   0.344  13.788  0.2061  0.5893  0.0079
   94TCq2    O5 1441   1.162   0.345  13.767  0.4319 -0.5393  0.1581
   94TCq2    O6 1442   1.357   0.443  13.810 -0.0813  0.9009 -0.4311
   94TCq2    H2 1443   1.173   0.114  13.759  0.1840 -0.0840 -1.9031
   94TCq2    H3 1444   1.529   0.297  13.827 -0.4201  0.1740 -0.2123
   94TCq2    H4 1445   1.496   4.592  13.880  2.7179  0.7459 -0.6396
   95TMC2    C1 1446   0.851   2.030  16.455  0.3356 -0.6475 -0.5919
   95TMC2    C2 1447   0.867   2.159  16.490 -0.0110  0.0844  0.4305
   95TMC2    C3 1448   0.776   2.214  16.572  0.2642 -0.0095 -0.1632
   95TMC2    C4 1449   0.731   1.968  16.478 -0.3472 -0.0870 -0.6526
   95TMC2    C5 1450   0.636   2.030  16.552 -0.1513 -0.0671 -0.7320
   95TMC2    C6 1451   0.662   2.153  16.603 -0.4503 -0.7928  0.3442
   95TMC2     C 1452   0.938   1.982  16.347 -0.6181 -0.5929 -0.1767
   95TMC2     O 1453   0.995   2.068  16.281  0.2622  0.2709  0.0054
   95TMC2     H 1454   0.939   2.228  16.448  1.6055 -0.9410  1.5239
   95TMC2    H1 1455   0.714   1.869  16.437 -1.3316 -1.1587  2.3180
   95TMC2    H2 1456   0.598   2.204  16.674  0.4770  1.6244 -0.5713
   95TMC2    C7 1457   0.503   1.971  16.551  0.0895  0.5769  0.3209
   95TMC2    C8 1458   0.817   2.315  16.673  0.4487  0.1165 -0.4111
   95TMC2    O1 1459   0.487   1.884  16.470 -0.5552  0.0798 -0.1380
   95TMC2    O2 1460   0.740   2.376  16.743 -0.6716  0.1157 -0.2577
   95TMC2    O5 1461   0.925   2.250  16.731 -0.3657 -0.3346  0.1831
   95TMC2    H5 1462   0.976   2.198  16.664 -0.9618  0.6749 -1.0540
   96MPD2     C 1463   1.119   1.613  16.035 -0.1193  0.4798 -0.3338
   96MPD2    C1 1464   1.130   1.748  16.026 -0.1886  0.4019 -0.1942
   96MPD2    C2 1465   1.077   1.829  16.121  0.9136  0.1485 -0.1536
   96MPD2    C3 1466   1.001   1.775  16.224 -0.2951  0.5370 -0.4793
   96MPD2    C4 1467   0.977   1.641  16.227 -0.0902  0.2983  0.3376
   96MPD2    C5 1468   1.033   1.554  16.128 -0.0899  0.2427 -0.5508
   96MPD2     H 1469   1.091   1.936  16.128  1.3691 -0.0168  1.3968
   96MPD2    H1 1470   0.907   1.609  16.304  0.1505  0.4354  0.6144
   96MPD2    H2 1471   1.166   1.550  15.960 -0.7025 -1.0974  0.6289
   96MPD2    H3 1472   1.018   1.447  16.129 -1.7140  0.4624 -1.5045
   96MPD2     N 1473   0.937   1.847  16.333 -0.0621  0.2094 -0.6605
   96MPD2    H5 1474   0.888   1.798  16.406 -1.4519 -0.3712 -1.9905
   96MPD2    N1 1475   1.217   1.799  15.923  0.2965 -0.5820 -0.3232
   96MPD2    H7 1476   1.257   1.734  15.856  0.3572 -2.5218  1.5883
   97MPD2     C 1477   2.064   4.272   0.986  0.8312  0.7055  0.2769
   97MPD2    C1 1478   2.196   4.293   1.005 -0.1311 -0.8991 -0.0683
   97MPD2    C2 1479   2.278   4.298   0.894  0.6087  1.1223  0.4233
   97MPD2    C3 1480   2.232   4.291   0.768 -0.8311 -0.9856  0.1181
   97MPD2    C4 1481   2.096   4.270   0.748  0.1072 -0.6879  0.1511
   97MPD2    C5 1482   2.012   4.260   0.860  0.1183 -0.1994  0.0757
   97MPD2     H 1483   2.385   4.302   0.912  0.7971  0.2348 -0.5069
   97MPD2    H1 1484   2.049   4.254   0.652 -0.4634  1.6559  0.0479
   97MPD2    H2 1485   1.995   4.281   1.070  0.7342 -2.2317  0.4941
   97MPD2    H3 1486   1.908   4.236   0.841 -0.6610  2.6365  0.7446
   97MPD2     N 1487   2.309   4.292   0.649  0.7400 -0.1499 -0.2331
   97MPD2    H5 1488   2.261   4.277   0.561 -0.0328  0.0977  0.1446
   97MPD2    N1 1489   2.252   4.317   1.135 -0.4310 -0.4553 -0.7352
   97MPD2    H7 1490   2.353   4.325   1.143 -0.8373  1.5660  2.8134
   98TCq2    C1 1491   2.442   4.331   0.652 -0.1332 -0.0421 -0.2765
   98TCq2    O2 1492   2.503   4.386   0.744  0.1449 -0.3742 -0.0975
   98TCq2    C2 1493   2.503   4.308   0.520 -0.1093 -0.4112 -0.0205
   98TCq2    C3 1494   2.435   4.235   0.425 -0.4663  0.4517  0.1476
   98TCq2    C4 1495   2.501   4.203   0.309  0.1861  0.1661  0.5243
   98TCq2    C5 1496   2.633   4.246   0.300 -0.0468 -0.3249  0.2154
   98TCq2    C6 1497   2.694   4.317   0.394  0.1131 -0.1102 -1.0974
   98TCq2    C7 1498   2.634   4.348   0.513  0.1476  0.4731 -0.3021
   98TCq2    C8 1499   2.837   4.343   0.383  0.0590  0.2455  0.5897
   98TCq2    O4 1500   2.879   4.424   0.464  0.3289  0.2895  0.2424
   98TCq2    C9 1501   2.441   4.143   0.194 -0.3886 -0.2677 -1.0683
   98TCq2    O5 1502   2.425   4.217   0.097  0.2515 -0.8031 -0.1427
   98TCq2    O6 1503   2.404   4.022   0.208  0.3831 -0.3159  0.0701
   98TCq2    H2 1504   2.332   4.200   0.433 -0.5254  0.3686 -0.9209
   98TCq2    H3 1505   2.682   4.224   0.206 -2.3240 -0.8837 -0.8478
   98TCq2    H4 1506   2.684   4.405   0.590  0.5911 -0.9673  0.4868
   99MPD2     C 1507   1.573   0.974   1.436 -0.2299 -0.9757  0.8412
   99MPD2    C1 1508   1.528   1.106   1.420 -0.8708  0.0796  0.4134
   99MPD2    C2 1509   1.577   1.190   1.325 -0.0250 -0.5290  0.0314
   99MPD2    C3 1510   1.680   1.148   1.245 -0.2170 -0.9358 -0.5632
   99MPD2    C4 1511   1.729   1.017   1.264  0.3891 -0.4831  0.4671
   99MPD2    C5 1512   1.668   0.929   1.350  0.4832 -0.0226  0.4419
   99MPD2     H 1513   1.524   1.285   1.323 -0.6692 -0.8611  1.4998
   99MPD2    H1 1514   1.817   0.980   1.212  1.0384 -1.0537  1.9804
   99MPD2    H2 1515   1.528   0.906   1.508 -1.0209 -0.8996  0.4129
   99MPD2    H3 1516   1.693   0.824   1.360  1.1449  0.1643  0.7388
   99MPD2     N 1517   1.737   1.237   1.154 -0.2188 -0.5397  0.0717
   99MPD2    H5 1518   1.683   1.312   1.113 -0.2982 -1.3014 -1.2125
   99MPD2    N1 1519   1.431   1.170   1.504  0.1089 -0.4873 -0.4064
   99MPD2    H7 1520   1.415   1.270   1.507 -2.7121 -0.9858  0.5869
  100TCq2    C1 1521   1.373   1.105   1.607  0.8938 -0.5695 -0.4405
  100TCq2    O2 1522   1.347   0.989   1.621  0.4452  0.3310 -0.2024
  100TCq2    C2 1523   1.283   1.203   1.671 -0.3050  0.1882  0.4124
  100TCq2    C3 1524   1.354   1.283   1.762  0.7322 -0.7793  0.0788
  100TCq2    C4 1525   1.286   1.328   1.873 -0.7992  0.3487  0.4827
  100TCq2    C5 1526   1.164   1.282   1.914 -0.2091 -0.5791  0.0597
  100TCq2    C6 1527   1.102   1.199   1.827  0.5701  0.1640 -0.6092
  100TCq2    C7 1528   1.156   1.152   1.706 -0.1223 -0.0152  0.1464
  100TCq2    C8 1529   0.975   1.147   1.877  0.4901  0.0122  0.2006
  100TCq2    O4 1530   0.942   1.177   1.990  0.0273  0.4021 -0.0348
  100TCq2    C9 1531   1.366   1.408   1.966  0.0781 -0.0574 -0.0975
  100TCq2    O5 1532   1.473   1.450   1.922 -0.1060 -0.6082 -0.1866
  100TCq2    O6 1533   1.323   1.437   2.081 -0.2387  0.3135 -0.2417
  100TCq2    H2 1534   1.460   1.301   1.749  0.6550 -0.8692 -0.6966
  100TCq2    H3 1535   1.130   1.310   2.013 -0.1754 -0.6878  0.1021
  100TCq2    H4 1536   1.122   1.059   1.662 -2.8503  1.0460 -0.0205
  101MPD2     C 1537   2.272   2.606  12.861 -0.1236  0.4768  0.6330
  101MPD2    C1 1538   2.193   2.710  12.912 -0.4854 -0.5625  0.3367
  101MPD2    C2 1539   2.116   2.692  13.021 -0.2926 -0.5864  0.1769
  101MPD2    C3 1540   2.124   2.568  13.085 -0.3693  0.3222 -0.0213
  101MPD2    C4 1541   2.213   2.470  13.047 -0.2209 -0.0066 -0.1051
  101MPD2    C5 1542   2.281   2.487  12.939  0.7440  0.0275  0.3017
  101MPD2     H 1543   2.038   2.755  13.063  0.7964  0.9847 -0.1306
  101MPD2    H1 1544   2.217   2.371  13.091 -2.3381 -0.7277 -1.5839
  101MPD2    H2 1545   2.318   2.608  12.763  0.0947 -1.0952  0.7044
  101MPD2    H3 1546   2.348   2.410  12.901 -0.7049 -0.8371 -0.4816
  101MPD2     N 1547   2.044   2.556  13.202  0.0696  0.4889  0.1597
  101MPD2    H5 1548   1.967   2.620  13.216  0.1366  0.4678  0.6234
  101MPD2    N1 1549   2.194   2.827  12.834 -0.0205 -0.0937  0.1677
  101MPD2    H7 1550   2.225   2.820  12.738  0.3755  1.2953  0.2058
  102TCq2    C1 1551   2.349   3.120  12.478 -1.0549 -0.3579  0.5374
  102TCq2    O2 1552   2.442   3.042  12.498  0.0402  0.9462  0.3104
  102TCq2    C2 1553   2.239   3.129  12.571  0.5380 -0.0744  0.3962
  102TCq2    C3 1554   2.154   3.239  12.568  0.5033  0.2806  0.4859
  102TCq2    C4 1555   2.077   3.249  12.675  0.1654  0.1909  0.2126
  102TCq2    C5 1556   2.067   3.159  12.779 -0.0176  0.4572  0.0370
  102TCq2    C6 1557   2.145   3.046  12.769 -0.4302 -0.8561  0.2592
  102TCq2    C7 1558   2.228   3.031  12.661 -0.2148  0.2871 -1.2570
  102TCq2    C8 1559   2.120   2.938  12.864 -0.0360  0.0806 -0.0665
  102TCq2    O4 1560   2.048   2.966  12.959 -0.1416 -0.4027 -0.0475
  102TCq2    C9 1561   2.002   3.368  12.676  0.0742 -0.0598 -0.8472
  102TCq2    O5 1562   2.010   3.448  12.577  0.4901  0.3097  0.6720
  102TCq2    O6 1563   1.926   3.385  12.777  0.0212  0.2557  0.3312
  102TCq2    H2 1564   2.161   3.325  12.502 -0.3899  1.0876  1.4483
  102TCq2    H3 1565   1.992   3.179  12.854 -0.5092 -0.8066 -0.1092
  102TCq2    H4 1566   2.298   2.948  12.662 -1.2872 -0.5851  0.9273
  103TMC2    C1 1567   0.614   2.637  12.451  0.2434 -0.0866  0.4012
  103TMC2    C2 1568   0.695   2.532  12.480 -0.7589 -0.2115 -0.0131
  103TMC2    C3 1569   0.730   2.505  12.606  0.1784  0.7239 -0.0064
  103TMC2    C4 1570   0.561   2.716  12.542  0.5743 -0.9486 -0.1654
  103TMC2    C5 1571   0.607   2.689  12.672  0.7856  0.5506  0.6071
  103TMC2    C6 1572   0.688   2.583  12.705 -0.2619  1.2471 -0.1816
  103TMC2     C 1573   0.559   2.627  12.321  0.2262  0.6791 -0.2980
  103TMC2     O 1574   0.508   2.727  12.266 -0.1194 -0.1032  0.2082
  103TMC2     H 1575   0.746   2.493  12.392  1.3530 -0.0621  1.1702
  103TMC2    H1 1576   0.510   2.806  12.510  0.9389 -0.6520  0.0891
  103TMC2    H2 1577   0.714   2.567  12.809 -1.9990  1.6408  0.3224
  103TMC2    C7 1578   0.558   2.770  12.783  1.2357  0.0470 -0.2203
  103TMC2    C8 1579   0.842   2.420  12.636  0.2722 -0.0630 -0.8816
  103TMC2    O1 1580   0.620   2.754  12.888  0.2020 -0.4693  0.3780
  103TMC2    O2 1581   0.930   2.446  12.716  0.2390  0.7923  0.1665
  103TMC2    O5 1582   0.862   2.335  12.535 -0.4947  0.6172 -0.5390
  103TMC2    H5 1583   0.781   2.309  12.485  0.1484 -0.8954 -0.7869
  104MPD2     C 1584   0.404   2.301  12.209  0.7886  0.2707 -0.6367
  104MPD2    C1 1585   0.443   2.434  12.195  0.0597  0.3885 -0.1020
  104MPD2    C2 1586   0.382   2.505  12.098  0.3838  0.0192 -0.5834
  104MPD2    C3 1587   0.291   2.450  12.009  0.1303  1.2124  0.4456
  104MPD2    C4 1588   0.251   2.315  12.029  0.3006 -0.3671 -0.0193
  104MPD2    C5 1589   0.308   2.239  12.131 -0.1381 -0.1116 -0.1512
  104MPD2     H 1590   0.407   2.610  12.089 -1.3944  0.5361  0.5832
  104MPD2    H1 1591   0.169   2.284  11.965 -0.6337  0.3755  0.8102
  104MPD2    H2 1592   0.454   2.243  12.285 -0.5435 -2.1801 -1.6127
  104MPD2    H3 1593   0.273   2.138  12.149  0.4159  0.2111  2.7860
  104MPD2     N 1594   0.235   2.520  11.899 -0.2490 -0.0530  0.1926
  104MPD2    H5 1595   0.171   2.466  11.841 -0.9018 -1.2716  2.0615
  104MPD2    N1 1596   0.529   2.490  12.297 -0.2445  0.3547  0.2639
  104MPD2    H7 1597   0.557   2.419  12.364 -1.3487  2.1630  2.6634
  105MPD2     C 1598   2.439   2.170   0.104  0.7682 -1.2431 -0.3008
  105MPD2    C1 1599   2.306   2.174   0.065 -0.2660 -0.7624  0.5599
  105MPD2    C2 1600   2.208   2.200   0.158 -0.0473 -0.3628  0.2430
  105MPD2    C3 1601   2.241   2.208   0.289  0.0547 -0.1813  0.0946
  105MPD2    C4 1602   2.371   2.190   0.329 -0.2192 -0.1063  1.1639
  105MPD2    C5 1603   2.470   2.166   0.238  0.3851 -0.2861  0.3769
  105MPD2     H 1604   2.102   2.208   0.135 -0.0383 -1.6269 -0.2377
  105MPD2    H1 1605   2.406   2.195   0.432 -0.1133  0.7189  1.0910
  105MPD2    H2 1606   2.524   2.149   0.040 -1.2777 -1.0889 -3.0175
  105MPD2    H3 1607   2.574   2.165   0.267  0.0139 -0.0822  1.7213
  105MPD2     N 1608   2.136   2.230   0.376 -0.5705 -0.1312 -0.7220
  105MPD2    H5 1609   2.051   2.266   0.334  0.5005  1.1353 -1.8057
  105MPD2    N1 1610   2.272   2.154  17.622 -0.3482  0.6515  0.1515
  105MPD2    H7 1611   2.172   2.148  17.603 -0.3482 -0.9080  0.6743
  106TCq2    C1 1612   2.148   2.222   0.513  0.2065 -0.1534 -0.3772
  106TCq2    O2 1613   2.226   2.156   0.576 -0.5481  0.4201 -0.1886
  106TCq2    C2 1614   2.050   2.301   0.592 -0.4122  0.1953 -0.0864
  106TCq2    C3 1615   2.105   2.335   0.712  0.4958  0.4906 -1.1711
  106TCq2    C4 1616   2.014   2.352   0.819  0.3908  0.0287 -0.1234
  106TCq2    C5 1617   1.878   2.347   0.804 -0.2868 -0.2349 -0.0681
  106TCq2    C6 1618   1.826   2.324   0.677  0.1972 -0.3639  0.4303
  106TCq2    C7 1619   1.912   2.294   0.565  0.3891 -0.2004  0.0016
  106TCq2    C8 1620   1.684   2.338   0.663  0.4544  0.4235 -0.1479
  106TCq2    O4 1621   1.635   2.338   0.552 -0.3547 -0.1776 -0.2898
  106TCq2    C9 1622   2.072   2.359   0.948  0.4705  0.5352 -0.4390
  106TCq2    O5 1623   1.996   2.333   1.044  0.6126 -0.2334  0.0001
  106TCq2    O6 1624   2.193   2.394   0.954 -0.1602 -0.2012  0.4548
  106TCq2    H2 1625   2.212   2.333   0.730  0.6197  2.0685 -1.7660
  106TCq2    H3 1626   1.820   2.355   0.896  1.5317 -0.1265  1.0647
  106TCq2    H4 1627   1.863   2.264   0.473  1.2095  3.9047 -1.7503
  107TMC2    C1 1628   2.830   1.522  11.528  0.4430  0.2036 -1.1048
  107TMC2    C2 1629   2.837   1.614  11.427  0.7535  0.2028 -0.1218
  107TMC2    C3 1630   2.876   1.573  11.307 -0.0076 -0.2456 -0.6664
  107TMC2    C4 1631   2.853   1.392  11.503 -0.6195  0.0430 -0.0572
  107TMC2    C5 1632   2.894   1.360  11.380  0.2869  0.5050  0.0078
  107TMC2    C6 1633   2.906   1.445  11.278 -0.3775 -0.4618 -0.4198
  107TMC2     C 1634   2.769   1.542  11.662 -0.7341 -0.6015  0.3582
  107TMC2     O 1635   2.803   1.467  11.754 -0.4877 -0.2177  0.1716
  107TMC2     H 1636   2.817   1.718  11.448  0.2319 -0.1083  0.8902
  107TMC2    H1 1637   2.833   1.321  11.583 -0.4102  1.4129  1.2190
  107TMC2    H2 1638   2.929   1.413  11.177 -1.3120  1.2846 -1.1967
  107TMC2    C7 1639   2.849   1.231  11.344 -0.0159 -0.0032  0.0880
  107TMC2    C8 1640   2.873   1.675  11.200  0.4346 -0.3634 -0.0619
  107TMC2    O1 1641   2.792   1.164  11.425 -0.2652  0.5851  0.2129
  107TMC2    O2 1642   2.880   1.796  11.217 -0.5805  0.0911  0.8683
  107TMC2    O5 1643   2.851   1.619  11.077  0.2271  0.3911 -0.0386
  107TMC2    H5 1644   2.866   1.522  11.070  2.2493  0.7290 -0.3647
  108MPD2     C 1645   2.501   1.779  11.713  0.9348  0.3171 -0.2789
  108MPD2    C1 1646   2.587   1.685  11.758 -0.1541  0.0963 -0.0909
  108MPD2    C2 1647   2.586   1.642  11.891  0.4014  1.1227 -0.5358
  108MPD2    C3 1648   2.491   1.699  11.974  0.5555 -0.6658  0.9785
  108MPD2    C4 1649   2.417   1.807  11.927 -0.1188 -0.5098  0.3707
  108MPD2    C5 1650   2.416   1.845  11.792  1.0236 -0.4274  0.0585
  108MPD2     H 1651   2.649   1.562  11.927  0.2280  1.1458 -0.1863
  108MPD2    H1 1652   2.344   1.857  11.989  0.8201 -0.3997  1.3890
  108MPD2    H2 1653   2.496   1.809  11.608  0.6053 -0.6486 -0.5348
  108MPD2    H3 1654   2.339   1.913  11.758 -1.1036 -2.9459 -0.1364
  108MPD2     N 1655   2.465   1.653  12.101  0.2295 -0.7116  0.3142
  108MPD2    H5 1656   2.382   1.692  12.145 -0.5851  0.7765 -2.5749
  108MPD2    N1 1657   2.678   1.640  11.655 -0.4067 -0.1236  0.3805
  108MPD2    H7 1658   2.657   1.682  11.565 -2.6307  1.0035  1.4208
  109MPD2     C 1659   1.565   3.205   1.705 -0.0031  0.3316 -0.1375
  109MPD2    C1 1660   1.637   3.310   1.658  0.5147  0.0846  0.1991
  109MPD2    C2 1661   1.748   3.346   1.729 -0.6909  0.2925  0.1468
  109MPD2    C3 1662   1.782   3.289   1.850  0.5564 -0.3114 -0.2293
  109MPD2    C4 1663   1.703   3.179   1.896  0.9863  0.0406  0.0340
  109MPD2    C5 1664   1.594   3.138   1.822  0.0171  0.1841  0.5352
  109MPD2     H 1665   1.804   3.432   1.695  0.8427 -1.5990 -2.1631
  109MPD2    H1 1666   1.716   3.139   1.996 -1.8496 -1.8636 -0.3554
  109MPD2    H2 1667   1.477   3.174   1.650  0.7092  0.8469 -1.5632
  109MPD2    H3 1668   1.537   3.057   1.867 -0.7469 -0.2391 -1.2100
  109MPD2     N 1669   1.893   3.342   1.914  0.2961 -0.3785 -0.4430
  109MPD2    H5 1670   1.919   3.431   1.872  0.6486  1.1808  3.0483
  109MPD2    N1 1671   1.606   3.377   1.535 -0.0974  0.0758 -0.6280
  109MPD2    H7 1672   1.509   3.383   1.505 -0.1373  0.5382 -0.3895
  110TCq2    C1 1673   1.938   3.311   2.041  0.8558 -0.2653  0.4319
  110TCq2    O2 1674   1.894   3.229   2.120 -0.0999 -0.1133 -0.4682
  110TCq2    C2 1675   2.053   3.389   2.085  0.3503 -0.5772 -0.5842
  110TCq2    C3 1676   2.089   3.374   2.216 -0.1237 -0.2872 -0.2421
  110TCq2    C4 1677   2.171   3.465   2.272  0.4098  0.2646 -0.2788
  110TCq2    C5 1678   2.220   3.572   2.198  0.9055  0.3683  0.3762
  110TCq2    C6 1679   2.191   3.578   2.067 -0.0657 -0.4521 -0.0926
  110TCq2    C7 1680   2.104   3.489   2.011  0.2465 -0.3155 -0.3806
  110TCq2    C8 1681   2.264   3.670   1.982 -0.0472 -0.4331 -1.3817
  110TCq2    O4 1682   2.208   3.701   1.875  0.1366  0.2811  0.2345
  110TCq2    C9 1683   2.210   3.461   2.409 -0.1935  0.0833  0.8633
  110TCq2    O5 1684   2.252   3.565   2.457 -0.2857 -0.5943  0.0174
  110TCq2    O6 1685   2.188   3.355   2.479 -0.3060  0.2695 -0.4332
  110TCq2    H2 1686   2.048   3.296   2.280 -0.9359 -1.4910 -2.2045
  110TCq2    H3 1687   2.271   3.654   2.247 -0.8517  2.2103 -0.8463
  110TCq2    H4 1688   2.072   3.510   1.909 -0.2901  1.8094  0.2223
  111TMC2    C1 1689   2.731   3.371  11.024  0.4813  1.1554 -0.3129
  111TMC2    C2 1690   2.802   3.384  10.909 -0.1630 -0.6015  0.9030
  111TMC2    C3 1691   2.929   3.329  10.912  0.1663 -0.7425 -0.1450
  111TMC2    C4 1692   2.771   3.294  11.130 -0.1864 -0.1754 -1.6659
  111TMC2    C5 1693   2.898   3.247  11.130  0.5364  0.2123 -0.1509
  111TMC2    C6 1694   2.985   3.261  11.018  0.4858  0.3629 -0.0970
  111TMC2     C 1695   2.601   3.434  11.025  1.2447 -0.3337 -0.7887
  111TMC2     O 1696   2.525   3.418  10.930  0.5029 -0.0966  0.2741
  111TMC2     H 1697   2.765   3.417  10.813  1.0577 -2.8503 -0.3344
  111TMC2    H1 1698   2.708   3.274  11.215  0.7528 -0.6981 -1.0895
  111TMC2    H2 1699   3.089   3.231  11.008 -0.6781 -3.5233 -0.5587
  111TMC2    C7 1700   2.955   3.223  11.258  0.5112  0.5036  0.0003
  111TMC2    C8 1701   3.014   3.342  10.800 -0.1119  0.6430 -0.8601
  111TMC2    O1 1702   2.882   3.235  11.351 -0.1118  0.4962 -0.1680
  111TMC2    O2 1703   3.071   3.448  10.778 -0.2041  0.3929 -0.3178
  111TMC2    O5 1704   3.049   3.217  10.762 -0.3338  0.7466 -0.4105
  111TMC2    H5 1705   2.979   3.154  10.788 -0.3829 -0.1791 -2.7880
  112MPD2     C 1706   2.252   3.713  11.294  0.1608  0.7316  0.4002
  112MPD2    C1 1707   2.264   3.683  11.161  1.1876  0.1181  0.0932
  112MPD2    C2 1708   2.366   3.601  11.117 -0.4009 -0.6361 -0.4814
  112MPD2    C3 1709   2.462   3.543  11.199 -0.4805  0.6960 -0.0509
  112MPD2    C4 1710   2.448   3.573  11.332 -0.1055 -0.2682  0.5648
  112MPD2    C5 1711   2.349   3.656  11.380  0.2598 -0.8755 -0.0189
  112MPD2     H 1712   2.372   3.582  11.010  2.2645 -1.3700 -0.2122
  112MPD2    H1 1713   2.517   3.528  11.403  3.1377  1.0108 -1.7971
  112MPD2    H2 1714   2.186   3.789  11.334  0.8534 -0.3806  3.6483
  112MPD2    H3 1715   2.345   3.690  11.483 -1.3923  1.8332 -0.9868
  112MPD2     N 1716   2.581   3.481  11.151 -0.4294  0.3818  0.3934
  112MPD2    H5 1717   2.654   3.475  11.221  1.2208  0.1461 -1.3450
  112MPD2    N1 1718   2.191   3.760  11.065  0.0269  0.2740  0.4471
  112MPD2    H7 1719   2.233   3.746  10.973 -0.8591 -1.4381  0.3002
  113MPD2     C 1720   0.291   1.527   0.371  0.7818 -0.1787  0.0591
  113MPD2    C1 1721   0.203   1.592   0.451  0.2028 -0.8622 -0.0755
  113MPD2    C2 1722   0.093   1.519   0.502  0.2345 -0.2354  0.3357
  113MPD2    C3 1723   0.091   1.380   0.495  0.2673  0.5649 -0.5026
  113MPD2    C4 1724   0.184   1.315   0.415  0.7849  0.5762 -0.0285
  113MPD2    C5 1725   0.275   1.390   0.347  0.4630  0.0731 -0.5280
  113MPD2     H 1726   0.027   1.567   0.574  0.7003  1.1132 -0.1395
  113MPD2    H1 1727   0.195   1.208   0.401 -0.8548  0.5548 -1.1896
  113MPD2    H2 1728   0.367   1.577   0.313  0.9788 -1.5459 -0.8765
  113MPD2    H3 1729   0.339   1.333   0.280 -1.1755 -1.8478 -0.4536
  113MPD2     N 1730   0.024   1.293   0.580 -0.7690 -0.1404 -1.3915
  113MPD2    H5 1731   0.033   1.192   0.576  0.0303 -0.0646 -1.5087
  113MPD2    N1 1732   0.226   1.723   0.502  0.6268  0.1226 -0.4639
  113MPD2    H7 1733   0.150   1.753   0.562  0.5525 -1.9454  0.4756
  114TCq2    C1 1734   4.656   1.328   0.670  0.9819 -0.0525 -0.0953
  114TCq2    O2 1735   4.570   1.413   0.659 -0.2329  0.6053  0.1842
  114TCq2    C2 1736   4.621   1.215   0.757 -0.3948  0.9531  0.3605
  114TCq2    C3 1737   4.507   1.234   0.829  0.2606 -0.2050 -0.2549
  114TCq2    C4 1738   4.468   1.130   0.908  0.3512 -0.2172 -0.0568
  114TCq2    C5 1739   4.539   1.009   0.926 -0.1715 -0.0597 -0.4594
  114TCq2    C6 1740   4.659   1.012   0.857 -1.0181 -0.4963  0.0605
  114TCq2    C7 1741   4.700   1.107   0.767 -0.9337  0.3606  0.6785
  114TCq2    C8 1742   0.027   0.901   0.887  0.1675  0.3563  0.2920
  114TCq2    O4 1743   0.121   0.885   0.807  0.6143 -0.1912 -0.3397
  114TCq2    C9 1744   4.333   1.124   0.971 -0.8448 -0.1252 -0.0557
  114TCq2    O5 1745   4.314   1.032   1.057 -0.1183  0.2353  0.6325
  114TCq2    O6 1746   4.271   1.236   0.962 -0.1304  0.0944 -0.3593
  114TCq2    H2 1747   4.445   1.323   0.819 -0.4526 -0.5704  0.9298
  114TCq2    H3 1748   4.499   0.921   0.975 -0.8381 -0.0759 -1.0313
  114TCq2    H4 1749   0.078   1.107   0.731 -2.0748 -1.8546 -2.6226
  115TMC2    C1 1750   1.768   3.978   0.211 -0.5908 -0.2569 -0.1507
  115TMC2    C2 1751   1.890   3.989   0.275 -0.2778 -0.2590  0.1700
  115TMC2    C3 1752   1.932   4.119   0.305 -1.0016 -0.7568 -0.2697
  115TMC2    C4 1753   1.700   4.089   0.166 -0.4650 -0.5615  0.0125
  115TMC2    C5 1754   1.742   4.211   0.207 -0.2505  0.2304  0.3532
  115TMC2    C6 1755   1.857   4.230   0.273 -0.0113  1.0907  0.2217
  115TMC2     C 1756   1.735   3.861   0.135  0.2936 -0.4876 -0.1162
  115TMC2     O 1757   1.621   3.858   0.088  0.3912  0.7876  0.3011
  115TMC2     H 1758   1.948   3.903   0.307 -0.9152 -0.5335  0.6053
  115TMC2    H1 1759   1.616   4.088   0.098 -0.3846  0.0227 -0.1020
  115TMC2    H2 1760   1.884   4.328   0.310 -1.0785  1.4339  0.0912
  115TMC2    C7 1761   1.654   4.322   0.166  0.2338  0.0981  0.0290
  115TMC2    C8 1762   2.051   4.141   0.395 -0.0266 -0.1464  0.6065
  115TMC2    O1 1763   1.540   4.295   0.130 -0.5662  0.8353  0.6239
  115TMC2    O2 1764   2.109   4.247   0.390  0.0766 -0.3853 -0.4299
  115TMC2    O5 1765   2.094   4.029   0.460 -0.3779 -0.1276 -0.1852
  115TMC2    H5 1766   2.041   3.948   0.473  1.0651 -0.9236  0.8118
  116MPD2     C 1767   1.810   3.372   0.007 -0.2669  0.0640 -0.2429
  116MPD2    C1 1768   1.693   3.442   0.037  0.0790  0.1032  0.0602
  116MPD2    C2 1769   1.708   3.581   0.067  0.5665  0.4087  0.0393
  116MPD2    C3 1770   1.826   3.645   0.075 -0.4702 -0.3358  0.4132
  116MPD2    C4 1771   1.936   3.578   0.022 -0.1601 -0.2330 -0.4853
  116MPD2    C5 1772   1.925   3.444  17.696 -0.5613  0.2430 -0.6330
  116MPD2     H 1773   1.619   3.629   0.107  1.6868  1.7561  0.9192
  116MPD2    H1 1774   2.035   3.622   0.016 -0.2666 -0.1790 -1.8985
  116MPD2    H2 1775   1.814   3.266  17.686 -0.5402 -0.0053  0.0703
  116MPD2    H3 1776   2.019   3.392  17.678 -0.7871  0.2611 -1.8376
  116MPD2     N 1777   1.844   3.774   0.128 -0.7961 -0.0375  0.1015
  116MPD2    H5 1778   1.931   3.807   0.168 -1.4733  0.8336  0.8581
  116MPD2    N1 1779   1.577   3.362   0.057  0.8497 -0.4304  0.4032
  116MPD2    H7 1780   1.589   3.261   0.060  1.5805 -0.4114 -2.0478
  117TMC2    C1 1781   0.004   0.717  13.994  0.1382  0.5916  0.0474
  117TMC2    C2 1782   0.082   0.639  14.081 -0.7268  0.3384 -0.0325
  117TMC2    C3 1783   0.215   0.651  14.085 -0.5762  0.7948  0.4026
  117TMC2    C4 1784   0.061   0.809  13.911 -0.4224 -0.2280  0.3163
  117TMC2    C5 1785   0.199   0.831  13.927  0.7913  0.2449 -0.3876
  117TMC2    C6 1786   0.278   0.749  14.012 -0.9152 -0.2697  0.1103
  117TMC2     C 1787   4.587   0.719  14.007 -0.1487  0.0987 -0.5240
  117TMC2     O 1788   4.534   0.617  14.056  0.2549  0.0141 -0.5061
  117TMC2     H 1789   0.041   0.586  14.166  0.5322 -0.3849  0.1279
  117TMC2    H1 1790   4.719   0.871  13.851  0.7147 -1.1299 -1.8539
  117TMC2    H2 1791   0.385   0.765  14.019 -0.8636 -1.4626  2.0264
  117TMC2    C7 1792   0.261   0.940  13.864 -0.0637 -0.1025  0.3238
  117TMC2    C8 1793   0.282   0.612  14.205 -0.0834 -0.2459 -0.0381
  117TMC2    O1 1794   0.377   0.959  13.894  0.4843  0.8643 -0.2841
  117TMC2    O2 1795   0.226   0.590  14.315  0.0403  0.2304 -0.1077
  117TMC2    O5 1796   0.416   0.601  14.178 -0.6656  0.1769  0.0905
  117TMC2    H5 1797   0.437   0.591  14.083 -1.5425 -0.1548 -0.0718
  118MPD2     C 1798   0.094   1.209  13.687  0.1192 -0.0437  0.1521
  118MPD2    C1 1799   0.203   1.142  13.732  0.4119 -0.4381 -0.6697
  118MPD2    C2 1800   0.320   1.208  13.726  0.4977  0.2171  0.2791
  118MPD2    C3 1801   0.334   1.325  13.664 -0.6528 -0.3466 -0.7162
  118MPD2    C4 1802   0.219   1.393  13.621  0.0920 -0.5168  0.0428
  118MPD2    C5 1803   0.095   1.331  13.630 -0.1093 -0.4475  0.2481
  118MPD2     H 1804   0.402   1.160  13.777 -0.3604  0.3599  1.7702
  118MPD2    H1 1805   0.224   1.495  13.584 -0.2340 -0.6491 -0.3700
  118MPD2    H2 1806   4.721   1.161  13.699 -1.2314  2.7200  0.3428
  118MPD2    H3 1807   0.010   1.391  13.597  1.4195  0.7481 -1.5532
  118MPD2     N 1808   0.464   1.390  13.644 -0.0844 -0.1424 -0.2169
  118MPD2    H5 1809   0.469   1.469  13.581 -0.2995  0.6860  0.8163
  118MPD2    N1 1810   0.175   1.021  13.796 -0.3506  0.2940 -0.3544
  118MPD2    H7 1811   0.078   0.993  13.791 -0.3689  0.4439 -0.8334
  119MPD2     C 1812   3.287   2.447  13.717 -0.2955  0.0773 -0.4240
  119MPD2    C1 1813   3.177   2.372  13.761 -0.4252 -0.3346 -0.2986
  119MPD2    C2 1814   3.122   2.280  13.676 -0.3826 -0.3735  0.8500
  119MPD2    C3 1815   3.187   2.239  13.563  0.6109  0.6033  0.3814
  119MPD2    C4 1816   3.298   2.313  13.523 -0.0387  0.0761 -0.0418
  119MPD2    C5 1817   3.348   2.414  13.599  0.0375 -0.0324 -0.8386
  119MPD2     H 1818   3.025   2.237  13.699  0.1744 -1.5325  1.0355
  119MPD2    H1 1819   3.360   2.284  13.439  2.5795 -0.2133  1.9692
  119MPD2    H2 1820   3.325   2.525  13.783  0.7969  0.1423 -1.1258
  119MPD2    H3 1821   3.435   2.471  13.569  2.2553 -1.4938  2.8318
  119MPD2     N 1822   3.147   2.137  13.479  0.3351  0.6352  0.1801
  119MPD2    H5 1823   3.191   2.127  13.388 -0.5403  1.5508 -0.3390
  119MPD2    N1 1824   3.127   2.417  13.888 -0.4145 -0.4751 -0.1838
  119MPD2    H7 1825   3.171   2.499  13.928  1.6055 -0.5977 -2.1873
  120TCq2    C1 1826   3.041   2.051  13.511  0.4830 -0.0675  0.2135
  120TCq2    O2 1827   2.962   2.056  13.608 -0.2693 -0.1041  0.2457
  120TCq2    C2 1828   3.020   1.952  13.413 -0.5370  0.3673  0.1324
  120TCq2    C3 1829   3.113   1.937  13.315  0.4505 -0.3690  0.0405
  120TCq2    C4 1830   3.063   1.883  13.202  0.5982 -0.8281  0.4431
  120TCq2    C5 1831   2.939   1.844  13.177  0.0667 -0.0756 -0.7336
  120TCq2    C6 1832   2.850   1.857  13.283 -0.1383 -0.2169  0.5204
  120TCq2    C7 1833   2.893   1.910  13.398  0.3683 -0.0145 -0.2502
  120TCq2    C8 1834   2.727   1.785  13.270 -0.1475 -0.0937 -0.0931
  120TCq2    O4 1835   2.699   1.749  13.153 -0.4348  0.9653  0.3148
  120TCq2    C9 1836   3.154   1.874  13.092 -0.6464  0.3831  0.3954
  120TCq2    O5 1837   3.121   1.841  12.972  0.2686  0.3947 -0.0192
  120TCq2    O6 1838   3.271   1.909  13.114 -0.0202 -0.1226 -0.3105
  120TCq2    H2 1839   3.218   1.959  13.327  0.3601  0.0917 -0.0179
  120TCq2    H3 1840   2.905   1.800  13.084 -0.5209 -0.8207 -0.1666
  120TCq2    H4 1841   2.827   1.935  13.480  0.1067  0.8022 -0.7079
  121TMC2    C1 1842   4.423   3.754  14.464  0.0668 -0.6512 -0.4444
  121TMC2    C2 1843   4.437   3.645  14.538 -0.1677 -0.0763  0.0893
  121TMC2    C3 1844   4.327   3.557  14.539  0.3190 -0.1888 -0.3831
  121TMC2    C4 1845   4.313   3.775  14.388  0.2279 -0.4051  0.6561
  121TMC2    C5 1846   4.212   3.679  14.393  0.1369 -0.2732 -0.3286
  121TMC2    C6 1847   4.220   3.567  14.465  0.5240  0.7042 -0.2105
  121TMC2     C 1848   4.531   3.846  14.463 -0.1879 -0.5409 -0.2448
  121TMC2     O 1849   4.587   3.877  14.567  0.2874  0.4434 -0.5393
  121TMC2     H 1850   4.529   3.630  14.594 -1.3796 -1.3218  1.7455
  121TMC2    H1 1851   4.309   3.854  14.314 -2.1790 -2.2772 -1.2257
  121TMC2    H2 1852   4.155   3.483  14.443 -1.3682  1.5415  2.1825
  121TMC2    C7 1853   4.124   3.682  14.268 -0.4091  0.7456  0.0461
  121TMC2    C8 1854   4.319   3.472  14.654  0.2651  0.1917  0.2110
  121TMC2    O1 1855   4.161   3.755  14.177  0.0219 -0.1089  0.5564
  121TMC2    O2 1856   4.417   3.460  14.724 -0.3295 -0.2533  0.1929
  121TMC2    O5 1857   4.193   3.445  14.688  0.0583  0.3164 -0.2784
  121TMC2    H5 1858   4.132   3.492  14.627  0.1946  0.6313 -0.1723
  122MPD2     C 1859   4.680   4.083  14.365 -0.2214  0.1867 -0.4278
  122MPD2    C1 1860   4.635   3.985  14.284  0.3454 -0.5153  0.2595
  122MPD2    C2 1861   4.671   3.984  14.153  0.2940 -0.0712  0.2851
  122MPD2    C3 1862   0.023   4.090  14.100  0.3859 -0.3294 -0.1684
  122MPD2    C4 1863   0.078   4.181  14.188 -0.2717  0.7209 -0.4176
  122MPD2    C5 1864   0.053   4.168  14.318 -1.1348  0.5144  0.8502
  122MPD2     H 1865   4.643   3.896  14.098  3.2118 -0.6552 -0.2950
  122MPD2    H1 1866   0.148   4.258  14.158  1.9474 -0.8938  0.6459
  122MPD2    H2 1867   4.657   4.094  14.471 -0.3519  0.6034 -0.5015
  122MPD2    H3 1868   0.099   4.241  14.383 -1.2121  0.3409  1.1008
  122MPD2     N 1869   0.054   4.093  13.965 -0.5333  0.0503 -0.4389
  122MPD2    H5 1870   0.107   4.172  13.930  0.4285  0.0322  0.9901
  122MPD2    N1 1871   4.559   3.877  14.335 -0.1325  0.3076  0.2906
  122MPD2    H7 1872   4.522   3.808  14.270 -0.0818  0.3639  0.2008
  123MPD2     C 1873   2.710   2.123  10.767  0.3743  0.2228  0.0015
  123MPD2    C1 1874   2.750   2.031  10.671  0.0470  0.0008 -0.1035
  123MPD2    C2 1875   2.854   2.073  10.584 -0.0767  0.7173 -0.1941
  123MPD2    C3 1876   2.910   2.198  10.594 -0.8028  0.2227  0.1795
  123MPD2    C4 1877   2.872   2.278  10.699 -0.0396 -0.4769 -0.1715
  123MPD2    C5 1878   2.768   2.240  10.779  0.7611  0.1577 -0.1228
  123MPD2     H 1879   2.895   2.009  10.506  1.2918  1.3548 -0.0096
  123MPD2    H1 1880   2.929   2.365  10.729  0.7993 -0.5189 -1.6185
  123MPD2    H2 1881   2.624   2.099  10.828  0.8872 -1.2092  0.1582
  123MPD2    H3 1882   2.722   2.297  10.859  3.2233  2.9128 -0.6680
  123MPD2     N 1883   3.023   2.229  10.512 -0.0261 -0.0397 -0.2614
  123MPD2    H5 1884   3.045   2.166  10.435  0.8002  0.8405 -0.7478
  123MPD2    N1 1885   2.678   1.906  10.665 -0.2518 -0.0213  0.1160
  123MPD2    H7 1886   2.616   1.890  10.743  2.5610  0.3447  2.4287
  124TCq2    C1 1887   3.085   2.351  10.494 -0.1470 -0.3973  0.3962
  124TCq2    O2 1888   3.056   2.462  10.544  0.1891 -0.5084 -0.1647
  124TCq2    C2 1889   3.191   2.344  10.392 -0.5799  0.1410  0.4090
  124TCq2    C3 1890   3.207   2.464  10.324  0.6251 -0.5002 -0.4148
  124TCq2    C4 1891   3.245   2.461  10.195  0.1962 -0.2953  0.8376
  124TCq2    C5 1892   3.267   2.343  10.132  0.6290 -0.8379  0.5187
  124TCq2    C6 1893   3.254   2.227  10.204  0.0332  0.4842 -0.2408
  124TCq2    C7 1894   3.217   2.229  10.331 -0.0181  0.8716 -0.5228
  124TCq2    C8 1895   3.263   2.097  10.141 -0.3215  0.2719 -0.0306
  124TCq2    O4 1896   3.215   2.001  10.197  0.0418  0.6262  0.0877
  124TCq2    C9 1897   3.251   2.576  10.116 -0.5348  0.4286  0.0025
  124TCq2    O5 1898   3.225   2.686  10.171  0.3481  0.0588  0.1600
  124TCq2    O6 1899   3.301   2.575   9.999  0.1558  0.2010 -0.2613
  124TCq2    H2 1900   3.184   2.558  10.373 -1.3146 -0.6324 -1.0670
  124TCq2    H3 1901   3.291   2.347  10.026  0.4852 -0.7596  0.4882
  124TCq2    H4 1902   3.211   2.133  10.381 -0.3822  0.7694 -0.7628
  125TMC2    C1 1903   3.575   3.014   9.079 -0.0487  0.4170 -0.2548
  125TMC2    C2 1904   3.638   2.963   9.190  0.3316  0.1837  0.0672
  125TMC2    C3 1905   3.770   2.940   9.185 -0.1186 -0.1028 -0.4295
  125TMC2    C4 1906   3.642   3.028   8.968  0.0247 -0.1959 -1.1244
  125TMC2    C5 1907   3.783   2.999   8.962  0.0388 -0.1796 -0.4963
  125TMC2    C6 1908   3.840   2.950   9.074  0.0625  0.3947  0.5306
  125TMC2     C 1909   3.440   3.068   9.091  0.7082 -0.5728  0.1503
  125TMC2     O 1910   3.383   3.110   8.991 -0.0117  0.0460  0.3173
  125TMC2     H 1911   3.577   2.932   9.274 -3.7586  0.8324 -2.6184
  125TMC2    H1 1912   3.591   3.069   8.882  1.1653  1.0810 -1.1887
  125TMC2    H2 1913   3.942   2.911   9.074  0.4686  1.4621  3.4796
  125TMC2    C7 1914   3.848   3.042   8.836  0.4141  0.2045  0.4211
  125TMC2    C8 1915   3.819   2.846   9.287  0.3176 -0.2038 -0.3354
  125TMC2    O1 1916   3.780   3.059   8.735 -0.6782 -0.2880  0.2092
  125TMC2    O2 1917   3.738   2.768   9.337  0.2195  0.5794  0.1262
  125TMC2    O5 1918   3.948   2.869   9.310 -0.5693  0.1336  0.2438
  125TMC2    H5 1919   3.982   2.935   9.245  0.8458  0.6774  1.5369
  126MPD1     C 1920   3.091   3.328   9.364 -0.2146  0.5268  0.1388
  126MPD1    C1 1921   3.197   3.296   9.450  0.4787 -0.3652 -0.2052
  126MPD1    C2 1922   3.290   3.208   9.402  0.0148 -0.0869 -0.5588
  126MPD1    C3 1923   3.288   3.155   9.272  0.2827 -0.0661 -0.1024
  126MPD1    C4 1924   3.193   3.207   9.186  0.0082 -0.5523 -0.2254
  126MPD1    C5 1925   3.092   3.293   9.230  0.3755  0.0539  0.0605
  126MPD1     H 1926   3.378   3.176   9.456 -0.2542 -0.8845 -0.5988
  126MPD1    H1 1927   3.180   3.169   9.086 -2.4324  0.2390 -0.2176
  126MPD1    H2 1928   3.008   3.385   9.406  0.6174  1.7510  0.1136
  126MPD1    H3 1929   3.009   3.310   9.163 -0.3253 -0.9048  0.6760
  126MPD1     N 1930   3.408   3.095   9.227 -0.3518  0.6261  0.4844
  126MPD1    H5 1931   3.473   3.068   9.300 -1.0662 -1.3475  0.3912
  126MPD1    N1 1932   3.186   3.319   9.584 -0.2240  0.8544  0.1194
  126MPD1    H6 1933   3.275   3.319   9.633 -0.3671 -1.1784  0.3989
  126MPD1    H7 1934   3.154   3.414   9.603 -0.7125  0.6116  0.5022
  127MPD2     C 1935   0.348   2.217   9.697 -0.7397 -0.7153  0.0302
  127MPD2    C1 1936   0.394   2.271   9.581 -0.4507 -0.2874  0.1192
  127MPD2    C2 1937   0.478   2.386   9.588 -0.4842 -0.1174 -0.0232
  127MPD2    C3 1938   0.522   2.439   9.710  0.3714  0.3330  0.1622
  127MPD2    C4 1939   0.480   2.367   9.815  0.1879 -0.1266 -0.2977
  127MPD2    C5 1940   0.400   2.263   9.815  0.4381 -0.6767  0.3086
  127MPD2     H 1941   0.504   2.445   9.500  1.0922  0.4099  0.8003
  127MPD2    H1 1942   0.502   2.409   9.913  2.3415 -1.0741 -0.3752
  127MPD2    H2 1943   0.276   2.136   9.699 -0.0061 -1.3976 -1.6695
  127MPD2    H3 1944   0.358   2.218   9.904 -0.2028 -4.1582 -1.7386
  127MPD2     N 1945   0.596   2.556   9.726 -0.5027 -0.2210 -0.0809
  127MPD2    H5 1946   0.624   2.577   9.821 -3.4752  2.0956  0.2664
  127MPD2    N1 1947   0.343   2.217   9.460 -0.0609  0.2264  0.7939
  127MPD2    H7 1948   0.273   2.143   9.461  0.9533 -0.7292  2.0010
  128TCq2    C1 1949   0.383   2.262   9.330 -0.1965 -0.5322  0.3152
  128TCq2    O2 1950   0.486   2.323   9.304  0.4043 -0.7104  0.5512
  128TCq2    C2 1951   0.317   2.194   9.218  0.0353 -0.2450  0.3134
  128TCq2    C3 1952   0.390   2.164   9.111  0.5399  0.3754 -0.3982
  128TCq2    C4 1953   0.335   2.078   9.022  0.0961  0.0078  0.2257
  128TCq2    C5 1954   0.203   2.032   9.039 -0.3536 -0.3450 -0.2677
  128TCq2    C6 1955   0.137   2.067   9.149  0.8058 -0.4777 -0.6005
  128TCq2    C7 1956   0.190   2.148   9.234 -0.1826  0.3382 -0.6126
  128TCq2    C8 1957   4.718   2.041   9.155  0.4675 -0.8630 -0.2717
  128TCq2    O4 1958   4.664   2.027   9.047 -0.0901 -0.0855 -0.2143
  128TCq2    C9 1959   0.414   2.036   8.910 -0.0598 -0.4977  0.0742
  128TCq2    O5 1960   0.350   1.966   8.821  0.3741 -0.1222 -0.2133
  128TCq2    O6 1961   0.542   2.048   8.914 -0.5622 -0.2796  0.2078
  128TCq2    H2 1962   0.493   2.195   9.097  1.2146 -1.7238 -0.0951
  128TCq2    H3 1963   0.153   1.973   8.962  0.4438 -3.3660  1.5170
  128TCq2    H4 1964   0.126   2.191   9.311  2.3909  1.1390  1.0640
  129MPD2     C 1965   2.743   3.872   1.186 -0.2517 -0.6394  0.7806
  129MPD2    C1 1966   2.831   3.826   1.273  0.8426  0.2900 -0.0488
  129MPD2    C2 1967   2.966   3.832   1.252  0.2740  0.3388 -0.2819
  129MPD2    C3 1968   3.015   3.876   1.132 -0.4136 -0.0705 -0.3880
  129MPD2    C4 1969   2.918   3.915   1.044 -0.1549  0.3088  0.1954
  129MPD2    C5 1970   2.786   3.915   1.068  0.8266 -0.5088  0.1654
  129MPD2     H 1971   3.039   3.785   1.317 -2.1036  0.0969  2.2387
  129MPD2    H1 1972   2.951   3.960   0.951 -0.0626 -3.0870 -1.4203
  129MPD2    H2 1973   2.641   3.877   1.223 -1.0971 -0.1699 -1.5569
  129MPD2    H3 1974   2.717   3.964   1.001 -1.2149 -2.3306  0.9246
  129MPD2     N 1975   3.153   3.881   1.105  0.0811  0.5877  0.4580
  129MPD2    H5 1976   3.218   3.863   1.181  0.8613 -1.7480 -0.7758
  129MPD2    N1 1977   2.787   3.768   1.398  0.4765  0.0986 -0.6786
  129MPD2    H7 1978   2.857   3.740   1.466  0.6697  1.5438 -0.2733
  130TCq2    C1 1979   2.656   3.735   1.444  0.9460  0.6308 -0.4745
  130TCq2    O2 1980   2.549   3.755   1.384 -0.6911 -0.3468  0.1475
  130TCq2    C2 1981   2.641   3.681   1.581 -0.2174  0.3258  0.1508
  130TCq2    C3 1982   2.753   3.687   1.663 -0.3885  0.4419  0.4014
  130TCq2    C4 1983   2.769   3.608   1.774 -0.0975 -0.1721  0.2219
  130TCq2    C5 1984   2.662   3.521   1.805  0.1752 -0.2664 -0.0312
  130TCq2    C6 1985   2.550   3.523   1.719 -0.3238 -0.3948 -0.5145
  130TCq2    C7 1986   2.536   3.605   1.611 -0.5566 -0.2995 -0.1436
  130TCq2    C8 1987   2.444   3.432   1.738 -0.2122 -0.9981 -0.7330
  130TCq2    O4 1988   2.358   3.429   1.653  0.1309  0.3713  0.1451
  130TCq2    C9 1989   2.881   3.617   1.861  0.3022 -0.3716  0.0151
  130TCq2    O5 1990   2.884   3.529   1.950 -0.0326  0.1938 -0.0645
  130TCq2    O6 1991   2.976   3.694   1.831 -0.2126  0.1621  0.1646
  130TCq2    H2 1992   2.838   3.748   1.634  0.6704 -0.9543  0.5518
  130TCq2    H3 1993   2.681   3.440   1.875  1.0608  1.0537  1.2576
  130TCq2    H4 1994   2.450   3.598   1.545 -0.1089  2.4504 -1.0200
  131MPD2     C 1995   2.437   1.411   9.856 -0.1562  0.1290 -0.1495
  131MPD2    C1 1996   2.544   1.492   9.894 -0.5702 -0.3272  0.2520
  131MPD2    C2 1997   2.572   1.508  10.033 -0.0436 -0.6775 -0.2156
  131MPD2    C3 1998   2.497   1.446  10.132 -0.3878 -0.0841  0.4742
  131MPD2    C4 1999   2.406   1.349  10.091 -0.2440 -0.0460 -0.2320
  131MPD2    C5 2000   2.377   1.343   9.956  0.4227  0.0198 -0.5971
  131MPD2     H 2001   2.637   1.589  10.065 -1.4609  0.5314 -0.3881
  131MPD2    H1 2002   2.331   1.311  10.160  0.4101 -0.5141  0.2241
  131MPD2    H2 2003   2.399   1.404   9.755 -1.0197  0.5230  0.1439
  131MPD2    H3 2004   2.279   1.301   9.934  0.2137  0.3620 -0.3219
  131MPD2     N 2005   2.527   1.494  10.266 -0.0636 -0.3808 -0.0841
  131MPD2    H5 2006   2.598   1.563  10.288 -0.7343 -0.0264  0.9642
  131MPD2    N1 2007   2.610   1.570   9.791  0.0405 -0.2380  0.1088
  131MPD2    H7 2008   2.593   1.546   9.694 -0.7238 -2.5595  0.8170
  132TCq2    C1 2009   2.950   1.992   9.582 -0.3198 -0.2201  0.0267
  132TCq2    O2 2010   2.881   2.076   9.642  0.0113 -0.2564  0.6694
  132TCq2    C2 2011   2.890   1.854   9.574 -0.1906  0.0439 -0.1126
  132TCq2    C3 2012   2.911   1.772   9.461  0.5097 -0.1636 -0.2049
  132TCq2    C4 2013   2.839   1.656   9.466 -0.2340  0.4689  0.1178
  132TCq2    C5 2014   2.776   1.612   9.580  1.0118 -0.3712  0.0588
  132TCq2    C6 2015   2.770   1.695   9.692  0.5243 -0.4094  0.8372
  132TCq2    C7 2016   2.815   1.827   9.686  0.6883 -0.0110  1.0294
  132TCq2    C8 2017   2.709   1.656   9.818 -0.3678 -0.3200 -0.1599
  132TCq2    O4 2018   2.756   1.703   9.925  0.3769  0.5785  0.0041
  132TCq2    C9 2019   2.829   1.565   9.354 -0.4996  0.1818  0.0003
  132TCq2    O5 2020   2.909   1.593   9.263 -0.0197  0.7125 -0.5673
  132TCq2    O6 2021   2.714   1.510   9.338  0.2148  0.3443 -0.2714
  132TCq2    H2 2022   2.969   1.797   9.373  1.4862 -0.8677  0.2302
  132TCq2    H3 2023   2.725   1.516   9.576 -3.7591  2.2028  0.3434
  132TCq2    H4 2024   2.817   1.899   9.766 -1.3162  0.2949  0.7909
  133MPD2     C 2025   1.131   3.561   9.226 -0.3952 -0.1948 -0.2082
  133MPD2    C1 2026   1.263   3.525   9.237 -0.1771 -0.1587 -0.2959
  133MPD2    C2 2027   1.299   3.392   9.219  0.0474  0.2427  0.6587
  133MPD2    C3 2028   1.201   3.296   9.198 -0.7278  0.2255 -0.4266
  133MPD2    C4 2029   1.072   3.342   9.174  0.1086 -0.0866  0.0965
  133MPD2    C5 2030   1.038   3.472   9.191 -0.2577 -0.1322  0.1415
  133MPD2     H 2031   1.401   3.362   9.237 -0.2103  0.5327  2.6105
  133MPD2    H1 2032   0.993   3.271   9.152  0.6216 -0.3329 -0.9352
  133MPD2    H2 2033   1.098   3.664   9.238  2.0625  0.8453 -2.3196
  133MPD2    H3 2034   0.935   3.501   9.174 -0.2577  0.8131  1.7056
  133MPD2     N 2035   1.229   3.162   9.178 -0.1585 -0.3316  0.4112
  133MPD2    H5 2036   1.156   3.102   9.141 -0.9735  0.9491 -0.0681
  133MPD2    N1 2037   1.344   3.632   9.289 -0.0912  0.0592 -0.7481
  133MPD2    H7 2038   1.310   3.725   9.313  1.5077  0.9865 -2.1267
  134TCq2    C1 2039   1.479   3.617   9.314  0.4267  0.1181  1.0847
  134TCq2    O2 2040   1.557   3.527   9.297  0.5471  0.1426  0.5360
  134TCq2    C2 2041   1.550   3.733   9.359  0.1492  0.0591 -0.0044
  134TCq2    C3 2042   1.504   3.851   9.317  0.6031 -0.7294 -0.3772
  134TCq2    C4 2043   1.546   3.970   9.371  0.2849  0.6460  0.0739
  134TCq2    C5 2044   1.638   3.964   9.479 -0.3537 -0.7847 -0.3444
  134TCq2    C6 2045   1.682   3.840   9.520 -0.1776 -0.0336  0.2584
  134TCq2    C7 2046   1.643   3.719   9.463 -0.2402  0.1390 -0.1336
  134TCq2    C8 2047   1.770   3.829   9.640  1.0654  0.2771  0.6022
  134TCq2    O4 2048   1.783   3.721   9.686  0.2877 -0.6568 -0.8229
  134TCq2    C9 2049   1.484   4.098   9.336  0.8086 -0.0365 -0.3522
  134TCq2    O5 2050   1.504   4.205   9.407 -0.6856 -0.0260 -0.2521
  134TCq2    O6 2051   1.403   4.097   9.241  0.0002 -0.6451 -0.1371
  134TCq2    H2 2052   1.425   3.855   9.242 -0.4822  1.4775  0.8733
  134TCq2    H3 2053   1.667   4.055   9.530 -1.0490 -1.8469  1.9372
  134TCq2    H4 2054   1.674   3.625   9.506  0.9003 -0.9545 -3.3599
  135MPD2     C 2055   3.696   3.350   9.314 -0.3627  0.5685 -0.2438
  135MPD2    C1 2056   3.817   3.281   9.342 -0.2803  0.0601 -0.5556
  135MPD2    C2 2057   3.930   3.299   9.257  0.1234  0.1754 -0.4100
  135MPD2    C3 2058   3.915   3.376   9.140 -0.0766 -0.0707  0.2622
  135MPD2    C4 2059   3.792   3.442   9.118 -0.3337  0.1165  0.5713
  135MPD2    C5 2060   3.686   3.424   9.203  0.3473  0.0834  0.6418
  135MPD2     H 2061   4.028   3.254   9.273  0.4721  1.0358 -0.1660
  135MPD2    H1 2062   3.789   3.516   9.039  1.1794 -0.2316  0.1839
  135MPD2    H2 2063   3.614   3.334   9.383 -0.6475  0.4299 -0.6142
  135MPD2    H3 2064   3.596   3.483   9.198 -0.2704 -0.7582  1.8309
  135MPD2     N 2065   4.017   3.405   9.051  0.0197  0.1379  0.2051
  135MPD2    H5 2066   3.993   3.470   8.977  0.6842  0.4127  0.2269
  135MPD2    N1 2067   3.829   3.189   9.447  0.7581  0.3738  0.2960
  135MPD2    H7 2068   3.922   3.153   9.464 -0.5421 -2.4122  1.4776
  136TCq2    C1 2069   3.721   3.126   9.508  0.4485 -0.0053  0.0419
  136TCq2    O2 2070   3.605   3.118   9.470  0.7574 -0.0244  0.6061
  136TCq2    C2 2071   3.761   3.015   9.599  0.3656 -0.2107 -0.1318
  136TCq2    C3 2072   3.673   2.918   9.622 -0.1984  0.0662 -0.4119
  136TCq2    C4 2073   3.665   2.860   9.746 -0.0356 -0.4351 -0.8778
  136TCq2    C5 2074   3.770   2.883   9.829 -0.0653 -0.4126 -0.8868
  136TCq2    C6 2075   3.879   2.952   9.791  0.0143 -0.4492 -0.0470
  136TCq2    C7 2076   3.875   3.017   9.671 -0.8088 -0.1948 -0.2661
  136TCq2    C8 2077   3.999   2.962   9.865 -0.3159  0.0633  0.0727
  136TCq2    O4 2078   4.056   3.068   9.865 -0.3719  0.5706 -0.5243
  136TCq2    C9 2079   3.560   2.769   9.781 -0.4428  0.1176 -0.8726
  136TCq2    O5 2080   3.581   2.698   9.877 -0.3161  0.2314 -0.0177
  136TCq2    O6 2081   3.448   2.782   9.727  0.6042  0.1733  0.1695
  136TCq2    H2 2082   3.591   2.901   9.553  0.0987 -0.7206 -0.5823
  136TCq2    H3 2083   3.769   2.836   9.926  2.8805  0.0984 -0.5811
  136TCq2    H4 2084   3.958   3.083   9.647 -1.1220  0.1225 -0.4739
  137MPD2     C 2085   4.478   2.401   9.073  0.0960 -0.1095 -0.2542
  137MPD2    C1 2086   4.550   2.510   9.047  0.3344 -0.4755 -0.0236
  137MPD2    C2 2087   4.635   2.562   9.146  0.3191 -0.0651 -1.1007
  137MPD2    C3 2088   4.647   2.494   9.271 -0.5393  0.1869  0.4278
  137MPD2    C4 2089   4.568   2.382   9.289 -0.4467  0.0234 -0.7332
  137MPD2    C5 2090   4.493   2.341   9.192 -0.3482 -0.6647 -0.6616
  137MPD2     H 2091   4.697   2.649   9.126 -1.6527  0.7701 -3.5148
  137MPD2    H1 2092   4.567   2.325   9.381 -0.4061  0.1203 -0.6732
  137MPD2    H2 2093   4.403   2.362   9.005  1.3335  1.4564 -2.5121
  137MPD2    H3 2094   4.428   2.255   9.207 -1.5540  0.6597  1.7314
  137MPD2     N 2095   4.719   2.555   9.377  0.6379  0.5861  0.8000
  137MPD2    H5 2096   0.020   2.652   9.362 -1.4614  1.1516  0.8830
  137MPD2    N1 2097   4.532   2.573   8.921  0.3413  0.6384 -0.3639
  137MPD2    H7 2098   4.458   2.541   8.860  1.4847  0.2221 -1.5259
  138TCq2    C1 2099   4.593   2.693   8.881 -0.1832  0.5246  0.7035
  138TCq2    O2 2100   4.683   2.761   8.928  0.6426 -0.3399 -0.1674
  138TCq2    C2 2101   4.528   2.745   8.760  0.2857 -0.7469 -0.0853
  138TCq2    C3 2102   4.576   2.853   8.686  0.4783 -0.3795  0.0947
  138TCq2    C4 2103   4.487   2.918   8.597  0.1946 -0.5002  0.1419
  138TCq2    C5 2104   4.351   2.883   8.584  0.0582 -0.1494  0.6560
  138TCq2    C6 2105   4.307   2.778   8.658 -0.2040 -0.4413 -0.1457
  138TCq2    C7 2106   4.390   2.723   8.754  0.0172  0.5372  0.7465
  138TCq2    C8 2107   4.159   2.751   8.657  0.1998 -0.0909 -0.4479
  138TCq2    O4 2108   4.110   2.787   8.549 -0.7881 -0.0910  0.4613
  138TCq2    C9 2109   4.539   3.013   8.496  0.0263  0.0857 -0.7054
  138TCq2    O5 2110   4.463   3.038   8.397 -0.1062  0.2108  0.5308
  138TCq2    O6 2111   4.663   3.036   8.504  0.2535 -0.1212 -0.9797
  138TCq2    H2 2112   4.678   2.889   8.698  0.5385 -0.6308  0.3214
  138TCq2    H3 2113   4.295   2.942   8.512  1.6931  1.1179  0.3980
  138TCq2    H4 2114   4.347   2.657   8.828 -0.0449  0.7488  0.8998
  139TMC2    C1 2115   4.540   1.792  13.071  0.4612 -0.3101  0.6358
  139TMC2    C2 2116   4.566   1.828  12.942  0.4787  0.4906  0.4426
  139TMC2    C3 2117   4.509   1.940  12.896 -0.4453 -0.1815  0.0931
  139TMC2    C4 2118   4.469   1.876  13.156 -0.0792 -0.5820 -0.2595
  139TMC2    C5 2119   4.404   1.985  13.099  0.4905 -0.6554 -0.0080
  139TMC2    C6 2120   4.420   2.014  12.966 -0.5695  1.0412  0.1709
  139TMC2     C 2121   4.577   1.660  13.115 -0.3295 -0.3412 -0.1405
  139TMC2     O 2122   4.639   1.593  13.038 -0.4878  0.2996 -0.3472
  139TMC2     H 2123   4.634   1.765  12.885  0.6678  1.4142 -0.3587
  139TMC2    H1 2124   4.452   1.845  13.259  0.2773 -2.3031 -0.7028
  139TMC2    H2 2125   4.363   2.090  12.914 -0.3938  1.0170 -0.0557
  139TMC2    C7 2126   4.320   2.076  13.178  0.6305  0.5745  0.2609
  139TMC2    C8 2127   4.567   1.991  12.775  0.3978  0.3117 -0.4156
  139TMC2    O1 2128   4.269   2.167  13.113 -0.3578  0.3499  0.3447
  139TMC2    O2 2129   4.603   1.925  12.676 -0.3605  0.4168 -0.0481
  139TMC2    O5 2130   4.571   2.130  12.799  0.1614 -0.2582 -0.7040
  139TMC2    H5 2131   4.586   2.154  12.893 -0.6931 -2.0442 -0.1064
  140MPD2     C 2132   4.457   1.440  13.398 -0.1423 -0.5195 -0.1588
  140MPD2    C1 2133   4.545   1.497  13.300  0.4637 -0.2516  0.4662
  140MPD2    C2 2134   4.656   1.412  13.270  0.8039  0.7798  0.7190
  140MPD2    C3 2135   4.686   1.285  13.327 -0.5316  0.1880  0.0109
  140MPD2    C4 2136   4.592   1.238  13.416  0.0278 -0.9207  0.7469
  140MPD2    C5 2137   4.484   1.313  13.457  0.6094 -0.1561  0.5227
  140MPD2     H 2138   0.009   1.447  13.202  0.4872  0.4377  0.1802
  140MPD2    H1 2139   4.599   1.148  13.476  1.4430 -1.3524 -0.0696
  140MPD2    H2 2140   4.372   1.500  13.430  1.0144  0.4399  1.1274
  140MPD2    H3 2141   4.420   1.263  13.529  0.9235 -1.3050  0.0146
  140MPD2     N 2142   0.080   1.210  13.293 -0.5701 -0.8803 -0.3028
  140MPD2    H5 2143   0.144   1.253  13.227  0.2286  0.2763  1.2013
  140MPD2    N1 2144   4.527   1.622  13.235  0.1846 -0.0611  0.4912
  140MPD2    H7 2145   4.453   1.680  13.273 -2.4042 -1.5566 -2.2730
  141TCq2    C1 2146   0.306   2.819  14.291  0.1190  0.1109  0.7661
  141TCq2    O2 2147   0.409   2.821  14.225  0.4236  0.4035  0.2739
  141TCq2    C2 2148   0.314   2.802  14.432 -0.2787  0.0706  0.3854
  141TCq2    C3 2149   0.225   2.859  14.514  0.2113  0.2554 -0.1577
  141TCq2    C4 2150   0.253   2.856  14.646 -0.0338 -0.3169 -0.2872
  141TCq2    C5 2151   0.367   2.796  14.702  0.2129 -0.6790 -0.6481
  141TCq2    C6 2152   0.455   2.747  14.611  0.2605 -0.1041 -0.1359
  141TCq2    C7 2153   0.429   2.740  14.476 -0.0830 -0.0988 -0.4240
  141TCq2    C8 2154   0.582   2.696  14.659  0.2058 -0.3145  0.4326
  141TCq2    O4 2155   0.633   2.616  14.579  0.2929 -0.1857  0.3068
  141TCq2    C9 2156   0.167   2.934  14.735  0.0320  0.0840  0.3516
  141TCq2    O5 2157   0.148   3.050  14.696 -0.2671  0.0832 -0.1948
  141TCq2    O6 2158   0.194   2.921  14.858 -0.0400  0.0688  0.2890
  141TCq2    H2 2159   0.130   2.900  14.482 -0.0280 -0.4327 -0.3464
  141TCq2    H3 2160   0.384   2.784  14.809  1.0897  0.3858 -0.6756
  141TCq2    H4 2161   0.495   2.686  14.410  0.4502 -1.6936  1.4315
  142MPD2     C 2162   2.677   1.116  10.524  0.0879 -0.4383  0.2897
  142MPD2    C1 2163   2.676   1.039  10.406  0.5139  0.5998  0.4913
  142MPD2    C2 2164   2.729   1.094  10.291 -0.5393  0.5639  0.3785
  142MPD2    C3 2165   2.786   1.220  10.302 -0.6574 -0.2532 -0.7358
  142MPD2    C4 2166   2.785   1.296  10.417 -0.1917 -0.4288 -0.7971
  142MPD2    C5 2167   2.739   1.237  10.527 -0.4639  0.3668 -0.1763
  142MPD2     H 2168   2.716   1.040  10.198 -1.2600 -0.3454  1.0125
  142MPD2    H1 2169   2.827   1.396  10.425  0.0164 -0.3900 -2.3914
  142MPD2    H2 2170   2.629   1.082  10.615  0.9322  0.3573  1.0364
  142MPD2    H3 2171   2.743   1.295  10.619  0.9314  0.8622 -0.5622
  142MPD2     N 2172   2.829   1.291  10.183  0.7671 -0.3538 -0.0639
  142MPD2    H5 2173   2.879   1.375  10.209 -0.0772  0.0845  0.1348
  142MPD2    N1 2174   2.610   0.912  10.414  0.4280 -0.1646  0.2907
  142MPD2    H7 2175   2.571   0.889  10.505  0.0787 -1.6265 -0.2337
  143TCq2    C1 2176   2.806   1.258  10.050  0.2579 -0.0204  0.1033
  143TCq2    O2 2177   2.745   1.164   9.993 -0.3103 -0.4787 -0.0720
  143TCq2    C2 2178   2.877   1.339   9.952 -0.6418 -0.1485 -0.0799
  143TCq2    C3 2179   2.878   1.298   9.819  0.3379  0.0013 -0.1838
  143TCq2    C4 2180   2.950   1.365   9.727  0.3586 -0.0596 -0.3245
  143TCq2    C5 2181   3.020   1.470   9.765 -0.5357 -0.4432  0.7071
  143TCq2    C6 2182   3.024   1.507   9.898  0.3198  0.8105  0.1136
  143TCq2    C7 2183   2.960   1.436   9.994  0.8951 -0.6280 -0.1548
  143TCq2    C8 2184   3.089   1.628   9.934 -0.9859  0.1747  0.1831
  143TCq2    O4 2185   3.046   1.680  10.037  0.9044 -0.0484  0.2386
  143TCq2    C9 2186   2.958   1.328   9.590  0.6021  0.4316  0.3354
  143TCq2    O5 2187   2.867   1.247   9.555 -0.0250  0.4172 -0.1299
  143TCq2    O6 2188   3.066   1.355   9.527  0.0541 -0.7048  0.1301
  143TCq2    H2 2189   2.808   1.224   9.781  1.4629 -0.4675 -1.3486
  143TCq2    H3 2190   3.067   1.528   9.687 -2.1100  0.9591  0.8174
  143TCq2    H4 2191   2.967   1.454  10.101  2.9047 -1.3805 -0.1625
  144MPD2     C 2192   0.343   0.425   0.224  0.0116 -0.0148 -1.2537
  144MPD2    C1 2193   0.454   0.413   0.140  0.6972 -0.3194  0.3988
  144MPD2    C2 2194   0.577   0.405   0.202 -0.2097 -0.3327 -0.2665
  144MPD2    C3 2195   0.595   0.413   0.341 -0.2291  0.0838 -0.5373
  144MPD2    C4 2196   0.484   0.437   0.417 -0.3676  0.7564 -0.2698
  144MPD2    C5 2197   0.357   0.441   0.356  0.6153 -0.4850 -0.2099
  144MPD2     H 2198   0.661   0.384   0.137  0.4382  1.3620  0.0440
  144MPD2    H1 2199   0.489   0.455   0.524  2.5918 -0.7912 -0.1470
  144MPD2    H2 2200   0.241   0.424   0.188 -1.4702 -0.6980  2.9346
  144MPD2    H3 2201   0.264   0.450   0.411  1.4306 -1.3118  1.2931
  144MPD2     N 2202   0.726   0.425   0.400  0.1506 -0.1911  0.0112
  144MPD2    H5 2203   0.723   0.445   0.499 -0.3472  1.2866 -0.3086
  144MPD2    N1 2204   0.449   0.401  17.698 -0.2041 -0.0965 -0.0739
  144MPD2    H7 2205   0.543   0.391  17.660  0.5368  0.6407  1.5593
  145TCq2    C1 2206   0.845   0.394   0.338  0.0768 -0.5094  0.0235
  145TCq2    O2 2207   0.853   0.330   0.235 -0.1054  0.6475 -0.3714
  145TCq2    C2 2208   0.951   0.389   0.427  0.0804  1.1356 -0.0496
  145TCq2    C3 2209   1.036   0.284   0.414  0.3125  0.4299  0.1368
  145TCq2    C4 2210   1.150   0.279   0.488  0.3404  0.5959  0.0426
  145TCq2    C5 2211   1.167   0.368   0.590 -0.6424  0.3818  0.6687
  145TCq2    C6 2212   1.070   0.462   0.611 -0.2560  0.1220 -0.2283
  145TCq2    C7 2213   0.961   0.477   0.528 -0.3208 -0.6177 -0.6381
  145TCq2    C8 2214   1.087   0.539   0.723 -0.4069 -0.0937  0.0411
  145TCq2    O4 2215   1.201   0.571   0.750 -0.2360  0.4868 -0.5324
  145TCq2    C9 2216   1.259   0.196   0.457  0.3773  0.4779  0.1319
  145TCq2    O5 2217   1.247   0.122   0.355 -0.0102  0.3068  0.3663
  145TCq2    O6 2218   1.356   0.186   0.531  0.2674 -0.3151 -0.1172
  145TCq2    H2 2219   1.022   0.208   0.338  0.3157  0.5842 -0.0181
  145TCq2    H3 2220   1.259   0.365   0.647 -0.4708 -1.5686  0.3001
  145TCq2    H4 2221   0.881   0.549   0.533  1.4330  1.3810 -1.4619
  146TMC2    C1 2222   2.168   3.978  12.350 -0.1776  0.2434  0.0396
  146TMC2    C2 2223   2.116   3.996  12.225 -0.1765  0.0715  0.5247
  146TMC2    C3 2224   2.143   3.901  12.130  0.8226  0.2028 -0.5998
  146TMC2    C4 2225   2.255   3.878  12.376 -0.7243 -0.9967  0.6293
  146TMC2    C5 2226   2.293   3.800  12.274  0.3372  0.2902 -0.4872
  146TMC2    C6 2227   2.243   3.815  12.149 -0.6272 -0.3224 -0.0643
  146TMC2     C 2228   2.122   4.062  12.457  0.2963 -0.3547 -0.1098
  146TMC2     O 2229   2.090   4.177  12.437  0.1364 -0.8902  0.2226
  146TMC2     H 2230   2.050   4.080  12.207  1.6162  0.5703 -3.8372
  146TMC2    H1 2231   2.311   3.875  12.468  1.0989 -0.4779 -0.4665
  146TMC2    H2 2232   2.280   3.752  12.069 -1.4042  0.7181 -1.2408
  146TMC2    C7 2233   2.420   3.737  12.280  0.8503 -0.6356 -0.2779
  146TMC2    C8 2234   2.104   3.934  11.988  0.4821 -0.2430  0.8524
  146TMC2    O1 2235   2.502   3.763  12.190  0.0986  0.3309  0.1560
  146TMC2    O2 2236   2.155   3.861  11.900  0.1890 -0.1397  0.0269
  146TMC2    O5 2237   1.987   3.997  11.978 -0.6693 -0.3228  0.0302
  146TMC2    H5 2238   1.931   4.000  12.059 -0.2296 -0.1881  0.3256
  147MPD2     C 2239   2.772   3.472  12.533  0.0250  0.4966  0.1235
  147MPD2    C1 2240   2.653   3.454  12.603 -0.3991 -0.2538 -0.3602
  147MPD2    C2 2241   2.543   3.521  12.551 -0.8133 -0.7305 -0.9840
  147MPD2    C3 2242   2.553   3.600  12.442  0.4150 -0.2884  0.0600
  147MPD2    C4 2243   2.670   3.616  12.365 -0.6739 -0.6655 -0.2511
  147MPD2    C5 2244   2.778   3.553  12.418  0.1533 -0.5445 -0.0364
  147MPD2     H 2245   2.450   3.509  12.606 -0.3968  1.8311  0.2848
  147MPD2    H1 2246   2.686   3.677  12.277 -2.5377 -0.1716 -0.2650
  147MPD2    H2 2247   2.864   3.424  12.564  0.4701  0.7612 -0.7529
  147MPD2    H3 2248   2.880   3.562  12.382  0.3407 -0.4846  0.5112
  147MPD2     N 2249   2.429   3.667  12.397  0.0032 -0.6084  0.4867
  147MPD2    H5 2250   2.346   3.662  12.456 -0.5386  1.5419 -0.0883
  147MPD2    N1 2251   2.661   3.370  12.717 -0.4608 -0.0914  0.1619
  147MPD2    H7 2252   2.754   3.332  12.732  0.2295  0.6570 -2.1447
  148MPD2     C 2253   2.419   2.310  10.722 -0.1763 -0.4675 -0.0285
  148MPD2    C1 2254   2.433   2.287  10.589 -0.1068  0.0453 -0.4321
  148MPD2    C2 2255   2.339   2.200  10.535  1.6553 -0.3732  0.3408
  148MPD2    C3 2256   2.239   2.136  10.614 -0.1364 -0.1575  0.0190
  148MPD2    C4 2257   2.233   2.182  10.744 -0.2860 -0.2540 -0.0645
  148MPD2    C5 2258   2.315   2.267  10.798 -0.1693  0.2487 -0.2686
  148MPD2     H 2259   2.337   2.198  10.427  0.9632  1.3439  0.3171
  148MPD2    H1 2260   2.145   2.161  10.805 -0.6112 -0.3804 -0.5825
  148MPD2    H2 2261   2.488   2.380  10.768 -1.4823  1.1473 -0.5427
  148MPD2    H3 2262   2.310   2.301  10.900 -2.5245  1.1918 -0.7190
  148MPD2     N 2263   2.122   2.067  10.561  0.4150  0.6321 -0.1387
  148MPD2    H5 2264   2.054   2.034  10.629  1.2971 -0.8541  0.0220
  148MPD2    N1 2265   2.536   2.346  10.512 -0.0202  0.5865 -0.2926
  148MPD2    H7 2266   2.547   2.317  10.416 -0.5904  2.3089 -0.8676
  149TCq2    C1 2267   2.603   2.468  10.548  0.1837 -0.6660 -0.8443
  149TCq2    O2 2268   2.567   2.552  10.625  0.4269 -0.5651  0.2953
  149TCq2    C2 2269   2.697   2.498  10.446 -0.3263  0.3969  0.1081
  149TCq2    C3 2270   2.734   2.631  10.438  0.2254  0.0894 -0.2791
  149TCq2    C4 2271   2.806   2.675  10.329 -0.0915  0.4800 -0.2115
  149TCq2    C5 2272   2.885   2.590  10.260 -0.3625 -0.1939  0.2483
  149TCq2    C6 2273   2.860   2.453  10.277  0.6046  0.7585 -0.4416
  149TCq2    C7 2274   2.770   2.407  10.371  1.1951  0.4279 -0.0794
  149TCq2    C8 2275   2.880   2.359  10.164 -0.5230 -0.0336  1.0257
  149TCq2    O4 2276   2.879   2.237  10.177 -0.7178  0.5747  0.2075
  149TCq2    C9 2277   2.830   2.815  10.318  0.4034 -0.2156  0.8748
  149TCq2    O5 2278   2.920   2.861  10.249  0.3919  0.4515 -0.1425
  149TCq2    O6 2279   2.786   2.879  10.416 -0.4181 -0.8055 -0.9980
  149TCq2    H2 2280   2.685   2.699  10.506  0.6452 -0.2976  0.4086
  149TCq2    H3 2281   2.960   2.627  10.191 -2.1522 -1.6939 -2.4827
  149TCq2    H4 2282   2.760   2.300  10.386 -0.0894  0.5958  0.3060
  150MPD2     C 2283   3.804   2.165  12.223  0.1596  0.1877  0.5867
  150MPD2    C1 2284   3.889   2.112  12.123 -0.6189  0.2281  0.4109
  150MPD2    C2 2285   4.019   2.164  12.117  0.3918 -0.3066 -0.5922
  150MPD2    C3 2286   4.060   2.267  12.202 -0.1077 -1.1272 -0.4837
  150MPD2    C4 2287   3.975   2.315  12.299 -0.2367 -0.2384 -0.3032
  150MPD2    C5 2288   3.849   2.268  12.305 -0.2634 -0.4996 -0.1265
  150MPD2     H 2289   4.088   2.128  12.042 -0.1376 -0.6841 -0.9017
  150MPD2    H1 2290   3.999   2.402  12.359  0.0051  0.0889 -0.8761
  150MPD2    H2 2291   3.705   2.126  12.243  1.9677 -4.2786  0.8040
  150MPD2    H3 2292   3.781   2.305  12.382  1.5770 -1.1038  1.7863
  150MPD2     N 2293   4.190   2.318  12.181 -0.2765 -1.1361 -0.5519
  150MPD2    H5 2294   4.242   2.274  12.105  0.9263  1.1575 -1.0504
  150MPD2    N1 2295   3.848   1.996  12.057  0.0945  0.7126  0.0110
  150MPD2    H7 2296   3.756   1.959  12.076  0.5855  0.0062  1.0344
  151TCq2    C1 2297   4.256   2.412  12.255 -0.3045  0.0115  0.2146
  151TCq2    O2 2298   4.226   2.480  12.347  0.2668  0.1607 -0.1055
  151TCq2    C2 2299   4.392   2.435  12.207 -0.1998  0.1377 -0.1265
  151TCq2    C3 2300   4.432   2.353  12.105  0.6734 -0.7407  1.0060
  151TCq2    C4 2301   4.561   2.314  12.100  0.1039  0.2195  0.3281
  151TCq2    C5 2302   4.649   2.367  12.185 -0.0246 -0.2676 -0.2361
  151TCq2    C6 2303   4.611   2.465  12.270 -0.4242 -0.6795 -0.3188
  151TCq2    C7 2304   4.480   2.500  12.287  0.3307  1.0439  0.6607
  151TCq2    C8 2305   4.707   2.497  12.375  0.2387 -0.6533 -0.1774
  151TCq2    O4 2306   4.709   2.611  12.412  0.3360 -0.3689 -0.4120
  151TCq2    C9 2307   4.609   2.229  11.995  0.8210  0.1885  0.2726
  151TCq2    O5 2308   4.707   2.149  12.004  0.1321  0.0548 -0.0522
  151TCq2    O6 2309   4.533   2.216  11.894 -0.0219  0.4728 -0.3344
  151TCq2    H2 2310   4.363   2.322  12.027  1.1399  2.2552 -0.6239
  151TCq2    H3 2311   0.026   2.327  12.179 -0.2773 -1.0373  0.6495
  151TCq2    H4 2312   4.441   2.572  12.357  0.2856  2.3677 -0.7366
  152MPD2     C 2313   3.844   2.078  12.811  0.3427 -0.1674  0.2525
  152MPD2    C1 2314   3.875   2.058  12.682  0.3656  0.7736  0.6675
  152MPD2    C2 2315   3.779   2.029  12.583  0.1429  0.3680 -0.0442
  152MPD2    C3 2316   3.645   1.999  12.613 -0.6144 -0.7814  0.5423
  152MPD2    C4 2317   3.622   1.996  12.745  0.4047  0.9070  0.1717
  152MPD2    C5 2318   3.717   2.035  12.841  0.0484  0.6411 -0.2632
  152MPD2     H 2319   3.820   2.044  12.484 -1.2268  2.5957 -0.2880
  152MPD2    H1 2320   3.525   1.976  12.789  0.9352  0.7176  1.2548
  152MPD2    H2 2321   3.916   2.113  12.884 -0.9559  0.6891  1.1158
  152MPD2    H3 2322   3.692   2.045  12.946  1.8428 -2.3247  0.4654
  152MPD2     N 2323   3.545   1.975  12.517  0.0882 -0.0657  0.7653
  152MPD2    H5 2324   3.576   1.962  12.421  2.2636  1.1453  1.2983
  152MPD2    N1 2325   4.007   2.102  12.648 -0.3750 -0.2486 -0.3459
  152MPD2    H7 2326   4.061   2.157  12.713  1.6677 -0.3029 -2.0091
  153TCq2    C1 2327   4.070   2.064  12.534  0.5696  0.8283 -0.2804
  153TCq2    O2 2328   4.040   1.965  12.469 -0.2548  0.0241 -0.1535
  153TCq2    C2 2329   4.199   2.136  12.509  0.3942  0.4452 -0.6241
  153TCq2    C3 2330   4.306   2.072  12.447 -0.2465  0.2245 -0.3830
  153TCq2    C4 2331   4.432   2.127  12.453  0.6128  0.8766  0.5788
  153TCq2    C5 2332   4.456   2.243  12.528  0.2088 -0.2838  0.0398
  153TCq2    C6 2333   4.341   2.310  12.574 -0.3065 -0.2739 -0.2675
  153TCq2    C7 2334   4.212   2.260  12.566 -0.3973 -0.1010  0.6942
  153TCq2    C8 2335   4.352   2.416  12.671  0.0192 -0.2869 -0.5214
  153TCq2    O4 2336   4.258   2.485  12.705  0.1153 -0.1622 -0.3482
  153TCq2    C9 2337   4.535   2.065  12.379  0.5121 -0.0350 -0.2428
  153TCq2    O5 2338   4.643   2.124  12.369 -0.5597 -0.2774  0.2339
  153TCq2    O6 2339   4.515   1.943  12.346 -0.3339  0.3872 -0.0846
  153TCq2    H2 2340   4.290   1.982  12.390  0.4411  2.3606 -3.9642
  153TCq2    H3 2341   4.555   2.286  12.525 -0.1568  0.7222  2.0193
  153TCq2    H4 2342   4.123   2.309  12.604 -0.4421 -0.4152  0.9950
  154MPD2     C 2343   1.292   2.832   0.681 -0.3887  0.8038 -0.4329
  154MPD2    C1 2344   1.210   2.732   0.636 -0.1503  0.1254 -0.3307
  154MPD2    C2 2345   1.074   2.734   0.679  0.1163  0.2501  0.2815
  154MPD2    C3 2346   1.024   2.840   0.758  0.2895  0.5525  0.1055
  154MPD2    C4 2347   1.106   2.948   0.777 -0.1253 -0.1087  0.2884
  154MPD2    C5 2348   1.238   2.942   0.742 -0.0329 -0.1310  0.5214
  154MPD2     H 2349   1.004   2.655   0.654  0.8684 -0.1095 -0.6992
  154MPD2    H1 2350   1.068   3.043   0.813  0.5968 -0.3135  1.5969
  154MPD2    H2 2351   1.399   2.828   0.661 -0.6615 -0.7289 -1.5359
  154MPD2    H3 2352   1.308   3.022   0.762 -0.4805  0.4659 -0.3195
  154MPD2     N 2353   0.888   2.845   0.792  0.8573 -0.5841 -0.4292
  154MPD2    H5 2354   0.829   2.765   0.770  1.6457 -1.5186  0.8552
  154MPD2    N1 2355   1.262   2.631   0.555  0.2607  0.1108  1.0478
  154MPD2    H7 2356   1.361   2.641   0.532  0.0976 -0.5241  0.0531
  155TCq2    C1 2357   1.194   2.523   0.516  0.2687  0.4019 -0.7039
  155TCq2    O2 2358   1.081   2.490   0.540 -0.1672 -0.7178 -0.3742
  155TCq2    C2 2359   1.260   2.436   0.419 -0.0536  0.1846 -0.5240
  155TCq2    C3 2360   1.188   2.325   0.382  0.1085 -1.2554  0.2192
  155TCq2    C4 2361   1.232   2.240   0.290 -1.0748  0.4173  0.2596
  155TCq2    C5 2362   1.351   2.271   0.233 -0.8941  0.6541  0.0778
  155TCq2    C6 2363   1.425   2.385   0.258  0.3695 -0.8200  0.0883
  155TCq2    C7 2364   1.367   2.476   0.347 -0.6132 -0.4051  0.1728
  155TCq2    C8 2365   1.532   2.419   0.176  0.3404  0.2678 -0.2714
  155TCq2    O4 2366   1.546   2.354   0.077  0.1929  0.0320  0.4230
  155TCq2    C9 2367   1.153   2.129   0.249  0.6325 -0.2306  0.6665
  155TCq2    O5 2368   1.170   2.077   0.139 -0.1472 -0.6396  0.1046
  155TCq2    O6 2369   1.075   2.080   0.338  0.1871 -0.0132 -0.2851
  155TCq2    H2 2370   1.101   2.300   0.443 -0.1565 -0.9003 -0.0144
  155TCq2    H3 2371   1.371   2.205   0.150 -1.0615 -0.7523  1.1465
  155TCq2    H4 2372   1.398   2.580   0.350 -1.9126  0.0462 -1.8303
  156MPD2     C 2373   4.031   3.711  12.220 -0.2865  0.4857  0.1492
  156MPD2    C1 2374   4.072   3.813  12.133 -0.5844 -0.3543  0.6282
  156MPD2    C2 2375   4.155   3.908  12.186 -0.3656  0.6824  0.6993
  156MPD2    C3 2376   4.196   3.894  12.317  0.4729  0.0111 -0.0020
  156MPD2    C4 2377   4.154   3.793  12.401  0.3575 -0.0231 -0.4107
  156MPD2    C5 2378   4.076   3.695  12.347 -0.2129  0.2681  0.2078
  156MPD2     H 2379   4.185   4.000  12.137 -1.5754  1.9975  2.4085
  156MPD2    H1 2380   4.179   3.773  12.504 -0.3721  0.7248 -0.0908
  156MPD2    H2 2381   3.965   3.633  12.184  0.9843 -0.7138  0.4278
  156MPD2    H3 2382   4.043   3.608  12.402  0.4188  0.2500  0.5511
  156MPD2     N 2383   4.295   3.985  12.363 -0.0861 -0.7046 -0.1335
  156MPD2    H5 2384   4.327   4.054  12.296  0.1499  2.1634  2.8707
  156MPD2    N1 2385   4.019   3.825  12.002  0.0854 -0.0606  0.1388
  156MPD2    H7 2386   3.962   3.746  11.974  1.0164 -0.5241 -0.4962
  157TCq2    C1 2387   4.032   3.929  11.916 -0.4675  0.5741  0.1107
  157TCq2    O2 2388   4.095   4.032  11.931  0.2541  0.2390 -0.1132
  157TCq2    C2 2389   3.926   3.923  11.819 -0.1755  0.0380  0.1305
  157TCq2    C3 2390   3.837   3.815  11.814  0.4577 -0.0887  0.3681
  157TCq2    C4 2391   3.732   3.821  11.725  0.3444  0.3231 -0.2350
  157TCq2    C5 2392   3.706   3.929  11.646  0.8375 -0.3776 -0.0800
  157TCq2    C6 2393   3.801   4.032  11.646 -0.6233  0.3885 -0.7111
  157TCq2    C7 2394   3.904   4.027  11.737  0.0375 -0.1688 -0.1295
  157TCq2    C8 2395   3.784   4.164  11.583 -0.4030  0.2128 -0.0890
  157TCq2    O4 2396   3.881   4.243  11.581 -0.1232  0.6771  0.5255
  157TCq2    C9 2397   3.638   3.710  11.728 -0.7157 -0.5557 -0.2062
  157TCq2    O5 2398   3.674   3.599  11.772  0.1146  0.0402 -0.3271
  157TCq2    O6 2399   3.542   3.729  11.656  0.6724 -0.1353  0.7592
  157TCq2    H2 2400   3.827   3.733  11.885 -2.4315  1.4074  1.6745
  157TCq2    H3 2401   3.625   3.924  11.574  1.3170 -1.0595 -0.5731
  157TCq2    H4 2402   3.967   4.114  11.750  0.8990 -0.6120 -1.3949
  158TMC2    C1 2403   4.714   3.267  13.228  0.0404 -0.9828  0.0476
  158TMC2    C2 2404   0.046   3.328  13.116 -0.0900 -0.4608 -0.0665
  158TMC2    C3 2405   4.693   3.334  13.002  0.5511  0.4536 -0.6769
  158TMC2    C4 2406   4.587   3.214  13.219  0.3674  0.0089  0.3303
  158TMC2    C5 2407   4.521   3.217  13.092  0.1130 -0.2526  0.1315
  158TMC2    C6 2408   4.571   3.280  12.980 -0.0852 -0.3319  0.6776
  158TMC2     C 2409   0.070   3.263  13.352 -0.0388 -0.0716 -0.2191
  158TMC2     O 2410   0.181   3.307  13.338  0.4338  0.5895  0.2437
  158TMC2     H 2411   0.147   3.366  13.126  0.8311 -2.9217 -0.0339
  158TMC2    H1 2412   4.528   3.183  13.304  0.2713 -1.4804 -0.2803
  158TMC2    H2 2413   4.526   3.256  12.885  2.4464  1.5906 -1.0167
  158TMC2    C7 2414   4.376   3.186  13.076 -0.3846  0.6232  0.5734
  158TMC2    C8 2415   0.009   3.417  12.890  0.4285 -0.2117 -0.7249
  158TMC2    O1 2416   4.323   3.229  12.975  0.7258  0.7137  0.4446
  158TMC2    O2 2417   0.000   3.376  12.773 -0.0515 -0.4400 -0.9764
  158TMC2    O5 2418   0.073   3.520  12.940 -0.6174  0.8818 -0.5294
  158TMC2    H5 2419   0.066   3.521  13.038 -0.6769 -1.4590 -0.4938
  159MPD2     C 2420   0.108   3.213  13.865  0.0073 -0.4283  0.7491
  159MPD2    C1 2421   4.715   3.175  13.824 -0.3972  0.7564  0.2308
  159MPD2    C2 2422   4.674   3.173  13.693  0.7888 -0.1886  0.7554
  159MPD2    C3 2423   0.039   3.213  13.595  0.8865 -0.3779 -0.0733
  159MPD2    C4 2424   0.162   3.252  13.638  0.2640  0.3099  0.3240
  159MPD2    C5 2425   0.197   3.250  13.774  0.1278 -0.2696  0.8316
  159MPD2     H 2426   4.576   3.138  13.662  1.0248  0.7255 -0.9842
  159MPD2    H1 2427   0.238   3.281  13.566  2.5619  0.2177  2.6970
  159MPD2    H2 2428   0.132   3.218  13.971  0.2692  0.6257  0.6407
  159MPD2    H3 2429   0.289   3.290  13.814  0.6137 -1.7168  1.1610
  159MPD2     N 2430   4.720   3.210  13.463  0.7979 -0.1532  0.1815
  159MPD2    H5 2431   4.633   3.164  13.441  1.4820 -2.1586  1.6793
  159MPD2    N1 2432   4.630   3.125  13.924 -0.5178  0.3293 -0.1920
  159MPD2    H7 2433   4.676   3.106  14.012 -1.5095  0.0930  0.2733
  160TMC2    C1 2434   3.696   1.776   1.885  0.1369 -0.0907 -0.4460
  160TMC2    C2 2435   3.658   1.900   1.831 -0.3733 -0.3887 -0.6759
  160TMC2    C3 2436   3.733   1.954   1.736  0.1753  0.1898 -0.0859
  160TMC2    C4 2437   3.814   1.721   1.838  0.7911 -0.4717 -0.4444
  160TMC2    C5 2438   3.885   1.777   1.735  1.2160 -0.2786  0.2928
  160TMC2    C6 2439   3.843   1.899   1.676 -0.3760 -0.1264  0.5769
  160TMC2     C 2440   3.607   1.680   1.943  0.0417 -0.5862  0.5723
  160TMC2     O 2441   3.667   1.582   1.994  0.1826 -0.6272 -0.0561
  160TMC2     H 2442   3.558   1.929   1.861  0.3200 -0.5471  1.7944
  160TMC2    H1 2443   3.849   1.622   1.867 -0.3270  0.0061  2.5789
  160TMC2    H2 2444   3.900   1.949   1.599 -1.1047  1.7822  1.2607
  160TMC2    C7 2445   4.011   1.713   1.699  0.7967  0.1451  0.6666
  160TMC2    C8 2446   3.699   2.082   1.682  0.3337 -0.0739  0.4059
  160TMC2    O1 2447   4.040   1.610   1.760 -0.3660 -0.2817  0.2858
  160TMC2    O2 2448   3.724   2.116   1.569  0.1486 -0.0383  0.3045
  160TMC2    O5 2449   3.641   2.155   1.778  0.4146 -0.4429  0.8783
  160TMC2    H5 2450   3.657   2.108   1.862 -0.3362  1.8188  2.2702
  161MPD2     C 2451   3.429   1.526   2.136 -0.4901  0.5572  0.1948
  161MPD2    C1 2452   3.393   1.647   2.071  0.6540  0.1577  0.0950
  161MPD2    C2 2453   3.263   1.697   2.079 -0.0713  0.2208  0.4422
  161MPD2    C3 2454   3.177   1.634   2.173 -0.0297 -0.3924  0.3024
  161MPD2    C4 2455   3.215   1.517   2.237  0.0938 -0.1268  0.2673
  161MPD2    C5 2456   3.338   1.457   2.212 -0.1232 -0.7425  0.2933
  161MPD2     H 2457   3.239   1.783   2.018 -1.2911  0.0288  0.6504
  161MPD2    H1 2458   3.155   1.474   2.316 -0.7037 -1.2941 -0.9744
  161MPD2    H2 2459   3.521   1.475   2.112 -0.2510 -0.2297  2.8349
  161MPD2    H3 2460   3.374   1.377   2.275  0.6495  1.5847  2.8097
  161MPD2     N 2461   3.053   1.690   2.208  0.3622  0.1968 -0.4746
  161MPD2    H5 2462   3.001   1.637   2.276 -1.1091  0.1568 -1.6354
  161MPD2    N1 2463   3.475   1.717   1.977  0.7466 -0.2650  0.1534
  161MPD2    H7 2464   3.432   1.795   1.929  3.1476 -0.6966 -2.7315
  162TMC2    C1 2465   1.973   3.512   0.781 -0.2027  0.1637  0.8697
  162TMC2    C2 2466   1.965   3.642   0.729 -0.4308 -0.7528  0.1024
  162TMC2    C3 2467   1.843   3.708   0.745  0.0210 -0.2120  0.4848
  162TMC2    C4 2468   1.867   3.440   0.835 -0.6503  0.3002  0.9110
  162TMC2    C5 2469   1.751   3.513   0.837  0.8268 -0.5203 -0.2718
  162TMC2    C6 2470   1.737   3.645   0.797  0.0003 -0.2359 -0.0442
  162TMC2     C 2471   2.087   3.432   0.736 -0.5857  0.3017 -0.2098
  162TMC2     O 2472   2.073   3.311   0.744 -0.0909  0.0510 -0.6993
  162TMC2     H 2473   2.033   3.686   0.656 -1.2186  0.0910 -0.1296
  162TMC2    H1 2474   1.881   3.343   0.880 -1.0274 -0.2938 -0.2510
  162TMC2    H2 2475   1.637   3.687   0.792 -0.3337 -0.8976  1.2285
  162TMC2    C7 2476   1.639   3.450   0.908  0.6748  0.2058  0.2507
  162TMC2    C8 2477   1.829   3.828   0.672  0.2111 -0.5174  0.1935
  162TMC2    O1 2478   1.531   3.493   0.874 -0.4301  0.2957 -0.4161
  162TMC2    O2 2479   1.899   3.853   0.575 -0.5885 -0.4712  0.2022
  162TMC2    O5 2480   1.766   3.920   0.753  0.3228  0.5952 -0.3639
  162TMC2    H5 2481   1.744   3.890   0.843 -1.6072  1.4521 -0.5540
  163MPD2     C 2482   2.526   3.382   0.493 -0.2994 -0.3081 -0.3994
  163MPD2    C1 2483   2.452   3.282   0.549  0.6415 -1.3088  0.2726
  163MPD2    C2 2484   2.340   3.327   0.623  0.6826 -0.4344 -0.3208
  163MPD2    C3 2485   2.309   3.460   0.631 -0.2386  0.3213 -0.4040
  163MPD2    C4 2486   2.399   3.560   0.584 -0.1748 -0.3347 -0.0156
  163MPD2    C5 2487   2.511   3.510   0.530 -0.5574 -0.4414 -0.2840
  163MPD2     H 2488   2.272   3.253   0.664  1.3988 -0.9188 -0.0060
  163MPD2    H1 2489   2.396   3.665   0.608 -0.7726 -0.6805  1.4624
  163MPD2    H2 2490   2.617   3.364   0.437 -0.7976 -0.2743 -1.2166
  163MPD2    H3 2491   2.596   3.571   0.505 -0.3430 -0.9269 -0.7487
  163MPD2     N 2492   2.197   3.508   0.688  0.0977 -0.2305  0.2651
  163MPD2    H5 2493   2.191   3.609   0.698 -2.1350 -0.6251  3.2255
  163MPD2    N1 2494   2.484   3.146   0.512  0.1793  0.3971 -0.1228
  163MPD2    H7 2495   2.567   3.130   0.456  0.6613  1.3954  0.3031
  164TCq2    C1 2496   2.686   2.762  11.179 -0.4757 -0.2584 -0.0314
  164TCq2    O2 2497   2.607   2.723  11.265 -0.4006  0.1649 -0.1065
  164TCq2    C2 2498   2.657   2.883  11.106  0.5571 -0.4686  0.0277
  164TCq2    C3 2499   2.735   2.919  10.995  0.0861 -0.6920  0.3178
  164TCq2    C4 2500   2.688   3.014  10.912 -0.2882 -0.0733 -1.0723
  164TCq2    C5 2501   2.567   3.085  10.936  0.0477  0.2214  0.4156
  164TCq2    C6 2502   2.506   3.057  11.052 -0.0332 -0.6125 -0.1342
  164TCq2    C7 2503   2.549   2.954  11.137 -0.0189 -0.2709 -0.2966
  164TCq2    C8 2504   2.367   3.104  11.079  0.1309 -0.0781 -0.0715
  164TCq2    O4 2505   2.293   3.041  11.155  0.3934  0.1878 -0.0469
  164TCq2    C9 2506   2.759   3.044  10.791  0.6417 -0.4876 -0.2320
  164TCq2    O5 2507   2.704   3.106  10.699  0.3899  0.1489  0.0705
  164TCq2    O6 2508   2.883   3.022  10.795  0.1419 -0.0819 -0.1170
  164TCq2    H2 2509   2.829   2.874  10.966  0.6748 -0.1063  1.3577
  164TCq2    H3 2510   2.528   3.145  10.856  2.5169  2.4838  0.9052
  164TCq2    H4 2511   2.491   2.921  11.222 -0.1565  3.5453  1.1084
  165MPD2     C 2512   3.356   0.323   2.163  0.2843  0.1805 -0.1385
  165MPD2    C1 2513   3.404   0.202   2.114  0.5594  0.4065  0.3059
  165MPD2    C2 2514   3.490   0.127   2.199  0.3627 -0.2558  0.3190
  165MPD2    C3 2515   3.540   0.187   2.314  0.0733 -0.9640 -0.5924
  165MPD2    C4 2516   3.482   0.309   2.359 -0.4493 -0.3049  0.4585
  165MPD2    C5 2517   3.386   0.370   2.286  0.7779  0.4232 -0.9807
  165MPD2     H 2518   3.525   0.033   2.161  0.8213  0.3025 -0.6372
  165MPD2    H1 2519   3.510   0.345   2.457 -1.6247  0.0062  0.6794
  165MPD2    H2 2520   3.283   0.372   2.099  1.3663  3.2976  1.0284
  165MPD2    H3 2521   3.332   0.452   2.331 -0.6040 -2.0228  1.8473
  165MPD2     N 2522   3.647   0.131   2.390  0.2402  0.5990  0.2092
  165MPD2    H5 2523   3.692   0.191   2.459 -2.1392 -0.6479  2.8762
  165MPD2    N1 2524   3.344   0.167   1.990 -0.7023  0.0335  0.4219
  165MPD2    H7 2525   3.284   0.239   1.951 -1.6059 -0.2103  1.3759
  166TCq2    C1 2526   3.705   0.011   2.365 -0.1992 -1.0766 -0.2069
  166TCq2    O2 2527   3.647   4.637   2.319 -0.3460 -0.0098 -0.0770
  166TCq2    C2 2528   3.838   4.720   2.428 -0.2493 -0.1500  0.4510
  166TCq2    C3 2529   3.867   4.590   2.432 -0.3447  0.0117  0.6895
  166TCq2    C4 2530   3.991   4.551   2.408  0.4200  0.5824  0.9280
  166TCq2    C5 2531   4.092   4.635   2.367 -0.3398 -0.2572  0.1061
  166TCq2    C6 2532   4.059   0.042   2.358 -0.0556  0.8819 -0.1253
  166TCq2    C7 2533   3.931   0.087   2.384  0.8587 -0.3338 -0.2991
  166TCq2    C8 2534   4.160   0.132   2.306 -0.4683 -0.2827  0.1355
  166TCq2    O4 2535   4.266   0.079   2.266  0.4816 -0.3387  0.4750
  166TCq2    C9 2536   4.040   4.414   2.435  0.6201  0.0124 -0.6064
  166TCq2    O5 2537   4.148   4.389   2.378  0.1897 -0.3455  0.2177
  166TCq2    O6 2538   3.986   4.346   2.523 -0.1685 -0.5630 -0.1518
  166TCq2    H2 2539   3.798   4.510   2.455 -1.0458  0.5390  0.4239
  166TCq2    H3 2540   4.194   4.603   2.350 -0.8792 -2.8858  1.7697
  166TCq2    H4 2541   3.898   0.187   2.360 -0.3008 -0.4805  0.6936
  167TMC2    C1 2542   1.759   2.611  12.897  0.0031  0.4187 -0.3545
  167TMC2    C2 2543   1.642   2.608  12.968 -0.1931  0.0022 -0.2886
  167TMC2    C3 2544   1.597   2.490  13.012  0.4602 -0.6034 -0.4800
  167TMC2    C4 2545   1.822   2.490  12.870 -0.4761 -0.0808 -0.1921
  167TMC2    C5 2546   1.776   2.368  12.920  0.8706  0.7476 -0.3709
  167TMC2    C6 2547   1.659   2.367  12.994 -0.1164 -0.4088 -0.2122
  167TMC2     C 2548   1.780   2.716  12.806 -0.0339 -0.2202  0.1864
  167TMC2     O 2549   1.728   2.819  12.833  0.4271 -0.0424  0.1496
  167TMC2     H 2550   1.584   2.698  12.983  0.0932  0.5777 -2.6062
  167TMC2    H1 2551   1.929   2.502  12.855 -0.7018  0.6413 -1.1779
  167TMC2    H2 2552   1.613   2.273  13.022  1.3230 -1.6752 -2.0851
  167TMC2    C7 2553   1.851   2.247  12.932 -0.4651 -0.6398 -0.3568
  167TMC2    C8 2554   1.462   2.498  13.067 -0.1530  0.2870  0.1933
  167TMC2    O1 2555   1.809   2.151  12.999 -0.2823 -0.4407  0.0955
  167TMC2    O2 2556   1.374   2.570  13.021 -0.4147  0.1147  0.2080
  167TMC2    O5 2557   1.439   2.387  13.150  0.0514 -1.0385  0.4071
  167TMC2    H5 2558   1.517   2.343  13.190 -0.2328 -1.2349  0.7497
  168MPD2     C 2559   1.863   2.885  12.556  0.0022 -0.4990  0.6479
  168MPD2    C1 2560   1.874   2.747  12.572  0.0561 -0.3435  0.0898
  168MPD2    C2 2561   1.924   2.675  12.463 -0.0714  0.2817  0.3474
  168MPD2    C3 2562   1.962   2.738  12.347  0.0487  0.4188 -0.2328
  168MPD2    C4 2563   1.950   2.869  12.334  0.0026 -0.3474 -0.0388
  168MPD2    C5 2564   1.897   2.946  12.436  0.4432  0.1773  0.0904
  168MPD2     H 2565   1.928   2.567  12.462  1.8850  0.3860 -1.2541
  168MPD2    H1 2566   1.968   2.925  12.243  0.6108  0.2262  0.4425
  168MPD2    H2 2567   1.816   2.944  12.633 -0.6301 -0.0042 -0.1124
  168MPD2    H3 2568   1.885   3.053  12.422 -0.3231  0.3635  2.2352
  168MPD2     N 2569   2.037   2.668  12.246 -0.7228 -0.0860  0.3773
  168MPD2    H5 2570   2.070   2.723  12.168 -2.3172  0.3043 -0.0314
  168MPD2    N1 2571   1.839   2.675  12.692 -0.1350  0.3818  0.3630
  168MPD2    H7 2572   1.861   2.576  12.689 -0.5487  0.3314 -1.1848
  169MPD1     C 2573   3.529   1.414   8.972 -0.0187 -0.9215  0.5123
  169MPD1    C1 2574   3.578   1.303   9.036  0.3518  0.0238  0.5481
  169MPD1    C2 2575   3.681   1.313   9.124  0.4570  0.5033  0.4309
  169MPD1    C3 2576   3.764   1.425   9.120 -0.1994  0.4386  0.0017
  169MPD1    C4 2577   3.716   1.538   9.056 -0.1176 -0.6591 -0.2933
  169MPD1    C5 2578   3.602   1.529   8.980 -0.4615  1.0980  0.4562
  169MPD1     H 2579   3.698   1.227   9.186  0.2397 -1.5502 -2.3516
  169MPD1    H1 2580   3.758   1.637   9.063  1.7370 -1.5573  1.3528
  169MPD1    H2 2581   3.439   1.412   8.913 -0.2553  2.4162  0.7868
  169MPD1    H3 2582   3.570   1.615   8.923 -0.9984 -1.6772 -3.4952
  169MPD1     N 2583   3.879   1.425   9.203  0.5838  0.2625  0.0859
  169MPD1    H5 2584   3.896   1.343   9.260  1.0506  0.3606  0.0810
  169MPD1    N1 2585   3.496   1.189   9.042  0.1494 -0.1826  0.8088
  169MPD1    H6 2586   3.468   1.153   8.951  1.1512  0.7117  0.1422
  169MPD1    H7 2587   3.554   1.113   9.078  1.3939  0.5425  0.3366
  170MPD1     C 2588   3.801   4.578  12.786 -0.5933  0.4481 -0.4735
  170MPD1    C1 2589   3.700   4.664  12.744 -0.7508  0.1096 -0.6844
  170MPD1    C2 2590   3.641   0.022  12.838  0.0813 -0.0704 -0.1003
  170MPD1    C3 2591   3.682   0.017  12.969  0.3724  0.0987  1.0634
  170MPD1    C4 2592   3.778   4.650  13.014 -0.3028  0.6372 -0.1022
  170MPD1    C5 2593   3.841   4.574  12.918  0.3974 -0.1713 -0.1842
  170MPD1     H 2594   3.576   0.103  12.809 -0.7761 -1.4073 -1.9126
  170MPD1    H1 2595   3.810   4.637  13.117 -0.8730  0.9926  0.1169
  170MPD1    H2 2596   3.854   4.507  12.724  0.1266  0.9727 -0.4600
  170MPD1    H3 2597   3.926   4.511  12.942  0.7480  0.1809 -0.5069
  170MPD1     N 2598   3.608   0.101  13.063  0.2023  0.7520  0.4142
  170MPD1    H5 2599   3.529   0.149  13.021  0.5732  0.8023 -0.2345
  170MPD1    N1 2600   3.673   4.672  12.607 -0.4265 -0.3838  0.0286
  170MPD1    H6 2601   3.583   4.715  12.588 -0.1983  0.5814  1.1658
  170MPD1    H7 2602   3.675   4.585  12.553 -1.4294 -0.7500  0.5831
  171MPD1     C 2603   2.214   1.366  15.652  0.1586 -0.0196 -1.0066
  171MPD1    C1 2604   2.295   1.310  15.558 -0.0757 -0.4937  0.6687
  171MPD1    C2 2605   2.356   1.190  15.587  1.0638  0.6895 -0.1187
  171MPD1    C3 2606   2.340   1.122  15.709  0.3725  0.2313 -0.3308
  171MPD1    C4 2607   2.264   1.181  15.809  0.0945 -0.3246  0.3174
  171MPD1    C5 2608   2.203   1.302  15.777 -0.3867 -0.1848 -0.0470
  171MPD1     H 2609   2.417   1.138  15.514 -1.1816 -1.9999 -0.1259
  171MPD1    H1 2610   2.248   1.135  15.906 -0.1691 -1.4052 -0.2377
  171MPD1    H2 2611   2.167   1.464  15.646  2.7529  1.2234 -0.9438
  171MPD1    H3 2612   2.151   1.357  15.855 -0.0654 -0.3472  0.2800
  171MPD1     N 2613   2.392   0.998  15.739 -0.0781  0.0158 -0.0379
  171MPD1    H5 2614   2.367   0.964  15.832 -0.0073 -1.6551 -0.6312
  171MPD1    N1 2615   2.302   1.354  15.427 -0.1157 -0.5553  1.0561
  171MPD1    H6 2616   2.387   1.324  15.379  0.6465 -1.5546  3.0397
  171MPD1    H7 2617   2.295   1.453  15.407 -2.0308 -0.3205  2.9606
  172MPD1     C 2618   0.839   1.268   1.002  0.0126 -0.0465 -0.5151
  172MPD1    C1 2619   0.943   1.191   0.945  0.0313 -0.0617  0.6185
  172MPD1    C2 2620   0.909   1.091   0.853 -0.4502  0.4650  0.1584
  172MPD1    C3 2621   0.773   1.052   0.830 -0.5361  0.3578 -0.2696
  172MPD1    C4 2622   0.676   1.118   0.900  0.1575 -0.7324  0.0509
  172MPD1    C5 2623   0.708   1.222   0.987 -0.0640 -0.3220  0.2315
  172MPD1     H 2624   0.987   1.031   0.808 -1.1440 -0.8981  0.7665
  172MPD1    H1 2625   0.571   1.092   0.894  0.8811 -2.9222 -2.9604
  172MPD1    H2 2626   0.857   1.347   1.074  0.5691  0.4686 -1.2274
  172MPD1    H3 2627   0.631   1.267   1.049  1.3463  3.8463 -1.0652
  172MPD1     N 2628   0.731   0.965   0.727  0.0864  0.1101 -0.3515
  172MPD1    H5 2629   0.631   0.948   0.727  0.1015  0.0589  2.7300
  172MPD1    N1 2630   1.074   1.241   0.960 -0.2693 -0.1345 -0.2191
  172MPD1    H6 2631   1.146   1.169   0.954  1.4623  1.6811 -1.0468
  172MPD1    H7 2632   1.087   1.284   1.052  1.4991  2.1145 -1.5398
  173MPD1     C 2633   2.517   0.471  14.181 -0.2868 -0.6527 -0.0270
  173MPD1    C1 2634   2.398   0.427  14.134  0.1209  0.1800  0.3122
  173MPD1    C2 2635   2.297   0.397  14.221 -0.2726  0.0221  0.4353
  173MPD1    C3 2636   2.315   0.402  14.353 -0.1916 -0.3617  0.4645
  173MPD1    C4 2637   2.432   0.454  14.400  0.2215  0.3853 -0.0328
  173MPD1    C5 2638   2.529   0.491  14.317  0.1727  0.4167 -0.4875
  173MPD1     H 2639   2.210   0.351  14.176  0.1328 -1.8343  1.5744
  173MPD1    H1 2640   2.443   0.483  14.504 -0.1548 -1.5015  0.5395
  173MPD1    H2 2641   2.600   0.487  14.113  0.9626 -2.1036  1.1537
  173MPD1    H3 2642   2.620   0.524  14.367 -0.1962 -0.5205  0.7848
  173MPD1     N 2643   2.219   0.347  14.441 -0.0935  0.2229 -1.0128
  173MPD1    H5 2644   2.130   0.315  14.402 -0.5212 -2.9939  2.6842
  173MPD1    N1 2645   2.399   0.386  14.003 -0.1922 -0.9942 -0.2446
  173MPD1    H6 2646   2.304   0.369  13.971 -0.3914  2.3349 -1.4784
  173MPD1    H7 2647   2.435   0.461  13.944  0.7996 -1.3604 -0.1043
  174MPD1     C 2648   1.711   4.445  14.138  0.0326 -0.0231 -0.4914
  174MPD1    C1 2649   1.791   4.390  14.232 -0.1361 -0.2972  0.1630
  174MPD1    C2 2650   1.853   4.480  14.320 -0.0426 -0.5164 -0.0956
  174MPD1    C3 2651   1.814   4.614  14.319  0.2434  0.2472 -0.0719
  174MPD1    C4 2652   1.726   4.664  14.225 -0.0252  0.3859 -0.0068
  174MPD1    C5 2653   1.671   4.576  14.139 -0.0145 -0.5438 -0.1188
  174MPD1     H 2654   1.930   4.434  14.380 -0.4870 -1.6922 -0.4303
  174MPD1    H1 2655   1.689   0.042  14.228  1.1694  0.8184 -0.2397
  174MPD1    H2 2656   1.670   4.380  14.062 -0.9138  1.3578 -1.1623
  174MPD1    H3 2657   1.596   4.616  14.072 -0.8542  0.0048  1.1312
  174MPD1     N 2658   1.866   4.706  14.410  0.6408  0.3395 -0.1071
  174MPD1    H5 2659   1.859   0.080  14.385  0.8746  0.5447  0.6244
  174MPD1    N1 2660   1.832   4.256  14.217  0.1729 -0.7648 -0.7060
  174MPD1    H6 2661   1.748   4.202  14.197 -0.6455 -0.5634  2.1532
  174MPD1    H7 2662   1.879   4.222  14.301 -1.9501 -1.7053  0.0807
  175MPD1     C 2663   1.195   1.069  15.647 -0.8284 -0.0139 -0.7795
  175MPD1    C1 2664   1.064   1.054  15.648 -0.0482  0.6680  0.1241
  175MPD1    C2 2665   0.998   1.052  15.773 -0.0960 -0.0083  0.1875
  175MPD1    C3 2666   1.060   1.075  15.894  0.5474  0.7533 -0.6104
  175MPD1    C4 2667   1.199   1.095  15.889  0.2233  0.5546 -0.2797
  175MPD1    C5 2668   1.263   1.087  15.770  0.4356  0.0259  0.2470
  175MPD1     H 2669   0.894   1.024  15.769  0.0967 -0.6413 -0.5479
  175MPD1    H1 2670   1.257   1.120  15.977 -0.1641  1.1407 -0.1816
  175MPD1    H2 2671   1.251   1.081  15.555  0.9856  2.1684  0.5764
  175MPD1    H3 2672   1.369   1.111  15.771  0.1683  1.1827  1.2634
  175MPD1     N 2673   1.006   1.069  16.024 -0.3312 -0.8235  0.3725
  175MPD1    H5 2674   1.071   1.080  16.101  0.1140  0.7985 -0.2281
  175MPD1    N1 2675   0.995   1.039  15.527 -0.1064 -0.0800  0.5805
  175MPD1    H6 2676   1.035   1.085  15.445 -1.4170 -1.6227 -0.9299
  175MPD1    H7 2677   0.894   1.050  15.531 -0.1908 -0.0255 -1.8242
  176MPD1     C 2678   2.625   3.146  16.123  0.1955 -0.6477 -0.3928
  176MPD1    C1 2679   2.507   3.091  16.167 -0.5637 -0.5196  0.3253
  176MPD1    C2 2680   2.461   3.139  16.289 -0.1367 -0.5191  0.0028
  176MPD1    C3 2681   2.507   3.256  16.346  0.1507 -0.5610  0.4108
  176MPD1    C4 2682   2.610   3.324  16.281  0.0152 -0.1463 -0.3830
  176MPD1    C5 2683   2.671   3.263  16.175 -0.1777  0.6494 -0.5861
  176MPD1     H 2684   2.387   3.082  16.343 -0.5725  0.9224  0.9105
  176MPD1    H1 2685   2.655   3.413  16.323 -0.2061 -1.1268  1.9428
  176MPD1    H2 2686   2.682   3.102  16.042 -1.6545 -0.7696 -1.6346
  176MPD1    H3 2687   2.763   3.307  16.137  0.7458 -1.0032 -0.2470
  176MPD1     N 2688   2.451   3.290  16.476  0.1526 -0.1444  0.2929
  176MPD1    H5 2689   2.381   3.229  16.518 -0.4194  0.5412  0.3422
  176MPD1    N1 2690   2.463   2.969  16.115 -0.0342 -0.5877 -0.2066
  176MPD1    H6 2691   2.361   2.967  16.115 -0.0338 -0.8007  0.5446
  176MPD1    H7 2692   2.481   2.979  16.016 -0.0221 -2.6310 -0.4034
  177MPD1     C 2693   1.033   3.155  10.363 -0.4590  0.2680  0.2001
  177MPD1    C1 2694   1.065   3.215  10.242  0.7675 -0.4205 -0.1456
  177MPD1    C2 2695   1.049   3.140  10.130  0.1730 -0.0134 -0.6551
  177MPD1    C3 2696   1.001   3.019  10.124  0.5007 -0.2114 -0.3676
  177MPD1    C4 2697   0.967   2.962  10.249  0.3622  0.3422 -0.1863
  177MPD1    C5 2698   0.993   3.028  10.364  0.5103  0.7088 -0.5999
  177MPD1     H 2699   1.061   3.194  10.038  2.7924  0.1635 -0.1953
  177MPD1    H1 2700   0.922   2.864  10.257  0.3074  0.1924 -2.3126
  177MPD1    H2 2701   1.047   3.202  10.460  0.9480  1.4267 -0.5556
  177MPD1    H3 2702   0.980   2.980  10.461  2.0756  1.5840  0.0458
  177MPD1     N 2703   0.965   2.964   9.998 -0.5646  0.0218  0.3831
  177MPD1    H5 2704   0.974   3.024   9.917 -2.9731 -0.5241 -0.3060
  177MPD1    N1 2705   1.084   3.352  10.232 -0.7346 -0.4348  0.0339
  177MPD1    H6 2706   1.118   3.405  10.312 -1.8030 -0.3280  0.4137
  177MPD1    H7 2707   1.149   3.374  10.156 -1.0316 -0.1692 -0.1426
  178MPD1     C 2708   3.311   3.790   0.491 -0.1603  0.4587 -0.2805
  178MPD1    C1 2709   3.414   3.756   0.412  0.4232 -0.5444  0.4128
  178MPD1    C2 2710   3.389   3.763   0.276 -0.1429  0.7955  0.1416
  178MPD1    C3 2711   3.263   3.775   0.212 -0.2920  0.0064 -0.4309
  178MPD1    C4 2712   3.160   3.799   0.297  0.3391 -0.0725 -0.1474
  178MPD1    C5 2713   3.188   3.807   0.436  0.7243 -0.7868 -0.4074
  178MPD1     H 2714   3.479   3.761   0.216 -0.0700  3.4958  0.1714
  178MPD1    H1 2715   3.058   3.817   0.264  0.8711  0.6393 -1.4439
  178MPD1    H2 2716   3.321   3.803   0.598 -0.6940  0.4154 -0.2236
  178MPD1    H3 2717   3.111   3.836   0.506 -0.9507 -2.1380 -1.6788
  178MPD1     N 2718   3.243   3.761   0.067 -0.2431 -0.1732 -0.3198
  178MPD1    H5 2719   3.324   3.738   0.010 -0.9899 -0.2506 -1.3601
  178MPD1    N1 2720   3.549   3.771   0.454 -0.1939 -0.2530 -0.5585
  178MPD1    H6 2721   3.556   3.743   0.551 -0.2183  1.8279  0.0488
  178MPD1    H7 2722   3.617   3.716   0.401 -0.0509 -0.8363  0.2336
  179MPD1     C 2723   3.182   2.448  15.812  0.1089 -0.0291  0.5262
  179MPD1    C1 2724   3.045   2.416  15.825  0.1921 -0.0759  0.3556
  179MPD1    C2 2725   3.004   2.283  15.809  0.1421 -0.4667 -0.2816
  179MPD1    C3 2726   3.092   2.186  15.776 -0.3109 -0.2678  0.0732
  179MPD1    C4 2727   3.225   2.215  15.772  0.1414 -0.5416  0.2703
  179MPD1    C5 2728   3.270   2.346  15.787  0.3478 -0.0778 -0.4191
  179MPD1     H 2729   2.901   2.264  15.835  0.5045 -0.6985  0.9847
  179MPD1    H1 2730   3.303   2.146  15.742  0.9388  0.5804 -0.2463
  179MPD1    H2 2731   3.205   2.549  15.844  1.2627  0.2713 -1.2971
  179MPD1    H3 2732   3.378   2.354  15.785  0.4656 -1.5641 -0.3564
  179MPD1     N 2733   3.052   2.053  15.748  0.0612  0.2648 -0.2541
  179MPD1    H5 2734   3.126   1.984  15.738  0.1135 -0.0157  2.0442
  179MPD1    N1 2735   2.961   2.509  15.884  0.5782 -0.1043 -0.0382
  179MPD1    H6 2736   2.862   2.488  15.872  1.3504 -2.1825 -2.8359
  179MPD1    H7 2737   2.988   2.600  15.848  2.1900 -0.8982 -0.8448
  180MPD1     C 2738   2.755   3.814  15.251 -0.2208  0.3560  0.0682
  180MPD1    C1 2739   2.810   3.843  15.130  0.2281  0.8361  0.3701
  180MPD1    C2 2740   2.743   3.804  15.014  0.0737 -0.4467 -0.4089
  180MPD1    C3 2741   2.613   3.751  15.030  0.2263 -0.3711 -0.6175
  180MPD1    C4 2742   2.564   3.711  15.155 -0.0655  0.1521  0.5300
  180MPD1    C5 2743   2.643   3.745  15.264  0.0197 -0.0110  0.2389
  180MPD1     H 2744   2.791   3.815  14.917  2.6209  0.9645  0.9921
  180MPD1    H1 2745   2.485   3.637  15.162 -0.0506  0.1840  1.0399
  180MPD1    H2 2746   2.808   3.832  15.344  1.2578  0.5323 -0.8223
  180MPD1    H3 2747   2.612   3.704  15.359 -0.5312  0.0227  0.0715
  180MPD1     N 2748   2.549   3.707  14.915  0.0462  0.2773 -0.1358
  180MPD1    H5 2749   2.594   3.712  14.824 -0.5046  0.3597 -0.4028
  180MPD1    N1 2750   2.940   3.887  15.123 -0.2453  0.8020  0.0219
  180MPD1    H6 2751   2.980   3.932  15.041 -0.5063 -1.2445 -1.2221
  180MPD1    H7 2752   2.974   3.923  15.211 -0.2119 -0.5992  0.5784
  181MPD1     C 2753   3.699   0.490  10.238 -0.4378  0.0008 -0.3171
  181MPD1    C1 2754   3.739   0.614  10.197  0.6913  0.1774 -0.1361
  181MPD1    C2 2755   3.867   0.617  10.149 -0.4903  0.5364  0.3676
  181MPD1    C3 2756   3.953   0.511  10.175  0.0185  0.3108  0.6873
  181MPD1    C4 2757   3.910   0.386  10.208  0.4795 -0.1966  0.7032
  181MPD1    C5 2758   3.779   0.374  10.242  0.9066 -0.1854  1.2862
  181MPD1     H 2759   3.916   0.709  10.118  0.6498 -0.7799 -1.7360
  181MPD1    H1 2760   3.983   0.308  10.225  1.6560  0.7307 -0.0060
  181MPD1    H2 2761   3.594   0.490  10.266 -0.4902  0.9084 -0.5188
  181MPD1    H3 2762   3.735   0.280  10.273 -1.3219  1.1238  2.0690
  181MPD1     N 2763   4.095   0.521  10.157  0.0103 -0.2217 -0.5354
  181MPD1    H5 2764   4.152   0.439  10.174  1.6043  0.6935 -1.4776
  181MPD1    N1 2765   3.649   0.721  10.175  0.5197  0.5033  0.1193
  181MPD1    H6 2766   3.566   0.728  10.233  0.5437 -1.5057  0.4188
  181MPD1    H7 2767   3.697   0.810  10.180  0.0462  0.6246  2.3622
  182MPD1     C 2768   0.987   4.646   1.697 -0.1121  0.3186 -0.2969
  182MPD1    C1 2769   0.897   4.678   1.803  0.2869  0.0830  0.0747
  182MPD1    C2 2770   0.767   4.644   1.787 -0.6697 -0.3311  0.6436
  182MPD1    C3 2771   0.719   4.588   1.673  0.0573 -0.2383 -0.2761
  182MPD1    C4 2772   0.807   4.566   1.571 -0.7187  0.7735  0.9227
  182MPD1    C5 2773   0.939   4.603   1.580 -0.4306  0.2334  0.6103
  182MPD1     H 2774   0.696   4.672   1.865  1.8791 -0.6043  3.0490
  182MPD1    H1 2775   0.775   4.524   1.476 -0.2215 -0.8560  1.4756
  182MPD1    H2 2776   1.092   4.673   1.703 -0.2104  1.1067 -2.1037
  182MPD1    H3 2777   1.008   4.585   1.498 -1.2947  0.3385 -0.1438
  182MPD1     N 2778   0.577   4.555   1.656  0.5449 -0.2292  0.5790
  182MPD1    H5 2779   0.556   4.510   1.567  0.9877  0.1192  0.2958
  182MPD1    N1 2780   0.942   0.008   1.925 -0.2357 -0.0965 -0.5033
  182MPD1    H6 2781   1.039   0.039   1.926 -0.4759  0.7075 -2.3847
  182MPD1    H7 2782   0.881   0.087   1.942  1.0070  1.1165 -1.7726
  183MPD1     C 2783   4.494   4.211   9.244 -0.0975  0.4401 -0.4848
  183MPD1    C1 2784   4.463   4.346   9.238 -0.3517 -0.2903 -0.5910
  183MPD1    C2 2785   4.538   4.427   9.322 -0.4959  0.3640 -0.7377
  183MPD1    C3 2786   4.632   4.380   9.414 -0.0072 -0.5723 -0.0453
  183MPD1    C4 2787   4.648   4.243   9.419 -0.0304 -0.1687  0.0283
  183MPD1    C5 2788   4.584   4.159   9.336  0.0422  0.2867 -0.1638
  183MPD1     H 2789   4.526   4.535   9.320  1.7543  0.6591  1.2850
  183MPD1    H1 2790   4.721   4.206   9.490  0.6953 -1.6833 -1.5123
  183MPD1    H2 2791   4.441   4.132   9.192  2.4285 -2.5171  1.3623
  183MPD1    H3 2792   4.603   4.053   9.347 -1.2374  0.1451  0.6818
  183MPD1     N 2793   4.702   4.479   9.490 -0.5615 -0.2623 -0.2548
  183MPD1    H5 2794   4.686   4.577   9.472 -0.5039  0.0518  1.3811
  183MPD1    N1 2795   4.387   4.398   9.127  0.0797  0.2134  0.1032
  183MPD1    H6 2796   4.311   4.334   9.105 -0.4784  0.7273  0.5318
  183MPD1    H7 2797   4.333   4.476   9.166  1.3903  1.4380 -0.5454
  184MPD1     C 2798   0.359   2.690   9.295 -0.2667  0.2214  0.6158
  184MPD1    C1 2799   0.279   2.741   9.195 -0.5161 -0.1712  0.0374
  184MPD1    C2 2800   0.190   2.839   9.225 -0.3843 -0.7183 -0.0159
  184MPD1    C3 2801   0.175   2.889   9.357  0.2012 -0.2118 -0.4626
  184MPD1    C4 2802   0.266   2.853   9.457  0.0553  0.3267 -0.0927
  184MPD1    C5 2803   0.346   2.749   9.421  0.6082 -0.0112  0.2721
  184MPD1     H 2804   0.126   2.869   9.143  0.0470  1.4154  0.4277
  184MPD1    H1 2805   0.261   2.889   9.560  0.0750 -1.9690  0.7187
  184MPD1    H2 2806   0.431   2.611   9.280 -0.2553  0.8227 -2.3432
  184MPD1    H3 2807   0.412   2.712   9.498 -0.5105  0.2431  1.3567
  184MPD1     N 2808   0.070   2.974   9.399  0.7273  0.6297 -0.2365
  184MPD1    H5 2809   0.069   3.021   9.489 -0.1534 -1.5831  0.8988
  184MPD1    N1 2810   0.293   2.679   9.066 -0.0497  0.0701  0.2406
  184MPD1    H6 2811   0.389   2.659   9.038  0.0982  0.3884  0.5196
  184MPD1    H7 2812   0.266   2.741   8.990  1.0337 -1.7105 -1.6141
  185MPD1     C 2813   4.128   2.578   9.693 -0.9007 -0.3221  0.2823
  185MPD1    C1 2814   4.057   2.672   9.615  0.1962 -0.5724  0.2261
  185MPD1    C2 2815   4.108   2.795   9.597 -0.0483  0.1030  0.2009
  185MPD1    C3 2816   4.243   2.816   9.620 -0.0048 -1.0023 -0.5484
  185MPD1    C4 2817   4.319   2.715   9.671 -0.6557  0.6214  0.0617
  185MPD1    C5 2818   4.259   2.600   9.720  0.2203 -0.7452 -0.5896
  185MPD1     H 2819   4.054   2.876   9.549  1.2453  2.4490  2.7529
  185MPD1    H1 2820   4.425   2.720   9.695  0.2780 -2.0202 -3.5537
  185MPD1    H2 2821   4.080   2.487   9.727 -0.2306 -1.2342 -1.1911
  185MPD1    H3 2822   4.324   2.530   9.771  0.2729  1.5456  2.4604
  185MPD1     N 2823   4.314   2.934   9.583  0.2275 -0.2655  0.5863
  185MPD1    H5 2824   4.414   2.933   9.596  0.1395 -0.0067  1.2468
  185MPD1    N1 2825   3.919   2.645   9.594 -0.1798  0.5931 -0.1739
  185MPD1    H6 2826   3.872   2.697   9.521 -1.3362 -2.7134 -1.8051
  185MPD1    H7 2827   3.887   2.548   9.598  0.6698  0.3748  1.3360
  186MPD1     C 2828   3.510   1.698  16.009  0.4183  0.1653  0.5148
  186MPD1    C1 2829   3.566   1.807  15.958  0.0625 -0.1097 -0.9367
  186MPD1    C2 2830   3.506   1.929  15.983  0.0531  0.0459  0.2391
  186MPD1    C3 2831   3.393   1.942  16.059  0.1673 -0.3656  0.1083
  186MPD1    C4 2832   3.330   1.831  16.100 -0.3594  0.0586  0.6943
  186MPD1    C5 2833   3.392   1.709  16.083 -0.1728  0.3933 -0.7372
  186MPD1     H 2834   3.556   2.014  15.938 -0.0966  0.0185  0.0224
  186MPD1    H1 2835   3.238   1.831  16.156 -0.1925 -1.1154  0.9820
  186MPD1    H2 2836   3.559   1.604  15.987 -0.2136 -0.1662  0.5051
  186MPD1    H3 2837   3.338   1.628  16.130  1.9416  0.0077  1.0389
  186MPD1     N 2838   3.335   2.065  16.096  0.2107 -0.2485 -0.0615
  186MPD1    H5 2839   3.256   2.051  16.157 -1.9758  0.5286 -2.7397
  186MPD1    N1 2840   3.682   1.795  15.887  0.8395 -0.4430 -0.4922
  186MPD1    H6 2841   3.690   1.705  15.841 -0.3462 -0.7821 -0.0341
  186MPD1    H7 2842   3.715   1.865  15.821 -1.6325 -0.0139 -1.2773
  187MPD1     C 2843   1.762   0.356   0.542  0.3008 -0.1924  0.1307
  187MPD1    C1 2844   1.891   0.390   0.514  0.1888  0.4031 -0.2193
  187MPD1    C2 2845   1.986   0.297   0.487  0.7455 -0.6727  0.7787
  187MPD1    C3 2846   1.957   0.163   0.471 -0.2857  0.5474  0.5066
  187MPD1    C4 2847   1.826   0.128   0.505 -0.0258  0.6698  0.3268
  187MPD1    C5 2848   1.729   0.225   0.532 -0.2417 -0.2445  0.5054
  187MPD1     H 2849   2.085   0.331   0.461 -0.0140  1.8711  1.2161
  187MPD1    H1 2850   1.784   0.028   0.497 -0.4639  0.8607  0.2316
  187MPD1    H2 2851   1.695   0.429   0.585 -0.7840 -1.3383  0.3836
  187MPD1    H3 2852   1.627   0.195   0.555 -0.7031  1.2584  0.4310
  187MPD1     N 2853   2.046   0.063   0.432  0.1640  0.0537 -0.3514
  187MPD1    H5 2854   2.016   4.691   0.445  0.5657 -0.0081  0.1236
  187MPD1    N1 2855   1.940   0.518   0.532 -0.5581 -0.3828  0.1761
  187MPD1    H6 2856   2.022   0.531   0.473  0.3412  0.9031  1.7342
  187MPD1    H7 2857   1.863   0.582   0.513  0.0345 -0.0182 -1.0205
  188MPD1     C 2858   1.940   4.378  10.301 -0.6307 -0.1380 -0.7360
  188MPD1    C1 2859   1.824   4.388  10.224 -0.0477 -0.5363 -0.4797
  188MPD1    C2 2860   1.754   4.270  10.187 -0.2130  0.6865  0.5139
  188MPD1    C3 2861   1.817   4.150  10.218 -0.5793 -0.5835 -0.3541
  188MPD1    C4 2862   1.934   4.141  10.288 -0.6941 -0.0785  0.1534
  188MPD1    C5 2863   1.998   4.252  10.324 -0.2678  0.2039 -0.0781
  188MPD1     H 2864   1.663   4.266  10.128  0.5750 -0.7307 -0.6112
  188MPD1    H1 2865   1.985   4.045  10.277 -1.8966 -0.4764 -1.9911
  188MPD1    H2 2866   1.999   4.464  10.331 -1.4879  0.1681  0.0775
  188MPD1    H3 2867   2.096   4.241  10.368  0.2988 -1.4625 -1.7616
  188MPD1     N 2868   1.768   4.022  10.185 -0.5862 -0.2239 -0.0245
  188MPD1    H5 2869   1.824   3.944  10.217  0.0815 -0.9105 -2.8665
  188MPD1    N1 2870   1.760   4.518  10.228  0.2916  0.0758 -0.1044
  188MPD1    H6 2871   1.677   4.534  10.172  0.7288 -0.1683 -0.8203
  188MPD1    H7 2872   1.824   4.595  10.206  1.3478 -0.4520  1.1285
  189MPD1     C 2873   3.987   4.364   0.887  0.2329  0.1815  0.2296
  189MPD1    C1 2874   3.916   4.283   0.796  0.1355  0.2828 -0.7330
  189MPD1    C2 2875   3.821   4.351   0.714  0.0668 -0.4211  0.3456
  189MPD1    C3 2876   3.814   4.487   0.708 -0.1858 -0.1527  0.2037
  189MPD1    C4 2877   3.890   4.567   0.790 -0.2708  0.7322 -0.8779
  189MPD1    C5 2878   3.975   4.498   0.882 -0.0028 -0.4885  0.4634
  189MPD1     H 2879   3.769   4.285   0.645  1.5372  1.6313 -2.6754
  189MPD1    H1 2880   3.888   4.675   0.789 -0.6108  0.7817  3.1094
  189MPD1    H2 2881   4.043   4.340   0.977 -0.4990 -1.0836  0.3514
  189MPD1    H3 2882   4.018   4.566   0.955  0.9055  0.1771 -0.6926
  189MPD1     N 2883   3.727   4.540   0.610  0.4340  0.0038 -0.7162
  189MPD1    H5 2884   3.662   4.473   0.570 -0.0684 -0.3544  0.7052
  189MPD1    N1 2885   3.927   4.139   0.803  0.0910 -0.0290  0.1542
  189MPD1    H6 2886   3.897   4.080   0.725  0.0795 -0.6100  0.5952
  189MPD1    H7 2887   4.022   4.108   0.820  0.3634  0.2184 -0.9094
  190MPD1     C 2888   2.021   3.945  15.994  0.1424  0.3619 -0.2824
  190MPD1    C1 2889   2.106   3.945  16.105 -0.6215  0.4804  0.8631
  190MPD1    C2 2890   2.228   3.887  16.084  0.2271  0.5161 -0.0901
  190MPD1    C3 2891   2.271   3.846  15.960 -0.4659 -0.0711  0.3366
  190MPD1    C4 2892   2.191   3.865  15.848 -0.0072 -0.0668 -0.2320
  190MPD1    C5 2893   2.062   3.902  15.873 -0.6082  0.1147  0.9314
  190MPD1     H 2894   2.295   3.873  16.169  0.0834 -2.1985 -0.4278
  190MPD1    H1 2895   2.216   3.823  15.751 -1.2889  0.5308 -0.8133
  190MPD1    H2 2896   1.921   3.987  16.007  0.5136  0.6193  1.7819
  190MPD1    H3 2897   1.990   3.915  15.793  2.0050  0.8471 -1.2876
  190MPD1     N 2898   2.403   3.784  15.948  0.2172  0.2585  0.6265
  190MPD1    H5 2899   2.446   3.778  16.039  0.7160  0.6628  0.4194
  190MPD1    N1 2900   2.062   3.999  16.232 -0.0568 -0.1796  0.0503
  190MPD1    H6 2901   2.008   4.082  16.208 -0.1958 -0.7358 -1.5247
  190MPD1    H7 2902   2.138   4.032  16.291  0.3750 -1.2345  0.0799
  191MPD1     C 2903   2.327   0.475  13.084 -0.3583  0.3190 -0.1381
  191MPD1    C1 2904   2.419   0.532  13.000 -0.0369  0.1358 -0.5804
  191MPD1    C2 2905   2.387   0.645  12.927 -0.3758 -0.1614  0.1952
  191MPD1    C3 2906   2.279   0.723  12.955  0.1953 -0.7450 -0.3119
  191MPD1    C4 2907   2.185   0.666  13.045 -0.5062  0.3194 -0.5356
  191MPD1    C5 2908   2.219   0.553  13.111  0.5111  0.2834 -0.4522
  191MPD1     H 2909   2.461   0.677  12.854 -0.5112 -0.4213 -0.0550
  191MPD1    H1 2910   2.089   0.705  13.076 -0.0935 -0.4484  1.6776
  191MPD1    H2 2911   2.338   0.380  13.135 -0.7702  0.0295 -0.5876
  191MPD1    H3 2912   2.149   0.507  13.179 -0.2836  1.1188 -0.7063
  191MPD1     N 2913   2.258   0.847  12.884 -0.7307  0.0705  0.5942
  191MPD1    H5 2914   2.322   0.869  12.809  1.0125 -0.9826  1.7501
  191MPD1    N1 2915   2.532   0.456  12.977 -0.1260 -0.1355  0.2445
  191MPD1    H6 2916   2.559   0.413  13.065  1.0492 -1.2330 -0.6453
  191MPD1    H7 2917   2.605   0.510  12.931  0.0789 -0.8380 -0.2555
  192MPD1     C 2918   1.729   1.808  12.885 -0.6338  0.2903  0.1373
  192MPD1    C1 2919   1.684   1.686  12.928 -0.6987  0.0970 -0.4407
  192MPD1    C2 2920   1.753   1.575  12.878  0.0407  0.3898  0.1787
  192MPD1    C3 2921   1.858   1.574  12.790 -0.1332  0.1796  0.2746
  192MPD1    C4 2922   1.886   1.697  12.744  0.0072  0.5276 -0.0502
  192MPD1    C5 2923   1.827   1.809  12.794 -0.2280 -0.8032  0.5854
  192MPD1     H 2924   1.716   1.482  12.919  1.6927  0.0914  0.9886
  192MPD1    H1 2925   1.970   1.719  12.679 -0.1588 -0.5025 -0.6165
  192MPD1    H2 2926   1.681   1.902  12.909 -1.8796  0.0664 -1.4330
  192MPD1    H3 2927   1.872   1.902  12.761 -1.1336 -0.4111  0.4724
  192MPD1     N 2928   1.937   1.466  12.745 -0.9044  0.2093  0.2748
  192MPD1    H5 2929   2.006   1.486  12.673 -0.6596 -0.0190  0.4466
  192MPD1    N1 2930   1.599   1.683  13.042  0.4829  0.0288 -0.7779
  192MPD1    H6 2931   1.547   1.596  13.049 -1.5871  1.3221 -0.1660
  192MPD1    H7 2932   1.537   1.764  13.046 -1.5840 -1.5942  0.2046
  193MPD1     C 2933   2.188   0.546  16.070 -0.1788  0.3807 -0.9053
  193MPD1    C1 2934   2.151   0.660  16.138 -0.3582 -0.0296 -1.1421
  193MPD1    C2 2935   2.226   0.694  16.249 -0.1374  0.6070  0.4924
  193MPD1    C3 2936   2.314   0.593  16.304 -1.0608  0.0776  0.5245
  193MPD1    C4 2937   2.337   0.481  16.236  0.4794 -0.0918  0.7103
  193MPD1    C5 2938   2.276   0.460  16.117 -0.8090 -1.1610 -0.3179
  193MPD1     H 2939   2.214   0.793  16.291  0.5252  1.1378 -0.5726
  193MPD1    H1 2940   2.418   0.413  16.260  1.0872  1.1828  2.2779
  193MPD1    H2 2941   2.136   0.524  15.978  0.7642 -0.3749 -1.2506
  193MPD1    H3 2942   2.299   0.376  16.052 -0.3395 -0.2499 -1.3419
  193MPD1     N 2943   2.380   0.607  16.429 -0.2718  0.4107 -0.0570
  193MPD1    H5 2944   2.451   0.537  16.448 -1.3164 -0.4706  0.5990
  193MPD1    N1 2945   2.078   0.754  16.067 -0.1843  0.2029  0.6446
  193MPD1    H6 2946   2.045   0.820  16.137  2.0342  1.3952  0.5805
  193MPD1    H7 2947   1.996   0.714  16.022  1.4188 -1.7703 -0.5600
  194MPD1     C 2948   0.807   2.877  16.560  0.0384  0.1045  0.3923
  194MPD1    C1 2949   0.831   2.931  16.684  0.7330 -0.1373  0.4569
  194MPD1    C2 2950   0.837   2.839  16.785 -0.2431 -0.2984  0.4007
  194MPD1    C3 2951   0.793   2.707  16.773 -0.4764 -0.0987  1.0939
  194MPD1    C4 2952   0.734   2.673  16.656 -0.0237  0.4201  0.2790
  194MPD1    C5 2953   0.762   2.748  16.549  0.9404  0.0663 -1.2149
  194MPD1     H 2954   0.865   2.883  16.880 -0.5772 -1.1647  0.9025
  194MPD1    H1 2955   0.702   2.573  16.630  0.3502  0.3259  0.1821
  194MPD1    H2 2956   0.815   2.944  16.475  1.0730  0.3330  0.6745
  194MPD1    H3 2957   0.744   2.703  16.452  1.3209  0.3654 -1.4270
  194MPD1     N 2958   0.797   2.614  16.884 -0.1338  0.1295  0.2012
  194MPD1    H5 2959   0.735   2.534  16.871  0.6349 -0.1392 -1.8946
  194MPD1    N1 2960   0.881   3.061  16.702  0.1807 -0.0158 -0.3567
  194MPD1    H6 2961   0.850   3.135  16.640 -3.4695 -1.6448 -0.4170
  194MPD1    H7 2962   0.868   3.093  16.798  0.6862 -1.2663  0.1311
  195MPD1     C 2963   2.799   3.618   0.161  0.4971 -0.1421 -0.3221
  195MPD1    C1 2964   2.690   3.657   0.236 -1.0888  0.5802 -0.5471
  195MPD1    C2 2965   2.576   3.586   0.210  0.0869 -0.1314 -0.3841
  195MPD1    C3 2966   2.571   3.474   0.131 -0.2022  1.0460  0.2094
  195MPD1    C4 2967   2.682   3.436   0.060 -0.6664  0.1181  0.4483
  195MPD1    C5 2968   2.799   3.510   0.084  0.6681  0.2133  0.0675
  195MPD1     H 2969   2.492   3.613   0.273  0.7178  0.8793  0.0090
  195MPD1    H1 2970   2.690   3.361  17.681  0.2297 -0.5231  1.1591
  195MPD1    H2 2971   2.890   3.678   0.166  1.1621 -1.1413 -0.4401
  195MPD1    H3 2972   2.889   3.485   0.028  0.7513  1.2724 -0.2618
  195MPD1     N 2973   2.450   3.404   0.124  0.0986  0.6646 -0.5634
  195MPD1    H5 2974   2.462   3.313   0.081  1.2219 -0.2157  1.6175
  195MPD1    N1 2975   2.681   3.794   0.278  0.7615 -0.3098 -0.3391
  195MPD1    H6 2976   2.610   3.823   0.345  0.7857 -2.4538  0.5990
  195MPD1    H7 2977   2.768   3.839   0.306 -0.6078  0.0047  3.4803
  196MPD1     C 2978   2.219   3.702   1.410  0.2111  0.2371  0.3505
  196MPD1    C1 2979   2.113   3.697   1.504 -0.5563  0.4662  1.3189
  196MPD1    C2 2980   2.002   3.767   1.465 -0.6582 -0.6384 -0.0682
  196MPD1    C3 2981   2.020   3.873   1.374 -0.0713  0.3595  0.0578
  196MPD1    C4 2982   2.132   3.888   1.298  0.7143 -0.0132 -0.1417
  196MPD1    C5 2983   2.231   3.795   1.316  0.1824 -0.5195  0.3614
  196MPD1     H 2984   1.910   3.755   1.520 -0.8405  0.4731 -0.1180
  196MPD1    H1 2985   2.151   3.962   1.220  0.2936 -1.1192 -1.2968
  196MPD1    H2 2986   2.301   3.634   1.427 -0.9852 -1.5969 -1.1665
  196MPD1    H3 2987   2.325   3.792   1.262 -0.1512 -0.3116 -0.2323
  196MPD1     N 2988   1.915   3.967   1.353  0.7103  0.6010  0.4095
  196MPD1    H5 2989   1.939   4.040   1.286 -3.2068  2.7467  1.3145
  196MPD1    N1 2990   2.100   3.586   1.591  0.2980 -0.6733  0.0484
  196MPD1    H6 2991   2.185   3.551   1.634 -0.8239 -0.9862  2.0241
  196MPD1    H7 2992   2.029   3.589   1.664 -0.4932  1.6155 -0.8345
  197MPD1     C 2993   0.074   1.339  16.969 -0.0565 -0.1908  0.5650
  197MPD1    C1 2994   0.111   1.418  17.078 -0.1554 -0.5556 -0.6441
  197MPD1    C2 2995   0.245   1.454  17.090  1.0716  0.4610 -0.3163
  197MPD1    C3 2996   0.335   1.417  16.988 -0.0158  0.6580  0.1936
  197MPD1    C4 2997   0.291   1.345  16.881  0.0477  0.7247 -0.0484
  197MPD1    C5 2998   0.159   1.313  16.863 -0.0753  0.0744 -0.4542
  197MPD1     H 2999   0.284   1.507  17.176  1.8058 -2.0948  0.9442
  197MPD1    H1 3000   0.362   1.314  16.805  0.6316 -2.1678  1.6648
  197MPD1    H2 3001   4.697   1.300  16.967  0.2802 -1.0148 -0.4723
  197MPD1    H3 3002   0.129   1.251  16.779 -1.0162 -1.1962  0.8119
  197MPD1     N 3003   0.481   1.438  16.995  1.1858 -0.3746  0.4467
  197MPD1    H5 3004   0.542   1.409  16.919 -0.2633  0.2536 -0.9450
  197MPD1    N1 3005   0.011   1.460  17.168 -0.1908  0.2162  0.5994
  197MPD1    H6 3006   0.042   1.549  17.206  2.4531 -1.1406  1.6046
  197MPD1    H7 3007   4.653   1.483  17.112  0.4014 -0.7811 -0.6913
  198MPD1     C 3008   2.748   3.991  15.606 -0.1103 -0.2423 -0.0254
  198MPD1    C1 3009   2.887   4.002  15.620 -0.1402 -0.0445 -0.2232
  198MPD1    C2 3010   2.935   4.102  15.706 -0.4282 -1.0380 -0.0823
  198MPD1    C3 3011   2.854   4.171  15.798 -0.7783 -0.4256 -0.1676
  198MPD1    C4 3012   2.719   4.150  15.787 -0.7552  0.7684 -0.0495
  198MPD1    C5 3013   2.676   4.060  15.695  0.4737  0.0007  0.1465
  198MPD1     H 3014   3.042   4.119  15.703 -0.5303 -0.5909 -0.8714
  198MPD1    H1 3015   2.649   4.197  15.856 -0.6115  1.1810 -0.1816
  198MPD1    H2 3016   2.698   3.929  15.532  1.6357 -0.0564 -1.3742
  198MPD1    H3 3017   2.568   4.054  15.690  0.3828  1.7062  0.0463
  198MPD1     N 3018   2.911   4.263  15.884 -0.2422 -0.3007  0.3713
  198MPD1    H5 3019   3.012   4.269  15.889 -0.1922 -1.8892  1.1212
  198MPD1    N1 3020   2.970   3.948  15.526  0.0428  0.0802 -0.0762
  198MPD1    H6 3021   3.066   3.943  15.558 -0.8962  3.3317  3.2433
  198MPD1    H7 3022   2.939   3.853  15.505 -0.5285  0.7170 -2.1255
  199MPD1     C 3023   3.301   0.712  10.565 -0.0221 -0.0605 -0.1891
  199MPD1    C1 3024   3.258   0.625  10.472  1.4911  0.4012  0.0623
  199MPD1    C2 3025   3.290   0.658  10.339  0.3417 -0.2257 -0.0032
  199MPD1    C3 3026   3.350   0.775  10.297  0.0562  0.3371  0.1069
  199MPD1    C4 3027   3.379   0.870  10.392 -0.0834 -0.3715 -0.7155
  199MPD1    C5 3028   3.347   0.835  10.521  0.0730 -0.0797  0.2929
  199MPD1     H 3029   3.258   0.586  10.265 -0.7220  0.4090 -0.1642
  199MPD1    H1 3030   3.407   0.971  10.364 -0.9957  0.3457  0.9530
  199MPD1    H2 3031   3.289   0.692  10.671 -1.2875 -1.3036 -0.5663
  199MPD1    H3 3032   3.364   0.910  10.598  0.6076 -1.0249  1.1039
  199MPD1     N 3033   3.369   0.800  10.156 -0.9489 -0.2019 -0.0482
  199MPD1    H5 3034   3.390   0.895  10.129  0.9691 -0.9326 -1.0911
  199MPD1    N1 3035   3.221   0.488  10.499  0.0864 -0.6827  0.2247
  199MPD1    H6 3036   3.174   0.430  10.429  1.9696 -2.9666  0.8511
  199MPD1    H7 3037   3.170   0.482  10.587  1.4686  1.4138  1.1465
  200MPD1     C 3038   3.479   1.096  14.488 -0.3979  0.5706 -0.3420
  200MPD1    C1 3039   3.503   1.089  14.353 -0.2384  0.6305  0.4403
  200MPD1    C2 3040   3.634   1.108  14.317 -0.3334  0.6795  0.0205
  200MPD1    C3 3041   3.735   1.126  14.406  0.5269  0.5534  0.3055
  200MPD1    C4 3042   3.707   1.126  14.536  0.1621 -0.0582 -0.7001
  200MPD1    C5 3043   3.580   1.116  14.579 -0.1782  0.5311  0.3110
  200MPD1     H 3044   3.669   1.109  14.214  0.6237  3.2567  0.3746
  200MPD1    H1 3045   3.784   1.121  14.612 -1.7262 -0.3475  1.2013
  200MPD1    H2 3046   3.378   1.081  14.524  0.0986 -0.9736  0.4373
  200MPD1    H3 3047   3.562   1.125  14.685 -0.0920  0.8542  0.2991
  200MPD1     N 3048   3.867   1.111  14.353  0.4179  0.0099  0.2427
  200MPD1    H5 3049   3.873   1.104  14.252  0.8138 -0.6933  0.3141
  200MPD1    N1 3050   3.401   1.099  14.257 -0.0081  0.0905 -0.0528
  200MPD1    H6 3051   3.429   1.042  14.178 -1.6255  0.0324 -0.5864
  200MPD1    H7 3052   3.316   1.055  14.294 -0.0851  0.1800 -0.1247
  201MPD1     C 3053   1.570   0.351  13.490  0.3873  0.0850 -0.3629
  201MPD1    C1 3054   1.669   0.261  13.523  1.0106  0.2408  0.1496
  201MPD1    C2 3055   1.639   0.125  13.524 -0.2978 -0.6359  0.0082
  201MPD1    C3 3056   1.506   0.076  13.500  0.1122 -0.1551 -0.4058
  201MPD1    C4 3057   1.408   0.173  13.477 -0.9361 -0.0373 -0.0703
  201MPD1    C5 3058   1.441   0.311  13.467 -0.6480 -0.5098  0.0587
  201MPD1     H 3059   1.715   0.048  13.535  1.0559  0.5714 -0.8822
  201MPD1    H1 3060   1.303   0.151  13.465 -0.6298 -1.8247  0.4440
  201MPD1    H2 3061   1.589   0.457  13.479 -4.8024  1.0941  0.2189
  201MPD1    H3 3062   1.360   0.382  13.452 -2.3877 -2.8582 -1.5834
  201MPD1     N 3063   1.487   4.657  13.510  0.5659  0.2756 -0.6250
  201MPD1    H5 3064   1.571   4.605  13.533 -0.6590 -1.2943  0.3392
  201MPD1    N1 3065   1.806   0.297  13.525  0.2610  0.1274  0.7389
  201MPD1    H6 3066   1.848   0.219  13.574 -1.0763 -1.5053 -0.7163
  201MPD1    H7 3067   1.829   0.391  13.556  0.6404 -0.7411  3.0098
  202MPD1     C 3068   0.684   3.906   9.145  0.3535  0.6270  0.1661
  202MPD1    C1 3069   0.816   3.871   9.162 -0.0796 -0.0898  0.4690
  202MPD1    C2 3070   0.860   3.860   9.294  0.0552  0.4104  0.5170
  202MPD1    C3 3071   0.796   3.928   9.394  0.3902  0.3185 -0.0422
  202MPD1    C4 3072   0.672   3.989   9.367  0.5406  0.0456 -0.0282
  202MPD1    C5 3073   0.612   3.970   9.244 -0.4404  0.5296 -0.0402
  202MPD1     H 3074   0.934   3.784   9.318 -1.3227 -0.5929  1.6699
  202MPD1    H1 3075   0.615   4.050   9.437  0.5005 -2.0987  1.7975
  202MPD1    H2 3076   0.625   3.894   9.055  0.2052 -1.1505  0.4928
  202MPD1    H3 3077   0.509   3.995   9.219 -0.3472  0.8359 -0.1056
  202MPD1     N 3078   0.839   3.936   9.530 -0.9412 -0.0972 -0.9462
  202MPD1    H5 3079   0.776   3.991   9.588 -0.7300 -0.7776 -0.0807
  202MPD1    N1 3080   0.868   3.786   9.068  0.2114  0.0071  0.2877
  202MPD1    H6 3081   0.836   3.804   8.974 -1.6318 -0.5440  0.8141
  202MPD1    H7 3082   0.970   3.775   9.064  0.2082  0.2829 -0.4232
  203MPD1     C 3083   4.526   0.832  12.816 -0.0549  0.5129 -0.1219
  203MPD1    C1 3084   4.643   0.770  12.854  0.8617 -0.8362 -1.5294
  203MPD1    C2 3085   4.641   0.633  12.881 -0.0397 -0.8598 -0.4792
  203MPD1    C3 3086   4.524   0.565  12.888 -0.0183  0.1708  0.3688
  203MPD1    C4 3087   4.405   0.631  12.885  0.2925  0.3280  0.4915
  203MPD1    C5 3088   4.411   0.758  12.837 -0.1836 -0.1686 -0.0262
  203MPD1     H 3089   0.013   0.586  12.899  0.4830  0.3730 -0.0235
  203MPD1    H1 3090   4.306   0.597  12.914  0.4038  0.3284  0.8766
  203MPD1    H2 3091   4.525   0.933  12.778  0.5389  0.6937  0.3388
  203MPD1    H3 3092   4.319   0.813  12.824  1.4722  2.6736  0.2069
  203MPD1     N 3093   4.535   0.431  12.935 -0.3943 -0.1242  0.1781
  203MPD1    H5 3094   4.629   0.396  12.950  0.5268  1.6675 -1.3905
  203MPD1    N1 3095   0.046   0.839  12.849 -0.3696 -0.0050 -0.3445
  203MPD1    H6 3096   0.054   0.936  12.879 -0.6926 -0.2828  0.6341
  203MPD1    H7 3097   0.122   0.793  12.899  0.2337 -0.2349 -1.4737
  204MPD1     C 3098   4.009   1.133  17.420 -0.1510  0.1885 -0.0548
  204MPD1    C1 3099   4.045   1.156  17.289 -0.2304 -0.1865 -0.1297
  204MPD1    C2 3100   4.152   1.074  17.237 -0.8882 -0.4959  0.4657
  204MPD1    C3 3101   4.215   0.984  17.316 -0.3175  0.5328 -0.3876
  204MPD1    C4 3102   4.181   0.975  17.449  0.4868 -0.7474  0.1449
  204MPD1    C5 3103   4.073   1.039  17.494 -0.1672  0.0654 -0.1422
  204MPD1     H 3104   4.169   1.087  17.131 -1.4354  0.4236  0.4868
  204MPD1    H1 3105   4.233   0.911  17.521  2.1565 -2.3604 -2.5087
  204MPD1    H2 3106   3.923   1.182  17.463  1.2592  0.6608  2.2242
  204MPD1    H3 3107   4.048   1.016  17.597 -1.7230  0.3018 -0.4642
  204MPD1     N 3108   4.326   0.907  17.265 -0.2453  0.3240  0.3638
  204MPD1    H5 3109   4.356   0.936  17.172  1.0156 -3.4621 -0.3937
  204MPD1    N1 3110   3.963   1.234  17.203  0.0616 -0.6875  0.3496
  204MPD1    H6 3111   3.910   1.304  17.254  0.6683 -1.3661  1.9131
  204MPD1    H7 3112   4.016   1.283  17.132  0.2713  0.8934  1.6109
  205MPD1     C 3113   0.607   4.472  16.584 -0.8491  0.8388 -0.5143
  205MPD1    C1 3114   0.553   4.348  16.604  0.5599 -0.6074  0.6260
  205MPD1    C2 3115   0.465   4.332  16.710  0.8497 -0.2960  0.7866
  205MPD1    C3 3116   0.441   4.439  16.793  0.0605 -0.8249  0.0272
  205MPD1    C4 3117   0.507   4.558  16.780 -0.5597 -0.5260  0.1511
  205MPD1    C5 3118   0.584   4.577  16.675 -0.6300  0.1896  1.2973
  205MPD1     H 3119   0.403   4.244  16.705 -0.0984  0.3940  0.4477
  205MPD1    H1 3120   0.487   4.632  16.856  0.0746  1.8617 -2.0277
  205MPD1    H2 3121   0.661   4.491  16.491  1.5563 -0.3267  0.6323
  205MPD1    H3 3122   0.629   4.674  16.657 -2.0032  0.5120 -0.3809
  205MPD1     N 3123   0.343   4.432  16.893  0.0465 -0.2943  0.0578
  205MPD1    H5 3124   0.342   4.503  16.966 -1.5228  0.0801 -0.3243
  205MPD1    N1 3125   0.556   4.248  16.501  0.2605 -0.0112  0.1703
  205MPD1    H6 3126   0.642   4.255  16.447 -1.0693 -0.8013 -2.0520
  205MPD1    H7 3127   0.561   4.159  16.549  0.0554  0.1669  0.5296
  206MPD1     C 3128   0.341   2.373  16.510  0.1580 -0.5487  0.1815
  206MPD1    C1 3129   0.442   2.414  16.423 -0.0788  0.0920  0.0526
  206MPD1    C2 3130   0.414   2.432  16.283  0.5302 -0.0642 -0.0670
  206MPD1    C3 3131   0.284   2.410  16.235  0.4898  1.1918 -0.3397
  206MPD1    C4 3132   0.183   2.368  16.325  0.1801  0.3370  0.0933
  206MPD1    C5 3133   0.215   2.346  16.456  0.2079  0.6698 -0.5611
  206MPD1     H 3134   0.495   2.463  16.217  1.4662 -1.5404  0.3673
  206MPD1    H1 3135   0.082   2.356  16.288 -0.3320  1.4010  1.1645
  206MPD1    H2 3136   0.345   2.386  16.618  0.8009 -0.7224  0.1820
  206MPD1    H3 3137   0.148   2.304  16.530 -0.3859  0.5884 -1.1528
  206MPD1     N 3138   0.245   2.439  16.100 -0.3841  0.2376  0.0457
  206MPD1    H5 3139   0.146   2.454  16.083 -0.1728 -0.7983 -2.1519
  206MPD1    N1 3140   0.560   2.464  16.476 -0.9820  0.2559  0.6634
  206MPD1    H6 3141   0.580   2.414  16.562  1.8844 -1.1268 -0.8191
  206MPD1    H7 3142   0.642   2.464  16.416 -1.0570  1.5055  0.5578
  207MPD1     C 3143   1.783   0.510  10.030 -0.1703 -0.3498  0.9159
  207MPD1    C1 3144   1.814   0.449  10.147  0.2614  0.5813  0.1085
  207MPD1    C2 3145   1.941   0.458  10.196 -0.3161 -0.1055  0.3943
  207MPD1    C3 3146   2.041   0.532  10.132 -0.9369  0.6619  0.4105
  207MPD1    C4 3147   2.008   0.604  10.019  0.1170  0.0876  0.0362
  207MPD1    C5 3148   1.881   0.585   9.960 -0.9816 -0.6780 -0.3435
  207MPD1     H 3149   1.965   0.399  10.284  0.6843 -0.0967  0.1263
  207MPD1    H1 3150   2.085   0.665   9.973  0.1491  0.3586  0.4435
  207MPD1    H2 3151   1.690   0.498   9.975 -1.3491  1.3579  2.5541
  207MPD1    H3 3152   1.863   0.630   9.864 -0.7360 -1.6358 -0.8359
  207MPD1     N 3153   2.173   0.556  10.189 -0.6202 -0.3401 -0.4947
  207MPD1    H5 3154   2.227   0.628  10.143  0.4753 -1.3817 -0.8250
  207MPD1    N1 3155   1.716   0.368  10.208  0.1483 -0.2748 -0.2495
  207MPD1    H6 3156   1.750   0.344  10.301  0.7507  0.2278 -0.3452
  207MPD1    H7 3157   1.703   0.281  10.156 -3.2817 -0.0530  0.1828
  208MPD1     C 3158   0.863   0.131   0.662 -0.7558 -0.7602  0.1931
  208MPD1    C1 3159   0.748   0.149   0.746 -0.0922 -0.1172  0.2524
  208MPD1    C2 3160   0.635   0.098   0.706  0.0197 -0.1562 -0.5782
  208MPD1    C3 3161   0.638   4.719   0.610  0.3020 -0.4648 -0.5529
  208MPD1    C4 3162   0.747   4.696   0.531 -0.3125  0.2086 -0.8793
  208MPD1    C5 3163   0.856   0.040   0.558 -0.2404 -0.8909 -0.6796
  208MPD1     H 3164   0.548   0.121   0.766  0.5686 -0.3451  0.2774
  208MPD1    H1 3165   0.750   4.606   0.470 -1.1254  1.1217 -2.2556
  208MPD1    H2 3166   0.960   0.168   0.694  0.4074 -1.3325 -2.6547
  208MPD1    H3 3167   0.944   0.017   0.500 -0.8945 -0.2871 -1.9236
  208MPD1     N 3168   0.518   4.646   0.599  0.1589  0.1532 -0.7260
  208MPD1    H5 3169   0.443   4.663   0.664  0.3592  1.0985 -0.7512
  208MPD1    N1 3170   0.759   0.241   0.857 -0.3956  0.0469 -0.0039
  208MPD1    H6 3171   0.853   0.254   0.893  0.7431 -1.4144 -2.4155
  208MPD1    H7 3172   0.689   0.226   0.930  0.0459  0.1382  0.4342
  209MPD1     C 3173   2.452   1.110  11.877 -0.1109 -0.6377 -0.7754
  209MPD1    C1 3174   2.536   1.194  11.799  0.0775  0.0549 -0.5627
  209MPD1    C2 3175   2.617   1.130  11.706  0.3805  0.1129 -0.4840
  209MPD1    C3 3176   2.639   1.001  11.702  0.5079 -0.3717  0.1993
  209MPD1    C4 3177   2.567   0.924  11.798  0.1328 -1.1687  0.1993
  209MPD1    C5 3178   2.476   0.983  11.877  0.8017  0.4894 -0.5182
  209MPD1     H 3179   2.670   1.199  11.640 -0.5755  2.3432  1.0977
  209MPD1    H1 3180   2.571   0.816  11.808 -0.6473 -1.2637 -0.4781
  209MPD1    H2 3181   2.375   1.147  11.944  1.3508  2.1278 -0.6055
  209MPD1    H3 3182   2.418   0.918  11.942  1.4933  0.0677 -0.3191
  209MPD1     N 3183   2.716   0.948  11.593 -0.4339 -0.5837  0.5118
  209MPD1    H5 3184   2.760   1.017  11.532 -1.1483 -1.0068 -0.4789
  209MPD1    N1 3185   2.518   1.334  11.794  0.6178 -0.0362 -0.1385
  209MPD1    H6 3186   2.496   1.376  11.884 -0.6801 -0.2657 -0.3518
  209MPD1    H7 3187   2.598   1.387  11.759 -1.5670  1.9188 -2.1765
  210MPD1     C 3188   3.441   1.276  11.410 -0.7556  0.3952 -0.9204
  210MPD1    C1 3189   3.453   1.165  11.330 -0.2028  0.0785  1.2359
  210MPD1    C2 3190   3.353   1.074  11.319  1.0336 -0.3932  0.3031
  210MPD1    C3 3191   3.240   1.085  11.397 -0.8011  0.3198  0.0062
  210MPD1    C4 3192   3.228   1.200  11.477  0.1742  0.5712  1.0219
  210MPD1    C5 3193   3.323   1.296  11.469  0.2060  0.7188 -0.5473
  210MPD1     H 3194   3.358   0.995  11.246  1.8933  0.8509 -0.9911
  210MPD1    H1 3195   3.139   1.216  11.537 -0.8233 -1.1727 -0.0111
  210MPD1    H2 3196   3.525   1.344  11.410 -1.1853  0.9178 -1.5459
  210MPD1    H3 3197   3.309   1.381  11.535  0.1746  0.9345 -0.8330
  210MPD1     N 3198   3.134   0.995  11.399 -0.3408 -0.8189 -0.4337
  210MPD1    H5 3199   3.054   1.016  11.457 -0.8387 -1.6438 -0.8211
  210MPD1    N1 3200   3.572   1.138  11.260 -0.4671 -0.6844 -0.3752
  210MPD1    H6 3201   3.551   1.096  11.170 -0.0570 -0.0918 -0.7516
  210MPD1    H7 3202   3.628   1.223  11.249 -2.3499  0.2680 -2.5276
  211MPD1     C 3203   0.871   0.139  16.205 -0.0960  0.1020 -0.0998
  211MPD1    C1 3204   0.819   0.259  16.167 -0.0265  0.3262  0.1575
  211MPD1    C2 3205   0.683   0.285  16.181 -0.1247 -0.3774 -0.0144
  211MPD1    C3 3206   0.602   0.183  16.228 -0.0007 -0.2149  0.7432
  211MPD1    C4 3207   0.658   0.062  16.260 -0.0432 -0.4110  0.1305
  211MPD1    C5 3208   0.788   0.040  16.245 -0.0085 -0.5979 -0.2934
  211MPD1     H 3209   0.648   0.386  16.163  0.2405 -0.7229 -2.5890
  211MPD1    H1 3210   0.603   4.698  16.292 -1.3780  0.8756  1.3668
  211MPD1    H2 3211   0.976   0.112  16.212  0.4192  1.8143 -1.4267
  211MPD1    H3 3212   0.819   4.664  16.271 -1.1824 -1.0088 -0.4704
  211MPD1     N 3213   0.461   0.205  16.228  0.3126  0.0514 -0.4581
  211MPD1    H5 3214   0.433   0.294  16.188 -1.5997 -0.4259 -0.1587
  211MPD1    N1 3215   0.913   0.355  16.146 -0.5158  0.0150  0.3179
  211MPD1    H6 3216   0.878   0.433  16.091  2.0864  0.0363 -1.3349
  211MPD1    H7 3217   0.995   0.315  16.100 -2.3850 -3.4535 -0.0491
  212MPD1     C 3218   3.927   3.362  16.356  0.7132  0.4090  0.3950
  212MPD1    C1 3219   3.873   3.413  16.471 -0.5473 -0.2320  0.4563
  212MPD1    C2 3220   3.810   3.322  16.555  0.4026  0.5052  0.6932
  212MPD1    C3 3221   3.799   3.184  16.521  0.0005  0.0640  1.2694
  212MPD1    C4 3222   3.848   3.145  16.397 -0.3947 -0.6033  1.1735
  212MPD1    C5 3223   3.910   3.231  16.312 -0.1556  0.7566 -0.4136
  212MPD1     H 3224   3.771   3.356  16.650 -0.1842 -1.1002  1.0216
  212MPD1    H1 3225   3.857   3.038  16.378 -0.7949 -0.9213  2.7706
  212MPD1    H2 3226   3.979   3.432  16.291  0.0096  0.3953 -0.1769
  212MPD1    H3 3227   3.960   3.188  16.226  2.0767  0.4980  1.0097
  212MPD1     N 3228   3.731   3.090  16.607 -0.3632  0.2918  0.3961
  212MPD1    H5 3229   3.715   2.997  16.571 -0.6567 -0.4225  2.3746
  212MPD1    N1 3230   3.903   3.545  16.514  0.2151  0.0412 -0.1188
  212MPD1    H6 3231   3.905   3.612  16.437 -0.5964  0.7162  0.4498
  212MPD1    H7 3232   3.842   3.576  16.589  0.3965 -1.3625  0.5910
  213MPD1     C 3233   2.377   0.184  15.743 -0.9321  0.5478  0.5872
  213MPD1    C1 3234   2.423   0.137  15.622 -0.2282  0.5269  0.4444
  213MPD1    C2 3235   2.375   0.015  15.584 -1.5282  0.0305 -0.3038
  213MPD1    C3 3236   2.263   4.679  15.637 -0.3952 -0.2085  0.0510
  213MPD1    C4 3237   2.219   0.007  15.749 -0.7388  0.4945  0.4717
  213MPD1    C5 3238   2.271   0.123  15.809  0.7150 -0.2800  0.1965
  213MPD1     H 3239   2.424   4.688  15.502 -0.9758  0.8364 -0.4814
  213MPD1    H1 3240   2.145   4.685  15.814  1.0475  1.2884  3.0794
  213MPD1    H2 3241   2.403   0.279  15.789  2.0395 -0.1569  0.3140
  213MPD1    H3 3242   2.223   0.165  15.897  2.6205  1.1004  0.5695
  213MPD1     N 3243   2.205   4.568  15.567  0.5790 -0.1438 -0.9303
  213MPD1    H5 3244   2.256   4.534  15.486  0.5312 -0.7701 -0.6962
  213MPD1    N1 3245   2.551   0.166  15.583 -0.2920 -0.3244 -0.1283
  213MPD1    H6 3246   2.568   0.266  15.575  2.1313 -0.7615 -0.3513
  213MPD1    H7 3247   2.575   0.137  15.488 -1.2993  1.4715 -0.9398
  214MPD1     C 3248   1.703   3.603  15.610  0.9674  0.0505 -0.4483
  214MPD1    C1 3249   1.697   3.710  15.700 -0.4394 -0.8160  0.3221
  214MPD1    C2 3250   1.770   3.821  15.667 -0.2885  0.0831 -0.2439
  214MPD1    C3 3251   1.830   3.834  15.543  0.3316  0.2037  0.7633
  214MPD1    C4 3252   1.826   3.735  15.449 -0.1942  0.1008  0.7904
  214MPD1    C5 3253   1.767   3.619  15.485 -0.2109 -0.7617  0.8510
  214MPD1     H 3254   1.769   3.897  15.744  2.1211 -0.2519  0.1037
  214MPD1    H1 3255   1.855   3.747  15.345  0.8702  2.4163  1.3485
  214MPD1    H2 3256   1.659   3.509  15.643 -0.0185  0.9902  0.9557
  214MPD1    H3 3257   1.767   3.534  15.417 -3.0486  1.7198 -2.2239
  214MPD1     N 3258   1.899   3.943  15.500 -0.2294 -0.2482  0.3458
  214MPD1    H5 3259   1.951   3.941  15.413 -1.4853 -0.9294 -0.3884
  214MPD1    N1 3260   1.652   3.692  15.834  0.2152 -0.5362 -0.0757
  214MPD1    H6 3261   1.644   3.786  15.872  0.8156  0.0610 -1.4311
  214MPD1    H7 3262   1.562   3.645  15.845 -1.1542  2.5575  1.8523
  215MPD1     C 3263   1.786   4.493  10.832  0.7864 -0.8409 -0.3974
  215MPD1    C1 3264   1.793   4.574  10.943  0.3362 -0.5197 -0.4640
  215MPD1    C2 3265   1.868   4.694  10.945  0.7251  0.4204  0.1160
  215MPD1    C3 3266   1.926   0.013  10.831 -0.3026 -0.1676  0.2163
  215MPD1    C4 3267   1.919   4.656  10.721 -0.2788  0.4175  0.1774
  215MPD1    C5 3268   1.857   4.535  10.722 -0.1582 -0.4722  0.5223
  215MPD1     H 3269   1.878   0.028  11.036 -0.6221  1.8252 -0.6346
  215MPD1    H1 3270   1.963   4.687  10.627  0.7583  1.1618  0.8999
  215MPD1    H2 3271   1.725   4.403  10.826 -0.6155  0.1457 -0.7035
  215MPD1    H3 3272   1.844   4.478  10.631 -0.2253 -0.8132  0.7466
  215MPD1     N 3273   2.004   0.136  10.840 -0.3378  0.4041 -0.6387
  215MPD1    H5 3274   2.015   0.179  10.931  1.0352 -2.2992  0.4609
  215MPD1    N1 3275   1.749   4.518  11.059  0.1612 -0.7904 -1.0054
  215MPD1    H6 3276   1.680   4.446  11.036 -2.3300  1.7862 -1.5898
  215MPD1    H7 3277   1.719   4.581  11.133 -2.0442 -1.7244 -1.1023
  216MPD1     C 3278   4.168   2.296  16.290  0.3295 -0.3515 -0.1517
  216MPD1    C1 3279   4.144   2.175  16.346  0.0063  0.2111 -0.5349
  216MPD1    C2 3280   4.194   2.141  16.468 -0.1842 -0.2552 -0.2179
  216MPD1    C3 3281   4.252   2.237  16.542 -0.0955  0.0427 -0.8580
  216MPD1    C4 3282   4.260   2.368  16.501 -0.0602  0.1755  0.2683
  216MPD1    C5 3283   4.218   2.392  16.374  0.4584 -0.2355 -1.1116
  216MPD1     H 3284   4.196   2.039  16.504  0.2622 -0.6649 -1.4277
  216MPD1    H1 3285   4.303   2.443  16.566 -0.4880  1.8660 -1.3995
  216MPD1    H2 3286   4.138   2.319  16.188 -1.5788 -0.2673  0.4164
  216MPD1    H3 3287   4.213   2.492  16.332  0.4745 -0.0329 -0.6338
  216MPD1     N 3288   4.299   2.189  16.671  0.1690  0.6605  0.0538
  216MPD1    H5 3289   4.261   2.099  16.696  0.6179  1.4711  3.7396
  216MPD1    N1 3290   4.111   2.067  16.259  0.3328  0.1616 -0.1300
  216MPD1    H6 3291   4.045   2.085  16.183 -0.2869 -2.6511 -0.2697
  216MPD1    H7 3292   4.074   1.984  16.305  0.5738 -0.8987 -1.8306
  217MPD1     C 3293   3.947   3.577   8.196 -0.4227 -0.2909 -0.0940
  217MPD1    C1 3294   4.081   3.549   8.204 -0.2379  0.1187  0.8544
  217MPD1    C2 3295   4.143   3.540   8.330 -0.0853  0.1835 -0.7330
  217MPD1    C3 3296   4.070   3.557   8.442 -0.3779 -0.7094  0.0848
  217MPD1    C4 3297   3.935   3.579   8.437 -0.6391  0.5704  0.1731
  217MPD1    C5 3298   3.876   3.591   8.311  0.1857  0.1092 -0.3433
  217MPD1     H 3299   4.252   3.535   8.333 -0.0330  1.6946 -0.4571
  217MPD1    H1 3300   3.862   3.588   8.518 -1.5272  0.8303 -0.6564
  217MPD1    H2 3301   3.903   3.586   8.098 -0.9564  1.0118  0.2730
  217MPD1    H3 3302   3.769   3.609   8.313 -0.0130 -1.1865  0.6787
  217MPD1     N 3303   4.113   3.549   8.575  0.2230 -0.2471 -0.1831
  217MPD1    H5 3304   4.046   3.552   8.651 -0.2433  0.4771 -0.6232
  217MPD1    N1 3305   4.168   3.545   8.094 -0.0272  0.1053 -0.1938
  217MPD1    H6 3306   4.241   3.475   8.106 -1.8937 -1.9855 -1.0339
  217MPD1    H7 3307   4.133   3.536   7.999  0.2665  1.6308 -0.4424
  218MPD1     C 3308   1.202   0.838  12.976 -0.1018  0.1209 -0.0417
  218MPD1    C1 3309   1.302   0.927  12.995 -0.3643  1.1866 -0.8709
  218MPD1    C2 3310   1.431   0.885  12.966 -0.2528 -0.1160  0.2238
  218MPD1    C3 3311   1.459   0.750  12.946 -0.1960 -0.2277 -0.0136
  218MPD1    C4 3312   1.355   0.662  12.922 -0.0514 -0.1057  0.7000
  218MPD1    C5 3313   1.229   0.706  12.933 -0.0365  0.2543  0.3036
  218MPD1     H 3314   1.510   0.960  12.968 -1.1403  0.8385 -0.9808
  218MPD1    H1 3315   1.372   0.559  12.893 -2.6216 -0.3060 -0.0529
  218MPD1    H2 3316   1.101   0.875  12.981  0.6980  2.4155 -1.0948
  218MPD1    H3 3317   1.147   0.638  12.909  0.1349 -0.0138  0.4724
  218MPD1     N 3318   1.592   0.705  12.951  0.0377  0.1200  0.3783
  218MPD1    H5 3319   1.654   0.782  12.975 -0.8939  0.5814  1.2923
  218MPD1    N1 3320   1.266   1.064  13.010 -0.3192  0.1916 -0.0302
  218MPD1    H6 3321   1.175   1.071  13.054 -0.9958 -1.1392 -1.2380
  218MPD1    H7 3322   1.341   1.124  13.046 -0.3232  0.4885 -0.5185
  219MPD1     C 3323   2.250   0.758  12.225 -1.3462  1.0887  0.4882
  219MPD1    C1 3324   2.143   0.823  12.287  0.7856  0.2242  0.2566
  219MPD1    C2 3325   2.095   0.781  12.412  0.4916  0.1787  0.4631
  219MPD1    C3 3326   2.153   0.675  12.484 -0.2832  0.0933  0.3070
  219MPD1    C4 3327   2.250   0.606  12.416  0.0513  0.3371  0.1031
  219MPD1    C5 3328   2.306   0.650  12.294 -0.7380  0.4239  0.4088
  219MPD1     H 3329   2.011   0.839  12.448  2.2346  1.2102  2.9332
  219MPD1    H1 3330   2.287   0.515  12.462 -2.4511 -0.7804 -0.0571
  219MPD1    H2 3331   2.278   0.782  12.123 -0.9942 -3.1080 -0.4120
  219MPD1    H3 3332   2.372   0.582  12.243 -0.7630 -0.4456  1.5428
  219MPD1     N 3333   2.100   0.626  12.610  0.2499  0.3620 -0.2778
  219MPD1    H5 3334   2.137   0.538  12.644  0.3559  0.5954  0.2012
  219MPD1    N1 3335   2.068   0.916  12.214  0.6652  0.1387  0.2887
  219MPD1    H6 3336   2.124   0.970  12.148 -1.7957  2.3166 -0.0319
  219MPD1    H7 3337   2.010   0.981  12.267  1.4894  2.3358 -1.4933
  220MPD1     C 3338   1.309   1.544   9.707 -0.2809  0.2754 -0.2433
  220MPD1    C1 3339   1.359   1.581   9.827  0.0288 -0.4391 -0.5326
  220MPD1    C2 3340   1.375   1.486   9.932 -0.0645  0.9900 -0.6522
  220MPD1    C3 3341   1.315   1.367   9.920  0.1730  0.3172  0.1578
  220MPD1    C4 3342   1.250   1.340   9.802 -0.1105  0.5318  0.2704
  220MPD1    C5 3343   1.257   1.425   9.692 -0.3684  0.1757  0.0668
  220MPD1     H 3344   1.422   1.505  10.028 -0.0856 -0.8498 -0.2767
  220MPD1    H1 3345   1.217   1.240   9.776 -0.1620  0.9409 -1.2098
  220MPD1    H2 3346   1.319   1.610   9.622 -1.5041  0.8470  0.0540
  220MPD1    H3 3347   1.218   1.390   9.598  0.5673 -0.6734 -0.0127
  220MPD1     N 3348   1.330   1.274  10.023 -0.0475 -0.1528 -0.0875
  220MPD1    H5 3349   1.392   1.298  10.100 -2.1283 -0.2119  1.6425
  220MPD1    N1 3350   1.427   1.705   9.834  0.3223 -0.2893  0.2071
  220MPD1    H6 3351   1.395   1.772   9.765 -1.8419  1.3882  2.8345
  220MPD1    H7 3352   1.420   1.745   9.928  1.6052 -0.2565  0.2935
  221MPD1     C 3353   0.343   0.383  16.713 -0.1047  0.0251 -0.8146
  221MPD1    C1 3354   0.258   0.313  16.789 -0.3388  0.1750  0.1410
  221MPD1    C2 3355   0.235   0.179  16.755  0.1746  0.4531 -0.4061
  221MPD1    C3 3356   0.308   0.127  16.651 -0.1628  0.0805 -0.8713
  221MPD1    C4 3357   0.405   0.196  16.589 -0.3279  0.5948  0.1034
  221MPD1    C5 3358   0.415   0.329  16.614 -0.4974 -0.0250  0.1754
  221MPD1     H 3359   0.156   0.127  16.808 -1.0317  2.4361 -0.2535
  221MPD1    H1 3360   0.470   0.157  16.512  0.4286 -0.3315  1.2192
  221MPD1    H2 3361   0.361   0.490  16.725 -0.5442 -0.1347  1.2115
  221MPD1    H3 3362   0.485   0.394  16.563  0.1193  0.1315  1.2223
  221MPD1     N 3363   0.290   4.714  16.610  0.6775 -0.5747  0.7100
  221MPD1    H5 3364   0.356   4.682  16.539  0.5517 -2.5807  1.4889
  221MPD1    N1 3365   0.175   0.386  16.875  0.3583 -0.6600  0.7268
  221MPD1    H6 3366   0.153   0.332  16.958  0.4035 -1.7411  0.0337
  221MPD1    H7 3367   0.228   0.466  16.909  0.3638 -1.3457  2.3374
  222MPD1     C 3368   3.990   2.287  16.871  0.0218 -0.1718  0.0431
  222MPD1    C1 3369   3.994   2.423  16.895  0.1710 -0.3898  0.6314
  222MPD1    C2 3370   4.020   2.464  17.025 -0.5208  0.0587 -0.0015
  222MPD1    C3 3371   4.024   2.380  17.132 -0.1841  0.4620 -0.3773
  222MPD1    C4 3372   4.007   2.247  17.113 -0.2780 -0.3811  0.0862
  222MPD1    C5 3373   3.991   2.199  16.982  0.1592 -0.2469 -0.2655
  222MPD1     H 3374   4.037   2.570  17.038  0.1716  0.2555 -2.4304
  222MPD1    H1 3375   4.010   2.175  17.194 -0.9856 -0.8020 -0.2613
  222MPD1    H2 3376   3.987   2.242  16.773 -0.0387  2.7248 -1.2585
  222MPD1    H3 3377   3.988   2.091  16.975  0.8956 -0.2726 -0.2198
  222MPD1     N 3378   4.044   2.414  17.267  0.0535  0.0568 -0.8586
  222MPD1    H5 3379   4.041   2.343  17.339 -0.6016  2.2118  1.2132
  222MPD1    N1 3380   4.019   2.503  16.786 -0.2914 -0.0959  0.9854
  222MPD1    H6 3381   3.995   2.598  16.811 -2.8343 -0.8748  1.5213
  222MPD1    H7 3382   3.969   2.468  16.704 -1.4269 -1.4204  2.2232
  223MPD1     C 3383   3.836   2.260   0.516  0.3678 -0.3247  0.2844
  223MPD1    C1 3384   3.871   2.393   0.510  0.0526 -0.1830 -0.1689
  223MPD1    C2 3385   3.929   2.440   0.396  0.4368  0.0147 -0.1077
  223MPD1    C3 3386   3.944   2.356   0.291  1.0037 -0.4781  0.0932
  223MPD1    C4 3387   3.896   2.230   0.293 -1.4634 -0.8854  1.3046
  223MPD1    C5 3388   3.841   2.180   0.408  0.1478  0.2710 -0.1679
  223MPD1     H 3389   3.964   2.543   0.389  1.0137 -0.2663 -1.3858
  223MPD1    H1 3390   3.890   2.163   0.208 -0.1228  0.9339 -0.2164
  223MPD1    H2 3391   3.796   2.233   0.613 -0.4000  1.1411  0.3732
  223MPD1    H3 3392   3.810   2.079   0.432 -0.7503  0.5481 -0.1426
  223MPD1     N 3393   4.009   2.415   0.180  0.4267 -0.8539 -0.2444
  223MPD1    H5 3394   4.045   2.510   0.188 -2.6329  0.1824  1.1810
  223MPD1    N1 3395   3.850   2.480   0.620  0.6022  0.3745  0.1936
  223MPD1    H6 3396   3.856   2.427   0.706  0.1835 -0.4817 -0.3019
  223MPD1    H7 3397   3.920   2.553   0.633  0.3676 -0.0550  3.7161
  224MPD1     C 3398   3.967   4.328   9.275  0.3000 -0.3044  0.2225
  224MPD1    C1 3399   4.038   4.210   9.295 -0.0873 -0.4252  0.0453
  224MPD1    C2 3400   4.136   4.216   9.393 -0.5330 -0.5659  0.0885
  224MPD1    C3 3401   4.157   4.331   9.474  0.4304  0.2591 -0.3274
  224MPD1    C4 3402   4.081   4.441   9.451  0.1660  0.8335  0.1442
  224MPD1    C5 3403   3.985   4.431   9.352 -0.7642 -0.2377 -0.6111
  224MPD1     H 3404   4.195   4.125   9.400 -0.4100 -0.5606 -0.8182
  224MPD1    H1 3405   4.088   4.534   9.506 -0.3465  0.4422  0.8707
  224MPD1    H2 3406   3.885   4.326   9.205 -2.3402 -1.8511  3.3546
  224MPD1    H3 3407   3.935   4.524   9.327 -1.4635 -0.1575  1.0894
  224MPD1     N 3408   4.252   4.338   9.578  0.3619  0.7988 -0.5148
  224MPD1    H5 3409   4.258   4.429   9.623 -2.1613  0.3921  0.6460
  224MPD1    N1 3410   4.029   4.113   9.196  0.2053  0.0423 -0.0221
  224MPD1    H6 3411   3.932   4.110   9.163  0.3016 -0.8181 -0.2276
  224MPD1    H7 3412   4.060   4.020   9.223  0.8043  0.3055  0.1899
  225MPD1     C 3413   1.444   1.430  13.309  0.6468  0.1134 -0.2874
  225MPD1    C1 3414   1.536   1.354  13.250  0.3544  0.0156  0.0097
  225MPD1    C2 3415   1.519   1.328  13.113  0.5920  0.5794 -0.2714
  225MPD1    C3 3416   1.417   1.383  13.032  0.2922 -0.6519 -0.7560
  225MPD1    C4 3417   1.326   1.458  13.097 -0.3630  0.6216 -1.0029
  225MPD1    C5 3418   1.345   1.485  13.231  0.6219  0.6638 -0.4842
  225MPD1     H 3419   1.601   1.273  13.069  1.6695  0.8950  1.3279
  225MPD1    H1 3420   1.242   1.505  13.049  0.7588  1.4257 -2.1718
  225MPD1    H2 3421   1.447   1.451  13.416  3.5104  1.3416 -0.6123
  225MPD1    H3 3422   1.268   1.550  13.270  1.5502  0.3558  1.8963
  225MPD1     N 3423   1.396   1.368  12.893 -0.1543 -0.4139  0.3351
  225MPD1    H5 3424   1.308   1.406  12.860  0.4828  1.4133  0.7298
  225MPD1    N1 3425   1.625   1.284  13.329  0.5797 -0.1991 -0.9841
  225MPD1    H6 3426   1.659   1.342  13.406  0.6040  0.3044 -1.3728
  225MPD1    H7 3427   1.702   1.247  13.274  1.0847 -1.0092  0.2836
  226MPD1     C 3428   3.979   0.091   9.998 -0.2568  0.1482 -0.2170
  226MPD1    C1 3429   4.113   0.118   9.971 -0.2268  0.0548  0.0002
  226MPD1    C2 3430   4.138   0.220   9.880 -0.0682  0.4452  0.1947
  226MPD1    C3 3431   4.041   0.307   9.840  0.0274  0.5630  0.0418
  226MPD1    C4 3432   3.912   0.286   9.887 -0.2790  0.0052 -0.4893
  226MPD1    C5 3433   3.881   0.181   9.966 -0.0030  0.3664  0.3417
  226MPD1     H 3434   4.240   0.231   9.844 -0.7002  3.5748 -0.6528
  226MPD1    H1 3435   3.833   0.358   9.868  0.6776  0.7779 -1.5449
  226MPD1    H2 3436   3.949   0.003  10.053  0.0427  0.9263  1.2052
  226MPD1    H3 3437   3.780   0.163  10.003 -0.2129 -0.4471 -0.6144
  226MPD1     N 3438   4.090   0.420   9.762  0.5644 -0.2167  0.1825
  226MPD1    H5 3439   4.190   0.421   9.748  0.5454 -0.4206  0.0283
  226MPD1    N1 3440   4.215   0.026  10.003  0.3116  0.4649  0.4399
  226MPD1    H6 3441   4.224   0.006  10.103 -0.3976 -0.7400  0.2557
  226MPD1    H7 3442   4.309   0.061   9.988  0.0120  1.8161  1.5998
  227MPD1     C 3443   3.755   0.979   9.008 -0.4114 -0.5438  0.3233
  227MPD1    C1 3444   3.694   0.896   9.096 -0.6480 -0.1760  0.5373
  227MPD1    C2 3445   3.756   0.875   9.218  0.2829  0.0912 -0.3131
  227MPD1    C3 3446   3.894   0.910   9.229  0.2104 -0.3830 -0.8001
  227MPD1    C4 3447   3.950   0.987   9.135  0.5992  0.4202  0.5426
  227MPD1    C5 3448   3.880   1.016   9.027 -0.1933  0.1932  0.0190
  227MPD1     H 3449   3.712   0.827   9.304 -1.6169  1.0079 -0.7610
  227MPD1    H1 3450   4.050   1.029   9.140  0.4160  1.0310 -0.8645
  227MPD1    H2 3451   3.721   0.980   8.906  4.6227  1.0470 -1.3298
  227MPD1    H3 3452   3.928   1.080   8.954 -2.4181  2.4983  0.5952
  227MPD1     N 3453   3.959   0.862   9.351 -1.1379  0.4456 -0.0378
  227MPD1    H5 3454   3.898   0.805   9.409  0.3855 -0.0242  1.0912
  227MPD1    N1 3455   3.562   0.864   9.070 -0.1535 -0.4610  0.4204
  227MPD1    H6 3456   3.548   0.766   9.095  3.1631 -0.2472  3.0790
  227MPD1    H7 3457   3.533   0.863   8.973 -1.3806  1.2163  0.7694
  228MPD1     C 3458   3.296   2.961  13.029 -0.1205 -0.5881  0.7243
  228MPD1    C1 3459   3.258   3.094  13.032  0.3969 -0.3575 -0.4456
  228MPD1    C2 3460   3.130   3.123  13.011 -0.6235 -0.1683 -0.2517
  228MPD1    C3 3461   3.033   3.022  13.005  0.3912 -0.5332  0.0403
  228MPD1    C4 3462   3.076   2.891  12.997  0.5571 -0.0103 -0.2161
  228MPD1    C5 3463   3.205   2.860  13.016  0.8797 -0.0971  0.3915
  228MPD1     H 3464   3.100   3.226  12.997 -1.3733 -0.2989  0.3871
  228MPD1    H1 3465   3.012   2.806  12.977  2.5683 -1.5637 -0.0516
  228MPD1    H2 3466   3.401   2.933  13.027 -0.7577 -2.8825 -1.0642
  228MPD1    H3 3467   3.240   2.757  13.013 -2.2011 -1.0916 -0.8426
  228MPD1     N 3468   2.901   3.057  12.980 -0.2463  0.2686 -0.1007
  228MPD1    H5 3469   2.878   3.156  12.979 -1.3123  0.0384  2.9875
  228MPD1    N1 3470   3.360   3.193  13.025  0.1203 -0.0816 -0.5368
  228MPD1    H6 3471   3.315   3.282  13.048 -0.8231 -1.1393  1.7008
  228MPD1    H7 3472   3.456   3.181  13.056 -0.3073  0.4428  0.9658
  229MPD1     C 3473   2.677   2.688  15.143  0.2217 -0.2186 -0.1296
  229MPD1    C1 3474   2.691   2.625  15.260  0.3107 -0.5106  0.0833
  229MPD1    C2 3475   2.775   2.512  15.255  0.7426  0.0089  0.2744
  229MPD1    C3 3476   2.825   2.465  15.133  0.1876 -0.7559 -0.2091
  229MPD1    C4 3477   2.789   2.522  15.014 -0.3487  0.3438  0.5774
  229MPD1    C5 3478   2.716   2.639  15.025  0.4152 -0.2166 -0.8347
  229MPD1     H 3479   2.815   2.471  15.347  2.2261 -0.4251 -0.5594
  229MPD1    H1 3480   2.819   2.488  14.915  1.6088  0.3541  1.1568
  229MPD1    H2 3481   2.633   2.787  15.148  1.5245  0.3009  0.8062
  229MPD1    H3 3482   2.707   2.698  14.934  0.9786  2.1956  0.7054
  229MPD1     N 3483   2.906   2.352  15.121  0.1633 -0.0311  0.0259
  229MPD1    H5 3484   2.924   2.326  15.025 -2.1492 -1.4334 -0.0276
  229MPD1    N1 3485   2.661   2.684  15.379  0.1724  0.4191  0.0046
  229MPD1    H6 3486   2.654   2.624  15.461  0.0531 -0.6083 -0.7635
  229MPD1    H7 3487   2.572   2.731  15.372 -0.5248 -0.4211  3.1896
  230MPD1     C 3488   3.460   1.536  15.662  0.9597  0.7309  0.4185
  230MPD1    C1 3489   3.526   1.560  15.538 -0.6087 -0.4020 -0.5587
  230MPD1    C2 3490   3.480   1.661  15.459  0.4237 -0.3838  1.1582
  230MPD1    C3 3491   3.363   1.734  15.493  0.1382 -0.4314 -0.0790
  230MPD1    C4 3492   3.301   1.708  15.611 -0.3513 -0.5471  1.0553
  230MPD1    C5 3493   3.361   1.625  15.705  0.0326  0.8115 -0.6247
  230MPD1     H 3494   3.540   1.685  15.372 -0.9040 -0.2949  0.2632
  230MPD1    H1 3495   3.214   1.761  15.647  0.1956 -0.9919  3.0591
  230MPD1    H2 3496   3.489   1.471  15.744  0.6261 -2.5484 -2.0603
  230MPD1    H3 3497   3.318   1.609  15.804  1.7760 -2.3537 -0.3840
  230MPD1     N 3498   3.328   1.837  15.405  0.4091  0.1795  0.2053
  230MPD1    H5 3499   3.394   1.858  15.332 -2.2307  1.7047 -1.7673
  230MPD1    N1 3500   3.645   1.494  15.506  0.0449  0.1963 -0.9456
  230MPD1    H6 3501   3.675   1.506  15.410 -0.1219  3.0318 -0.6590
  230MPD1    H7 3502   3.646   1.394  15.527 -2.6862  0.2646 -0.5601
  231MPD1     C 3503   1.296   3.744  16.056  0.6836  0.6658  0.7578
  231MPD1    C1 3504   1.334   3.683  15.942 -0.0811  0.4900  0.0874
  231MPD1    C2 3505   1.361   3.754  15.827 -0.3385 -0.0952  0.2900
  231MPD1    C3 3506   1.373   3.892  15.832 -0.3147 -0.0685 -0.3318
  231MPD1    C4 3507   1.342   3.952  15.958 -1.0980  0.6616  0.0025
  231MPD1    C5 3508   1.308   3.882  16.065  0.8601 -0.2339 -0.8015
  231MPD1     H 3509   1.383   3.694  15.739  0.1495 -0.8290  0.9154
  231MPD1    H1 3510   1.351   4.059  15.973  0.0156  0.7006 -0.9634
  231MPD1    H2 3511   1.256   3.694  16.143 -2.1285  0.9075 -0.4033
  231MPD1    H3 3512   1.278   3.941  16.151  0.7798  0.2343 -1.1510
  231MPD1     N 3513   1.422   3.957  15.716  0.8887 -0.4607  0.0484
  231MPD1    H5 3514   1.458   3.891  15.648  0.3936  0.6088 -1.2325
  231MPD1    N1 3515   1.326   3.541  15.936  0.1957 -0.3588  0.3453
  231MPD1    H6 3516   1.354   3.506  16.027 -1.2426  0.5932  1.1511
  231MPD1    H7 3517   1.385   3.502  15.863  1.4138 -0.6411  1.4783
  232MPD1     C 3518   3.526   2.152   0.202 -1.0141  0.5592 -0.3050
  232MPD1    C1 3519   3.461   2.174   0.319  0.2345  0.5224  0.5016
  232MPD1    C2 3520   3.405   2.061   0.392 -1.4684 -0.4753  0.2879
  232MPD1    C3 3521   3.425   1.933   0.353  0.6764 -0.4500 -0.5211
  232MPD1    C4 3522   3.509   1.909   0.254 -0.2279  0.3602  0.1385
  232MPD1    C5 3523   3.555   2.020   0.178 -0.2176 -0.2111  0.4245
  232MPD1     H 3524   3.355   2.084   0.485  2.5715 -1.0728  2.6017
  232MPD1    H1 3525   3.540   1.813   0.216 -2.3340 -0.8959  1.6397
  232MPD1    H2 3526   3.564   2.226   0.133 -0.8946  0.2712 -0.5500
  232MPD1    H3 3527   3.626   2.010   0.097 -0.7807 -0.0804 -0.0859
  232MPD1     N 3528   3.352   1.836   0.427 -0.1752  0.7071  0.4351
  232MPD1    H5 3529   3.310   1.880   0.509 -0.2954  0.1351  0.6761
  232MPD1    N1 3530   3.413   2.306   0.348 -0.3370 -0.1352 -0.0375
  232MPD1    H6 3531   3.466   2.384   0.311 -0.0624  0.8713  2.4767
  232MPD1    H7 3532   3.421   2.336   0.445  0.2101  0.1963 -0.1871
  233MPD1     C 3533   3.948   0.308   1.953  0.4334  0.0993  0.2357
  233MPD1    C1 3534   3.856   0.233   2.027 -0.6118  0.2720  0.2198
  233MPD1    C2 3535   3.860   0.092   2.033 -0.2611  0.3233  0.5732
  233MPD1    C3 3536   3.978   0.032   1.996 -0.3711  0.0043 -0.2416
  233MPD1    C4 3537   4.079   0.110   1.943  0.2351 -0.5693  0.8493
  233MPD1    C5 3538   4.058   0.241   1.913  0.0162 -0.1445  0.2246
  233MPD1     H 3539   3.782   0.037   2.083 -1.8043  1.1926 -0.8600
  233MPD1    H1 3540   4.171   0.063   1.908 -0.1279 -0.5086 -0.1753
  233MPD1    H2 3541   3.930   0.413   1.937 -1.4462 -0.4263 -1.1121
  233MPD1    H3 3542   4.137   0.301   1.870 -0.9646  0.3786 -0.8663
  233MPD1     N 3543   4.001   4.619   2.004 -0.1634 -0.5475  0.2477
  233MPD1    H5 3544   4.086   4.593   1.955 -0.4297  0.8829 -0.9755
  233MPD1    N1 3545   3.741   0.299   2.061  0.0604 -0.3825 -0.6038
  233MPD1    H6 3546   3.671   0.247   2.112 -0.4302 -0.0848 -0.9715
  233MPD1    H7 3547   3.767   0.392   2.092 -0.0841 -0.2837 -0.7782
  234MPD1     C 3548   1.034   3.025   9.577 -0.2867  0.2736  0.2481
  234MPD1    C1 3549   1.036   3.133   9.655 -0.1044 -0.3968  1.1477
  234MPD1    C2 3550   0.964   3.247   9.620  0.4087  0.9493  0.1402
  234MPD1    C3 3551   0.886   3.253   9.502 -0.2480  0.0779  0.3909
  234MPD1    C4 3552   0.908   3.149   9.418  0.2030 -0.6971 -0.2498
  234MPD1    C5 3553   0.986   3.041   9.452  0.7053 -0.0603 -0.3108
  234MPD1     H 3554   0.956   3.328   9.691 -0.6093  0.8600  0.1157
  234MPD1    H1 3555   0.856   3.134   9.324 -0.3666  0.4884 -0.1268
  234MPD1    H2 3556   1.076   2.931   9.610 -0.2498 -0.1366 -0.9918
  234MPD1    H3 3557   0.986   2.954   9.387  0.7603  0.3717 -0.8979
  234MPD1     N 3558   0.792   3.364   9.484  0.4931 -0.0773  0.1607
  234MPD1    H5 3559   0.773   3.417   9.569  1.6362  1.0285 -0.2706
  234MPD1    N1 3560   1.088   3.132   9.782 -0.0413 -0.6248 -0.4763
  234MPD1    H6 3561   1.179   3.087   9.776 -0.4226 -1.2051 -1.9307
  234MPD1    H7 3562   1.110   3.223   9.823 -0.9085 -0.0171 -1.3326
  235MPD1     C 3563   2.506   1.434  11.361  0.1327 -0.5607 -0.1955
  235MPD1    C1 3564   2.496   1.563  11.328 -0.0680  0.5210  0.2284
  235MPD1    C2 3565   2.527   1.595  11.194 -0.2031  0.0519  0.3881
  235MPD1    C3 3566   2.532   1.497  11.096 -0.6604  0.0538 -0.3562
  235MPD1    C4 3567   2.547   1.370  11.137 -0.3498 -0.0456 -0.3618
  235MPD1    C5 3568   2.538   1.339  11.269 -0.2733 -0.5647  0.6126
  235MPD1     H 3569   2.534   1.699  11.164 -0.6143  0.3788  1.4318
  235MPD1    H1 3570   2.570   1.294  11.063 -0.2334  0.0947 -0.4701
  235MPD1    H2 3571   2.504   1.391  11.460  0.0694 -1.1376 -0.4471
  235MPD1    H3 3572   2.546   1.234  11.296  0.1916 -0.9195 -0.8950
  235MPD1     N 3573   2.542   1.539  10.958  0.2576 -0.2537  0.6822
  235MPD1    H5 3574   2.536   1.640  10.944  0.5238 -0.5631 -1.6853
  235MPD1    N1 3575   2.497   1.666  11.417 -0.1704 -0.3718 -0.2044
  235MPD1    H6 3576   2.463   1.749  11.369 -0.2727 -0.9298 -1.1082
  235MPD1    H7 3577   2.426   1.638  11.484 -0.1884 -2.3507 -1.0360
  236MPD1     C 3578   1.414   2.297   9.882  0.6632 -0.1345  0.1046
  236MPD1    C1 3579   1.423   2.161   9.882  0.0887  0.0413 -0.6443
  236MPD1    C2 3580   1.511   2.097   9.967  0.0372 -0.5650  0.0864
  236MPD1    C3 3581   1.621   2.162  10.017  0.0813 -0.6678  0.6424
  236MPD1    C4 3582   1.610   2.303  10.014 -0.2889  0.7119  0.1626
  236MPD1    C5 3583   1.512   2.369   9.944 -0.6746  0.6760 -0.8749
  236MPD1     H 3584   1.512   1.989   9.975  0.1136 -0.6282 -0.7500
  236MPD1    H1 3585   1.680   2.365  10.068  0.6775 -1.3473  1.2509
  236MPD1    H2 3586   1.343   2.346   9.816  2.0277 -0.8943 -1.9281
  236MPD1    H3 3587   1.511   2.478   9.945 -0.0304  0.6688  1.1167
  236MPD1     N 3588   1.735   2.108  10.084  0.2066 -0.2475 -0.3614
  236MPD1    H5 3589   1.783   2.166  10.151  1.1641  1.2571 -2.3726
  236MPD1    N1 3590   1.324   2.085   9.813 -0.0083 -0.0249  0.4305
  236MPD1    H6 3591   1.300   2.124   9.722 -0.0239 -0.2893  0.3187
  236MPD1    H7 3592   1.351   1.987   9.800  1.5682  0.5916 -0.8775
  237MPD1     C 3593   1.756   0.822  15.039  0.1331  0.5274 -0.1535
  237MPD1    C1 3594   1.733   0.782  15.174  0.1907  0.5540 -0.3782
  237MPD1    C2 3595   1.631   0.690  15.199  0.4063 -0.2136  0.0633
  237MPD1    C3 3596   1.539   0.659  15.102 -0.2170  0.2012  0.6827
  237MPD1    C4 3597   1.565   0.697  14.976 -0.2726  0.2492 -0.1577
  237MPD1    C5 3598   1.670   0.777  14.939  0.3501  1.3951  0.2606
  237MPD1     H 3599   1.616   0.654  15.301 -2.1881  0.1433 -0.2053
  237MPD1    H1 3600   1.499   0.666  14.896  0.0264 -0.0390 -0.2880
  237MPD1    H2 3601   1.843   0.880  15.013 -0.7151  0.0810 -4.0286
  237MPD1    H3 3602   1.697   0.804  14.837 -0.1065 -0.4034 -0.3385
  237MPD1     N 3603   1.430   0.575  15.122 -0.0252 -0.5142  0.2696
  237MPD1    H5 3604   1.379   0.542  15.041  1.0786 -1.3904 -0.0669
  237MPD1    N1 3605   1.827   0.803  15.271  0.2244  0.2475  0.4593
  237MPD1    H6 3606   1.869   0.895  15.257 -0.1338  0.4055  0.4375
  237MPD1    H7 3607   1.775   0.804  15.358  1.2139 -1.3553  1.0513
  238MPD1     C 3608   3.320   0.089  14.939 -0.1407  0.2050  1.0552
  238MPD1    C1 3609   3.234   0.057  15.038  0.6050 -0.4361 -0.8321
  238MPD1    C2 3610   3.181   4.657  15.040  0.3680  0.6167 -0.2462
  238MPD1    C3 3611   3.209   4.567  14.941  0.2146  0.4870 -0.4476
  238MPD1    C4 3612   3.291   4.602  14.838 -1.1097 -0.8707  0.2134
  238MPD1    C5 3613   3.353   4.723  14.847 -0.0542 -0.0629 -0.5333
  238MPD1     H 3614   3.096   4.637  15.104 -0.8146  2.0578 -1.3767
  238MPD1    H1 3615   3.325   4.538  14.757  1.4977  0.9453 -0.1376
  238MPD1    H2 3616   3.360   0.190  14.934  1.6038 -0.5546 -0.2703
  238MPD1    H3 3617   3.433   0.024  14.779 -0.4069 -0.0782 -0.9592
  238MPD1     N 3618   3.145   4.442  14.918 -0.4211  1.2088  0.2153
  238MPD1    H5 3619   3.174   4.397  14.832  0.6436  0.5001  0.9519
  238MPD1    N1 3620   3.191   0.157  15.129  0.2742 -0.1408  0.8533
  238MPD1    H6 3621   3.258   0.234  15.134 -0.2741  0.4878 -1.4292
  238MPD1    H7 3622   3.165   0.131  15.223  0.8431 -2.4718  0.3619
  239MPD1     C 3623   4.077   0.296  14.566 -0.6030  0.3980 -0.0294
  239MPD1    C1 3624   4.109   0.310  14.436  0.3581 -0.4299 -0.8390
  239MPD1    C2 3625   4.006   0.332  14.340  0.0857  0.2195 -0.1212
  239MPD1    C3 3626   3.875   0.343  14.375 -0.2324 -0.1277 -0.0462
  239MPD1    C4 3627   3.851   0.332  14.507 -0.2239 -0.2875 -0.1433
  239MPD1    C5 3628   3.948   0.298  14.595 -0.0161 -0.0053 -0.0267
  239MPD1     H 3629   4.038   0.341  14.237 -0.0895 -2.6373 -0.4412
  239MPD1    H1 3630   3.751   0.347  14.547 -0.8359 -0.3857 -1.6619
  239MPD1    H2 3631   4.144   0.267  14.645 -3.7335 -0.4396  2.3261
  239MPD1    H3 3632   3.925   0.277  14.699 -0.8663  1.1208  0.0183
  239MPD1     N 3633   3.780   0.349  14.272  0.7406  0.3039 -0.8261
  239MPD1    H5 3634   3.812   0.344  14.175 -0.4706 -1.4511 -1.1391
  239MPD1    N1 3635   4.243   0.303  14.399  0.6414  0.3141  0.0721
  239MPD1    H6 3636   4.310   0.320  14.474  2.1157 -0.3624 -1.0756
  239MPD1    H7 3637   4.260   0.364  14.319  2.4692 -2.0183 -1.3040
  240MPD1     C 3638   2.596   4.309  13.611  0.5690  0.2327 -0.6275
  240MPD1    C1 3639   2.477   4.277  13.671  0.3037 -0.6018  0.3333
  240MPD1    C2 3640   2.474   4.272  13.809  0.6570  0.1309  0.1957
  240MPD1    C3 3641   2.572   4.336  13.896  0.2300 -0.2817  0.0108
  240MPD1    C4 3642   2.689   4.387  13.830 -0.3468 -0.0001  0.1902
  240MPD1    C5 3643   2.695   4.368  13.697  0.5267  0.4446 -0.1492
  240MPD1     H 3644   2.382   4.240  13.856  0.4462  0.1203 -0.2263
  240MPD1    H1 3645   2.771   4.433  13.882  0.1098  0.5803 -1.0304
  240MPD1    H2 3646   2.622   4.307  13.506 -0.3620 -0.7733 -0.8382
  240MPD1    H3 3647   2.782   4.415  13.654  1.0472  0.2233  0.6733
  240MPD1     N 3648   2.562   4.335  14.038  0.1580  0.3021 -0.4609
  240MPD1    H5 3649   2.485   4.276  14.070 -0.9228  1.9799  0.0259
  240MPD1    N1 3650   2.380   4.211  13.592 -0.1260  0.0934  0.9414
  240MPD1    H6 3651   2.290   4.230  13.636 -0.9724  0.2943 -0.8889
  240MPD1    H7 3652   2.382   4.250  13.498 -1.0167 -2.3636 -0.0873
  241MPD1     C 3653   2.789   4.708  15.058  1.2974 -0.0474  0.1545
  241MPD1    C1 3654   2.854   0.019  14.942 -0.0023 -0.4189  0.0443
  241MPD1    C2 3655   2.805   4.677  14.833 -0.8179  0.5345 -0.7978
  241MPD1    C3 3656   2.710   4.582  14.835 -0.5569 -0.0379 -0.1939
  241MPD1    C4 3657   2.660   4.534  14.958 -0.5008  0.1124  0.1975
  241MPD1    C5 3658   2.702   4.606  15.066 -0.1906  0.8134  0.0945
  241MPD1     H 3659   2.841   4.709  14.736  0.1481 -1.7670 -1.2014
  241MPD1    H1 3660   2.579   4.464  14.978 -0.7533  0.1959 -0.5246
  241MPD1    H2 3661   2.835   0.042  15.138  2.1642 -0.0196 -0.3656
  241MPD1    H3 3662   2.669   4.579  15.166  2.0372  0.4382  0.7059
  241MPD1     N 3663   2.655   4.520  14.716 -0.1925  0.8964 -0.4036
  241MPD1    H5 3664   2.579   4.455  14.729  0.2686  0.0756 -1.7455
  241MPD1    N1 3665   2.938   0.132  14.923 -0.0073 -0.8643  0.2507
  241MPD1    H6 3666   3.006   0.109  14.850  0.8675 -0.4606  0.9489
  241MPD1    H7 3667   2.990   0.152  15.008 -0.9210  3.1947 -0.1453
  242MPD1     C 3668   2.495   3.365  15.899  0.0079 -0.0415 -0.4502
  242MPD1    C1 3669   2.371   3.346  15.834 -0.1083 -0.2735  0.1700
  242MPD1    C2 3670   2.371   3.283  15.717  0.6174 -0.3276 -0.2240
  242MPD1    C3 3671   2.486   3.236  15.659 -0.2795  0.1355  0.1010
  242MPD1    C4 3672   2.607   3.257  15.713  0.2643  0.6305 -0.3071
  242MPD1    C5 3673   2.609   3.325  15.829  0.1307 -0.3595  0.4141
  242MPD1     H 3674   2.278   3.258  15.667  0.3475  1.3041 -0.5570
  242MPD1    H1 3675   2.700   3.223  15.670  0.6146  0.4471  0.5842
  242MPD1    H2 3676   2.504   3.409  15.998 -0.2096 -0.2807 -0.3250
  242MPD1    H3 3677   2.703   3.344  15.880  1.0514 -1.7062 -0.8033
  242MPD1     N 3678   2.483   3.183  15.524 -0.1168  0.4219  0.2159
  242MPD1    H5 3679   2.569   3.146  15.487  0.4206 -0.7668  2.6724
  242MPD1    N1 3680   2.251   3.373  15.898 -0.1146 -0.3466 -0.6811
  242MPD1    H6 3681   2.263   3.447  15.967  1.4630 -0.1896 -1.1059
  242MPD1    H7 3682   2.176   3.390  15.832 -1.3748 -0.3321  0.7648
  243MPD1     C 3683   3.614   1.099  17.578 -0.2703 -0.0338 -0.0385
  243MPD1    C1 3684   3.633   1.090  17.439  0.5502 -0.9727 -0.2702
  243MPD1    C2 3685   3.690   0.973  17.393 -0.4047  0.3535 -0.2132
  243MPD1    C3 3686   3.760   0.885  17.470 -0.1506  0.3910 -0.3613
  243MPD1    C4 3687   3.743   0.901  17.605 -0.1286  0.1401 -0.6625
  243MPD1    C5 3688   3.662   1.000  17.661 -0.1440 -0.2407  0.1952
  243MPD1     H 3689   3.691   0.960  17.285 -1.7849 -0.7580 -0.0961
  243MPD1    H1 3690   3.789   0.837  17.679  1.0539  0.5381 -1.0542
  243MPD1    H2 3691   3.556   1.183  17.614 -1.1451 -0.8318  0.4287
  243MPD1    H3 3692   3.642   1.007   0.069  2.3804 -2.3193  0.8137
  243MPD1     N 3693   3.852   0.802  17.404  0.2402 -0.0053 -0.4355
  243MPD1    H5 3694   3.884   0.821  17.310  2.9454  0.2435  0.5405
  243MPD1    N1 3695   3.557   1.171  17.358 -0.6964  0.8473  0.2537
  243MPD1    H6 3696   3.590   1.175  17.262 -3.0544  3.7194 -0.4441
  243MPD1    H7 3697   3.541   1.267  17.389 -1.0682  1.1673 -0.9080
  244MPD1     C 3698   4.422   0.006   0.036 -0.1300 -0.7315 -0.7782
  244MPD1    C1 3699   4.412   0.133   0.092 -1.1474  0.0147 -0.7816
  244MPD1    C2 3700   4.354   0.236   0.027  0.3444  0.2567  0.3290
  244MPD1    C3 3701   4.315   0.219  17.586  0.5354  0.9432 -0.4048
  244MPD1    C4 3702   4.309   0.091  17.539  0.4249 -0.3440 -0.1944
  244MPD1    C5 3703   4.364   4.713  17.611 -0.0148  0.2554 -0.6791
  244MPD1     H 3704   4.347   0.336   0.068  0.1539 -0.1509  1.2829
  244MPD1    H1 3705   4.269   0.069  17.441 -0.4657  0.1786  0.0477
  244MPD1    H2 3706   4.468   4.644   0.083  0.9531 -0.8129 -2.0003
  244MPD1    H3 3707   4.372   4.615  17.566 -1.6311 -0.2837  0.1840
  244MPD1     N 3708   4.258   0.330  17.519 -0.1563  0.1016  0.8534
  244MPD1    H5 3709   4.251   0.414  17.577 -0.4593  2.0917 -2.0810
  244MPD1    N1 3710   4.460   0.151   0.225 -0.2747 -0.1784  0.4468
  244MPD1    H6 3711   4.467   0.062   0.274  0.9422  0.2929  1.1076
  244MPD1    H7 3712   4.381   0.192   0.276  0.6338 -1.5704  2.9428
  245MPD1     C 3713   0.904   2.671  13.042  0.2259 -0.4874  0.8420
  245MPD1    C1 3714   0.874   2.781  13.118  0.6807 -0.3703  0.4578
  245MPD1    C2 3715   0.927   2.786  13.244  0.0013 -0.0869  0.7201
  245MPD1    C3 3716   1.004   2.680  13.294 -0.4668 -0.5448 -0.0168
  245MPD1    C4 3717   1.015   2.561  13.228 -0.4291 -0.7975  0.7121
  245MPD1    C5 3718   0.971   2.565  13.101 -0.3389 -0.1030 -1.8737
  245MPD1     H 3719   0.915   2.880  13.297  2.2414  0.8192 -0.3345
  245MPD1    H1 3720   1.061   2.471  13.266  1.2681  0.0811  0.7284
  245MPD1    H2 3721   0.886   2.656  12.936 -1.4717  2.6133  0.7022
  245MPD1    H3 3722   0.987   2.483  13.031 -0.5447 -2.0371  0.3521
  245MPD1     N 3723   1.078   2.708  13.406  0.1451  0.0378 -0.5304
  245MPD1    H5 3724   1.085   2.808  13.425 -0.4389 -0.1707  0.8179
  245MPD1    N1 3725   0.814   2.889  13.052 -0.0139 -0.5055 -0.2380
  245MPD1    H6 3726   0.742   2.868  12.983  1.1373  0.7361 -1.8026
  245MPD1    H7 3727   0.798   2.970  13.112  0.2567 -0.6398  0.0154
  246MPD1     C 3728   2.084   3.997  10.018  0.1232  0.0648  0.3697
  246MPD1    C1 3729   2.028   4.108   9.963  0.4377 -0.2933  0.4242
  246MPD1    C2 3730   1.950   4.090   9.850  0.0996  0.5242  0.0596
  246MPD1    C3 3731   1.907   3.962   9.805  0.1001 -0.2038  0.4911
  246MPD1    C4 3732   1.964   3.854   9.874 -0.0578  0.3069  0.1545
  246MPD1    C5 3733   2.060   3.875   9.968 -0.1936  0.2603 -0.0099
  246MPD1     H 3734   1.906   4.176   9.802 -0.2778  0.7265  0.7768
  246MPD1    H1 3735   1.951   3.753   9.837 -0.0882  0.1603  0.5648
  246MPD1    H2 3736   2.155   4.006  10.100  2.0860  0.5923 -1.3854
  246MPD1    H3 3737   2.100   3.783  10.011  3.2024  1.0379 -1.4738
  246MPD1     N 3738   1.824   3.946   9.693  0.0676 -0.0516 -0.0366
  246MPD1    H5 3739   1.807   4.032   9.641 -0.7511 -0.7557 -0.9050
  246MPD1    N1 3740   2.058   4.235  10.000  0.4271  0.3509 -0.1869
  246MPD1    H6 3741   2.081   4.247  10.098 -2.7587 -1.3277  0.7763
  246MPD1    H7 3742   1.985   4.302   9.974 -0.0162  0.0934  0.4178
  247MPD1     C 3743   4.716   1.963  16.597  0.3409 -0.3685  0.4238
  247MPD1    C1 3744   0.078   1.899  16.514  1.1599  0.0547  0.0431
  247MPD1    C2 3745   0.214   1.935  16.517 -0.0162  0.6002  0.4110
  247MPD1    C3 3746   0.265   2.016  16.613  0.2981 -0.6227  0.4285
  247MPD1    C4 3747   0.182   2.073  16.701  0.6891  0.2046 -0.5833
  247MPD1    C5 3748   0.047   2.055  16.683 -0.1667 -0.3518 -0.1953
  247MPD1     H 3749   0.271   1.899  16.433 -0.1761  2.2257 -0.3923
  247MPD1    H1 3750   0.219   2.151  16.767  2.6189  0.7767 -2.3553
  247MPD1    H2 3751   4.609   1.954  16.583  0.1945  2.1685 -0.0312
  247MPD1    H3 3752   4.694   2.115  16.729 -0.4299  1.7256 -3.4127
  247MPD1     N 3753   0.407   2.047  16.619  0.6027  0.3995 -0.1783
  247MPD1    H5 3754   0.439   2.106  16.695  0.3506 -0.0507  0.2761
  247MPD1    N1 3755   0.026   1.831  16.395  0.1180  0.3969 -0.7111
  247MPD1    H6 3756   0.097   1.768  16.360 -0.4959 -1.0249  0.6023
  247MPD1    H7 3757   4.667   1.778  16.418  0.4841 -0.5640 -1.6502
  248MPD1     C 3758   1.960   2.707   0.112 -0.4953 -0.0394  0.0227
  248MPD1    C1 3759   1.898   2.738   0.238  0.5592 -0.2608  0.7231
  248MPD1    C2 3760   1.780   2.671   0.274  0.0496 -0.2808 -0.2808
  248MPD1    C3 3761   1.716   2.591   0.187 -0.7316 -0.4058 -0.6159
  248MPD1    C4 3762   1.766   2.564   0.064 -0.7119  0.0117 -0.2193
  248MPD1    C5 3763   1.881   2.629   0.026 -1.1092 -0.7631 -0.2528
  248MPD1     H 3764   1.728   2.688   0.368  0.1358 -2.7378  0.2091
  248MPD1    H1 3765   1.738   2.481   0.000  1.2913 -0.9272  0.1292
  248MPD1    H2 3766   2.054   2.754   0.084 -0.7171 -0.7673 -1.9555
  248MPD1    H3 3767   1.930   2.598  17.632 -1.5181 -0.0714 -0.7039
  248MPD1     N 3768   1.604   2.519   0.234 -0.0608  0.8067  0.7793
  248MPD1    H5 3769   1.573   2.555   0.323 -0.3257 -0.7512  1.3097
  248MPD1    N1 3770   1.979   2.816   0.330 -0.3564  0.8248 -0.6692
  248MPD1    H6 3771   1.920   2.845   0.408  1.7335 -0.3021  1.3085
  248MPD1    H7 3772   2.020   2.899   0.287  2.0271  0.7129  1.4090
  249MPD1     C 3773   3.204   4.609  11.177  0.0117  0.2198 -0.3584
  249MPD1    C1 3774   3.112   4.512  11.130 -0.3872  0.8166 -0.0622
  249MPD1    C2 3775   3.087   4.518  10.995  0.5380 -0.1762  0.1707
  249MPD1    C3 3776   3.128   4.621  10.915 -0.1051  0.1569 -0.5844
  249MPD1    C4 3777   3.210   4.722  10.966  0.2307  0.0769 -0.2899
  249MPD1    C5 3778   3.252   4.708  11.096 -0.2269 -0.4108  0.6664
  249MPD1     H 3779   3.013   4.443  10.968  1.1474 -1.0273  0.8331
  249MPD1    H1 3780   3.242   0.080  10.902  2.0784  0.7717  1.5324
  249MPD1    H2 3781   3.251   4.612  11.275 -0.0785  1.2953 -0.3468
  249MPD1    H3 3782   3.324   0.050  11.141  0.7816 -0.5505 -0.7675
  249MPD1     N 3783   3.091   4.617  10.783 -0.2918 -0.0529  0.8334
  249MPD1    H5 3784   3.036   4.538  10.753  0.4731 -0.2006 -0.1720
  249MPD1    N1 3785   3.071   4.408  11.220  0.0080  0.2781  0.4580
  249MPD1    H6 3786   2.987   4.358  11.189 -0.0268 -0.0150  1.0244
  249MPD1    H7 3787   3.051   4.454  11.308 -0.5303  3.4157 -1.3138
  250MPD2     C 3788   4.583   0.667  13.281 -0.6947  0.2401 -0.5929
  250MPD2    C1 3789   4.473   0.729  13.222  0.8501  0.5346 -0.8268
  250MPD2    C2 3790   4.357   0.653  13.202 -0.0073 -0.0799  0.0521
  250MPD2    C3 3791   4.352   0.521  13.238 -0.1357  0.1922 -0.2910
  250MPD2    C4 3792   4.462   0.465  13.295 -0.3380  0.4567 -0.2664
  250MPD2    C5 3793   4.576   0.534  13.320 -0.2871 -0.2854 -0.5870
  250MPD2     H 3794   4.266   0.690  13.155 -0.1235 -1.8648 -1.1356
  250MPD2    H1 3795   4.467   0.368  13.343 -0.3963 -0.1468 -1.4792
  250MPD2    H2 3796   4.675   0.720  13.305 -0.8902 -0.2303  1.2213
  250MPD2    H3 3797   4.657   0.487  13.373 -0.7982  1.5717  1.8162
  250MPD2     N 3798   4.244   0.432  13.216  0.2625 -0.1792  1.0850
  250MPD2    H5 3799   4.257   0.332  13.233  0.5979 -0.2515  0.3868
  250MPD2    N1 3800   4.487   0.867  13.179  0.7732 -0.3177 -0.3635
  250MPD2    H7 3801   4.574   0.917  13.198 -0.0959  0.5201  1.4373
  251TMC3    C1 3802   4.427   1.077  13.081  0.2194 -0.7122 -0.3209
  251TMC3    C2 3803   4.334   1.173  13.063  0.6451  0.1139  0.3647
  251TMC3    C3 3804   4.369   1.291  13.017 -1.7482  0.6094  0.6320
  251TMC3    C4 3805   4.552   1.091  13.035 -0.3846  0.2459 -0.2721
  251TMC3    C5 3806   4.598   1.216  12.991 -0.4251  0.1244  0.6261
  251TMC3    C6 3807   4.500   1.314  12.979 -0.0529  0.2581  0.5112
  251TMC3     C 3808   4.386   0.943  13.125  0.1039  0.6434 -0.3069
  251TMC3     O 3809   4.265   0.917  13.123  0.4069 -0.7449  1.3401
  251TMC3     H 3810   4.230   1.161  13.091  0.4863 -1.2468 -0.8564
  251TMC3    H1 3811   4.619   1.006  13.035 -0.6205  0.0644 -0.7150
  251TMC3    H2 3812   4.534   1.408  12.937 -0.2248 -0.5505 -1.4524
  251TMC3    C7 3813   0.017   1.229  12.966 -1.0091 -0.9858 -0.0814
  251TMC3    C8 3814   4.281   1.409  13.037 -0.9997  0.2151  0.4252
  251TMC3    O1 3815   0.074   1.124  12.969 -1.0465 -0.4863 -0.1067
  251TMC3    O2 3816   4.190   1.401  13.120 -0.1567  0.7089  0.2979
  252TMC3    C1 3817   4.091   1.488   9.284  0.3023 -0.5630 -0.4070
  252TMC3    C2 3818   4.215   1.530   9.239  0.1712 -0.4492  0.4788
  252TMC3    C3 3819   4.326   1.503   9.320  0.2281 -0.7288  0.3336
  252TMC3    C4 3820   4.081   1.401   9.394 -0.1106 -0.2014 -0.1520
  252TMC3    C5 3821   4.196   1.363   9.457 -0.2205 -0.1363 -0.1110
  252TMC3    C6 3822   4.320   1.413   9.423 -0.2454  0.3064 -0.0663
  252TMC3     C 3823   3.973   1.523   9.202 -0.5257 -0.1229  0.2032
  252TMC3     O 3824   3.985   1.619   9.125  0.1191  0.0833  0.0412
  252TMC3     H 3825   4.212   1.611   9.166  3.0651  1.0244  2.0089
  252TMC3    H1 3826   3.982   1.375   9.430  0.2741 -1.5778 -0.0672
  252TMC3    H2 3827   4.406   1.372   9.474 -0.0034  2.4131  1.1970
  252TMC3    C7 3828   4.193   1.283   9.585  0.0363  0.4203 -0.1332
  252TMC3    C8 3829   4.456   1.548   9.273  0.4706 -0.6567 -0.6992
  252TMC3    O1 3830   4.289   1.282   9.655  0.2481 -0.1159 -0.1858
  252TMC3    O2 3831   4.467   1.558   9.151 -0.5058 -0.1709  0.2691
  253MPD2     C 3832   1.304   1.103  14.998 -0.9157 -0.1833 -0.6659
  253MPD2    C1 3833   1.173   1.057  14.986 -0.0866 -0.3924  0.1107
  253MPD2    C2 3834   1.134   0.955  15.067  0.1171 -0.2367  0.1074
  253MPD2    C3 3835   1.212   0.900  15.164  0.0529  0.3519  0.2784
  253MPD2    C4 3836   1.345   0.948  15.175 -0.3905 -0.1272  0.3342
  253MPD2    C5 3837   1.391   1.048  15.086 -0.4975  0.2779 -0.2887
  253MPD2     H 3838   1.031   0.922  15.060 -0.7948  2.4775  0.8800
  253MPD2    H1 3839   1.412   0.906  15.249  0.8609  1.5541  0.1477
  253MPD2    H2 3840   1.350   1.172  14.928 -0.7776 -1.4540 -1.8251
  253MPD2    H3 3841   1.496   1.073  15.093 -0.6320  0.3190  1.6475
  253MPD2     N 3842   1.164   0.817  15.266 -0.1389  0.2825  0.3649
  253MPD2    H5 3843   1.231   0.806  15.341  0.1568 -0.7805 -0.0544
  253MPD2    N1 3844   1.072   1.127  14.919  0.1813 -1.2664  1.0783
  253MPD2    H7 3845   0.980   1.086  14.930 -1.2722  1.5664 -0.4948
  254TMC3    C1 3846   1.016   0.711  15.417  0.2574  0.0261 -0.3991
  254TMC3    C2 3847   0.899   0.638  15.424  1.3638 -0.0207 -0.1920
  254TMC3    C3 3848   0.884   0.553  15.532  0.0651 -0.0391 -0.4862
  254TMC3    C4 3849   1.115   0.693  15.510  0.4259 -0.4083  0.1775
  254TMC3    C5 3850   1.099   0.598  15.605 -0.8344 -0.2361 -0.5399
  254TMC3    C6 3851   0.984   0.519  15.617 -0.0280 -0.3158  0.0284
  254TMC3     C 3852   1.036   0.787  15.289 -0.0109  0.3235 -0.3582
  254TMC3     O 3853   0.938   0.791  15.216 -0.1971  0.4211 -0.1051
  254TMC3     H 3854   0.829   0.636  15.341  0.4775 -2.9249  0.6476
  254TMC3    H1 3855   1.189   0.772  15.514 -0.7333  0.7052 -0.2520
  254TMC3    H2 3856   0.982   0.443  15.695  0.4808 -0.2739  0.0822
  254TMC3    C7 3857   1.219   0.549  15.668  0.6385  0.2579 -0.6808
  254TMC3    C8 3858   0.754   0.547  15.597  0.6844  0.4580  0.1650
  254TMC3    O1 3859   1.213   0.434  15.709 -0.1165 -0.4095  0.1384
  254TMC3    O2 3860   0.751   0.542  15.717  0.0103  0.5633 -0.6962
  255MPD2     C 3861   0.151   2.189  10.292  0.0927 -0.2656  0.0384
  255MPD2    C1 3862   0.036   2.192  10.217 -0.1274 -0.1186  0.2974
  255MPD2    C2 3863   0.038   2.270  10.105  0.2057  0.1379  0.3893
  255MPD2    C3 3864   0.148   2.354  10.066  0.0356  0.6501 -0.1080
  255MPD2    C4 3865   0.263   2.354  10.147 -0.1574  0.7397  0.2132
  255MPD2    C5 3866   0.251   2.267  10.257 -0.4358  0.5002 -0.4854
  255MPD2     H 3867   4.675   2.266  10.041  1.2698  0.3264 -1.0735
  255MPD2    H1 3868   0.349   2.420  10.148  1.5127 -1.4708  0.1924
  255MPD2    H2 3869   0.159   2.127  10.381 -0.9110 -0.2565  0.1361
  255MPD2    H3 3870   0.335   2.255  10.325 -0.7961  1.0894  0.0565
  255MPD2     N 3871   0.144   2.427   9.944 -0.4305 -0.0646  0.2395
  255MPD2    H5 3872   0.060   2.409   9.890 -1.2095 -1.1426  1.7994
  255MPD2    N1 3873   4.647   2.132  10.266  0.9080  0.7633  0.1376
  255MPD2    H7 3874   4.636   2.107  10.364  0.7795  0.8629  0.1487
  256TMC3    C1 3875   4.419   2.109  10.257  0.1296 -0.5928 -0.4862
  256TMC3    C2 3876   4.409   2.234  10.315 -0.2453 -0.2089 -0.4188
  256TMC3    C3 3877   4.299   2.310  10.288 -0.6651 -0.0274  0.8582
  256TMC3    C4 3878   4.321   2.064  10.183  0.7633 -0.3244 -0.2678
  256TMC3    C5 3879   4.202   2.134  10.167  0.4953  0.4032 -0.3713
  256TMC3    C6 3880   4.191   2.252  10.231  0.3974  0.2945 -0.3729
  256TMC3     C 3881   4.539   2.101  10.187  0.7736 -0.5059 -0.6153
  256TMC3     O 3882   4.528   2.098  10.065  0.1843 -0.4536  0.5056
  256TMC3     H 3883   4.495   2.276  10.366  1.2026 -1.0334 -2.1975
  256TMC3    H1 3884   4.343   1.978  10.121 -4.0267 -1.3797 -0.4938
  256TMC3    H2 3885   4.102   2.307  10.206 -0.2157 -0.1322  0.8511
  256TMC3    C7 3886   4.162   2.150  10.033 -0.1735 -0.0792 -0.8204
  256TMC3    C8 3887   4.318   2.453  10.275 -0.4411  0.3404 -0.2624
  256TMC3    O1 3888   4.047   2.175   9.999 -0.1026 -0.0235  0.0004
  256TMC3    O2 3889   4.429   2.497  10.300  0.7787 -0.1534  0.0770
  257MPD2     C 3890   3.101   0.603  12.763  0.4905  0.2686  0.2602
  257MPD2    C1 3891   3.156   0.680  12.865  0.1193 -0.1844  0.0751
  257MPD2    C2 3892   3.216   0.629  12.976 -0.0954 -0.0344  0.2449
  257MPD2    C3 3893   3.214   0.490  12.984 -0.0668 -0.0254  0.1066
  257MPD2    C4 3894   3.181   0.413  12.878  0.5612 -0.3785 -0.3695
  257MPD2    C5 3895   3.108   0.467  12.773  0.0865 -0.5897  1.1696
  257MPD2     H 3896   3.263   0.687  13.054  0.5250 -0.8031  0.4458
  257MPD2    H1 3897   3.171   0.306  12.892 -0.1347 -0.5486 -2.1658
  257MPD2    H2 3898   3.066   0.646  12.670  2.3543 -1.3864 -1.2243
  257MPD2    H3 3899   3.067   0.408  12.692 -1.6817 -0.6155  2.0870
  257MPD2     N 3900   3.271   0.422  13.098 -0.1211 -0.0314  0.2100
  257MPD2    H5 3901   3.294   0.324  13.086 -1.4380 -0.2243 -0.7181
  257MPD2    N1 3902   3.132   0.818  12.841 -0.1149 -0.2287 -0.4882
  257MPD2    H7 3903   3.099   0.849  12.750  3.3606  2.0489 -0.9764
  258TMC3    C1 3904   3.380   0.370  13.289  1.0289 -0.4474 -1.2597
  258TMC3    C2 3905   3.463   0.292  13.213  0.5949  0.2634 -0.0925
  258TMC3    C3 3906   3.539   0.200  13.274  0.4419  0.4910 -0.3308
  258TMC3    C4 3907   3.379   0.359  13.428 -0.1265 -0.0426 -0.4845
  258TMC3    C5 3908   3.466   0.274  13.492 -0.0877  0.0477  0.4257
  258TMC3    C6 3909   3.553   0.197  13.416 -0.2698  0.0055  0.0963
  258TMC3     C 3910   3.309   0.475  13.220  0.2820 -0.5045  0.6329
  258TMC3     O 3911   3.275   0.578  13.278  0.1296  0.2588  0.1862
  258TMC3     H 3912   3.486   0.318  13.111 -0.3130  0.3715 -0.2745
  258TMC3    H1 3913   3.320   0.428  13.487 -1.2443 -1.8225  0.4847
  258TMC3    H2 3914   3.630   0.130  13.452 -1.6531 -1.4052  0.4585
  258TMC3    C7 3915   3.451   0.255  13.630 -0.5044  0.0614 -0.4932
  258TMC3    C8 3916   3.638   0.123  13.196 -0.4368  0.1902 -0.2700
  258TMC3    O1 3917   3.358   0.308  13.691  0.0618 -0.9360  0.2696
  258TMC3    O2 3918   3.739   0.089  13.257  0.3855  0.1279 -0.1269
  259MPD2     C 3919   1.521   2.028   0.389  0.3358 -0.4941  0.3705
  259MPD2    C1 3920   1.593   2.026   0.506 -0.6277  0.3860 -0.4946
  259MPD2    C2 3921   1.730   2.007   0.495  0.1439  0.6770 -0.6053
  259MPD2    C3 3922   1.796   1.993   0.368  0.3128  0.0195 -0.1303
  259MPD2    C4 3923   1.725   2.020   0.256 -0.1918 -0.0641  0.0768
  259MPD2    C5 3924   1.593   2.037   0.269  0.0958 -0.0910 -0.6384
  259MPD2     H 3925   1.787   1.984   0.584 -1.7169 -2.1759 -0.1502
  259MPD2    H1 3926   1.765   2.024   0.155  2.6364 -1.1062  1.1380
  259MPD2    H2 3927   1.414   2.035   0.372  0.4142 -2.1009 -0.8765
  259MPD2    H3 3928   1.544   2.059   0.175  0.9846  1.7339 -0.6807
  259MPD2     N 3929   1.934   1.953   0.370  0.2166  0.3760  0.5812
  259MPD2    H5 3930   1.973   1.921   0.458 -1.9665  0.4422  1.5705
  259MPD2    N1 3931   1.526   2.025   0.634  0.3255  0.3296  0.2018
  259MPD2    H7 3932   1.425   2.034   0.643  0.4171 -0.4275  1.8469
  260TMC3    C1 3933   2.145   1.894   0.287 -0.4261 -0.6813  0.1608
  260TMC3    C2 3934   2.184   1.873   0.419 -0.5870 -0.4297 -0.3428
  260TMC3    C3 3935   2.314   1.834   0.446  0.0973 -0.1201  0.4444
  260TMC3    C4 3936   2.237   1.871   0.189 -0.1551  0.5607 -0.3267
  260TMC3    C5 3937   2.359   1.819   0.219 -0.1596  0.4906  0.1278
  260TMC3    C6 3938   2.406   1.804   0.348  0.2263 -0.6846 -0.3590
  260TMC3     C 3939   2.012   1.938   0.260  0.7146  0.1518  0.3433
  260TMC3     O 3940   1.981   1.950   0.143 -0.4792  0.4148  0.5744
  260TMC3     H 3941   2.111   1.891   0.497  0.3492 -0.0422  0.4425
  260TMC3    H1 3942   2.210   1.886   0.085  0.3514  1.5410 -0.3192
  260TMC3    H2 3943   2.500   1.751   0.364  0.1187 -1.1633 -1.3146
  260TMC3    C7 3944   2.404   1.725   0.128  0.3856 -0.1459 -0.8140
  260TMC3    C8 3945   2.341   1.778   0.577 -0.1579  0.5576  0.3067
  260TMC3    O1 3946   2.318   1.698   0.041  0.0124  0.4504 -0.2134
  260TMC3    O2 3947   2.252   1.752   0.654  0.0304  0.6701 -0.2863
  261MPD2     C 3948   3.532   0.384  12.699 -0.3604  0.5372 -0.4829
  261MPD2    C1 3949   3.663   0.387  12.660  0.1010 -0.0974  0.8438
  261MPD2    C2 3950   3.695   0.416  12.528 -0.5388 -0.2471 -0.0794
  261MPD2    C3 3951   3.594   0.445  12.435  0.2108  0.5706  0.4611
  261MPD2    C4 3952   3.462   0.439  12.472  0.0991  0.3133 -0.7248
  261MPD2    C5 3953   3.439   0.398  12.601 -0.5574 -1.0024 -0.6303
  261MPD2     H 3954   3.798   0.417  12.493 -0.1814  1.2923  1.0107
  261MPD2    H1 3955   3.371   0.456  12.415 -0.5439 -0.5262  0.0559
  261MPD2    H2 3956   3.499   0.365  12.801  0.5465  0.1576 -0.2522
  261MPD2    H3 3957   3.336   0.388  12.636 -0.0332 -1.1332  0.8827
  261MPD2     N 3958   3.632   0.479  12.307  0.6530  0.2133  0.0435
  261MPD2    H5 3959   3.726   0.505  12.282  1.1698  0.4141  2.1978
  261MPD2    N1 3960   3.774   0.350  12.744  0.2491  0.0607  0.4106
  261MPD2    H7 3961   3.860   0.335  12.691 -2.0066 -0.8460 -3.0442
  262TMC3    C1 3962   3.620   0.541  12.088  0.5072 -0.4821 -0.6095
  262TMC3    C2 3963   3.704   0.644  12.105  0.7517  0.9198 -0.0662
  262TMC3    C3 3964   3.775   0.694  12.002 -0.1775  1.2837 -0.0129
  262TMC3    C4 3965   3.598   0.491  11.962 -0.1782  0.1749  0.4408
  262TMC3    C5 3966   3.667   0.547  11.863 -0.0486  0.4575  0.5554
  262TMC3    C6 3967   3.760   0.646  11.876 -0.8157  0.1329  0.1880
  262TMC3     C 3968   3.555   0.473  12.199  0.0966  0.9768  0.1007
  262TMC3     O 3969   3.437   0.438  12.184 -0.3399  0.2425 -0.4256
  262TMC3     H 3970   3.707   0.696  12.200 -1.1036  1.3655 -0.2361
  262TMC3    H1 3971   3.531   0.407  11.958  0.3091 -0.2413  0.9776
  262TMC3    H2 3972   3.803   0.703  11.795  0.0630 -1.7110 -0.6233
  262TMC3    C7 3973   3.631   0.506  11.732  0.5053 -0.9419 -0.2484
  262TMC3    C8 3974   3.833   0.826  12.014  0.3856  0.3386 -0.5237
  262TMC3    O1 3975   3.527   0.444  11.716 -0.3260  0.9465 -0.0495
  262TMC3    O2 3976   3.842   0.887  11.908 -0.4863  0.2489 -0.2708
  263MPD2     C 3977   4.417   4.548  11.607 -0.7242  1.0487 -0.2800
  263MPD2    C1 3978   4.497   4.653  11.659  0.3260  0.0528  0.4707
  263MPD2    C2 3979   4.494   0.056  11.604 -0.6817 -0.1111  0.8533
  263MPD2    C3 3980   4.417   0.076  11.489  0.0361  0.4137  0.4525
  263MPD2    C4 3981   4.338   4.697  11.435 -0.1924 -0.5410 -0.8501
  263MPD2    C5 3982   4.341   4.571  11.495 -0.9059  0.5910 -0.3711
  263MPD2     H 3983   4.553   0.133  11.652  0.9099 -1.0798  0.4334
  263MPD2    H1 3984   4.266   4.709  11.354 -0.1666 -0.0654 -0.8045
  263MPD2    H2 3985   4.419   4.454  11.662  0.0780 -0.5291 -3.0176
  263MPD2    H3 3986   4.281   4.494  11.448  0.9681 -0.5679 -0.8744
  263MPD2     N 3987   4.420   0.206  11.443  0.3574 -0.1107  1.1792
  263MPD2    H5 3988   4.443   0.285  11.503  0.2024  0.8017  0.0397
  263MPD2    N1 3989   4.576   4.619  11.772 -0.7987 -0.2853 -0.1960
  263MPD2    H7 3990   4.584   4.519  11.787  1.4607 -0.1847 -0.7591
  264TMC3    C1 3991   4.430   0.360  11.284 -0.8414  0.5330 -0.4820
  264TMC3    C2 3992   4.383   0.466  11.357 -0.8337  0.2434 -0.1395
  264TMC3    C3 3993   4.427   0.591  11.321  0.6397  0.1190 -0.3728
  264TMC3    C4 3994   4.520   0.379  11.185 -1.0682 -0.0397 -0.2894
  264TMC3    C5 3995   4.565   0.509  11.154 -0.1091 -0.3031  0.4672
  264TMC3    C6 3996   4.516   0.619  11.217  0.9402 -0.8073 -0.2632
  264TMC3     C 3997   4.389   0.232  11.313 -0.0313 -0.2116 -0.1624
  264TMC3     O 3998   4.375   0.162  11.214 -0.3891 -0.0050  0.7141
  264TMC3     H 3999   4.305   0.443  11.429 -0.6281  1.2402  0.3918
  264TMC3    H1 4000   4.549   0.293  11.125  0.9878  1.3415 -1.2689
  264TMC3    H2 4001   4.567   0.714  11.201  0.9596 -0.7773 -0.0189
  264TMC3    C7 4002   4.654   0.531  11.047  0.6633  0.0813 -0.4064
  264TMC3    C8 4003   4.390   0.704  11.403 -0.3670  0.0223  0.2201
  264TMC3    O1 4004   4.705   0.433  10.991  0.1503  0.0753  0.1112
  264TMC3    O2 4005   4.368   0.667  11.516  0.3144 -0.3215  0.0598
  265MPD2     C 4006   2.841   0.391  15.438  0.4659  0.9494  0.3487
  265MPD2    C1 4007   2.709   0.425  15.405 -0.3260 -0.1723 -0.0177
  265MPD2    C2 4008   2.674   0.405  15.271 -0.3842  0.2136  0.1647
  265MPD2    C3 4009   2.762   0.352  15.176  0.0089  0.3906  0.5472
  265MPD2    C4 4010   2.886   0.312  15.214  0.3327 -0.3241  0.1937
  265MPD2    C5 4011   2.932   0.338  15.343 -0.0173 -0.9216 -0.2905
  265MPD2     H 4012   2.575   0.440  15.246 -0.7857 -0.2307  1.0952
  265MPD2    H1 4013   2.955   0.273  15.140  1.2002  2.5596 -0.5127
  265MPD2    H2 4014   2.883   0.397  15.538 -0.5763  0.7452  0.7920
  265MPD2    H3 4015   3.034   0.312  15.366 -0.8378 -4.8361 -1.0593
  265MPD2     N 4016   2.724   0.322  15.042  0.0398  0.3070 -0.0125
  265MPD2    H5 4017   2.792   0.270  14.987 -1.9599 -0.5473 -1.6742
  265MPD2    N1 4018   2.612   0.472  15.498  0.2327 -0.3548  0.5037
  265MPD2    H7 4019   2.522   0.510  15.469  0.9105  0.7098 -0.2294
  266TMC3    C1 4020   2.551   0.563  15.700 -0.0893  0.0806  0.4219
  266TMC3    C2 4021   2.539   0.551  15.836  0.6160  0.4756  0.2940
  266TMC3    C3 4022   2.511   0.664  15.913  0.6653  0.4212  0.7244
  266TMC3    C4 4023   2.541   0.682  15.642  0.1755  0.2067 -0.0280
  266TMC3    C5 4024   2.505   0.787  15.721  0.0653  0.0549  0.0474
  266TMC3    C6 4025   2.508   0.785  15.861  0.1056 -0.3799 -0.0560
  266TMC3     C 4026   2.633   0.465  15.635 -0.3236  0.3346  0.1461
  266TMC3     O 4027   2.709   0.398  15.705  0.1408 -0.0147 -0.4221
  266TMC3     H 4028   2.573   0.458  15.879 -0.3780  0.8490  1.8604
  266TMC3    H1 4029   2.551   0.700  15.536  1.8421  1.2362  0.3091
  266TMC3    H2 4030   2.505   0.870  15.928  2.9114 -0.1115 -0.2409
  266TMC3    C7 4031   2.457   0.909  15.650 -0.2680 -0.3025  0.2354
  266TMC3    C8 4032   2.573   0.653  16.043  0.4021  0.3473 -0.0401
  266TMC3    O1 4033   2.479   0.922  15.532  0.3476 -0.4692 -0.2389
  266TMC3    O2 4034   2.652   0.562  16.058 -0.4728 -0.0597 -0.1792
  267MPD2     C 4035   4.611   2.810  17.382  0.3020 -0.1552 -0.4251
  267MPD2    C1 4036   4.578   2.691  17.445 -0.0484 -0.3228 -0.0021
  267MPD2    C2 4037   4.533   2.583  17.381 -0.1788  0.6937 -0.4512
  267MPD2    C3 4038   4.510   2.592  17.244 -1.0117 -0.4907  0.3175
  267MPD2    C4 4039   4.533   2.712  17.183 -1.3001  0.5596  0.1739
  267MPD2    C5 4040   4.592   2.820  17.250 -0.0469  0.0143  0.4322
  267MPD2     H 4041   4.507   2.488  17.426 -0.7082  0.8682 -0.3981
  267MPD2    H1 4042   4.516   2.717  17.076  0.5384  0.8743 -0.1096
  267MPD2    H2 4043   4.658   2.883  17.447 -3.8505  3.4066 -1.4491
  267MPD2    H3 4044   4.628   2.905  17.193  0.1460 -0.7140 -0.5246
  267MPD2     N 4045   4.448   2.482  17.168  0.0351  0.3580 -0.1980
  267MPD2    H5 4046   4.423   2.504  17.073  0.2508  1.8218  0.0895
  267MPD2    N1 4047   4.603   2.697  17.585  0.0247  0.8509 -0.2638
  267MPD2    H7 4048   4.658   2.769  17.630  1.0625  1.4284 -2.4707
  268TMC3    C1 4049   4.613   2.612   0.107 -0.4634  0.1199 -0.1837
  268TMC3    C2 4050   0.013   2.676   0.120 -0.2531 -1.1238  0.8518
  268TMC3    C3 4051   0.085   2.655   0.237  0.6592 -0.6550  1.1591
  268TMC3    C4 4052   4.560   2.535   0.209  0.7414  0.2615  0.6569
  268TMC3    C5 4053   4.637   2.533   0.329  0.0662  0.8005 -0.5920
  268TMC3    C6 4054   0.040   2.582   0.344  0.3957 -0.3164 -0.1124
  268TMC3     C 4055   4.561   2.597  17.674  0.7122  0.4675  0.2083
  268TMC3     O 4056   4.507   2.487  17.653  0.2552  0.4233  0.3600
  268TMC3     H 4057   0.053   2.738   0.041 -2.9331  0.8320  0.9970
  268TMC3    H1 4058   4.468   2.479   0.197 -0.1723  1.2669  2.9425
  268TMC3    H2 4059   0.111   2.559   0.422  0.5910  0.3003 -0.1048
  268TMC3    C7 4060   4.596   2.431   0.419  0.6069  0.1614 -0.1322
  268TMC3    C8 4061   0.222   2.702   0.233  0.2108 -0.4688 -0.6033
  268TMC3    O1 4062   4.683   2.350   0.452 -0.7529  0.1726  0.0240
  268TMC3    O2 4063   0.276   2.731   0.338 -0.0391  0.3291  0.2044
  269MPD2     C 4064   0.015   1.068  15.634 -0.3571 -0.4191 -0.1324
  269MPD2    C1 4065   4.623   1.103  15.692  0.5023  0.1597  0.0823
  269MPD2    C2 4066   4.575   1.232  15.662 -0.3653 -0.8170 -0.6359
  269MPD2    C3 4067   4.643   1.323  15.590  0.0682 -0.5201 -0.1289
  269MPD2    C4 4068   0.041   1.284  15.531 -0.3557  0.4883 -0.5367
  269MPD2    C5 4069   0.087   1.158  15.559  0.4535 -0.4240 -0.0535
  269MPD2     H 4070   4.478   1.255  15.704  0.9012 -1.1938  2.4418
  269MPD2    H1 4071   0.098   1.348  15.465  2.8333 -1.0713  0.6542
  269MPD2    H2 4072   0.066   0.972  15.641  0.7490  0.1418 -0.6451
  269MPD2    H3 4073   0.180   1.117  15.521  0.4141  1.8238 -2.6013
  269MPD2     N 4074   4.590   1.453  15.569 -0.2601  0.2597 -0.4046
  269MPD2    H5 4075   4.509   1.479  15.624 -1.6053 -2.4817 -1.1044
  269MPD2    N1 4076   4.547   1.003  15.758  0.4195 -0.2499  0.1641
  269MPD2    H7 4077   4.574   0.906  15.746 -1.6516 -0.8948  0.8251
  270TMC3    C1 4078   4.368   0.908  15.884 -0.4182  1.3449  0.6693
  270TMC3    C2 4079   4.249   0.884  15.816 -0.8495  0.1794  0.6743
  270TMC3    C3 4080   4.215   0.755  15.802 -0.0528  0.4358 -0.5984
  270TMC3    C4 4081   4.441   0.814  15.946  0.9362 -0.2372 -0.9269
  270TMC3    C5 4082   4.387   0.685  15.948  0.0723 -0.2494  1.0009
  270TMC3    C6 4083   4.271   0.657  15.880 -0.0014 -0.3097 -0.5602
  270TMC3     C 4084   4.439   1.025  15.839  0.0201 -0.2340 -0.5229
  270TMC3     O 4085   4.383   1.131  15.865 -0.1357  0.7875  0.7708
  270TMC3     H 4086   4.218   0.958  15.743 -1.6682 -0.5080  0.3261
  270TMC3    H1 4087   4.540   0.838  15.982  0.5658  0.8693 -0.6624
  270TMC3    H2 4088   4.233   0.556  15.868  0.3247 -0.7648  2.1758
  270TMC3    C7 4089   4.463   0.572  15.975 -0.6325  0.2050  0.6056
  270TMC3    C8 4090   4.205   0.717  15.663 -0.4975  0.0292  0.1083
  270TMC3    O1 4091   4.572   0.566  15.915 -0.4717  0.5109  0.1675
  270TMC3    O2 4092   4.275   0.624  15.630  0.3307  0.1482 -0.2086
  271MPD2     C 4093   3.629   0.795  14.004 -0.2028 -0.0963  0.2035
  271MPD2    C1 4094   3.598   0.784  14.136  0.6433 -0.0041  0.3907
  271MPD2    C2 4095   3.462   0.794  14.170  0.6155  0.2221 -0.6681
  271MPD2    C3 4096   3.365   0.813  14.066  0.3464 -0.5834  0.6015
  271MPD2    C4 4097   3.402   0.827  13.934 -0.1227  0.2850  0.1462
  271MPD2    C5 4098   3.534   0.819  13.909  0.3107  0.4226 -1.3547
  271MPD2     H 4099   3.433   0.792  14.274 -0.3729  2.3584 -0.8869
  271MPD2    H1 4100   3.333   0.853  13.854 -2.2530  0.1660  1.9303
  271MPD2    H2 4101   3.730   0.776  13.971 -0.4115 -2.4553  0.9392
  271MPD2    H3 4102   3.564   0.825  13.805  2.0720 -0.6339 -0.9008
  271MPD2     N 4103   3.228   0.821  14.102  0.4192  0.5380  0.6322
  271MPD2    H5 4104   3.158   0.805  14.029  0.5017 -0.1647  0.6993
  271MPD2    N1 4105   3.685   0.758  14.238  0.0344 -0.3754  0.6570
  271MPD2    H7 4106   3.646   0.726  14.326  2.6184 -0.0357  1.9248
  272TMC3    C1 4107   3.881   0.713  14.356 -0.3437 -0.0618  0.1141
  272TMC3    C2 4108   4.016   0.697  14.345 -0.1503  0.4915  0.7145
  272TMC3    C3 4109   4.091   0.690  14.463 -0.2194 -0.3199 -0.3428
  272TMC3    C4 4110   3.818   0.734  14.478  0.2521 -0.3850  0.0155
  272TMC3    C5 4111   3.896   0.724  14.589  0.1810  0.1863 -0.1652
  272TMC3    C6 4112   4.030   0.712  14.585  0.4281  0.1134  0.6054
  272TMC3     C 4113   3.820   0.768  14.234 -0.2358 -0.1371  0.8540
  272TMC3     O 4114   3.887   0.817  14.143  0.3480  0.0644  0.1205
  272TMC3     H 4115   4.060   0.683  14.247  0.3216  1.7539  0.7509
  272TMC3    H1 4116   3.715   0.766  14.488  0.9320  2.7594 -3.3143
  272TMC3    H2 4117   4.090   0.698  14.675  0.2100 -2.3579  0.3476
  272TMC3    C7 4118   3.833   0.804  14.697 -0.8906  0.5498  0.0728
  272TMC3    C8 4119   4.229   0.655  14.447  0.7652  0.1468 -0.5302
  272TMC3    O1 4120   3.710   0.781  14.713  0.0862  0.0804 -0.4221
  272TMC3    O2 4121   4.280   0.690  14.340 -0.6427 -0.3394 -0.1681
  273MPD2     C 4122   0.394   2.915  11.565 -0.3891 -0.2578  0.4306
  273MPD2    C1 4123   0.449   2.999  11.653 -0.3181  1.3560  0.0116
  273MPD2    C2 4124   0.437   3.134  11.616  0.6357  0.4685  0.2993
  273MPD2    C3 4125   0.382   3.177  11.496 -0.7655  0.3224  0.4914
  273MPD2    C4 4126   0.340   3.080  11.405 -0.4224 -0.4336 -0.1120
  273MPD2    C5 4127   0.342   2.948  11.444 -0.2953 -0.2369 -0.4071
  273MPD2     H 4128   0.460   3.213  11.686  0.9793  0.7045 -0.0783
  273MPD2    H1 4129   0.288   3.107  11.314 -1.3040  2.0267  1.1124
  273MPD2    H2 4130   0.379   2.811  11.592 -1.4142 -0.9449 -2.7489
  273MPD2    H3 4131   0.292   2.870  11.389  1.0220  0.7594 -3.0098
  273MPD2     N 4132   0.354   3.314  11.467  0.2221 -0.1345  0.5549
  273MPD2    H5 4133   0.290   3.330  11.389  0.0407 -0.7198  0.5825
  273MPD2    N1 4134   0.492   2.960  11.780 -0.3626  0.3871  0.9690
  273MPD2    H7 4135   0.459   2.872  11.819 -1.9613 -0.0071 -1.2473
  274TMC3    C1 4136   0.350   3.555  11.473 -0.8149  0.3547  0.1619
  274TMC3    C2 4137   0.258   3.556  11.373  0.5347  0.3666  0.0628
  274TMC3    C3 4138   0.215   3.675  11.327  0.0189 -0.0712 -0.5678
  274TMC3    C4 4139   0.405   3.668  11.525  0.5001  0.4855 -0.6372
  274TMC3    C5 4140   0.369   3.788  11.477 -0.6643 -0.5995  0.1571
  274TMC3    C6 4141   0.272   3.795  11.380  0.2875  0.0922 -0.2878
  274TMC3     C 4142   0.389   3.427  11.535 -0.5416 -0.3124 -0.2283
  274TMC3     O 4143   0.462   3.441  11.633  0.2984 -0.0002 -0.1652
  274TMC3     H 4144   0.201   3.467  11.348  0.0747  1.1515 -1.7088
  274TMC3    H1 4145   0.485   3.661  11.598  1.3257  0.7050 -1.5184
  274TMC3    H2 4146   0.259   3.890  11.328 -1.6397 -0.0352 -0.0150
  274TMC3    C7 4147   0.361   3.903  11.562 -0.4395  1.0446  0.8825
  274TMC3    C8 4148   0.099   3.696  11.246  0.2953  0.0881  0.5286
  274TMC3    O1 4149   0.304   4.002  11.524  0.3431  0.1706  0.5362
  274TMC3    O2 4150   0.031   3.796  11.260 -0.4908  0.3736 -0.0433
  275MPD2     C 4151   0.774   1.798  14.669  0.1213  0.5388  0.3301
  275MPD2    C1 4152   0.699   1.902  14.623  0.3242 -0.3631  0.1631
  275MPD2    C2 4153   0.571   1.870  14.580 -0.2231 -0.1589 -0.1278
  275MPD2    C3 4154   0.531   1.736  14.558  0.0375 -0.3483  0.0031
  275MPD2    C4 4155   0.615   1.635  14.595  0.1269 -0.3756 -0.3603
  275MPD2    C5 4156   0.735   1.671  14.648  0.1603 -0.1439  0.4766
  275MPD2     H 4157   0.505   1.947  14.540 -2.1396 -0.5234  2.3055
  275MPD2    H1 4158   0.590   1.531  14.576  0.7935 -0.2616 -1.8919
  275MPD2    H2 4159   0.879   1.803  14.698  0.3630 -1.4429 -0.2051
  275MPD2    H3 4160   0.810   1.594  14.661  0.2811 -0.3149 -1.1724
  275MPD2     N 4161   0.412   1.694  14.501 -0.4130 -0.2562 -0.5227
  275MPD2    H5 4162   0.405   1.598  14.470 -0.7409 -0.8828  1.5320
  275MPD2    N1 4163   0.738   2.034  14.635 -0.5106  0.1376  0.2933
  275MPD2    H7 4164   0.672   2.104  14.601 -1.3505 -0.9708 -0.3364
  276TMC3    C1 4165   0.857   2.222  14.700 -0.4254 -0.0501  0.0987
  276TMC3    C2 4166   0.741   2.259  14.765 -0.5076 -0.3436 -0.7516
  276TMC3    C3 4167   0.745   2.333  14.877 -0.8573 -0.2484  0.6064
  276TMC3    C4 4168   0.979   2.267  14.751 -0.4142 -0.0236  0.4165
  276TMC3    C5 4169   0.991   2.322  14.880 -0.2659 -0.0956 -0.2378
  276TMC3    C6 4170   0.869   2.362  14.929  0.0314  0.0123  0.3303
  276TMC3     C 4171   0.863   2.084  14.666  0.4687 -0.2579 -0.3227
  276TMC3     O 4172   0.949   2.022  14.722 -0.5653 -0.1330 -0.1433
  276TMC3     H 4173   0.642   2.224  14.737  0.4258 -0.9770 -3.2541
  276TMC3    H1 4174   1.070   2.229  14.706 -0.0745  2.0527 -0.6835
  276TMC3    H2 4175   0.876   2.407  15.028  1.1818  1.2126 -0.2947
  276TMC3    C7 4176   1.058   2.244  14.977  0.4089  0.0476 -0.0343
  276TMC3    C8 4177   0.672   2.268  14.989 -0.2788 -0.1353 -0.3501
  276TMC3    O1 4178   1.071   2.303  15.081 -0.4437  0.2787  0.5601
  276TMC3    O2 4179   0.599   2.328  15.066  0.3218 -0.2142  0.2821
  277MPD2     C 4180   2.808   0.561  13.160 -0.5294 -0.1882  0.2317
  277MPD2    C1 4181   2.693   0.578  13.236 -0.0278  0.9132 -0.2663
  277MPD2    C2 4182   2.658   0.469  13.312  0.5782  0.7045  0.2050
  277MPD2    C3 4183   2.708   0.349  13.291 -0.4597 -0.1612 -0.0750
  277MPD2    C4 4184   2.810   0.333  13.205 -0.4708  1.0563  0.5275
  277MPD2    C5 4185   2.870   0.438  13.151 -0.5001  0.2371  0.7158
  277MPD2     H 4186   2.581   0.475  13.387  0.4911 -0.4806  0.2105
  277MPD2    H1 4187   2.866   0.240  13.203 -1.0277  0.7451 -0.3336
  277MPD2    H2 4188   2.850   0.641  13.100 -3.1663  0.3601 -0.8634
  277MPD2    H3 4189   2.966   0.434  13.101 -0.8338  0.8765  0.0177
  277MPD2     N 4190   2.635   0.257  13.369  0.0453 -0.1825 -0.0037
  277MPD2    H5 4191   2.556   0.291  13.422 -0.8215 -0.0321 -1.4015
  277MPD2    N1 4192   2.633   0.705  13.236 -0.2234  0.6776 -0.0036
  277MPD2    H7 4193   2.670   0.774  13.171  1.2808 -0.2445 -0.1074
  278TMC3    C1 4194   2.570   0.059  13.479 -0.1754 -0.1364  0.5454
  278TMC3    C2 4195   2.531   4.654  13.456 -0.4944  0.1795 -0.1591
  278TMC3    C3 4196   2.414   4.608  13.512 -0.0565  0.2236 -0.8735
  278TMC3    C4 4197   2.497   0.144  13.555  0.4307 -0.6459  0.6132
  278TMC3    C5 4198   2.384   0.096  13.612  0.4534  0.0080 -0.1679
  278TMC3    C6 4199   2.345   4.689  13.595  0.0879  0.2971 -1.3961
  278TMC3     C 4200   2.653   0.122  13.375  0.3132 -0.2083  0.2593
  278TMC3     O 4201   2.724   0.052  13.303  1.3413  0.0425 -1.0334
  278TMC3     H 4202   2.576   4.598  13.375 -0.8456 -2.6118  1.5865
  278TMC3    H1 4203   2.543   0.238  13.583  2.7324 -1.1409 -1.4656
  278TMC3    H2 4204   2.250   4.657  13.636  1.8634  0.8024  3.1527
  278TMC3    C7 4205   2.307   0.193  13.682 -0.5814 -0.5999 -0.1671
  278TMC3    C8 4206   2.346   4.504  13.439  0.9834 -0.2536  0.5455
  278TMC3    O1 4207   2.358   0.305  13.699 -0.0762  0.6927 -0.5861
  278TMC3    O2 4208   2.411   4.442  13.358  0.2963  0.1606 -0.1724
  279MPD2     C 4209   0.651   0.681  17.537  1.0367 -0.4254 -0.8298
  279MPD2    C1 4210   0.738   0.669  17.648 -0.0621  0.7458  0.3573
  279MPD2    C2 4211   0.870   0.635  17.623  0.0561 -0.6608  0.4163
  279MPD2    C3 4212   0.922   0.610  17.493  0.0629  0.8557  0.7576
  279MPD2    C4 4213   0.829   0.618  17.388 -0.0818 -0.1167 -0.1551
  279MPD2    C5 4214   0.694   0.650  17.411  0.6400  0.4638 -0.3430
  279MPD2     H 4215   0.944   0.628   0.003  0.4352  0.8877  0.1912
  279MPD2    H1 4216   0.861   0.608  17.284 -1.0796 -1.2401 -0.3565
  279MPD2    H2 4217   0.549   0.717  17.548  1.8957  1.4946  0.8752
  279MPD2    H3 4218   0.620   0.664  17.332 -0.6181  0.2878  0.8045
  279MPD2     N 4219   1.062   0.601  17.452 -0.8170 -0.0399 -0.5496
  279MPD2    H5 4220   1.075   0.584  17.352 -0.9299  2.5146 -1.0047
  279MPD2    N1 4221   0.695   0.708   0.084  0.1164  0.4911 -0.1208
  279MPD2    H7 4222   0.597   0.732   0.097 -0.2920 -0.6536 -1.1594
  280TMC3    C1 4223   0.705   0.756   0.314 -0.0939  0.0148 -0.1386
  280TMC3    C2 4224   0.791   0.791   0.421 -0.0999  0.4255 -0.1278
  280TMC3    C3 4225   0.732   0.829   0.535 -0.4005  0.6915  0.1318
  280TMC3    C4 4226   0.571   0.755   0.325 -0.1408 -0.1187  0.1493
  280TMC3    C5 4227   0.525   0.775   0.451 -0.2154  0.2109 -0.4789
  280TMC3    C6 4228   0.599   0.815   0.553  0.0716  0.4874  0.1956
  280TMC3     C 4229   0.777   0.704   0.200  0.0713 -0.0610 -1.3016
  280TMC3     O 4230   0.897   0.684   0.209  0.0808 -0.1392  0.3125
  280TMC3     H 4231   0.897   0.790   0.401 -0.1557 -4.0710 -0.2810
  280TMC3    H1 4232   0.502   0.719   0.250  1.0961 -0.4357 -0.8306
  280TMC3    H2 4233   0.552   0.832   0.649 -2.7159 -2.5816 -0.6502
  280TMC3    C7 4234   0.378   0.776   0.478  0.4436 -0.1992 -1.1486
  280TMC3    C8 4235   0.810   0.911   0.627 -0.3704  0.5358 -0.1961
  280TMC3    O1 4236   0.348   0.766   0.599  1.0132  0.6100 -0.0908
  280TMC3    O2 4237   0.931   0.931   0.597 -0.3658 -0.4275 -0.3380
  281TMC3    C1 4238   0.217   1.011  13.279 -0.2712 -0.0730  0.5057
  281TMC3    C2 4239   0.326   1.081  13.234  0.0165  0.2485 -0.7401
  281TMC3    C3 4240   0.400   1.033  13.128  0.3654 -0.2953 -0.1267
  281TMC3    C4 4241   0.204   0.877  13.251 -0.3937  0.0470  0.2665
  281TMC3    C5 4242   0.282   0.826  13.151 -0.4278 -1.0291 -0.1461
  281TMC3    C6 4243   0.383   0.900  13.088 -0.8832  0.2131 -0.0790
  281TMC3     C 4244   0.089   1.074  13.312  0.7403 -0.2348  0.3942
  281TMC3     O 4245   0.003   0.998  13.350 -1.1493  0.6321 -0.5949
  281TMC3     H 4246   0.347   1.182  13.267 -0.1072  0.9941 -2.9940
  281TMC3    H1 4247   0.117   0.825  13.288 -0.3616  0.8686  1.4987
  281TMC3    H2 4248   0.453   0.856  13.018  0.7364 -0.7759  2.1705
  281TMC3    C7 4249   0.256   0.693  13.090 -0.3837 -0.1252 -0.1301
  281TMC3    C8 4250   0.519   1.105  13.080 -0.0837  0.1773 -0.3491
  281TMC3    O1 4251   0.257   0.683  12.968  0.3354 -0.3903 -0.1969
  281TMC3    O2 4252   0.620   1.031  13.068  0.3609 -0.3494  0.1406
  282MPD2     C 4253   2.261   2.202  15.309  0.5116  0.6479  0.5416
  282MPD2    C1 4254   2.146   2.276  15.322 -0.3287  0.4138 -1.1526
  282MPD2    C2 4255   2.046   2.274  15.227  0.1301  0.2810 -0.3792
  282MPD2    C3 4256   2.054   2.191  15.115 -0.4382  0.3344  0.3979
  282MPD2    C4 4257   2.168   2.110  15.104  0.4468 -0.8399 -0.0816
  282MPD2    C5 4258   2.262   2.126  15.206 -0.1134  0.0365  0.1468
  282MPD2     H 4259   1.958   2.335  15.246 -1.3647 -1.1808 -2.7100
  282MPD2    H1 4260   2.197   2.048  15.020 -0.9350 -1.7869  0.1452
  282MPD2    H2 4261   2.349   2.191  15.372  1.9448  0.2185 -1.5632
  282MPD2    H3 4262   2.350   2.063  15.195 -1.1986 -1.3073 -0.8675
  282MPD2     N 4263   1.950   2.209  15.025  0.0847  0.9014 -0.7634
  282MPD2    H5 4264   1.885   2.284  15.047  2.6634  2.8978 -0.0364
  282MPD2    N1 4265   2.136   2.353  15.449  0.6057  0.2471 -0.8659
  282MPD2    H7 4266   2.207   2.334  15.518  1.6444  1.0524 -1.7231
  283TMC3    C1 4267   2.046   2.477  15.622  0.7526 -0.4066  0.1069
  283TMC3    C2 4268   2.003   2.599  15.655  0.4688  0.7744  0.2982
  283TMC3    C3 4269   2.007   2.621  15.786 -0.5088  0.4495  0.1417
  283TMC3    C4 4270   2.077   2.375  15.710  0.0782 -0.7683 -0.2663
  283TMC3    C5 4271   2.059   2.400  15.840 -0.3034 -0.0261  0.3471
  283TMC3    C6 4272   2.016   2.519  15.883  0.1979 -0.2624  0.9712
  283TMC3     C 4273   2.040   2.442  15.479  0.0130 -0.0387 -0.3743
  283TMC3     O 4274   1.973   2.512  15.406  0.4826  0.7393  0.1076
  283TMC3     H 4275   1.958   2.668  15.585 -0.6405 -0.8161 -0.5542
  283TMC3    H1 4276   2.108   2.277  15.674  0.2759 -2.2610  3.8816
  283TMC3    H2 4277   2.022   2.542  15.989  0.3898  0.1181  0.8782
  283TMC3    C7 4278   2.001   2.291  15.913 -0.1725  0.6543 -0.4169
  283TMC3    C8 4279   1.995   2.749  15.841 -0.0252  0.3750 -0.1034
  283TMC3    O1 4280   1.953   2.323  16.022  0.2522  0.4456 -0.0336
  283TMC3    O2 4281   1.980   2.764  15.965  0.7904 -0.4176  0.0172
  284MPD2     C 4282   4.715   1.468  12.376 -0.1136 -0.3074 -0.3490
  284MPD2    C1 4283   0.070   1.438  12.267  0.1148 -0.6203  0.1589
  284MPD2    C2 4284   0.030   1.336  12.184  0.3066 -0.2172 -0.1214
  284MPD2    C3 4285   4.635   1.261  12.202  0.5324 -0.8152  0.0441
  284MPD2    C4 4286   4.559   1.298  12.311 -0.1496 -0.0900  0.4738
  284MPD2    C5 4287   4.593   1.412  12.388  0.3013 -0.1750  0.1724
  284MPD2     H 4288   0.098   1.315  12.102 -0.0178 -1.9455  0.0505
  284MPD2    H1 4289   4.464   1.251  12.334  0.0637 -0.3778  0.7483
  284MPD2    H2 4290   0.017   1.551  12.441  0.3418 -0.7082 -0.0200
  284MPD2    H3 4291   4.534   1.436  12.476 -0.0733 -0.6907  0.0677
  284MPD2     N 4292   4.592   1.152  12.116  0.1583  0.3018 -0.4042
  284MPD2    H5 4293   4.507   1.102  12.139  0.3641  0.3053  0.3553
  284MPD2    N1 4294   0.190   1.505  12.242 -0.4053 -0.2777 -0.2010
  284MPD2    H7 4295   0.259   1.466  12.178  1.7152  0.5588  1.5664
  285TMC3    C1 4296   0.370   1.649  12.283  0.0858  0.0565 -0.5272
  285TMC3    C2 4297   0.449   1.550  12.246  0.4965 -0.0116 -0.2959
  285TMC3    C3 4298   0.576   1.584  12.202 -0.0708 -0.0045  0.7794
  285TMC3    C4 4299   0.406   1.780  12.294  0.1966 -0.5129 -0.2704
  285TMC3    C5 4300   0.529   1.808  12.243  0.3515  0.2716 -0.3393
  285TMC3    C6 4301   0.613   1.717  12.196 -0.3402 -0.2421 -0.3716
  285TMC3     C 4302   0.233   1.615  12.311 -0.5161  0.5050 -0.1973
  285TMC3     O 4303   0.169   1.692  12.384  0.0350  0.6645  0.0825
  285TMC3     H 4304   0.421   1.448  12.271 -1.8121  0.6787 -0.0303
  285TMC3    H1 4305   0.340   1.850  12.343 -0.2273 -1.3929  0.3941
  285TMC3    H2 4306   0.714   1.751  12.175  0.0196  0.8331  3.1112
  285TMC3    C7 4307   0.590   1.940  12.264 -0.0756 -0.4433 -0.0036
  285TMC3    C8 4308   0.619   1.495  12.090  0.8102 -0.2064 -0.4523
  285TMC3    O1 4309   0.591   1.989  12.376 -0.3333 -0.6552 -0.7274
  285TMC3    O2 4310   0.544   1.405  12.064 -0.5174 -0.2590  0.1960
  286MPD2     C 4311   0.416   0.296   1.871 -0.1332  0.2945  0.2524
  286MPD2    C1 4312   0.367   0.251   1.753 -0.0937 -0.3206 -0.3982
  286MPD2    C2 4313   0.438   0.192   1.654  0.5546 -0.3127  0.2569
  286MPD2    C3 4314   0.573   0.193   1.665 -0.5044  0.5169 -0.0400
  286MPD2    C4 4315   0.629   0.235   1.784  0.3058 -0.2686  0.3331
  286MPD2    C5 4316   0.550   0.279   1.890  0.0524 -0.6046 -0.2193
  286MPD2     H 4317   0.383   0.159   1.567  0.6089  3.1399 -1.0921
  286MPD2    H1 4318   0.737   0.234   1.789  0.4847 -0.5879 -3.9684
  286MPD2    H2 4319   0.361   0.359   1.940  0.9709  1.0395  0.4386
  286MPD2    H3 4320   0.596   0.307   1.984 -0.6426  0.6996 -0.2702
  286MPD2     N 4321   0.664   0.160   1.561 -0.4204  0.2022 -0.6757
  286MPD2    H5 4322   0.760   0.177   1.588 -0.3870  0.4521 -0.9570
  286MPD2    N1 4323   0.228   0.263   1.727 -0.3838  0.0974 -0.3584
  286MPD2    H7 4324   0.193   0.235   1.636  0.0194  2.2294 -1.1606
  287TMC3    C1 4325   0.748   0.101   1.357  0.6150  0.3400  0.5114
  287TMC3    C2 4326   0.743   0.017   1.246 -0.3035 -0.4982  0.8794
  287TMC3    C3 4327   0.852   0.002   1.171  0.4146 -0.7607  0.1568
  287TMC3    C4 4328   0.862   0.161   1.390 -0.0268 -0.4456 -0.5348
  287TMC3    C5 4329   0.984   0.117   1.328 -0.0608  0.2275  0.0410
  287TMC3    C6 4330   0.978   0.041   1.216 -0.0683 -0.3165 -0.3339
  287TMC3     C 4331   0.626   0.118   1.434  0.6158 -0.0350  0.3080
  287TMC3     O 4332   0.517   0.075   1.401 -0.2166 -0.3862  0.1224
  287TMC3     H 4333   0.651   4.687   1.227 -0.0678  0.1183 -1.8723
  287TMC3    H1 4334   0.872   0.218   1.481  0.5190  0.3668 -1.1026
  287TMC3    H2 4335   1.067   0.034   1.154 -0.0491 -2.3339 -0.0755
  287TMC3    C7 4336   1.105   0.138   1.401 -0.1359  0.5406  0.1366
  287TMC3    C8 4337   0.844   4.626   1.063  0.2442 -0.3375 -0.5509
  287TMC3    O1 4338   1.102   0.229   1.484  0.3205  0.1212 -0.3084
  287TMC3    O2 4339   0.748   4.550   1.055  0.2094 -0.2000 -0.1206
  288TMC3    C1 4340   1.985   0.049  14.607  0.4921 -0.0276  0.5228
  288TMC3    C2 4341   1.978   0.036  14.743  0.5116 -0.4478  0.1151
  288TMC3    C3 4342   2.045   0.126  14.822  1.2606 -0.0009 -0.0825
  288TMC3    C4 4343   2.062   0.147  14.547  0.0349  0.2913  0.2497
  288TMC3    C5 4344   2.128   0.230  14.631 -0.2449 -0.6185  0.3850
  288TMC3    C6 4345   2.123   0.226  14.767 -0.0528 -0.3929 -0.2343
  288TMC3     C 4346   1.923   4.666  14.530 -0.1306 -0.4354 -0.0593
  288TMC3     O 4347   1.899   4.561  14.586 -0.4054 -0.4260  0.0235
  288TMC3     H 4348   1.920   4.680  14.787  0.2882 -0.2868  0.1134
  288TMC3    H1 4349   2.079   0.148  14.440  0.6194 -2.5403  0.3198
  288TMC3    H2 4350   2.176   0.301  14.826 -1.3354 -0.7458  1.3530
  288TMC3    C7 4351   2.222   0.331  14.578  0.3755  0.1738 -0.1628
  288TMC3    C8 4352   2.049   0.119  14.969 -0.0800  0.0332 -0.0557
  288TMC3    O1 4353   2.314   0.367  14.656  0.2287 -0.2466 -0.7640
  288TMC3    O2 4354   2.145   0.174  15.022  0.4135 -0.2894  0.6560
  289MPD2     C 4355   2.321   4.017  14.771 -0.0019  0.5436  1.0735
  289MPD2    C1 4356   2.287   4.066  14.647 -0.4048  0.4702  0.3549
  289MPD2    C2 4357   2.150   4.074  14.615 -0.5224  0.1204 -0.8526
  289MPD2    C3 4358   2.047   4.040  14.700 -0.1443 -0.4954 -0.4479
  289MPD2    C4 4359   2.089   3.996  14.824  0.8027  0.2815  0.4296
  289MPD2    C5 4360   2.224   3.988  14.861 -0.3226  0.1851 -0.3608
  289MPD2     H 4361   2.129   4.127  14.523 -1.5262  1.6883  0.2628
  289MPD2    H1 4362   2.014   3.965  14.896 -0.1013  0.8134 -0.2949
  289MPD2    H2 4363   2.425   4.014  14.803  0.4006  0.8051 -0.2189
  289MPD2    H3 4364   2.246   3.951  14.961 -0.4797 -0.1647 -0.4544
  289MPD2     N 4365   1.912   4.055  14.681 -0.2985 -0.3125 -0.1374
  289MPD2    H5 4366   1.844   4.036  14.754  0.4747 -0.7572  0.4581
  289MPD2    N1 4367   2.391   4.118  14.569 -0.6332 -0.4194 -0.2117
  289MPD2    H7 4368   2.486   4.108  14.603 -0.9135  1.6041  1.1637
  290TMC3    C1 4369   1.704   4.111  14.560 -0.1942 -0.9026 -0.5292
  290TMC3    C2 4370   1.639   4.219  14.504 -0.4720 -0.5005 -0.2717
  290TMC3    C3 4371   1.509   4.206  14.469 -0.6916 -0.3673 -0.5238
  290TMC3    C4 4372   1.641   3.985  14.584 -0.4437  0.0676  0.9674
  290TMC3    C5 4373   1.512   3.976  14.544 -0.4344 -0.6179  0.1887
  290TMC3    C6 4374   1.439   4.087  14.505 -0.7059  0.1934 -0.0026
  290TMC3     C 4375   1.850   4.112  14.568  0.0361  0.4866  1.0617
  290TMC3     O 4376   1.903   4.157  14.466 -1.2090  0.4312  0.4974
  290TMC3     H 4377   1.699   4.307  14.489 -0.2104 -0.5415  0.5361
  290TMC3    H1 4378   1.698   3.894  14.596 -2.8161 -1.7184 -1.5869
  290TMC3    H2 4379   1.334   4.084  14.481 -0.5981  3.5424 -0.7941
  290TMC3    C7 4380   1.426   3.867  14.600 -0.5736 -0.1341 -0.6115
  290TMC3    C8 4381   1.439   4.320  14.420  0.0097  0.6521 -0.0338
  290TMC3    O1 4382   1.317   3.853  14.549  0.1398 -0.4028  0.1467
  290TMC3    O2 4383   1.318   4.305  14.397 -0.3002 -0.3087 -0.3571
  291MPD2     C 4384   1.534   3.563   0.469 -0.0923  0.2895 -0.2326
  291MPD2    C1 4385   1.531   3.423   0.467  0.5175  0.0415 -0.3267
  291MPD2    C2 4386   1.646   3.349   0.435  0.1571 -0.1645 -0.3007
  291MPD2    C3 4387   1.765   3.415   0.409 -0.9407  0.1992  0.4236
  291MPD2    C4 4388   1.770   3.554   0.417 -0.0997  0.4427 -0.2134
  291MPD2    C5 4389   1.656   3.622   0.451  0.0981 -0.6580 -0.1456
  291MPD2     H 4390   1.634   3.242   0.449  0.7807 -0.1107  0.6778
  291MPD2    H1 4391   1.859   3.613   0.404  0.0784  1.0201  3.5348
  291MPD2    H2 4392   1.446   3.617   0.503  0.4528  1.4930 -0.7284
  291MPD2    H3 4393   1.658   3.731   0.451  0.5475 -0.6733  1.1104
  291MPD2     N 4394   1.890   3.358   0.371 -0.2977  0.8238  0.3980
  291MPD2    H5 4395   1.956   3.433   0.350 -0.6004  1.3199  1.2057
  291MPD2    N1 4396   1.411   3.349   0.486 -0.2720 -0.3752 -0.4002
  291MPD2    H7 4397   1.424   3.250   0.474  1.9917 -0.0481 -0.5993
  292TMC3    C1 4398   1.183   3.290   0.537  0.1239 -0.6269 -0.1730
  292TMC3    C2 4399   1.081   3.312   0.623 -0.3215  0.4547  0.5110
  292TMC3    C3 4400   0.974   3.232   0.606  0.5533 -0.0158  0.2172
  292TMC3    C4 4401   1.183   3.181   0.455  0.0957 -0.7712 -0.5838
  292TMC3    C5 4402   1.078   3.100   0.453  0.5782  0.2469  0.2144
  292TMC3    C6 4403   0.960   3.132   0.513  0.4267 -0.6652 -0.5097
  292TMC3     C 4404   1.288   3.396   0.534  0.1056 -0.4788  0.3489
  292TMC3     O 4405   1.254   3.506   0.572  0.2714 -0.3956  0.1655
  292TMC3     H 4406   1.076   3.408   0.673  2.2673  1.7755 -1.7865
  292TMC3    H1 4407   1.274   3.152   0.404  1.3148  0.9812  0.6214
  292TMC3    H2 4408   0.876   3.066   0.530 -0.2122  0.0398 -0.8872
  292TMC3    C7 4409   1.083   2.978   0.364  0.2667 -0.1319  0.1352
  292TMC3    C8 4410   0.861   3.244   0.696  0.1763 -0.3302  0.1985
  292TMC3    O1 4411   1.191   2.940   0.321 -0.3994  0.1750 -0.0792
  292TMC3    O2 4412   0.752   3.190   0.673 -0.0969  0.8884  0.0758
  293MPD2     C 4413   3.355   1.115  12.349 -0.7503  0.1470 -0.4404
  293MPD2    C1 4414   3.284   1.036  12.429 -0.1214 -0.2548 -0.0097
  293MPD2    C2 4415   3.348   0.992  12.542  0.1931 -0.9557 -0.3476
  293MPD2    C3 4416   3.469   1.043  12.592  1.0314 -0.4665 -1.2416
  293MPD2    C4 4417   3.529   1.133  12.510  0.2179 -0.2999  0.3324
  293MPD2    C5 4418   3.480   1.160  12.387  0.1525  0.5105  0.3743
  293MPD2     H 4419   3.302   0.913  12.600 -1.2771  0.7626  0.8365
  293MPD2    H1 4420   3.623   1.176  12.540  0.5811  0.7418 -2.2378
  293MPD2    H2 4421   3.309   1.153  12.258  0.4010 -2.9171 -2.2539
  293MPD2    H3 4422   3.527   1.228  12.317 -0.1956  1.1796  0.7926
  293MPD2     N 4423   3.526   1.007  12.715 -0.3339  0.3326  0.1784
  293MPD2    H5 4424   3.475   0.933  12.762  0.0939  1.2898  2.1121
  293MPD2    N1 4425   3.160   0.994  12.370 -1.2534  0.0448 -0.3017
  293MPD2    H7 4426   3.144   1.007  12.271  2.7781  2.3787 -0.6506
  294TMC3    C1 4427   2.954   0.871  12.362  0.0998  0.9559  0.1762
  294TMC3    C2 4428   2.842   0.844  12.445 -0.3203 -0.1832  0.3204
  294TMC3    C3 4429   2.718   0.823  12.376 -0.0377 -0.0261  0.2455
  294TMC3    C4 4430   2.959   0.871  12.227 -0.4456  0.0813 -0.5675
  294TMC3    C5 4431   2.838   0.842  12.166 -0.0069  0.1729 -0.2190
  294TMC3    C6 4432   2.720   0.827  12.235 -0.8893  0.6264  0.1766
  294TMC3     C 4433   3.073   0.912  12.438 -0.2481  0.0086 -0.1327
  294TMC3     O 4434   3.070   0.885  12.560  0.0711  0.1480 -0.5060
  294TMC3     H 4435   2.859   0.811  12.546  1.8731 -0.2000 -0.0726
  294TMC3    H1 4436   3.049   0.897  12.173  0.5903 -2.5778 -0.1164
  294TMC3    H2 4437   2.637   0.831  12.165 -0.4415 -0.7423 -0.4272
  294TMC3    C7 4438   2.836   0.756  12.054 -0.2667  0.2024  0.2279
  294TMC3    C8 4439   2.638   0.708  12.421  0.2933  0.0050 -0.9046
  294TMC3    O1 4440   2.753   0.669  12.062 -0.1742  0.2012  0.0019
  294TMC3    O2 4441   2.622   0.704  12.542 -0.5422 -0.4054 -0.4002
  295MPD2     C 4442   3.721   3.348   0.530 -0.0438 -0.8646 -0.0572
  295MPD2    C1 4443   3.810   3.441   0.583 -0.2747  0.2222 -0.1954
  295MPD2    C2 4444   3.752   3.537   0.662  0.4447  0.1077 -0.7076
  295MPD2    C3 4445   3.612   3.550   0.684  0.0108 -0.0978  0.3176
  295MPD2    C4 4446   3.529   3.454   0.633 -0.7141  0.3961 -0.0887
  295MPD2    C5 4447   3.584   3.360   0.546 -0.3280  0.1668  0.3788
  295MPD2     H 4448   3.823   3.610   0.698 -1.0920  0.6568  1.2132
  295MPD2    H1 4449   3.422   3.445   0.647 -0.6137 -1.7550 -0.7261
  295MPD2    H2 4450   3.761   3.267   0.469 -2.2135 -2.1046  0.2026
  295MPD2    H3 4451   3.522   3.295   0.485  1.9259 -0.8705 -0.8134
  295MPD2     N 4452   3.561   3.655   0.760  0.2696 -0.3977 -0.1798
  295MPD2    H5 4453   3.460   3.659   0.767  0.3463  1.0268  0.1073
  295MPD2    N1 4454   3.946   3.439   0.566 -0.6764  0.2378 -0.2589
  295MPD2    H7 4455   3.987   3.523   0.607  0.4942 -0.5260  0.1366
  296TMC3    C1 4456   3.558   3.841   0.894 -0.4953 -0.1472  0.0215
  296TMC3    C2 4457   3.625   3.890   1.003  0.9929  0.2881 -0.1224
  296TMC3    C3 4458   3.551   3.935   1.108 -0.5575 -0.6186 -0.3126
  296TMC3    C4 4459   3.418   3.842   0.885 -0.3757 -0.1583 -0.3935
  296TMC3    C5 4460   3.352   3.888   0.995  0.2572 -0.1512 -0.0342
  296TMC3    C6 4461   3.414   3.935   1.106 -0.0631  0.0571 -0.4888
  296TMC3     C 4462   3.639   3.747   0.826  0.1090 -0.1443  0.3536
  296TMC3     O 4463   3.758   3.753   0.848  0.4456  0.0087 -0.5336
  296TMC3     H 4464   3.731   3.874   1.020  0.5657 -1.3213  1.0317
  296TMC3    H1 4465   3.366   3.824   0.792 -2.3165  0.3536  0.5792
  296TMC3    H2 4466   3.360   3.984   1.187  1.8298  0.1670  0.7010
  296TMC3    C7 4467   3.212   3.911   0.984 -0.1967  0.0438 -0.2868
  296TMC3    C8 4468   3.623   4.022   1.199  0.4537 -0.2230  0.1632
  296TMC3    O1 4469   3.166   3.929   0.871  0.2251 -0.0759 -0.1941
  296TMC3    O2 4470   3.745   3.999   1.202 -0.0306 -0.2031  0.2639
  297MPD2     C 4471   1.189   1.100  16.724 -0.0363 -0.6864 -0.7265
  297MPD2    C1 4472   1.210   1.099  16.583 -0.1611  0.3443 -0.2526
  297MPD2    C2 4473   1.325   1.164  16.533  0.1117 -0.1804 -0.9540
  297MPD2    C3 4474   1.416   1.230  16.618 -0.3363 -0.7232 -0.2013
  297MPD2    C4 4475   1.384   1.238  16.750 -1.1210 -0.4688  0.6706
  297MPD2    C5 4476   1.270   1.183  16.802  0.1435  0.3881  0.2483
  297MPD2     H 4477   1.342   1.170  16.426  1.1032 -1.1381 -0.8548
  297MPD2    H1 4478   1.455   1.270  16.826 -0.0322  0.0532 -0.5613
  297MPD2    H2 4479   1.114   1.045  16.778  0.4012 -0.5090  0.0564
  297MPD2    H3 4480   1.251   1.193  16.908 -1.4156 -0.4711  0.0580
  297MPD2     N 4481   1.534   1.295  16.575  0.3218  0.0314 -0.4589
  297MPD2    H5 4482   1.571   1.349  16.652  2.1274 -0.1921 -1.1858
  297MPD2    N1 4483   1.121   1.046  16.487  0.1683 -0.1149 -0.1596
  297MPD2    H7 4484   1.139   1.081  16.393 -0.4934 -1.7252 -0.8929
  298TMC3    C1 4485   0.901   1.002  16.416 -0.1998  0.3369  0.4442
  298TMC3    C2 4486   0.935   1.006  16.288  0.4330  0.2343 -0.0724
  298TMC3    C3 4487   0.841   1.058  16.194  0.1734 -0.6782  0.7570
  298TMC3    C4 4488   0.781   1.055  16.465  0.1653  0.2929  0.2004
  298TMC3    C5 4489   0.686   1.092  16.369  0.7041 -0.7703  0.1204
  298TMC3    C6 4490   0.718   1.098  16.231  0.3303 -0.5031  0.0424
  298TMC3     C 4491   1.004   0.984  16.518 -0.2880  0.5264  0.2558
  298TMC3     O 4492   0.963   0.951  16.626 -0.4930  0.6289  0.4153
  298TMC3     H 4493   1.025   0.959  16.250 -0.3377 -2.2152  1.0978
  298TMC3    H1 4494   0.758   1.041  16.570  0.0362  1.3525  0.3056
  298TMC3    H2 4495   0.662   1.158  16.159 -0.1389 -2.8616 -1.5627
  298TMC3    C7 4496   0.569   1.162  16.421 -0.0988 -0.7303  0.1818
  298TMC3    C8 4497   0.872   1.058  16.056 -0.1004 -0.2301  0.1582
  298TMC3    O1 4498   0.570   1.182  16.541 -0.4997  0.1441  0.6171
  298TMC3    O2 4499   0.777   1.061  15.977  0.2222 -0.3385 -0.3265
  299MPD2     C 4500   1.589   0.766  10.605  0.3322  0.0301  0.1959
  299MPD2    C1 4501   1.620   0.903  10.587 -0.4767 -0.6670  0.4722
  299MPD2    C2 4502   1.517   0.988  10.539  0.9976 -0.2169  0.0034
  299MPD2    C3 4503   1.385   0.939  10.512 -0.1088  0.5700 -0.2056
  299MPD2    C4 4504   1.361   0.804  10.528 -0.5506 -0.2778  0.0517
  299MPD2    C5 4505   1.463   0.723  10.582  0.3810 -0.3670  0.1178
  299MPD2     H 4506   1.540   1.092  10.520  1.8619 -0.3229  0.4760
  299MPD2    H1 4507   1.265   0.761  10.504 -0.2781  0.9288 -3.1833
  299MPD2    H2 4508   1.672   0.701  10.631 -0.3736  0.3711  3.2903
  299MPD2    H3 4509   1.443   0.617  10.585 -0.0494 -0.2686  0.8960
  299MPD2     N 4510   1.278   1.024  10.474 -0.0410 -0.6488 -0.4364
  299MPD2    H5 4511   1.185   0.983  10.477 -0.7563  0.9435 -1.0177
  299MPD2    N1 4512   1.749   0.943  10.616 -0.5460  0.1600 -0.4820
  299MPD2    H7 4513   1.803   0.881  10.675 -0.5182 -1.0016 -1.7201
  300TMC3    C1 4514   1.172   1.234  10.488  0.5405  0.2221 -0.5135
  300TMC3    C2 4515   1.205   1.353  10.555  0.0356  0.0590  0.7182
  300TMC3    C3 4516   1.120   1.407  10.641  0.4107 -0.1282  0.3786
  300TMC3    C4 4517   1.053   1.167  10.502  0.2785  0.7363  0.7274
  300TMC3    C5 4518   0.969   1.219  10.591 -0.1124 -0.7787  0.3748
  300TMC3    C6 4519   1.001   1.330  10.668  0.0623  0.3945  0.3190
  300TMC3     C 4520   1.293   1.164  10.457 -1.2175 -0.0903 -0.2999
  300TMC3     O 4521   1.391   1.231  10.430 -0.1378 -0.1968  0.4460
  300TMC3     H 4522   1.297   1.404  10.528  0.0500  0.2141  1.0575
  300TMC3    H1 4523   1.028   1.071  10.459  0.1675  1.2980 -0.4575
  300TMC3    H2 4524   0.929   1.377  10.733  1.7312  0.8186  1.8734
  300TMC3    C7 4525   0.830   1.181  10.586 -0.5212 -0.8656  0.5069
  300TMC3    C8 4526   1.167   1.524  10.718 -0.5883  0.2040 -0.4029
  300TMC3    O1 4527   0.784   1.125  10.486 -0.3647 -0.1702  0.0103
  300TMC3    O2 4528   1.288   1.544  10.715 -0.0221  0.0697  0.6142
  301MPD2     C 4529   2.748   2.644   2.229  0.2392 -0.1185  0.6764
  301MPD2    C1 4530   2.677   2.581   2.133 -0.1898 -0.0517 -0.2541
  301MPD2    C2 4531   2.688   2.444   2.121 -0.2025 -0.0262  0.2230
  301MPD2    C3 4532   2.757   2.372   2.216 -0.3321  0.7608 -0.0283
  301MPD2    C4 4533   2.829   2.431   2.314  0.1933  0.0522 -0.5482
  301MPD2    C5 4534   2.825   2.568   2.314 -0.2070  0.2818 -0.3658
  301MPD2     H 4535   2.622   2.389   2.056  0.2473 -0.3198  0.0130
  301MPD2    H1 4536   2.901   2.380   2.377  1.0152  2.2638  0.2994
  301MPD2    H2 4537   2.760   2.752   2.233  1.8601 -0.2748  0.3000
  301MPD2    H3 4538   2.897   2.613   2.380  0.0948 -0.6375 -0.0802
  301MPD2     N 4539   2.752   2.228   2.219 -0.2964 -0.0890  0.5847
  301MPD2    H5 4540   2.823   2.177   2.270 -1.0581  0.3041  2.0471
  301MPD2    N1 4541   2.598   2.653   2.042  0.5690  0.8317  0.4376
  301MPD2    H7 4542   2.543   2.602   1.973  1.5394  1.5105 -0.8342
  302TMC3    C1 4543   2.703   2.003   2.174 -0.4235  0.3331 -0.2471
  302TMC3    C2 4544   2.834   1.965   2.182 -0.1602 -0.9439  0.8261
  302TMC3    C3 4545   2.869   1.831   2.179 -0.2213  0.6548 -0.0018
  302TMC3    C4 4546   2.611   1.906   2.145 -0.2405  0.0909 -0.3302
  302TMC3    C5 4547   2.640   1.773   2.138  0.3252 -0.3623 -0.7161
  302TMC3    C6 4548   2.773   1.735   2.150  0.6621  0.1884  0.4941
  302TMC3     C 4549   2.660   2.143   2.160 -0.2433  0.1716  0.4829
  302TMC3     O 4550   2.550   2.172   2.124 -0.0448  0.0930 -0.0905
  302TMC3     H 4551   2.909   2.042   2.189 -0.2733 -0.8869  1.3720
  302TMC3    H1 4552   2.510   1.942   2.127  0.4226  2.3009  0.3657
  302TMC3    H2 4553   2.805   1.636   2.119  0.5604  0.1130  0.6304
  302TMC3    C7 4554   2.558   1.690   2.050 -0.1875  0.2800  0.5370
  302TMC3    C8 4555   3.006   1.802   2.153 -0.0326 -0.3702 -0.1632
  302TMC3    O1 4556   2.564   1.570   2.070  0.3464 -0.1258 -0.9979
  302TMC3    O2 4557   3.074   1.897   2.110 -0.1186  0.3577  0.2481
  303MPD2     C 4558   3.479   0.187  10.534  0.0709 -0.0564  0.0288
  303MPD2    C1 4559   3.451   0.059  10.561 -0.0066 -0.4300  0.5503
  303MPD2    C2 4560   3.409   4.697  10.458  0.4680 -0.7403 -0.1190
  303MPD2    C3 4561   3.395   0.027  10.332  0.8381 -0.4546  0.6619
  303MPD2    C4 4562   3.428   0.159  10.303 -0.0814 -0.0263  1.0556
  303MPD2    C5 4563   3.468   0.238  10.412 -0.2657 -0.8171 -0.1276
  303MPD2     H 4564   3.394   4.590  10.471 -0.7153 -0.7208 -1.3736
  303MPD2    H1 4565   3.439   0.209  10.208 -1.4307  1.7906  1.8524
  303MPD2    H2 4566   3.511   0.243  10.620 -0.0394  1.3824 -0.8636
  303MPD2    H3 4567   3.492   0.343  10.408 -1.9652 -0.4455 -0.6497
  303MPD2     N 4568   3.369   4.672  10.216 -0.0092  0.7455  0.0643
  303MPD2    H5 4569   3.368   0.000  10.129 -1.2781  0.7352  0.0724
  303MPD2    N1 4570   3.468   0.007  10.699 -0.7661 -0.6761  0.8994
  303MPD2    H7 4571   3.509   0.071  10.766  1.7459 -2.3814  0.9659
  304TMC3    C1 4572   3.522   4.564  10.863 -1.0359 -0.4355  0.3880
  304TMC3    C2 4573   3.511   4.439  10.908 -0.1155 -0.1736 -0.2838
  304TMC3    C3 4574   3.613   4.377  10.983 -0.3100 -0.9586  0.4139
  304TMC3    C4 4575   3.645   4.624  10.884  0.2924  0.3998  0.0968
  304TMC3    C5 4576   3.753   4.557  10.934 -0.6871 -0.0306 -0.0490
  304TMC3    C6 4577   3.735   4.438  10.994  0.2245  0.4562 -0.6578
  304TMC3     C 4578   3.436   4.607  10.739 -0.0077 -0.2083 -0.0894
  304TMC3     O 4579   3.392   4.515  10.673 -0.0064 -0.2026  0.1545
  304TMC3     H 4580   3.419   4.392  10.876  0.6210 -1.7845 -0.0413
  304TMC3    H1 4581   3.664   4.717  10.832  1.2879 -0.2008 -0.6112
  304TMC3    H2 4582   3.823   4.390  11.036 -0.7525  0.1923  1.0689
  304TMC3    C7 4583   3.856   4.549  10.836 -0.5917  0.7408  0.7263
  304TMC3    C8 4584   3.632   4.235  10.959  0.0152  0.4228 -0.3133
  304TMC3    O1 4585   3.885   4.657  10.778  0.0734 -0.8408 -0.5862
  304TMC3    O2 4586   3.748   4.206  10.934 -0.4017  0.0500  0.1514
  305MPD2     C 4587   2.319   2.370  14.110 -0.0775  0.3928  0.0985
  305MPD2    C1 4588   2.181   2.374  14.117 -0.5033 -0.3107  1.0616
  305MPD2    C2 4589   2.101   2.356  14.003 -0.2645 -0.5197 -0.7797
  305MPD2    C3 4590   2.168   2.352  13.878  0.6330  1.0396  0.5527
  305MPD2    C4 4591   2.306   2.354  13.874  0.7946  0.3971  0.0610
  305MPD2    C5 4592   2.377   2.350  13.991  0.0146  0.7330 -0.6659
  305MPD2     H 4593   1.995   2.338  14.017 -0.7885  3.4507  0.2412
  305MPD2    H1 4594   2.366   2.341  13.784  1.7152  1.1843  0.5570
  305MPD2    H2 4595   2.380   2.374  14.199  1.5414  1.1394 -1.0392
  305MPD2    H3 4596   2.484   2.336  13.984  0.0075  1.1481 -1.7269
  305MPD2     N 4597   2.091   2.326  13.763  0.1175 -0.0337  0.2091
  305MPD2    H5 4598   2.152   2.314  13.682 -0.0774 -2.6210  0.4453
  305MPD2    N1 4599   2.115   2.393  14.251  0.3595  0.1385  0.1292
  305MPD2    H7 4600   2.185   2.409  14.323  0.8844 -1.2326 -0.0700
  306TMC3    C1 4601   1.960   2.362  14.423  0.5730 -0.1125 -0.0169
  306TMC3    C2 4602   2.055   2.296  14.492 -0.0308 -0.4298  0.1117
  306TMC3    C3 4603   2.063   2.320  14.626  0.6769  0.1194 -0.2028
  306TMC3    C4 4604   1.884   2.458  14.480 -0.0415 -0.6685  0.4413
  306TMC3    C5 4605   1.888   2.468  14.611 -0.6503  0.0424  0.4621
  306TMC3    C6 4606   1.984   2.413  14.690 -0.0689  0.1110 -0.0389
  306TMC3     C 4607   1.984   2.386  14.279 -0.2375  0.4125 -0.7499
  306TMC3     O 4608   1.888   2.399  14.201 -0.2891 -0.1482  0.2798
  306TMC3     H 4609   2.116   2.220  14.445  2.0719  0.6456  1.0862
  306TMC3    H1 4610   1.806   2.498  14.416  1.3772  0.5559 -0.5299
  306TMC3    H2 4611   1.973   2.410  14.798 -0.8490 -0.3318 -0.1340
  306TMC3    C7 4612   1.825   2.591  14.658 -0.1758  0.0959  0.4732
  306TMC3    C8 4613   2.171   2.259  14.698 -0.1689  0.0338  0.3461
  306TMC3    O1 4614   1.710   2.618  14.633 -0.1931 -0.3694 -0.1806
  306TMC3    O2 4615   2.220   2.162  14.641  0.1554 -0.5094  0.2672
  307MPD2     C 4616   4.238   4.425   1.308 -0.2219  0.3991 -0.2885
  307MPD2    C1 4617   4.219   4.560   1.323  0.2128  0.0052  0.1588
  307MPD2    C2 4618   4.097   4.614   1.297 -0.8023 -0.2074  0.2244
  307MPD2    C3 4619   3.982   4.540   1.260  0.6055  0.1316  0.1685
  307MPD2    C4 4620   4.000   4.407   1.246  0.4010  0.5441  0.0688
  307MPD2    C5 4621   4.127   4.354   1.276  0.2134  1.2993 -0.0634
  307MPD2     H 4622   4.089   4.721   1.288  1.8893 -0.0544 -0.2762
  307MPD2    H1 4623   3.922   4.331   1.236  1.5729 -0.6475 -0.0695
  307MPD2    H2 4624   4.334   4.374   1.319  0.2388  1.0692 -1.1665
  307MPD2    H3 4625   4.124   4.248   1.296 -0.5508  0.9450 -2.0676
  307MPD2     N 4626   3.853   4.603   1.246  0.2787  0.3161  0.0222
  307MPD2    H5 4627   3.860   4.704   1.240  0.7947  0.2815  0.0244
  307MPD2    N1 4628   4.325   4.645   1.344  0.3167 -0.2692 -0.5818
  307MPD2    H7 4629   4.316   0.013   1.303  1.6390  0.0489 -0.1485
  308TMC3    C1 4630   3.529   0.024   1.000  0.1764 -0.1170  0.1658
  308TMC3    C2 4631   3.524   0.137   1.073  0.3488  0.1774  0.5773
  308TMC3    C3 4632   3.583   0.130   1.197 -0.2174 -0.4988  0.3327
  308TMC3    C4 4633   3.576   4.632   1.045  0.0682  0.9455 -0.3515
  308TMC3    C5 4634   3.641   4.630   1.164  0.1718 -0.3766 -0.2713
  308TMC3    C6 4635   3.641   0.019   1.240 -0.0982 -0.3668  0.3068
  308TMC3     C 4636   3.467   0.024   0.866  0.0514  0.2292  0.2594
  308TMC3     O 4637   3.445   4.646   0.806  0.0482 -0.5638  0.4520
  308TMC3     H 4638   3.468   0.225   1.043 -0.7830 -0.7776 -0.0952
  308TMC3    H1 4639   3.595   4.549   0.978 -2.9112  1.2540 -1.5600
  308TMC3    H2 4640   3.689   0.009   1.336  0.5921 -0.9760 -0.1057
  308TMC3    C7 4641   3.748   4.537   1.184  0.3005 -0.5181  0.8490
  308TMC3    C8 4642   3.604   0.252   1.271 -0.5221 -0.7282  0.4273
  308TMC3    O1 4643   3.741   4.426   1.135  0.0337  0.3442 -0.1392
  308TMC3    O2 4644   3.625   0.239   1.388 -1.0189  0.5754 -0.7502
  309MPD2     C 4645   3.592   0.636  17.094 -0.2196 -0.3989  0.5281
  309MPD2    C1 4646   3.576   0.711  16.984 -0.2032  0.2919  0.6062
  309MPD2    C2 4647   3.492   0.817  16.991  0.1142  0.0259  0.2303
  309MPD2    C3 4648   3.432   0.861  17.106  0.1457 -0.5536 -0.1530
  309MPD2    C4 4649   3.443   0.781  17.216 -0.1750  0.0084 -0.8915
  309MPD2    C5 4650   3.525   0.671  17.207 -0.4993 -0.2489 -0.1496
  309MPD2     H 4651   3.478   0.864  16.894 -1.4824 -1.9066 -0.4879
  309MPD2    H1 4652   3.396   0.799  17.312 -1.7539 -1.8511 -1.3243
  309MPD2    H2 4653   3.665   0.556  17.097 -1.8348 -1.9295 -1.1358
  309MPD2    H3 4654   3.528   0.607  17.295 -0.3526 -0.1212 -0.0617
  309MPD2     N 4655   3.364   0.983  17.113  0.0422 -0.4308 -0.1183
  309MPD2    H5 4656   3.306   0.996  17.195 -1.6514  0.4896 -1.4461
  309MPD2    N1 4657   3.639   0.694  16.864  0.4853  0.3156 -0.2195
  309MPD2    H7 4658   3.591   0.730  16.782  2.2043 -0.8980 -1.7598
  310TMC3    C1 4659   3.821   0.684  16.729  0.2961  0.2555  0.1724
  310TMC3    C2 4660   3.780   0.797  16.664  0.5270  0.3729 -0.3592
  310TMC3    C3 4661   3.840   0.833  16.545  0.3116 -0.8068  0.2838
  310TMC3    C4 4662   3.944   0.636  16.705  0.3827 -0.5026 -0.0882
  310TMC3    C5 4663   4.001   0.674  16.583  0.4656  0.0996  0.6230
  310TMC3    C6 4664   3.945   0.767  16.500  0.1812 -0.1794  0.2832
  310TMC3     C 4665   3.767   0.654  16.859 -0.4114 -0.3689  0.6489
  310TMC3     O 4666   3.836   0.617  16.952  0.1416  0.1885  0.3035
  310TMC3     H 4667   3.686   0.847  16.682 -0.1467 -0.4366 -1.5736
  310TMC3    H1 4668   3.987   0.553  16.761  1.4140 -1.9702 -2.9961
  310TMC3    H2 4669   3.980   0.780  16.398 -0.9810  1.7319  0.1304
  310TMC3    C7 4670   4.134   0.620  16.545 -0.1121 -0.1451  0.0054
  310TMC3    C8 4671   3.810   0.951  16.466 -0.6115  0.5695 -0.0258
  310TMC3    O1 4672   4.180   0.516  16.588 -0.6249  0.1004 -0.5286
  310TMC3    O2 4673   3.860   0.956  16.353  0.1554  0.4161  0.0873
  311MPD2     C 4674   1.140   2.170  13.161 -0.1529 -1.2579 -0.3691
  311MPD2    C1 4675   1.077   2.192  13.041 -0.5701 -0.8479 -0.1061
  311MPD2    C2 4676   0.942   2.224  13.037  0.3144 -0.2516 -0.0410
  311MPD2    C3 4677   0.875   2.224  13.159  0.4014  0.2901  0.6237
  311MPD2    C4 4678   0.939   2.211  13.280  0.7819  0.4466 -0.6830
  311MPD2    C5 4679   1.074   2.184  13.281 -0.0745  0.5905  0.1177
  311MPD2     H 4680   0.889   2.240  12.943  0.4291  0.8457  0.0885
  311MPD2    H1 4681   0.902   2.217  13.382 -1.2501  0.5119 -1.4159
  311MPD2    H2 4682   1.246   2.149  13.161  0.2735  0.9395 -0.6993
  311MPD2    H3 4683   1.125   2.166  13.375 -1.6851  0.1906  0.9139
  311MPD2     N 4684   0.742   2.275  13.175 -0.0490 -1.2677 -0.1462
  311MPD2    H5 4685   0.705   2.295  13.267 -0.4161 -0.2898 -0.4987
  311MPD2    N1 4686   1.151   2.195  12.915  0.1092  0.0300  0.7226
  311MPD2    H7 4687   1.107   2.218  12.827  1.8686  0.3312 -0.0743
  312TMC3    C1 4688   0.571   2.403  13.069 -0.0062  0.0494 -0.3359
  312TMC3    C2 4689   0.452   2.399  12.994  0.3143 -0.0736 -0.4718
  312TMC3    C3 4690   0.358   2.500  13.006 -0.0608  0.2570  0.2389
  312TMC3    C4 4691   0.600   2.506  13.151 -0.3695  0.1907 -0.1471
  312TMC3    C5 4692   0.504   2.608  13.159  0.3090  0.2274  0.3836
  312TMC3    C6 4693   0.388   2.606  13.086  0.3178  0.3369 -0.4767
  312TMC3     C 4694   0.663   2.287  13.063 -0.5700 -0.1866  0.5178
  312TMC3     O 4695   0.653   2.218  12.963  0.2825 -0.0826  0.1592
  312TMC3     H 4696   0.429   2.313  12.932  0.9370 -0.2862 -0.4056
  312TMC3    H1 4697   0.695   2.504  13.203 -0.2998  1.2734 -0.2426
  312TMC3    H2 4698   0.314   2.685  13.094  2.0148  1.7823  0.6263
  312TMC3    C7 4699   0.515   2.702  13.275 -0.2741  0.1553  0.6514
  312TMC3    C8 4700   0.216   2.465  12.967 -0.4740  0.0318 -0.9551
  312TMC3    O1 4701   0.469   2.813  13.269  0.0814  0.0004 -0.1432
  312TMC3    O2 4702   0.201   2.356  12.911  0.0946  0.2108  0.3150
  313MPD2     C 4703   0.897   1.594  10.402  0.3793  0.7567 -0.3610
  313MPD2    C1 4704   0.781   1.515  10.402  0.2922 -0.1716  0.6724
  313MPD2    C2 4705   0.768   1.417  10.304  0.1660 -0.7453  0.0426
  313MPD2    C3 4706   0.876   1.398  10.217  0.2317  0.2474  0.9801
  313MPD2    C4 4707   0.988   1.477  10.223  0.1003  0.0891 -0.6961
  313MPD2    C5 4708   0.999   1.571  10.319  0.4196 -0.0671  0.4132
  313MPD2     H 4709   0.680   1.354  10.307  0.0654 -0.6462 -0.8785
  313MPD2    H1 4710   1.074   1.458  10.160  2.6211 -0.9478  3.0276
  313MPD2    H2 4711   0.905   1.675  10.474 -0.0312  1.1362 -0.7401
  313MPD2    H3 4712   1.085   1.637  10.323 -0.4323  0.9447  1.9254
  313MPD2     N 4713   0.879   1.300  10.117  0.7933  0.1256  0.0967
  313MPD2    H5 4714   0.970   1.293  10.072 -0.3313 -2.1734 -1.8415
  313MPD2    N1 4715   0.683   1.523  10.501 -0.4962 -0.3760  0.4899
  313MPD2    H7 4716   0.602   1.465  10.480  0.6601 -1.2061 -1.6036
  314TMC3    C1 4717   0.619   1.554  10.733 -0.6803 -0.5120 -0.0436
  314TMC3    C2 4718   0.664   1.566  10.865 -0.0919  0.4138  0.2627
  314TMC3    C3 4719   0.577   1.606  10.960 -0.3784 -0.0934  0.6188
  314TMC3    C4 4720   0.491   1.599  10.702  0.5658  0.9798  0.1181
  314TMC3    C5 4721   0.406   1.647  10.797  0.1509  0.2781 -0.0404
  314TMC3    C6 4722   0.449   1.644  10.925  0.0981 -0.1434  0.1555
  314TMC3     C 4723   0.717   1.557  10.631  0.3317  0.3758 -0.4153
  314TMC3     O 4724   0.823   1.595  10.674 -0.0924  0.1622  0.8097
  314TMC3     H 4725   0.770   1.566  10.886 -0.1858  1.8362  0.6909
  314TMC3    H1 4726   0.462   1.585  10.599 -0.5077 -1.2203  0.7105
  314TMC3    H2 4727   0.382   1.679  11.003  0.6381 -3.6319  2.1968
  314TMC3    C7 4728   0.300   1.739  10.761  0.6363  0.0767 -0.3720
  314TMC3    C8 4729   0.636   1.651  11.091  0.1525  0.1011 -0.1883
  314TMC3    O1 4730   0.202   1.756  10.836 -0.1513  0.7827 -0.3575
  314TMC3    O2 4731   0.589   1.741  11.157  0.0333 -1.1618 -0.2856
  315MPD2     C 4732   0.125   0.833  17.114 -0.4341  0.4710 -0.5185
  315MPD2    C1 4733   0.118   0.789  17.244 -0.4271  0.3666  0.0134
  315MPD2    C2 4734   0.044   0.862  17.329  0.1995  0.2679  0.6151
  315MPD2    C3 4735   4.699   0.977  17.290 -0.4176 -0.2070  0.2006
  315MPD2    C4 4736   4.711   1.022  17.164  0.5941  0.4065  0.2357
  315MPD2    C5 4737   0.069   0.955  17.076 -0.0226 -0.2157 -0.0126
  315MPD2     H 4738   0.034   0.840  17.435 -0.0098 -0.0664  0.5243
  315MPD2    H1 4739   4.676   1.120  17.136  0.3214 -0.5139 -2.6285
  315MPD2    H2 4740   0.168   0.773  17.034 -1.7485  0.3298 -1.1298
  315MPD2    H3 4741   0.081   0.989  16.974  0.4658 -1.6466 -0.4362
  315MPD2     N 4742   4.619   1.034  17.393 -0.0141  0.0071 -0.0337
  315MPD2    H5 4743   4.620   0.994  17.486  2.3301  1.1158  0.4206
  315MPD2    N1 4744   0.165   0.661  17.284 -0.0852  0.4932  0.5655
  315MPD2    H7 4745   0.138   0.647  17.381  0.9142 -2.2376  0.4454
  316TMC3    C1 4746   4.517   1.203  17.519 -0.7956  0.0000 -0.1144
  316TMC3    C2 4747   4.597   1.173  17.627 -0.0314  0.2446 -0.1761
  316TMC3    C3 4748   4.583   1.260   0.033 -0.2817  0.4450  0.7908
  316TMC3    C4 4749   4.419   1.304  17.517  0.7542  0.1419  0.7482
  316TMC3    C5 4750   4.414   1.381  17.625  0.4838 -0.5813 -0.6237
  316TMC3    C6 4751   4.499   1.365   0.035 -0.3482 -0.1442 -0.3923
  316TMC3     C 4752   4.542   1.147  17.388 -0.1497 -0.4080 -0.1440
  316TMC3     O 4753   4.502   1.205  17.290 -0.5396 -0.2369  0.0010
  316TMC3     H 4754   4.642   1.075  17.639 -0.5522  0.0819  0.4877
  316TMC3    H1 4755   4.350   1.322  17.435  0.8271  3.3981  1.4005
  316TMC3    H2 4756   4.498   1.433   0.119  3.9881 -0.8930  0.2789
  316TMC3    C7 4757   4.381   1.520  17.606 -0.5380  0.5400 -0.4035
  316TMC3    C8 4758   4.608   1.203   0.164  0.0074  0.5984  0.2010
  316TMC3    O1 4759   4.342   1.585   0.003 -0.6125 -0.2756  0.1777
  316TMC3    O2 4760   4.558   1.253   0.265  0.0763  0.0426 -0.0913
  317MPD2     C 4761   2.016   4.157  12.719 -0.1193 -0.2295  0.2138
  317MPD2    C1 4762   2.107   4.053  12.701  0.2126  0.4166 -0.1419
  317MPD2    C2 4763   2.159   3.987  12.816  0.3076  0.9077  0.3365
  317MPD2    C3 4764   2.112   4.010  12.941  0.3974 -0.0228  0.4851
  317MPD2    C4 4765   2.024   4.109  12.958  0.1566  0.2133 -0.0692
  317MPD2    C5 4766   1.963   4.169  12.848 -0.1537 -0.9568  0.2594
  317MPD2     H 4767   2.228   3.905  12.799 -0.4138 -0.3089  3.4125
  317MPD2    H1 4768   1.981   4.129  13.056  1.1432  1.3372  0.1403
  317MPD2    H2 4769   1.968   4.210  12.637  0.0979  1.0752  0.9390
  317MPD2    H3 4770   1.886   4.245  12.860 -0.5296 -1.4210  0.8478
  317MPD2     N 4771   2.163   3.921  13.039 -0.0242  0.5971  0.5236
  317MPD2    H5 4772   2.255   3.879  13.029 -0.3148  0.6784 -2.5706
  317MPD2    N1 4773   2.148   4.002  12.575  0.0599 -0.1828  0.1073
  317MPD2    H7 4774   2.180   3.906  12.582 -2.0441 -0.8772  0.3721
  318TMC3    C1 4775   2.141   3.764  13.201  0.6200  0.9377  0.7514
  318TMC3    C2 4776   2.061   3.670  13.252  0.4561 -0.5749 -0.1638
  318TMC3    C3 4777   2.124   3.574  13.331  0.0044 -0.2602  0.0186
  318TMC3    C4 4778   2.275   3.781  13.247  0.2385 -0.2676  0.0210
  318TMC3    C5 4779   2.320   3.703  13.353  0.2402 -0.6323 -0.0972
  318TMC3    C6 4780   2.247   3.589  13.391  0.0545 -0.3297  0.0916
  318TMC3     C 4781   2.079   3.871  13.130  0.4170 -1.0573 -0.2103
  318TMC3     O 4782   1.961   3.890  13.141  1.0731  0.2096  0.5809
  318TMC3     H 4783   1.954   3.682  13.239  0.8202  2.4251 -0.5835
  318TMC3    H1 4784   2.336   3.868  13.222 -1.6075  1.1391  0.4586
  318TMC3    H2 4785   2.275   3.523  13.472 -2.6212 -0.4621  0.8941
  318TMC3    C7 4786   2.450   3.719  13.393 -0.2691 -0.3492  0.7247
  318TMC3    C8 4787   2.058   3.453  13.366 -0.7668 -0.3927 -0.4354
  318TMC3    O1 4788   2.482   3.837  13.401 -0.1700  0.6094  0.2980
  318TMC3    O2 4789   2.140   3.362  13.375  1.0613 -0.2254  0.0791
  319MPD2     C 4790   3.761   0.313  16.859 -0.6412  0.1694  0.4064
  319MPD2    C1 4791   3.642   0.294  16.920 -0.2014 -0.2217 -0.3771
  319MPD2    C2 4792   3.525   0.305  16.843  0.0221  0.0009  0.1145
  319MPD2    C3 4793   3.532   0.327  16.707  0.2182 -0.7729 -0.5569
  319MPD2    C4 4794   3.650   0.357  16.651  0.2271 -0.2172  0.0147
  319MPD2    C5 4795   3.760   0.351  16.726 -0.7078 -0.1787 -0.4027
  319MPD2     H 4796   3.430   0.279  16.889  1.3011 -2.9235  1.0992
  319MPD2    H1 4797   3.655   0.380  16.545 -0.5720  1.7629  0.4061
  319MPD2    H2 4798   3.856   0.327  16.910 -0.1886  1.2738 -0.7409
  319MPD2    H3 4799   3.855   0.377  16.680 -0.3401  0.1423  0.5321
  319MPD2     N 4800   3.418   0.330  16.615  0.3979  0.0761  0.4090
  319MPD2    H5 4801   3.441   0.341  16.517 -1.5088  1.1835  0.0757
  319MPD2    N1 4802   3.631   0.274  17.059 -0.7989 -0.1803 -0.1575
  319MPD2    H7 4803   3.540   0.253  17.100 -0.0877 -1.7999  0.5750
  320TMC3    C1 4804   3.193   0.320  16.555 -0.7423  0.1346  0.2870
  320TMC3    C2 4805   3.224   0.389  16.439  0.0993 -0.4047  0.3918
  320TMC3    C3 4806   3.127   0.393  16.340  0.7768  0.3886 -0.3244
  320TMC3    C4 4807   3.077   0.256  16.576 -0.6083  0.1230 -0.0772
  320TMC3    C5 4808   2.992   0.255  16.469 -0.5546 -0.5937  0.2501
  320TMC3    C6 4809   3.008   0.329  16.351 -0.1480  0.8756  0.1609
  320TMC3     C 4810   3.284   0.330  16.662 -0.1595  0.0858 -0.4308
  320TMC3     O 4811   3.240   0.301  16.770  0.2235 -0.3124 -0.1321
  320TMC3     H 4812   3.316   0.445  16.427 -1.0497  0.9979 -1.9077
  320TMC3    H1 4813   3.070   0.175  16.648  1.2670 -0.8034 -0.9403
  320TMC3    H2 4814   2.923   0.335  16.283 -1.0535 -1.6485  1.0472
  320TMC3    C7 4815   2.881   0.167  16.473  0.8324  0.3260 -0.1809
  320TMC3    C8 4816   3.138   0.511  16.253 -0.0183  1.4400  0.0460
  320TMC3    O1 4817   2.856   0.112  16.366  0.4618  0.2111  0.0024
  320TMC3    O2 4818   3.180   0.614  16.306 -0.0845 -0.1365 -0.1089
  321TMC3    C1 4819   3.697   0.279  17.293 -0.6353 -0.1180 -0.1382
  321TMC3    C2 4820   3.601   0.194  17.323  0.2227  0.6124 -0.1113
  321TMC3    C3 4821   3.555   0.197  17.451  0.7694  0.1603  0.5621
  321TMC3    C4 4822   3.767   0.353  17.389  0.1311 -0.0173  0.3769
  321TMC3    C5 4823   3.728   0.356  17.518  0.5704 -0.1101 -1.0577
  321TMC3    C6 4824   3.620   0.276  17.544  0.3067  0.5488 -0.4562
  321TMC3     C 4825   3.731   0.304  17.151 -0.9970 -0.6334 -0.0906
  321TMC3     O 4826   3.845   0.333  17.140 -0.1390 -0.6400  0.2955
  321TMC3     H 4827   3.571   0.125  17.246  1.2070  0.2736 -0.1881
  321TMC3    H1 4828   3.855   0.405  17.351 -0.4396  0.7638  0.1396
  321TMC3    H2 4829   3.597   0.263  17.649  0.9299  1.1322 -0.2410
  321TMC3    C7 4830   3.830   0.321  17.615 -0.3774  0.8366 -0.6117
  321TMC3    C8 4831   3.517   0.071  17.510 -0.4643 -0.2922  0.4443
  321TMC3    O1 4832   3.850   0.198  17.615  0.4531  0.0514  0.3797
  321TMC3    O2 4833   3.439   0.002  17.443 -0.6224  0.1574 -0.3531
  322MPD2     C 4834   1.733   1.661  13.839  0.0454  0.5516 -0.4084
  322MPD2    C1 4835   1.785   1.603  13.948  0.8178  0.1535 -0.7827
  322MPD2    C2 4836   1.805   1.466  13.953 -0.3840  0.1518  0.3753
  322MPD2    C3 4837   1.777   1.384  13.846  0.5481 -0.4718 -0.0153
  322MPD2    C4 4838   1.716   1.442  13.737  0.0338 -0.4343  0.1181
  322MPD2    C5 4839   1.697   1.579  13.740 -0.1479  0.5606 -0.1151
  322MPD2     H 4840   1.852   1.430  14.044  2.2291 -0.5892 -1.2878
  322MPD2    H1 4841   1.675   1.390  13.651 -0.0542 -0.2459  0.0466
  322MPD2    H2 4842   1.694   1.762  13.837  1.0008  0.9394  0.8868
  322MPD2    H3 4843   1.635   1.626  13.665 -0.7374 -0.4531 -0.2568
  322MPD2     N 4844   1.798   1.245  13.852  0.1323  0.0647  0.1047
  322MPD2    H5 4845   1.822   1.210  13.944  1.2126  2.3417  0.6930
  322MPD2    N1 4846   1.832   1.692  14.055 -1.1212 -0.0244  0.4011
  322MPD2    H7 4847   1.842   1.787  14.022 -1.0840  0.8295  2.8750
  323TMC3    C1 4848   1.915   1.748  14.284  0.2192  0.0859 -0.5504
  323TMC3    C2 4849   1.964   1.859  14.226 -0.0925  0.3059  0.1964
  323TMC3    C3 4850   2.064   1.923  14.298 -0.0556  0.6072  0.6811
  323TMC3    C4 4851   1.983   1.687  14.394  0.1164 -0.6251 -0.2591
  323TMC3    C5 4852   2.086   1.748  14.456 -0.0228  0.4400 -0.3092
  323TMC3    C6 4853   2.132   1.868  14.406  0.7950 -0.3120 -0.2362
  323TMC3     C 4854   1.862   1.651  14.185 -0.5633 -0.4014 -0.3149
  323TMC3     O 4855   1.838   1.541  14.235 -0.0823  0.6756  0.1903
  323TMC3     H 4856   1.906   1.909  14.151  0.0931  1.1368  0.6071
  323TMC3    H1 4857   1.954   1.590  14.432  2.4942 -0.2238  2.5268
  323TMC3    H2 4858   2.212   1.915  14.461 -1.8219  1.1356  2.2837
  323TMC3    C7 4859   2.182   1.649  14.503 -0.5381 -0.1794  0.1150
  323TMC3    C8 4860   2.150   2.016  14.226  0.1786  0.0875  0.5232
  323TMC3    O1 4861   2.172   1.532  14.462  0.2401 -0.9467  0.2096
  323TMC3    O2 4862   2.247   2.063  14.287 -0.1883  0.0747  0.2504
  324MPD2     C 4863   3.400   2.626  14.393  0.1450 -0.8350 -0.1658
  324MPD2    C1 4864   3.347   2.749  14.414 -0.2657  0.1432  0.5948
  324MPD2    C2 4865   3.220   2.772  14.354 -0.1141 -0.0987 -0.1699
  324MPD2    C3 4866   3.154   2.674  14.269 -0.0573 -0.6921  0.2393
  324MPD2    C4 4867   3.211   2.549  14.260 -0.3206 -0.2358  0.7618
  324MPD2    C5 4868   3.338   2.531  14.318 -0.0882  0.0801  0.3662
  324MPD2     H 4869   3.186   2.875  14.360  1.6468  0.4795 -0.0965
  324MPD2    H1 4870   3.181   2.466  14.197  0.4314 -0.9516  1.3504
  324MPD2    H2 4871   3.492   2.601  14.446 -0.6545 -0.1953  1.5438
  324MPD2    H3 4872   3.382   2.432  14.309  2.1498  0.9689  1.4928
  324MPD2     N 4873   3.039   2.700  14.181  0.9115  0.0871 -0.1144
  324MPD2    H5 4874   3.002   2.619  14.132 -1.2414  1.4538 -0.7219
  324MPD2    N1 4875   3.415   2.853  14.487 -0.3372 -0.2793 -0.0583
  324MPD2    H7 4876   3.360   2.937  14.500 -0.9469 -0.5732 -0.7569
  325TMC3    C1 4877   2.882   2.843  14.072 -0.6288  0.0999  0.1560
  325TMC3    C2 4878   2.883   2.753  13.968 -0.1260  0.0842  0.1982
  325TMC3    C3 4879   2.802   2.782  13.865  0.5144 -0.0148  0.4645
  325TMC3    C4 4880   2.807   2.958  14.074  0.4764  0.1125 -0.2438
  325TMC3    C5 4881   2.724   2.984  13.958  1.2366  0.8279 -1.3112
  325TMC3    C6 4882   2.721   2.893  13.857  0.0596 -0.5401 -0.1807
  325TMC3     C 4883   2.991   2.829  14.166  0.5812  0.7222  0.9466
  325TMC3     O 4884   3.025   2.928  14.229 -0.2032 -0.4516  0.3164
  325TMC3     H 4885   2.954   2.672  13.959 -0.2911  0.0793 -0.9640
  325TMC3    H1 4886   2.818   3.028  14.156 -2.1875  0.3232 -0.0735
  325TMC3    H2 4887   2.661   2.898  13.767 -0.6734 -0.1440  0.3332
  325TMC3    C7 4888   2.654   3.111  13.945  0.1894  0.3986  0.0082
  325TMC3    C8 4889   2.793   2.685  13.756  0.0173  0.5059  0.1121
  325TMC3    O1 4890   2.639   3.154  13.831 -0.7883  0.4169  0.1989
  325TMC3    O2 4891   2.802   2.737  13.644 -0.6701 -0.1535 -0.4411
  326MPD2     C 4892   4.259   3.965  11.632  0.3615 -0.5023 -0.2800
  326MPD2    C1 4893   4.222   4.015  11.510 -0.6140 -0.2916 -0.0308
  326MPD2    C2 4894   4.302   4.110  11.450  0.3011  0.7545 -0.9673
  326MPD2    C3 4895   4.423   4.144  11.503  0.4605  0.8443 -0.5200
  326MPD2    C4 4896   4.453   4.095  11.624  0.8315  0.4451  0.3352
  326MPD2    C5 4897   4.372   4.005  11.690 -0.3627  0.5117 -0.3122
  326MPD2     H 4898   4.271   4.164  11.361 -2.1068 -2.9362 -2.3700
  326MPD2    H1 4899   4.545   4.122  11.674  0.9924  0.5124  0.0026
  326MPD2    H2 4900   4.197   3.893  11.686  1.2133  1.5889  3.5261
  326MPD2    H3 4901   4.413   3.973  11.786 -0.3844 -0.6177 -0.6748
  326MPD2     N 4902   4.513   4.237  11.447 -0.4133  0.1082  0.5272
  326MPD2    H5 4903   4.596   4.241  11.505  0.0163 -3.3756  0.1619
  326MPD2    N1 4904   4.107   3.961  11.457  0.0630  0.5825  0.0356
  326MPD2    H7 4905   4.074   3.875  11.499  0.4222  0.8690  0.8970
  327TMC3    C1 4906   4.001   3.938  11.249  0.8144  0.1270 -0.0872
  327TMC3    C2 4907   3.952   4.018  11.155  0.0537  0.7225  0.3534
  327TMC3    C3 4908   3.978   4.002  11.022  0.0681 -0.3059 -0.6106
  327TMC3    C4 4909   4.093   3.839  11.214 -0.0923  0.2970  0.5971
  327TMC3    C5 4910   4.133   3.831  11.083 -0.2579 -0.1297  0.0814
  327TMC3    C6 4911   4.061   3.897  10.984 -0.3043 -0.3603  0.3117
  327TMC3     C 4912   4.042   4.020  11.358  0.1115  0.0765 -0.2619
  327TMC3     O 4913   4.038   4.140  11.338  0.1500 -0.2363  0.6702
  327TMC3     H 4914   3.883   4.098  11.181 -1.6003 -0.9185  1.0319
  327TMC3    H1 4915   4.138   3.771  11.285  1.5780 -0.8391 -1.5506
  327TMC3    H2 4916   4.077   3.888  10.877  0.7782 -4.0302  0.7857
  327TMC3    C7 4917   4.210   3.710  11.039 -0.5178 -0.1480  0.1793
  327TMC3    C8 4918   4.040   4.129  10.966 -0.1397 -0.0248  0.4130
  327TMC3    O1 4919   4.176   3.663  10.928  0.5823  0.5839  1.2044
  327TMC3    O2 4920   4.122   4.119  10.877  0.4971 -0.3469 -0.3853
  328MPD2     C 4921   2.510   3.733  17.290 -0.0748 -0.1081  0.4290
  328MPD2    C1 4922   2.424   3.735  17.185  1.2967 -0.4073  0.1258
  328MPD2    C2 4923   2.353   3.858  17.184  0.4829  0.4574  0.6127
  328MPD2    C3 4924   2.342   3.951  17.294 -0.6384  0.1091  0.2223
  328MPD2    C4 4925   2.419   3.920  17.404  0.3748  0.6502  0.0424
  328MPD2    C5 4926   2.515   3.826  17.386  0.5212  0.0675  0.1082
  328MPD2     H 4927   2.297   3.882  17.095 -1.1580  0.2916  1.5878
  328MPD2    H1 4928   2.412   3.975  17.497  1.1187 -0.5857  0.8272
  328MPD2    H2 4929   2.582   3.654  17.307  0.5579  0.4578  0.3857
  328MPD2    H3 4930   2.594   3.824  17.461 -0.8930 -2.0245  1.5670
  328MPD2     N 4931   2.261   4.066  17.291  0.1825  0.6584  0.4024
  328MPD2    H5 4932   2.280   4.136  17.361 -1.0523 -1.2778  2.6797
  328MPD2    N1 4933   2.416   3.634  17.088 -0.6698  0.3903  0.2450
  328MPD2    H7 4934   2.457   3.543  17.108  2.7498  1.6289 -1.0897
  329TMC3    C1 4935   2.388   3.524  16.887  0.6518 -0.4264  0.4817
  329TMC3    C2 4936   2.363   3.415  16.957 -0.1642  1.3264  0.2257
  329TMC3    C3 4937   2.364   3.300  16.889  0.0918 -0.6380 -0.5656
  329TMC3    C4 4938   2.412   3.519  16.748  0.2736 -0.1815 -0.2234
  329TMC3    C5 4939   2.426   3.400  16.686 -0.0978 -0.4780  0.0813
  329TMC3    C6 4940   2.400   3.285  16.759  0.1658 -0.4365 -0.0981
  329TMC3     C 4941   2.367   3.652  16.959 -0.7577  0.5211 -0.3170
  329TMC3     O 4942   2.344   3.746  16.885 -0.2851 -0.4712  0.5319
  329TMC3     H 4943   2.330   3.426  17.060 -0.2668 -0.0546  0.3377
  329TMC3    H1 4944   2.438   3.603  16.685 -1.4364  0.6551  0.1813
  329TMC3    H2 4945   2.416   3.189  16.710  0.3762 -0.3873 -0.1240
  329TMC3    C7 4946   2.493   3.397  16.556 -0.9193  0.8725  0.5756
  329TMC3    C8 4947   2.317   3.184  16.960  0.3068 -0.2643  0.2889
  329TMC3    O1 4948   2.568   3.488  16.522  1.0065  0.2350 -0.5438
  329TMC3    O2 4949   2.288   3.088  16.888 -0.9989  0.0332  0.2239
  330TMC3    C1 4950   0.690   2.974   9.703  0.4319 -0.1395 -0.5781
  330TMC3    C2 4951   0.670   2.854   9.638 -0.1794  0.3687  0.5336
  330TMC3    C3 4952   0.734   2.741   9.671  0.0768 -0.9178 -0.1551
  330TMC3    C4 4953   0.769   2.970   9.813 -0.0677  0.1263  0.7237
  330TMC3    C5 4954   0.824   2.853   9.855 -0.2247 -0.0369 -0.2950
  330TMC3    C6 4955   0.804   2.733   9.786 -0.1752 -0.1070  0.6590
  330TMC3     C 4956   0.606   3.087   9.681 -0.1159  0.1193  0.0254
  330TMC3     O 4957   0.599   3.175   9.764 -0.0124  0.2923 -0.7623
  330TMC3     H 4958   0.606   2.840   9.552  0.4261 -1.2160  0.3477
  330TMC3    H1 4959   0.782   3.066   9.863 -2.5164 -0.0952  1.7747
  330TMC3    H2 4960   0.854   2.644   9.823  0.5183 -0.0557 -0.1577
  330TMC3    C7 4961   0.898   2.845   9.977  0.0451 -0.3813 -0.5344
  330TMC3    C8 4962   0.662   2.625   9.625 -0.6968 -0.2922  0.5303
  330TMC3    O1 4963   0.896   2.746  10.051  0.0843 -0.3997 -0.2564
  330TMC3    O2 4964   0.663   2.611   9.504 -0.4545 -0.2293  0.1170
  331MPD2     C 4965   2.800   2.514  12.459  0.2684  0.0403 -0.8324
  331MPD2    C1 4966   2.906   2.501  12.371  0.1028  0.7214 -0.3507
  331MPD2    C2 4967   2.944   2.369  12.337  0.0149 -0.0357 -0.8259
  331MPD2    C3 4968   2.901   2.254  12.406 -0.5901 -0.1618  0.3625
  331MPD2    C4 4969   2.799   2.273  12.496 -0.2892 -0.3740  0.2811
  331MPD2    C5 4970   2.752   2.400  12.522 -0.3301  0.4949  0.2483
  331MPD2     H 4971   3.006   2.354  12.249 -0.8001 -0.4763 -1.3309
  331MPD2    H1 4972   2.776   2.182  12.549  0.3286 -2.0100 -2.2432
  331MPD2    H2 4973   2.753   2.607  12.488  1.9632  0.3610  0.8789
  331MPD2    H3 4974   2.673   2.416  12.593  0.1717 -2.4765  1.4947
  331MPD2     N 4975   2.972   2.132  12.394 -0.1799 -0.3718 -0.0416
  331MPD2    H5 4976   2.983   2.073  12.476  0.5614  0.1401  0.2244
  331MPD2    N1 4977   2.964   2.617  12.312  0.0327 -0.6762  1.0708
  331MPD2    H7 4978   2.904   2.699  12.303  1.7257  0.5707  1.1604
  332TMC3    C1 4979   3.150   1.996  12.284 -0.6416 -0.4761  0.9350
  332TMC3    C2 4980   3.223   1.974  12.173  1.0581 -0.9996 -0.3622
  332TMC3    C3 4981   3.346   1.922  12.193 -0.3449 -0.7050 -0.4394
  332TMC3    C4 4982   3.203   1.980  12.413  0.0373  0.3129 -0.3805
  332TMC3    C5 4983   3.331   1.933  12.424 -0.7700 -0.1366 -0.1423
  332TMC3    C6 4984   3.401   1.900  12.311 -0.0984 -0.7227  0.3986
  332TMC3     C 4985   3.041   2.094  12.276 -0.7132 -0.0611 -0.4323
  332TMC3     O 4986   3.045   2.159  12.169  0.0631  0.0051  0.3001
  332TMC3     H 4987   3.185   2.004  12.076 -1.5387 -0.2135  0.9085
  332TMC3    H1 4988   3.153   2.010  12.505 -0.5465  1.1569 -0.9712
  332TMC3    H2 4989   3.485   1.835  12.332 -0.5661 -2.2749 -2.5928
  332TMC3    C7 4990   3.412   1.954  12.539 -0.1852 -0.6957  0.5282
  332TMC3    C8 4991   3.451   1.940  12.093  0.4390 -1.1640  0.0124
  332TMC3    O1 4992   3.352   1.954  12.644 -0.1150  0.1685  0.2647
  332TMC3    O2 4993   3.567   1.952  12.127 -0.0249 -0.1791 -0.0228
  333MPD2     C 4994   3.472   2.410  11.065  0.2424 -0.2525 -0.8247
  333MPD2    C1 4995   3.533   2.287  11.037 -0.6133  0.9111 -0.1123
  333MPD2    C2 4996   3.486   2.179  11.103  0.0845  0.3375 -0.5758
  333MPD2    C3 4997   3.363   2.184  11.173 -0.1676 -0.2154 -0.0618
  333MPD2    C4 4998   3.301   2.306  11.199 -0.1459 -0.7386 -0.2504
  333MPD2    C5 4999   3.362   2.417  11.147  0.2454 -0.4964 -0.5625
  333MPD2     H 5000   3.540   2.085  11.093 -0.9679 -0.0904 -2.1789
  333MPD2    H1 5001   3.212   2.320  11.259  1.2982 -0.1088  1.7686
  333MPD2    H2 5002   3.515   2.502  11.027 -0.7852  0.8721  0.7275
  333MPD2    H3 5003   3.317   2.512  11.171  1.8374  0.2071 -0.3942
  333MPD2     N 5004   3.308   2.064  11.214 -0.6155  0.1391 -0.0112
  333MPD2    H5 5005   3.351   1.977  11.184 -1.0913  0.0079 -0.3070
  333MPD2    N1 5006   3.639   2.277  10.939 -0.3069  0.0361  0.1984
  333MPD2    H7 5007   3.638   2.346  10.864 -2.5732 -1.4258 -1.1077
  334TMC3    C1 5008   3.793   2.170  10.793  0.0464 -0.4635 -0.1660
  334TMC3    C2 5009   3.903   2.092  10.789 -0.0383  0.1607 -0.6277
  334TMC3    C3 5010   3.998   2.114  10.688  0.5269 -0.2188 -1.0661
  334TMC3    C4 5011   3.765   2.259  10.696  0.6917  0.3879 -0.1354
  334TMC3    C5 5012   3.863   2.278  10.605  0.1552  0.0290 -0.1013
  334TMC3    C6 5013   3.980   2.208  10.597 -0.5358 -0.4921 -0.1191
  334TMC3     C 5014   3.722   2.172  10.922 -0.2691 -0.1918 -0.1888
  334TMC3     O 5015   3.748   2.090  11.009 -0.2793  0.1055 -0.4087
  334TMC3     H 5016   3.917   2.014  10.863  0.4958 -0.4803 -1.4031
  334TMC3    H1 5017   3.687   2.332  10.716 -0.1643 -1.1462  2.0219
  334TMC3    H2 5018   4.037   2.215  10.505  0.4159 -2.9602  0.2936
  334TMC3    C7 5019   3.872   2.408  10.541  0.1290 -0.3136  0.1794
  334TMC3    C8 5020   4.115   2.032  10.677  0.5138  0.0701  0.0662
  334TMC3    O1 5021   3.983   2.461  10.537  0.1117  0.5623 -0.6933
  334TMC3    O2 5022   4.119   1.927  10.742  0.2521  0.9870  0.4884
  335TMC3    C1 5023   3.120   3.704  17.569  0.2096 -0.1139 -0.0768
  335TMC3    C2 5024   3.003   3.714  17.499 -0.0802 -0.5049 -0.2677
  335TMC3    C3 5025   3.008   3.690  17.364 -0.7557 -0.0507 -0.1515
  335TMC3    C4 5026   3.235   3.652  17.511 -0.7116 -0.7109 -0.7476
  335TMC3    C5 5027   3.237   3.634  17.378 -1.2782 -0.2476  0.4058
  335TMC3    C6 5028   3.123   3.655  17.296 -0.0325 -0.7636  0.2788
  335TMC3     C 5029   3.121   3.765   0.006  0.2143  0.5548 -1.3912
  335TMC3     O 5030   3.026   3.838   0.033 -0.4799 -0.0915 -0.4286
  335TMC3     H 5031   2.913   3.752  17.544  0.5770  0.8539 -0.0828
  335TMC3    H1 5032   3.324   3.614  17.561 -1.3381 -0.3553  0.6300
  335TMC3    H2 5033   3.124   3.625  17.192  0.4173 -0.4434  0.1881
  335TMC3    C7 5034   3.319   3.530  17.324  0.5512 -0.1265  0.8793
  335TMC3    C8 5035   2.884   3.635  17.314 -0.0584  0.5720  0.4501
  335TMC3    O1 5036   3.366   3.554  17.214  0.0805  0.4572 -0.4189
  335TMC3    O2 5037   2.799   3.589  17.394  0.0433 -0.0662  0.3281
  336MPD2     C 5038   3.134   1.561  16.264  0.1370 -0.5470 -0.1112
  336MPD2    C1 5039   3.124   1.475  16.158 -1.1732  0.0618  0.6215
  336MPD2    C2 5040   3.180   1.350  16.163  0.0782 -0.8532 -0.6525
  336MPD2    C3 5041   3.219   1.302  16.286  0.8121  0.2438  0.4637
  336MPD2    C4 5042   3.196   1.376  16.397 -0.3404  0.5086  0.1146
  336MPD2    C5 5043   3.165   1.509  16.388 -0.2090  0.1862  0.1528
  336MPD2     H 5044   3.185   1.287  16.075  0.3774 -2.7148  0.6908
  336MPD2    H1 5045   3.229   1.342  16.494 -0.9150 -1.3054 -0.3338
  336MPD2    H2 5046   3.111   1.667  16.270 -1.1679 -0.7469 -1.5686
  336MPD2    H3 5047   3.154   1.568  16.478 -1.4049 -0.5490  0.4921
  336MPD2     N 5048   3.274   1.176  16.306 -0.0439  0.0917  0.1437
  336MPD2    H5 5049   3.292   1.144  16.401 -0.2966 -0.5389 -0.0262
  336MPD2    N1 5050   3.072   1.520  16.031  0.5347  0.2227 -0.9547
  336MPD2    H7 5051   3.080   1.456  15.952 -0.7310 -1.8382  0.5915
  337TMC3    C1 5052   2.977   1.678  15.879  0.3192 -0.0453 -0.5721
  337TMC3    C2 5053   2.859   1.614  15.843 -1.5234 -0.2593 -0.1051
  337TMC3    C3 5054   2.772   1.686  15.767  0.0210 -0.2181 -0.0486
  337TMC3    C4 5055   3.012   1.803  15.843  0.0581 -0.2957 -0.6071
  337TMC3    C5 5056   2.922   1.864  15.765  0.8886  0.1819  0.8096
  337TMC3    C6 5057   2.803   1.806  15.722  0.4829  0.5334 -0.1263
  337TMC3     C 5058   3.025   1.647  16.009  0.2598  0.4094  0.6477
  337TMC3     O 5059   3.010   1.740  16.087 -0.2307  0.7500  0.1059
  337TMC3     H 5060   2.836   1.516  15.883  0.7756 -1.6987 -2.3139
  337TMC3    H1 5061   3.103   1.851  15.875 -0.8438  1.3173 -0.4526
  337TMC3    H2 5062   2.725   1.866  15.676  0.3287  0.8395  0.5336
  337TMC3    C7 5063   2.926   2.002  15.760  0.4801 -0.2319  0.2534
  337TMC3    C8 5064   2.640   1.631  15.754  0.1886 -0.4014 -0.1219
  337TMC3    O1 5065   2.823   2.061  15.745  0.5579 -0.4140 -0.0423
  337TMC3    O2 5066   2.590   1.590  15.857 -0.1441  0.1436  0.6374
  338MPD2     C 5067   3.642   1.130   0.814  0.3097  0.2496 -0.0635
  338MPD2    C1 5068   3.592   1.002   0.800 -0.3983  0.0046 -0.6869
  338MPD2    C2 5069   3.578   0.924   0.906 -0.3050 -0.3463  0.1619
  338MPD2    C3 5070   3.608   0.973   1.034  0.1277 -0.0965  0.4299
  338MPD2    C4 5071   3.669   1.098   1.043 -0.1360 -0.8875  0.1332
  338MPD2    C5 5072   3.670   1.181   0.937 -0.6998 -0.5787 -0.0915
  338MPD2     H 5073   3.519   0.832   0.904 -1.4761  0.3578  2.0686
  338MPD2    H1 5074   3.685   1.139   1.142  1.4249  2.8708 -1.6852
  338MPD2    H2 5075   3.667   1.195   0.731 -1.2502 -1.1891 -1.6607
  338MPD2    H3 5076   3.709   1.281   0.950  1.0044 -1.2049 -0.3327
  338MPD2     N 5077   3.553   0.903   1.146  0.3161  0.0275 -0.1961
  338MPD2    H5 5078   3.482   0.833   1.125  0.6840 -0.1181 -0.9584
  338MPD2    N1 5079   3.558   0.946   0.676  0.8783  0.1310 -0.4553
  338MPD2    H7 5080   3.500   0.863   0.688  0.8795  0.2280  0.2009
  339TMC3    C1 5081   3.451   0.888   1.349  0.0459  0.0465  0.2488
  339TMC3    C2 5082   3.427   0.960   1.464 -0.0129 -0.0064  0.2643
  339TMC3    C3 5083   3.299   1.003   1.488  0.5355 -0.3880  0.8108
  339TMC3    C4 5084   3.347   0.852   1.273 -0.4500 -0.1439  0.9619
  339TMC3    C5 5085   3.218   0.903   1.295  0.3981  0.1641  0.2059
  339TMC3    C6 5086   3.194   0.977   1.404  0.4915 -0.2845 -0.1586
  339TMC3     C 5087   3.567   0.939   1.275 -0.0828 -0.3073  0.2992
  339TMC3     O 5088   3.643   1.015   1.328 -0.5038 -0.2775 -0.0760
  339TMC3     H 5089   3.500   1.005   1.531  0.9995  0.1318 -0.9487
  339TMC3    H1 5090   3.363   0.778   1.196  3.0330 -1.1184  2.6225
  339TMC3    H2 5091   3.105   1.036   1.418 -0.2060 -1.0554 -1.3117
  339TMC3    C7 5092   3.172   0.966   1.177 -0.2223 -0.3983  1.1286
  339TMC3    C8 5093   3.290   1.128   1.571 -0.1182 -0.1853 -0.0120
  339TMC3    O1 5094   3.166   1.086   1.181 -0.5668  0.3984 -0.3063
  339TMC3    O2 5095   3.380   1.207   1.579  0.1587  0.5424 -0.4629
  340MPD2     C 5096   4.305   2.272   9.553  0.8012 -0.4836 -0.0368
  340MPD2    C1 5097   4.182   2.231   9.601 -0.0368  0.2784 -0.0755
  340MPD2    C2 5098   4.172   2.187   9.733  0.7493  0.2457  0.4598
  340MPD2    C3 5099   4.284   2.181   9.815  0.4765 -0.2103 -0.1033
  340MPD2    C4 5100   4.410   2.210   9.759  0.3621 -0.1301 -0.4421
  340MPD2    C5 5101   4.419   2.253   9.627 -0.7152  0.4706  0.4057
  340MPD2     H 5102   4.072   2.162   9.766  0.0664  0.7237 -1.2275
  340MPD2    H1 5103   4.498   2.196   9.820  0.3673 -0.6894 -0.5792
  340MPD2    H2 5104   4.304   2.296   9.447 -0.3418  0.9294  0.3042
  340MPD2    H3 5105   4.517   2.257   9.580 -0.3606 -0.7703  1.0496
  340MPD2     N 5106   4.279   2.154   9.952 -0.1150 -0.5172  0.3095
  340MPD2    H5 5107   4.370   2.149   9.997 -1.7676 -1.7898  3.5780
  340MPD2    N1 5108   4.070   2.241   9.511  0.3304 -0.3892  0.2365
  340MPD2    H7 5109   4.077   2.288   9.421 -0.7950  0.5978  0.6733
  341TMC3    C1 5110   3.860   2.213   9.410  0.0404  0.1620 -0.5094
  341TMC3    C2 5111   3.749   2.143   9.399 -0.0765  0.4031 -0.1852
  341TMC3    C3 5112   3.659   2.190   9.303  0.2091  0.3437 -0.4202
  341TMC3    C4 5113   3.878   2.334   9.345 -0.3436  0.0812  0.3623
  341TMC3    C5 5114   3.795   2.383   9.258 -0.4115 -0.4032  0.9225
  341TMC3    C6 5115   3.681   2.305   9.227  0.6499  0.2622 -0.2024
  341TMC3     C 5116   3.947   2.177   9.522 -0.1728  0.1542  0.2630
  341TMC3     O 5117   3.904   2.103   9.608 -0.5079 -0.0744 -0.0383
  341TMC3     H 5118   3.721   2.058   9.460 -2.5026 -0.5063 -2.5467
  341TMC3    H1 5119   3.952   2.405   9.380  0.8999 -0.5425 -1.0035
  341TMC3    H2 5120   3.607   2.341   9.155  0.5333 -0.8222 -0.6308
  341TMC3    C7 5121   3.852   2.482   9.161  0.5991  0.2776  1.1020
  341TMC3    C8 5122   3.523   2.139   9.322 -0.0186  0.5438 -0.2209
  341TMC3    O1 5123   3.966   2.519   9.183 -0.6301 -0.2856 -0.0454
  341TMC3    O2 5124   3.517   2.031   9.378 -0.3129  0.2037  0.1669
  342MPD2     C 5125   1.527   1.693  17.697 -0.5473  0.8536  0.9062
  342MPD2    C1 5126   1.510   1.721  17.566  0.8436 -0.4297  0.8155
  342MPD2    C2 5127   1.425   1.817  17.523  0.2740 -0.5096  0.4982
  342MPD2    C3 5128   1.365   1.895  17.627 -0.3237 -0.1962 -0.1182
  342MPD2    C4 5129   1.371   1.858   0.058 -0.6120  0.0289 -0.0921
  342MPD2    C5 5130   1.442   1.745   0.093 -0.3895  0.1300 -0.1291
  342MPD2     H 5131   1.411   1.837  17.417 -0.7585 -1.6351  0.4156
  342MPD2    H1 5132   1.321   1.903   0.143 -0.0828 -0.4434  0.4739
  342MPD2    H2 5133   1.609   1.624   0.012 -0.7325  0.2589 -1.0473
  342MPD2    H3 5134   1.449   1.708   0.194  0.9145  1.5437  0.3088
  342MPD2     N 5135   1.295   2.013  17.594  0.0397  0.8150  0.8942
  342MPD2    H5 5136   1.239   2.052  17.670 -1.6076 -0.2003  0.1874
  342MPD2    N1 5137   1.579   1.650  17.461 -0.7191  0.3110  0.3093
  342MPD2    H7 5138   1.540   1.655  17.368  2.1009  1.9087 -0.7676
  343TMC3    C1 5139   1.744   1.521  17.358  0.0022 -0.1665  0.3711
  343TMC3    C2 5140   1.882   1.498  17.344  0.2685  0.5674 -0.1590
  343TMC3    C3 5141   1.923   1.391  17.259 -0.5173  0.2011  0.9857
  343TMC3    C4 5142   1.656   1.451  17.281 -0.2855  0.0712 -0.5221
  343TMC3    C5 5143   1.699   1.354  17.196 -0.2180 -0.1334  0.6394
  343TMC3    C6 5144   1.827   1.322  17.184  0.3315  0.0112  0.0930
  343TMC3     C 5145   1.701   1.592  17.472 -0.1273 -0.4804  0.0881
  343TMC3     O 5146   1.771   1.597  17.570 -0.1070 -0.1386  0.5878
  343TMC3     H 5147   1.958   1.556  17.395 -1.3334  0.4699  2.3366
  343TMC3    H1 5148   1.549   1.444  17.302 -0.1295  1.3095  0.6751
  343TMC3    H2 5149   1.851   1.247  17.109  2.2528  0.8933 -0.1944
  343TMC3    C7 5150   1.598   1.259  17.147 -0.4498 -0.1232  0.4413
  343TMC3    C8 5151   2.060   1.379  17.210 -0.5114 -0.4281 -0.0434
  343TMC3    O1 5152   1.620   1.196  17.047 -0.4969  0.0661  0.6923
  343TMC3    O2 5153   2.130   1.464  17.263 -0.5904 -0.5688  1.0419
  344MPD2     C 5154   2.240   1.652  10.654 -0.8757  0.6279  0.8800
  344MPD2    C1 5155   2.195   1.567  10.557  0.3087 -0.8101 -0.5779
  344MPD2    C2 5156   2.201   1.609  10.428 -0.3853 -0.5799  0.1571
  344MPD2    C3 5157   2.254   1.732  10.396  0.0248 -0.0387 -0.0853
  344MPD2    C4 5158   2.285   1.819  10.498  0.1432  0.5815  0.7011
  344MPD2    C5 5159   2.288   1.774  10.628 -0.1112 -0.4063  0.4094
  344MPD2     H 5160   2.180   1.540  10.347 -1.0213  0.1194 -0.2776
  344MPD2    H1 5161   2.336   1.914  10.488  0.1506  0.3540 -1.4447
  344MPD2    H2 5162   2.241   1.618  10.757 -2.5643  0.8740  0.9881
  344MPD2    H3 5163   2.330   1.826  10.713  4.2013 -2.1377 -0.6668
  344MPD2     N 5164   2.258   1.794  10.264  0.9600  0.1040  0.1687
  344MPD2    H5 5165   2.283   1.892  10.261 -2.5514  1.0208  0.7109
  344MPD2    N1 5166   2.150   1.434  10.584  0.0047  0.6210  0.1694
  344MPD2    H7 5167   2.133   1.378  10.501  1.9221  1.5427 -0.8434
  345TMC3    C1 5168   2.246   1.833  10.036 -0.1324  0.1006  0.0194
  345TMC3    C2 5169   2.375   1.889  10.023  0.0780 -0.2777 -0.2542
  345TMC3    C3 5170   2.391   1.979   9.921 -0.1511 -0.1790  0.2839
  345TMC3    C4 5171   2.149   1.860   9.944  0.2713  0.4048 -0.1057
  345TMC3    C5 5172   2.172   1.948   9.845  0.2871 -0.1117  0.2334
  345TMC3    C6 5173   2.292   2.010   9.836  0.0269  0.0218 -0.5417
  345TMC3     C 5174   2.214   1.739  10.142 -0.0027  0.0021  0.0673
  345TMC3     O 5175   2.155   1.639  10.120  0.3127  0.1155 -0.3997
  345TMC3     H 5176   2.447   1.883  10.104 -0.8122  2.1075  0.7505
  345TMC3    H1 5177   2.054   1.808   9.940  0.3352  0.2614  0.2752
  345TMC3    H2 5178   2.294   2.093   9.766  2.5425  0.3427 -0.0937
  345TMC3    C7 5179   2.058   2.038   9.849 -0.3218  0.4312 -0.7349
  345TMC3    C8 5180   2.493   2.073   9.949 -0.6661  0.3048  0.0611
  345TMC3    O1 5181   2.075   2.144   9.904 -0.2688  0.1733 -0.0548
  345TMC3    O2 5182   2.537   2.087  10.064  0.3056  0.0041  0.6309
  346MPD2     C 5183   1.682   3.505  14.282  0.8710  0.7376  0.2253
  346MPD2    C1 5184   1.784   3.413  14.250  0.0847  0.1617  0.4080
  346MPD2    C2 5185   1.905   3.415  14.322 -0.0108 -0.3719  0.3347
  346MPD2    C3 5186   1.924   3.514  14.418 -0.1822  0.2721 -0.2189
  346MPD2    C4 5187   1.818   3.597  14.451 -0.9598  0.0203 -1.0486
  346MPD2    C5 5188   1.697   3.591  14.386  0.1451 -0.0511  0.4151
  346MPD2     H 5189   1.990   3.352  14.297 -1.0630 -2.3571  1.8181
  346MPD2    H1 5190   1.823   3.677  14.525  2.4361 -0.5424 -0.6742
  346MPD2    H2 5191   1.596   3.518  14.216  0.1066 -3.0872  0.4375
  346MPD2    H3 5192   1.615   3.660  14.405 -1.1883 -1.3438 -0.6125
  346MPD2     N 5193   2.047   3.529  14.486  0.1341  0.4372 -0.1414
  346MPD2    H5 5194   2.129   3.476  14.459  0.7998  1.3328  0.1509
  346MPD2    N1 5195   1.766   3.336  14.134 -0.0325  0.4872 -0.2556
  346MPD2    H7 5196   1.685   3.357  14.076 -0.9945 -1.5418  0.3681
  347TMC3    C1 5197   2.221   3.624  14.620 -0.6817  0.6106 -0.3865
  347TMC3    C2 5198   2.313   3.586  14.527 -0.2698  0.1910  0.0928
  347TMC3    C3 5199   2.441   3.569  14.563 -0.8254  0.0535 -0.2438
  347TMC3    C4 5200   2.253   3.667  14.744  0.3932 -0.0428  0.4461
  347TMC3    C5 5201   2.386   3.647  14.776 -0.1676 -0.0736  0.3976
  347TMC3    C6 5202   2.482   3.594  14.691 -0.1068  0.9247 -0.0144
  347TMC3     C 5203   2.076   3.612  14.592 -0.3834 -0.1601  0.3668
  347TMC3     O 5204   1.998   3.665  14.671 -0.0782  0.4160  0.5394
  347TMC3     H 5205   2.275   3.557  14.430  0.6426  0.0315 -0.2168
  347TMC3    H1 5206   2.175   3.707  14.808  0.7135 -1.5127  1.7632
  347TMC3    H2 5207   2.589   3.589  14.708 -0.4760  0.3460  2.1610
  347TMC3    C7 5208   2.416   3.685  14.907 -0.5096  1.2424  0.5778
  347TMC3    C8 5209   2.514   3.481  14.474 -0.5298  0.1057 -0.0254
  347TMC3    O1 5210   2.320   3.706  14.983  0.4475  0.0043 -0.1202
  347TMC3    O2 5211   2.548   3.365  14.504  0.4861  0.1488 -0.4581
  348MPD2     C 5212   0.696   2.664  11.881  0.5680 -0.6139  0.3019
  348MPD2    C1 5213   0.809   2.736  11.854  0.1723  0.4433 -0.0525
  348MPD2    C2 5214   0.827   2.785  11.727 -0.1370  0.0306  0.4747
  348MPD2    C3 5215   0.735   2.767  11.625 -0.1284  0.6380  0.9970
  348MPD2    C4 5216   0.629   2.679  11.653 -0.4757  0.1895  1.0119
  348MPD2    C5 5217   0.608   2.629  11.780 -0.5221  0.6015  0.4080
  348MPD2     H 5218   0.912   2.852  11.713  0.5912 -1.0990 -0.5408
  348MPD2    H1 5219   0.549   2.654  11.584 -0.2242  0.5148  0.5955
  348MPD2    H2 5220   0.670   2.622  11.977 -1.8825  0.7254  0.2204
  348MPD2    H3 5221   0.522   2.566  11.797  0.6471 -1.2407 -0.4451
  348MPD2     N 5222   0.742   2.845  11.504 -0.5050 -0.3165 -0.7959
  348MPD2    H5 5223   0.810   2.920  11.506 -1.0688  0.1770  0.0127
  348MPD2    N1 5224   0.917   2.752  11.950  0.2827 -0.1838  0.3762
  348MPD2    H7 5225   1.002   2.795  11.915  0.0892  0.1262  0.2873
  349TMC3    C1 5226   1.058   2.725  12.136 -0.0380  0.2075 -0.0421
  349TMC3    C2 5227   1.090   2.636  12.236 -0.3770  0.5140 -1.1922
  349TMC3    C3 5228   1.217   2.592  12.246  1.0838 -0.1649  1.0275
  349TMC3    C4 5229   1.157   2.770  12.054  0.4656 -0.6360 -0.1074
  349TMC3    C5 5230   1.285   2.714  12.058  0.0717  0.5203 -0.0033
  349TMC3    C6 5231   1.307   2.621  12.153 -0.3077 -0.7427  0.6621
  349TMC3     C 5232   0.922   2.708  12.082 -0.1912  0.4817  0.0743
  349TMC3     O 5233   0.846   2.644  12.154  0.2611 -0.9383  0.3865
  349TMC3     H 5234   1.017   2.596  12.305  1.6841 -2.4205 -0.7008
  349TMC3    H1 5235   1.141   2.859  11.993  2.1987  1.2273  2.1677
  349TMC3    H2 5236   1.406   2.579  12.170  0.7722  1.4937 -0.1300
  349TMC3    C7 5237   1.409   2.789  12.015 -0.1458 -0.1995  0.0694
  349TMC3    C8 5238   1.242   2.472  12.318 -0.5813 -0.0053 -0.0750
  349TMC3    O1 5239   1.505   2.790  12.089 -0.6219  0.2413  0.0065
  349TMC3    O2 5240   1.171   2.460  12.419  0.2906 -0.0780  0.0012
  350MPD2     C 5241   0.020   1.049   9.892  0.5140 -0.2140  0.6655
  350MPD2    C1 5242   0.077   0.928   9.931 -0.2415  0.0846 -0.2392
  350MPD2    C2 5243   0.214   0.903   9.909  0.6850  0.4317  0.6939
  350MPD2    C3 5244   0.290   1.008   9.848  0.2754 -0.1818 -0.1842
  350MPD2    C4 5245   0.229   1.123   9.810  0.1541  0.0731  0.6067
  350MPD2    C5 5246   0.097   1.144   9.834  0.0379 -0.0398 -0.2114
  350MPD2     H 5247   0.266   0.814   9.944 -0.2408 -0.8113 -1.0663
  350MPD2    H1 5248   0.290   1.200   9.763 -1.8756  1.6529  0.5500
  350MPD2    H2 5249   4.644   1.080   9.918  0.3473  0.3051 -0.6291
  350MPD2    H3 5250   0.056   1.242   9.811  1.8320  1.0417  1.2341
  350MPD2     N 5251   0.430   0.993   9.847  1.0047  0.0744 -0.6522
  350MPD2    H5 5252   0.458   0.902   9.882 -0.6534 -0.4025 -0.5584
  350MPD2    N1 5253   4.718   0.828   9.980  0.8770 -0.6051  0.3702
  350MPD2    H7 5254   0.035   0.735   9.984  0.7149 -0.5946  2.0727
  351TMC3    C1 5255   4.519   0.718  10.047 -0.1207  0.3466 -0.1583
  351TMC3    C2 5256   4.563   0.593  10.008 -0.0999  0.1245 -0.2969
  351TMC3    C3 5257   4.476   0.489  10.013  0.6590  0.2173  0.4762
  351TMC3    C4 5258   4.390   0.729  10.092 -0.1909 -0.0647 -0.6203
  351TMC3    C5 5259   4.304   0.619  10.095  0.5013 -0.1951  0.8597
  351TMC3    C6 5260   4.341   0.499  10.055  0.3142  0.3457 -0.0675
  351TMC3     C 5261   4.583   0.841  10.012  0.1840  0.1171  0.4788
  351TMC3     O 5262   4.521   0.940  10.047  0.2839  0.0457 -0.5308
  351TMC3     H 5263   4.664   0.570   9.980 -0.2922 -0.3291 -0.6175
  351TMC3    H1 5264   4.355   0.820  10.138  0.9590  0.5226 -0.9100
  351TMC3    H2 5265   4.284   0.409  10.077 -0.3181  0.9074  0.5868
  351TMC3    C7 5266   4.168   0.639  10.130 -0.2012 -0.1211  0.3938
  351TMC3    C8 5267   4.521   0.346  10.004  0.5446  0.0448 -0.5071
  351TMC3    O1 5268   4.117   0.752  10.110  0.2888  0.2497  0.4826
  351TMC3    O2 5269   4.441   0.272   9.950  0.1137  0.5358 -0.1768
  352MPD2     C 5270   2.989   3.407   1.498  0.1833 -0.3124  0.2820
  352MPD2    C1 5271   2.857   3.391   1.452  0.2492  0.2867  0.0962
  352MPD2    C2 5272   2.770   3.312   1.524  0.5565  0.0451  0.0348
  352MPD2    C3 5273   2.811   3.240   1.638  0.0276  0.2382  0.3566
  352MPD2    C4 5274   2.935   3.269   1.692 -0.8339 -0.7455 -0.3126
  352MPD2    C5 5275   3.019   3.349   1.622  0.4256 -0.0868  0.6351
  352MPD2     H 5276   2.671   3.309   1.480  1.0352 -2.6581 -0.8118
  352MPD2    H1 5277   2.967   3.219   1.783  1.8524  2.2497  0.3640
  352MPD2    H2 5278   3.059   3.475   1.452 -0.4244 -0.6237 -1.1191
  352MPD2    H3 5279   3.117   3.373   1.661  0.0347 -0.3695  1.7886
  352MPD2     N 5280   2.724   3.142   1.698 -0.3206  0.6517  0.0308
  352MPD2    H5 5281   2.762   3.102   1.783 -0.0249 -2.8217 -1.7503
  352MPD2    N1 5282   2.830   3.442   1.325  0.9394 -0.3238  0.5421
  352MPD2    H7 5283   2.910   3.483   1.278  1.0279 -1.2209 -0.1016
  353TMC3    C1 5284   2.535   2.999   1.736 -0.0019 -0.5165  0.4086
  353TMC3    C2 5285   2.569   2.962   1.864 -0.1702 -0.1897  0.3541
  353TMC3    C3 5286   2.523   2.845   1.916  0.0948 -0.3321  0.8413
  353TMC3    C4 5287   2.444   2.926   1.665 -0.0616  0.0794 -0.5830
  353TMC3    C5 5288   2.391   2.813   1.724 -0.0666  0.2528  0.0467
  353TMC3    C6 5289   2.447   2.763   1.840 -0.7893 -0.9976 -0.9608
  353TMC3     C 5290   2.600   3.105   1.655 -0.0215 -0.8404  0.1622
  353TMC3     O 5291   2.532   3.138   1.561  0.4710  0.9500  0.8999
  353TMC3     H 5292   2.623   3.030   1.929  0.5156 -0.6932  0.3057
  353TMC3    H1 5293   2.443   2.934   1.557  3.2456 -1.7302 -0.7479
  353TMC3    H2 5294   2.416   2.663   1.866 -1.7992 -0.2994  0.5253
  353TMC3    C7 5295   2.289   2.724   1.659  0.0845  0.2246 -0.2312
  353TMC3    C8 5296   2.578   2.794   2.040 -0.0728  0.0786  0.0449
  353TMC3    O1 5297   2.271   2.607   1.690  0.1270  0.0005 -0.1098
  353TMC3    O2 5298   2.633   2.880   2.109 -1.0733 -0.4242  0.3491
  354TMC3    C1 5299   0.043   4.063  13.741 -0.2184  0.5025 -0.8461
  354TMC3    C2 5300   0.021   4.199  13.726 -0.0428 -0.6578 -0.3720
  354TMC3    C3 5301   0.029   4.248  13.596  0.4299 -0.0046 -0.0659
  354TMC3    C4 5302   0.057   3.972  13.636 -0.1799 -0.3029 -0.1794
  354TMC3    C5 5303   0.080   4.033  13.515 -0.2858  0.2142 -0.2223
  354TMC3    C6 5304   0.058   4.164  13.492 -0.0537  0.3912  0.1019
  354TMC3     C 5305   0.026   3.998  13.870 -0.1469  0.5341 -0.4600
  354TMC3     O 5306   4.714   3.881  13.878 -0.4458 -0.3705 -0.2869
  354TMC3     H 5307   0.002   4.259  13.813 -2.3522 -1.7155 -0.1241
  354TMC3    H1 5308   0.092   3.872  13.654  0.5881  0.7879  4.4267
  354TMC3    H2 5309   0.051   4.206  13.393  2.1069  2.0557  0.6542
  354TMC3    C7 5310   0.128   3.946  13.408 -0.4470 -0.6971  0.0323
  354TMC3    C8 5311   0.074   4.391  13.577  0.0380 -0.8868  0.6744
  354TMC3    O1 5312   0.135   3.828  13.439  0.1505  0.0489 -0.2085
  354TMC3    O2 5313   0.110   4.413  13.466  0.0475 -0.2317  0.5962
  355MPD2     C 5314   0.710   4.626  12.423  0.3675  0.2275  0.1908
  355MPD2    C1 5315   0.661   4.669  12.301 -0.5366  0.4409  0.3769
  355MPD2    C2 5316   0.750   4.689  12.195  0.2574  0.2110  0.7550
  355MPD2    C3 5317   0.893   4.679  12.214 -0.4708  0.0252  0.1402
  355MPD2    C4 5318   0.932   4.619  12.333  0.4314 -0.3920 -0.9110
  355MPD2    C5 5319   0.844   4.606  12.440 -0.2114 -0.3039 -0.4214
  355MPD2     H 5320   0.715   0.017  12.108  2.6310 -1.4442 -1.2081
  355MPD2    H1 5321   1.038   4.605  12.350 -0.0362  0.7521  2.9200
  355MPD2    H2 5322   0.645   4.608  12.508 -0.9077  4.4419  0.1297
  355MPD2    H3 5323   0.890   4.580  12.534  0.4293  3.2218  0.2402
  355MPD2     N 5324   0.988   0.026  12.136 -0.3070 -0.2629  0.1439
  355MPD2    H5 5325   1.083   0.026  12.170  0.1088 -1.8282 -1.0286
  355MPD2    N1 5326   0.527   4.709  12.294 -0.2311 -0.2250 -0.1122
  355MPD2    H7 5327   0.478   0.000  12.382 -0.0456  0.4412 -0.1227
  356TMC3    C1 5328   1.045   0.215  12.005 -0.5447  0.5385 -0.0144
  356TMC3    C2 5329   1.029   0.287  11.895  0.3249 -0.6136  0.2942
  356TMC3    C3 5330   1.037   0.422  11.906 -0.0622  0.3649  0.7860
  356TMC3    C4 5331   1.081   0.275  12.125  0.5301 -0.2795  0.3047
  356TMC3    C5 5332   1.090   0.409  12.133 -0.3418  0.2624 -0.2001
  356TMC3    C6 5333   1.049   0.487  12.027  0.1028  0.9536  0.0984
  356TMC3     C 5334   0.961   0.102  12.025 -0.2945  0.5987  0.0028
  356TMC3     O 5335   0.877   0.079  11.935  0.0807  0.5044 -0.5550
  356TMC3     H 5336   1.002   0.240  11.801  3.7362 -0.8550 -0.5502
  356TMC3    H1 5337   1.112   0.226  12.216 -0.8397 -1.9008 -0.1012
  356TMC3    H2 5338   1.027   0.593  12.032 -3.9488  0.1730 -1.1138
  356TMC3    C7 5339   1.107   0.466  12.262  0.1676  0.5031  0.2750
  356TMC3    C8 5340   1.030   0.496  11.779 -0.0483 -0.4321  0.2218
  356TMC3    O1 5341   1.118   0.392  12.357  0.4513  0.1067  0.3133
  356TMC3    O2 5342   1.002   0.426  11.678  0.1080 -0.4551  0.0354
  357MPD2     C 5343   0.012   4.505   2.207  0.5533  0.2472 -0.6662
  357MPD2    C1 5344   4.696   4.442   2.089  0.2162 -0.3640  0.1783
  357MPD2    C2 5345   4.569   4.381   2.082  0.4951 -0.9734 -0.6046
  357MPD2    C3 5346   4.476   4.394   2.186  0.0386  0.3974 -0.4717
  357MPD2    C4 5347   4.520   4.455   2.304  0.7046 -0.5017 -0.7582
  357MPD2    C5 5348   4.647   4.513   2.313  0.4877 -0.1283  0.3081
  357MPD2     H 5349   4.527   4.342   1.990  1.1791  0.5268 -1.5557
  357MPD2    H1 5350   4.451   4.462   2.388  0.6140  1.4910 -1.0147
  357MPD2    H2 5351   0.104   4.559   2.225  0.4347  0.6988 -1.4102
  357MPD2    H3 5352   4.678   4.567   2.402  1.4911 -0.2734  0.0425
  357MPD2     N 5353   4.342   4.348   2.181 -0.4522  0.1492 -0.4048
  357MPD2    H5 5354   4.278   4.374   2.255 -1.5817 -1.2477 -0.8950
  357MPD2    N1 5355   0.057   4.458   1.973 -0.1195  0.1418 -0.3288
  357MPD2    H7 5356   0.144   4.508   1.985  1.0443 -2.2299  0.9882
  358TMC3    C1 5357   0.141   4.437   1.756 -0.0308 -0.7254 -0.5180
  358TMC3    C2 5358   0.107   4.408   1.627  0.1316  0.3196 -0.6740
  358TMC3    C3 5359   0.202   4.443   1.535  0.3777  0.1436  0.1341
  358TMC3    C4 5360   0.253   4.505   1.799  0.4921 -0.8042 -0.1739
  358TMC3    C5 5361   0.343   4.535   1.696 -0.7155 -0.5139  0.1631
  358TMC3    C6 5362   0.319   4.505   1.568  1.2335 -0.3084  0.3545
  358TMC3     C 5363   0.034   4.406   1.850 -0.4077 -0.0870 -0.2853
  358TMC3     O 5364   4.661   4.342   1.808 -0.3865  0.0531 -0.2055
  358TMC3     H 5365   0.015   4.359   1.599 -0.0743  0.3152  0.0285
  358TMC3    H1 5366   0.272   4.533   1.902 -2.1475 -0.4596  0.2327
  358TMC3    H2 5367   0.377   4.558   1.493  0.8168 -2.3760 -1.4453
  358TMC3    C7 5368   0.470   4.573   1.748  0.1274 -0.1652 -0.4803
  358TMC3    C8 5369   0.190   4.400   1.394  0.6656 -0.1323 -0.3448
  358TMC3    O1 5370   0.473   4.598   1.868  0.4434  0.5139 -0.3702
  358TMC3    O2 5371   0.285   4.383   1.325 -0.3220  0.7517 -0.3420
  359MPD2     C 5372   0.261   3.310  12.408  0.9015 -0.1952 -0.4650
  359MPD2    C1 5373   0.314   3.306  12.275  0.4193  0.2405 -0.3114
  359MPD2    C2 5374   0.286   3.417  12.193  0.0326  0.3509  0.1272
  359MPD2    C3 5375   0.230   3.537  12.239 -0.8251  0.1881  0.2651
  359MPD2    C4 5376   0.191   3.542  12.369 -0.6840  0.1958  0.3193
  359MPD2    C5 5377   0.195   3.426  12.448 -0.0142  0.0056 -0.4250
  359MPD2     H 5378   0.322   3.404  12.092 -0.0081 -1.7404  0.3746
  359MPD2    H1 5379   0.140   3.631  12.403  3.8281  3.4577 -1.4302
  359MPD2    H2 5380   0.261   3.217  12.464  0.5147 -0.8957 -1.6162
  359MPD2    H3 5381   0.165   3.430  12.552 -3.4789  1.6025 -1.5201
  359MPD2     N 5382   0.213   3.656  12.167 -0.4779 -0.2473  0.0943
  359MPD2    H5 5383   0.177   3.733  12.222 -0.8806 -1.3162  1.3380
  359MPD2    N1 5384   0.386   3.197  12.215 -0.1362  0.5412  0.3152
  359MPD2    H7 5385   0.396   3.202  12.114  2.4129 -0.7921  0.5008
  360TMC3    C1 5386   0.537   3.029  12.195 -0.2095 -0.8696 -0.3201
  360TMC3    C2 5387   0.665   3.037  12.240  0.7487  0.1957  0.1628
  360TMC3    C3 5388   0.768   3.040  12.149  0.4314  0.0457  0.1369
  360TMC3    C4 5389   0.510   3.017  12.059  0.3579  0.1470  0.4548
  360TMC3    C5 5390   0.617   3.019  11.971  0.4207 -0.1019  0.0547
  360TMC3    C6 5391   0.745   3.032  12.015  0.5821  0.7492 -0.0907
  360TMC3     C 5392   0.450   3.099  12.283  0.3341 -0.8651 -0.0451
  360TMC3     O 5393   0.459   3.088  12.402  0.1403  0.1330 -0.2687
  360TMC3     H 5394   0.677   3.077  12.340 -2.2229  1.5600 -0.0280
  360TMC3    H1 5395   0.406   3.015  12.029  1.0858 -2.3472 -1.9061
  360TMC3    H2 5396   0.824   3.006  11.945  0.0452  1.5874 -1.0139
  360TMC3    C7 5397   0.603   3.027  11.830 -0.2950 -0.2472  0.5513
  360TMC3    C8 5398   0.896   3.058  12.204 -0.1980 -0.4857 -0.6507
  360TMC3    O1 5399   0.674   3.120  11.785  0.2517  0.4588  0.7638
  360TMC3    O2 5400   0.907   3.055  12.330  0.1146  0.1506  0.4951
  361MPD2     C 5401   1.795   2.098  16.911  0.1298  0.3761  0.1852
  361MPD2    C1 5402   1.844   2.225  16.937  0.1777 -0.4349  0.4902
  361MPD2    C2 5403   1.978   2.257  16.922  0.3041  0.2188 -0.6255
  361MPD2    C3 5404   2.065   2.164  16.877  0.1585  0.6051 -0.4021
  361MPD2    C4 5405   2.016   2.036  16.841 -0.2208  0.3945 -0.1956
  361MPD2    C5 5406   1.885   2.009  16.853 -0.7746 -0.5888  0.3980
  361MPD2     H 5407   2.016   2.356  16.944  1.0934 -0.1547 -0.3101
  361MPD2    H1 5408   2.077   1.952  16.810 -1.2327 -0.9207  1.3764
  361MPD2    H2 5409   1.693   2.065  16.926  0.1376 -0.2815 -1.2355
  361MPD2    H3 5410   1.850   1.907  16.843  1.0819 -1.2665  0.8409
  361MPD2     N 5411   2.207   2.189  16.893  0.0765  0.0414 -0.2626
  361MPD2    H5 5412   2.264   2.115  16.855  0.5078  0.7937 -1.0820
  361MPD2    N1 5413   1.766   2.336  16.973 -0.6458 -0.1044  0.5145
  361MPD2    H7 5414   1.813   2.426  16.979 -0.3543 -0.2835  0.8832
  362TMC3    C1 5415   1.568   2.442  17.050 -0.9835  0.0353 -0.0331
  362TMC3    C2 5416   1.444   2.436  17.108 -0.4284  0.0449  1.0496
  362TMC3    C3 5417   1.384   2.560  17.126 -0.1272 -0.0886 -0.7300
  362TMC3    C4 5418   1.614   2.557  16.995  0.1119 -0.0047  0.1722
  362TMC3    C5 5419   1.549   2.676  17.007  0.7564  0.3509 -0.0773
  362TMC3    C6 5420   1.430   2.675  17.076  0.7475 -0.1697 -0.0695
  362TMC3     C 5421   1.633   2.321  17.014  0.1898  0.1939 -0.3715
  362TMC3     O 5422   1.568   2.219  17.037 -0.0193 -0.0243  0.1014
  362TMC3     H 5423   1.415   2.349  17.166 -1.6450  0.0371  0.4128
  362TMC3    H1 5424   1.699   2.552  16.928  0.3813  0.4264  0.4836
  362TMC3    H2 5425   1.359   2.758  17.081  1.2373  0.2588 -0.2554
  362TMC3    C7 5426   1.558   2.785  16.909  0.3837 -0.1956 -0.1251
  362TMC3    C8 5427   1.260   2.568  17.206 -0.4103 -0.7301  0.2932
  362TMC3    O1 5428   1.454   2.845  16.880 -0.0760 -0.1831  0.3152
  362TMC3    O2 5429   1.177   2.479  17.199  0.0390  0.2263 -0.1520
  363TMC3    C1 5430   0.135   4.570   9.637  0.1912 -0.4107 -0.2272
  363TMC3    C2 5431   0.239   4.553   9.725  0.4234  0.2902  0.1552
  363TMC3    C3 5432   0.282   4.660   9.796 -0.5309 -0.2774  1.0631
  363TMC3    C4 5433   0.072   4.692   9.637  0.1590  0.8225  1.0484
  363TMC3    C5 5434   0.118   0.063   9.715 -0.1185 -0.2779 -0.0402
  363TMC3    C6 5435   0.223   0.054   9.802  0.2799 -0.0616 -0.4635
  363TMC3     C 5436   0.096   4.462   9.558  0.3815  0.2890  0.0085
  363TMC3     O 5437   0.157   4.355   9.567 -0.1902  0.2426 -0.3772
  363TMC3     H 5438   0.305   4.469   9.704 -0.3947 -0.9481  2.4716
  363TMC3    H1 5439   4.710   4.707   9.574 -1.1532  0.5342  2.7560
  363TMC3    H2 5440   0.267   0.141   9.849 -0.3337  0.1700 -0.3178
  363TMC3    C7 5441   0.044   0.185   9.700  0.2818 -0.0155  0.5240
  363TMC3    C8 5442   0.394   4.649   9.886 -0.4628 -0.0335  0.2269
  363TMC3    O1 5443   4.652   0.181   9.666  0.0977 -0.3069  0.1222
  363TMC3    O2 5444   0.386   4.722   9.981 -0.1220  0.5799  0.7154
  364MPD2     C 5445   4.238   4.590  11.079 -0.3203 -1.0640  0.4456
  364MPD2    C1 5446   4.260   4.511  10.971 -0.3257 -0.0506 -0.3477
  364MPD2    C2 5447   4.183   4.397  10.955  0.5657 -0.7965 -0.1632
  364MPD2    C3 5448   4.099   4.358  11.059  0.8513 -0.1045  0.0749
  364MPD2    C4 5449   4.076   4.440  11.168 -0.8969 -0.4779 -0.1332
  364MPD2    C5 5450   4.140   4.559  11.163 -0.1320 -0.0785 -0.0555
  364MPD2     H 5451   4.190   4.343  10.861 -0.5500 -2.7576  0.8816
  364MPD2    H1 5452   4.012   4.411  11.250 -0.7242 -1.0213 -0.1892
  364MPD2    H2 5453   4.285   4.688  11.081  1.8229 -2.0760 -0.5904
  364MPD2    H3 5454   4.115   4.634  11.237  0.8301 -2.1496  2.3642
  364MPD2     N 5455   4.037   4.233  11.055  0.2662 -0.7825 -0.3890
  364MPD2    H5 5456   3.984   4.203  11.136 -0.8744 -0.4787 -1.0330
  364MPD2    N1 5457   4.360   4.553  10.879 -0.1068  0.0905  0.3044
  364MPD2    H7 5458   4.409   4.633  10.919 -0.3804  1.0719 -1.3566
  365TMC3    C1 5459   4.481   4.561  10.677  0.3671  0.1816 -0.4002
  365TMC3    C2 5460   4.470   4.509  10.550  0.3550 -0.5600  0.5987
  365TMC3    C3 5461   4.493   4.596  10.448 -0.5447  0.1743 -0.4368
  365TMC3    C4 5462   4.524   4.691  10.697  0.4763 -0.0753  0.4443
  365TMC3    C5 5463   4.543   0.054  10.586 -0.0265 -0.0046 -0.5006
  365TMC3    C6 5464   4.526   0.005  10.458 -0.1558  0.1795 -0.0228
  365TMC3     C 5465   4.410   4.482  10.772  0.0236  0.4124  0.4085
  365TMC3     O 5466   4.388   4.364  10.739 -0.2758 -0.1839  0.3809
  365TMC3     H 5467   4.434   4.409  10.525 -1.3320  0.1806  0.0963
  365TMC3    H1 5468   4.559   4.712  10.797 -1.7454  0.7395  1.0697
  365TMC3    H2 5469   4.549   0.061  10.368  2.6052  1.4103  1.4336
  365TMC3    C7 5470   4.504   0.189  10.608 -0.4960 -0.1191  0.2402
  365TMC3    C8 5471   4.445   4.560  10.317  0.4070  0.1664 -0.1443
  365TMC3    O1 5472   4.526   0.279  10.525 -0.3568 -0.1323  0.0775
  365TMC3    O2 5473   4.374   4.642  10.262 -0.0670 -0.0804 -0.4346
  366MPD2     C 5474   3.102   0.498  14.872  0.0103  0.2349  0.4241
  366MPD2    C1 5475   3.110   0.530  15.006 -0.8652  0.0405  0.4853
  366MPD2    C2 5476   3.216   0.509  15.089  0.5628  0.3134  0.1501
  366MPD2    C3 5477   3.330   0.463  15.032  0.2196 -0.2109  0.2043
  366MPD2    C4 5478   3.334   0.438  14.900 -0.3795  0.0167  0.2813
  366MPD2    C5 5479   3.218   0.442  14.821  0.9026 -0.7159  0.1331
  366MPD2     H 5480   3.208   0.541  15.192 -0.3468  2.2897 -0.5537
  366MPD2    H1 5481   3.428   0.412  14.852 -1.5065  0.5362 -2.2127
  366MPD2    H2 5482   3.011   0.508  14.814  1.2162  0.9966 -1.3518
  366MPD2    H3 5483   3.224   0.400  14.721  0.6919  1.5983 -0.8564
  366MPD2     N 5484   3.445   0.459  15.117 -0.0890  0.1553  0.8778
  366MPD2    H5 5485   3.427   0.483  15.214 -0.6873  0.5068  0.6737
  366MPD2    N1 5486   3.002   0.592  15.075  0.2559 -0.5788  0.1355
  366MPD2    H7 5487   3.037   0.614  15.167 -2.4422 -0.4091  1.1261
  367TMC3    C1 5488   2.789   0.684  15.120  0.0254  0.3604  0.0616
  367TMC3    C2 5489   2.840   0.705  15.250  0.1839  0.4844  0.0896
  367TMC3    C3 5490   2.770   0.793  15.334 -0.0598 -0.1487  0.6014
  367TMC3    C4 5491   2.676   0.737  15.071  0.1981  0.7677  0.8317
  367TMC3    C5 5492   2.618   0.829  15.155 -0.1736  0.6402 -0.2416
  367TMC3    C6 5493   2.663   0.854  15.280  0.5841  0.0876 -0.4680
  367TMC3     C 5494   2.878   0.622  15.028  0.0415  0.0925  0.1409
  367TMC3     O 5495   2.829   0.593  14.920 -0.6379 -0.2420  0.5632
  367TMC3     H 5496   2.922   0.646  15.287  0.0399  0.3760  0.2399
  367TMC3    H1 5497   2.654   0.725  14.966 -0.2713  3.0011  0.6768
  367TMC3    H2 5498   2.598   0.911  15.346  0.5016  0.5599 -0.9606
  367TMC3    C7 5499   2.544   0.935  15.096  0.7265  0.0939  0.2559
  367TMC3    C8 5500   2.833   0.844  15.451 -0.1917 -0.2702 -0.0081
  367TMC3    O1 5501   2.553   1.041  15.159  0.1864  0.2611  0.3646
  367TMC3    O2 5502   2.945   0.796  15.467  0.4644  0.7182  0.2330
  368MPD2     C 5503   3.653   3.069  12.886 -0.2356 -0.0905  0.1981
  368MPD2    C1 5504   3.622   3.160  12.782  0.0288  0.1001  0.3183
  368MPD2    C2 5505   3.725   3.211  12.709  0.9015  0.4475  0.1116
  368MPD2    C3 5506   3.857   3.181  12.737 -0.2994 -0.2344  0.2459
  368MPD2    C4 5507   3.890   3.096  12.837 -0.6629  0.3730 -0.4966
  368MPD2    C5 5508   3.785   3.052  12.915  0.8875 -0.2138  0.2665
  368MPD2     H 5509   3.711   3.282  12.629 -0.6620 -0.5693 -0.5070
  368MPD2    H1 5510   3.994   3.067  12.846 -0.3987  1.4862  0.0064
  368MPD2    H2 5511   3.575   3.023  12.947 -0.2267 -2.5054 -1.6056
  368MPD2    H3 5512   3.804   2.995  13.005 -0.1416  0.1133  0.6866
  368MPD2     N 5513   3.962   3.225  12.656 -0.0572  0.0221 -0.1853
  368MPD2    H5 5514   4.058   3.205  12.682  0.0393 -1.0006 -1.3161
  368MPD2    N1 5515   3.487   3.194  12.768 -0.2523  0.1852  0.4541
  368MPD2    H7 5516   3.415   3.165  12.834  0.0501 -1.8768 -0.1424
  369TMC3    C1 5517   3.303   3.286  12.655  0.4797  0.1444 -0.4675
  369TMC3    C2 5518   3.258   3.371  12.561 -0.0568  0.1054  0.2195
  369TMC3    C3 5519   3.150   3.354  12.479  0.1060  0.7840 -0.4102
  369TMC3    C4 5520   3.237   3.171  12.679  0.4171  0.6199  0.0371
  369TMC3    C5 5521   3.132   3.149  12.595  0.4711  0.1153 -0.1490
  369TMC3    C6 5522   3.089   3.235  12.497 -0.1334  0.0665  0.1772
  369TMC3     C 5523   3.446   3.285  12.675  0.3157 -0.0777 -0.3663
  369TMC3     O 5524   3.507   3.364  12.605 -0.1132 -0.0108  0.1360
  369TMC3     H 5525   3.306   3.468  12.560  0.8125 -0.3035  2.9145
  369TMC3    H1 5526   3.260   3.092  12.749 -2.0781  0.2534  0.4558
  369TMC3    H2 5527   3.009   3.206  12.429  1.5529 -2.5211 -0.6918
  369TMC3    C7 5528   3.083   3.010  12.595 -0.4072  0.1827  0.5581
  369TMC3    C8 5529   3.168   3.402  12.340 -0.4325 -0.0883 -0.2422
  369TMC3    O1 5530   3.156   2.929  12.643  0.0529 -0.6426  0.4732
  369TMC3    O2 5531   3.076   3.392  12.256  0.6018  0.2198  0.2268
  370TMC3    C1 5532   3.108   3.381  16.287 -0.7051  0.2885 -0.2934
  370TMC3    C2 5533   3.088   3.279  16.383 -0.0821  0.0092  0.2965
  370TMC3    C3 5534   3.064   3.148  16.335 -0.2267 -0.7882  0.8752
  370TMC3    C4 5535   3.091   3.355  16.155  0.6644  0.7701 -0.1038
  370TMC3    C5 5536   3.080   3.225  16.111 -0.7859 -0.4108 -0.1007
  370TMC3    C6 5537   3.074   3.119  16.202  0.3964  0.4598  0.0849
  370TMC3     C 5538   3.216   3.463  16.330  0.4852  0.0982  0.1104
  370TMC3     O 5539   3.279   3.420  16.426 -0.1543  0.1705 -0.0030
  370TMC3     H 5540   3.087   3.321  16.483  3.2415  0.4621  0.1465
  370TMC3    H1 5541   3.104   3.435  16.083 -1.2969 -0.0700 -1.3938
  370TMC3    H2 5542   3.057   3.016  16.171 -0.4144 -0.3981  3.4154
  370TMC3    C7 5543   3.136   3.214  15.977 -0.0854  0.7978 -0.4854
  370TMC3    C8 5544   3.052   3.042  16.426 -0.8769 -0.4371 -0.3554
  370TMC3    O1 5545   3.129   3.307  15.900  0.0590 -0.2276 -0.0892
  370TMC3    O2 5546   3.063   2.925  16.387 -0.5383 -0.2823  0.6918
  371TMC3    C1 5547   4.549   1.666  15.475  0.4677  0.0161 -0.3538
  371TMC3    C2 5548   4.420   1.647  15.534  0.5545  0.1769 -0.1007
  371TMC3    C3 5549   4.345   1.759  15.555  0.2813 -0.0340  0.2225
  371TMC3    C4 5550   4.598   1.788  15.441 -0.0662 -0.5109 -0.3647
  371TMC3    C5 5551   4.511   1.897  15.455  0.4807  0.4442 -0.2294
  371TMC3    C6 5552   4.386   1.886  15.516 -0.4303  0.1131 -0.2379
  371TMC3     C 5553   4.649   1.559  15.501  0.4102  0.1593  0.5821
  371TMC3     O 5554   0.041   1.572  15.460 -0.5856 -0.0186  0.7704
  371TMC3     H 5555   4.374   1.553  15.562  2.6927 -0.9241 -0.2861
  371TMC3    H1 5556   4.701   1.796  15.410 -0.0615  0.7411 -0.0085
  371TMC3    H2 5557   4.323   1.974  15.508  1.3617  1.2951 -1.2090
  371TMC3    C7 5558   4.530   2.017  15.375 -0.0838 -0.0241  0.1639
  371TMC3    C8 5559   4.205   1.745  15.570 -0.0342 -0.0185 -0.0164
  371TMC3    O1 5560   4.490   2.127  15.412  0.0680 -0.2455  0.0927
  371TMC3    O2 5561   4.153   1.639  15.531  0.5148  0.0579 -0.4443
  372MPD2     C 5562   4.099   3.202  13.156  0.3455  0.9358 -0.1896
  372MPD2    C1 5563   4.178   3.101  13.193  0.9390 -0.2867  0.9978
  372MPD2    C2 5564   4.134   3.002  13.275  0.2689 -0.3878 -0.1918
  372MPD2    C3 5565   3.999   3.000  13.308  0.0803  0.5680  0.2302
  372MPD2    C4 5566   3.911   3.098  13.253  0.0973 -0.8607 -0.4856
  372MPD2    C5 5567   3.964   3.202  13.183 -0.4965 -0.3965 -0.0043
  372MPD2     H 5568   4.208   2.936  13.318 -1.6649 -0.9279  2.2826
  372MPD2    H1 5569   3.804   3.098  13.267  0.2187 -2.3374  0.4205
  372MPD2    H2 5570   4.136   3.292  13.110 -1.6620  1.7719 -0.1603
  372MPD2    H3 5571   3.891   3.276  13.152 -0.0919  0.6406  1.5263
  372MPD2     N 5572   3.957   2.893  13.377 -0.0402 -1.0748 -0.4928
  372MPD2    H5 5573   4.025   2.821  13.400  0.2720 -0.3289  0.9170
  372MPD2    N1 5574   4.320   3.110  13.176  0.0845 -0.2998 -0.0550
  372MPD2    H7 5575   4.376   3.050  13.236 -0.7280 -0.0389  0.9526
  373TMC3    C1 5576   3.809   2.734  13.473  0.0207  0.3245  0.5894
  373TMC3    C2 5577   3.737   2.709  13.584  0.2231  0.1095 -0.2050
  373TMC3    C3 5578   3.741   2.585  13.638  0.1327  0.2938  0.3817
  373TMC3    C4 5579   3.874   2.637  13.400  0.1408 -0.3633  0.2534
  373TMC3    C5 5580   3.856   2.511  13.446 -0.3302 -1.2006 -0.3266
  373TMC3    C6 5581   3.809   2.484  13.576  1.0232  0.3875 -0.3575
  373TMC3     C 5582   3.829   2.877  13.438  0.0052 -0.0709 -0.2506
  373TMC3     O 5583   3.751   2.965  13.470  0.4514 -0.4264  0.2406
  373TMC3     H 5584   3.681   2.787  13.635 -1.0689 -0.3784 -0.8727
  373TMC3    H1 5585   3.920   2.659  13.305 -0.5130 -0.0217  0.0197
  373TMC3    H2 5586   3.813   2.387  13.623  1.4216  1.2528  1.4171
  373TMC3    C7 5587   3.950   2.409  13.413  0.1737 -0.5930  0.6473
  373TMC3    C8 5588   3.779   2.584  13.778 -0.5368 -0.1052  0.5205
  373TMC3    O1 5589   3.959   2.378  13.299  0.5318  0.1602  0.1449
  373TMC3    O2 5590   3.883   2.521  13.798  0.3287  0.4631  0.0767
  374TMC3    C1 5591   4.586   3.081   9.399  0.0618  0.4832  0.7416
  374TMC3    C2 5592   4.645   3.184   9.474 -0.4179  0.3589  0.3042
  374TMC3    C3 5593   4.555   3.262   9.537 -0.2719 -0.1669  0.2067
  374TMC3    C4 5594   4.456   3.051   9.401 -0.0900 -0.5216  0.0066
  374TMC3    C5 5595   4.371   3.122   9.480 -0.0957  0.2930 -0.4838
  374TMC3    C6 5596   4.416   3.236   9.544 -0.7131  0.3006 -0.5443
  374TMC3     C 5597   4.674   2.984   9.330 -0.8130 -0.0467 -0.4331
  374TMC3     O 5598   4.625   2.906   9.248 -0.7758 -0.0202  0.4971
  374TMC3     H 5599   0.027   3.205   9.467 -0.9798  3.1316 -0.0375
  374TMC3    H1 5600   4.414   2.961   9.357  0.5203 -1.3100  1.0448
  374TMC3    H2 5601   4.346   3.293   9.604 -1.2917 -0.7639 -0.1960
  374TMC3    C7 5602   4.262   3.043   9.529 -0.1524  0.3899 -0.2242
  374TMC3    C8 5603   4.600   3.384   9.593  0.6269 -0.0347  0.8447
  374TMC3    O1 5604   4.146   3.078   9.503 -0.2771  0.0930 -0.5750
  374TMC3    O2 5605   4.529   3.481   9.578 -0.2015  0.0003 -0.0645
  375MPD2     C 5606   4.014   2.742  16.500 -0.0507  0.2240  0.3453
  375MPD2    C1 5607   4.093   2.850  16.539 -0.5377  0.3430  0.4194
  375MPD2    C2 5608   4.195   2.887  16.449 -0.2952  0.2547  0.0299
  375MPD2    C3 5609   4.206   2.827  16.331  0.4960 -0.2700  0.3681
  375MPD2    C4 5610   4.122   2.731  16.285  0.4943  0.3682  0.3935
  375MPD2    C5 5611   4.026   2.685  16.375 -0.2043 -0.0566  0.2363
  375MPD2     H 5612   4.266   2.960  16.486  1.4219 -1.8998  0.9654
  375MPD2    H1 5613   4.147   2.684  16.190 -1.0978  3.5235 -1.5929
  375MPD2    H2 5614   3.930   2.699  16.554  1.1449  1.1128  2.9240
  375MPD2    H3 5615   3.961   2.601  16.351  1.7767 -1.4701 -0.2040
  375MPD2     N 5616   4.309   2.862  16.235  0.4479 -0.1619 -0.6342
  375MPD2    H5 5617   4.306   2.818  16.144  1.9563  1.8170 -1.6292
  375MPD2    N1 5618   4.085   2.926  16.663 -0.6119  0.3084  0.8102
  375MPD2    H7 5619   4.151   3.002  16.676 -0.8109  0.5446  0.4048
  376TMC3    C1 5620   4.507   2.937  16.141  0.2598 -0.4548  0.4657
  376TMC3    C2 5621   4.646   2.968  16.150  1.3445 -0.2372 -0.2698
  376TMC3    C3 5622   4.716   3.018  16.045  0.3088  0.4903  0.0951
  376TMC3    C4 5623   4.448   2.966  16.018 -0.3104  0.2482  1.1037
  376TMC3    C5 5624   4.527   3.027  15.916 -0.9285 -0.2203 -0.7442
  376TMC3    C6 5625   4.659   3.051  15.928 -0.0546  0.0102 -0.1435
  376TMC3     C 5626   4.426   2.925  16.263  0.7393  0.7884 -0.0540
  376TMC3     O 5627   4.482   2.942  16.370  0.4528 -0.6992  0.6230
  376TMC3     H 5628   4.693   2.961  16.248  1.6407 -0.0758 -0.4038
  376TMC3    H1 5629   4.339   2.963  16.012 -0.0464 -0.7123 -3.3119
  376TMC3    H2 5630   4.719   3.099  15.852  3.5269 -2.7107  0.9766
  376TMC3    C7 5631   4.467   3.105  15.808 -0.1349 -0.0600 -0.3474
  376TMC3    C8 5632   0.130   3.039  16.068  0.3676  0.1110 -0.6031
  376TMC3    O1 5633   4.532   3.175  15.730  0.2272  0.1974 -0.4439
  376TMC3    O2 5634   0.172   3.150  16.043  0.1685 -0.6879  0.0605
  377MPD2     C 5635   2.583   3.393  12.120  0.0544 -0.4526  0.2594
  377MPD2    C1 5636   2.640   3.296  12.203  0.3228  0.8157 -0.6600
  377MPD2    C2 5637   2.553   3.220  12.287 -0.1691  0.5122 -0.1205
  377MPD2    C3 5638   2.419   3.255  12.287  0.2526  0.3233 -0.0354
  377MPD2    C4 5639   2.371   3.365  12.217  0.0167  0.2183 -0.8811
  377MPD2    C5 5640   2.450   3.422  12.121 -0.4812 -0.1535 -0.4531
  377MPD2     H 5641   2.591   3.131  12.336 -1.2454 -0.6750 -1.4754
  377MPD2    H1 5642   2.266   3.391  12.220 -0.1424 -0.2125 -2.5955
  377MPD2    H2 5643   2.639   3.445  12.043  1.5509 -1.3873  0.7149
  377MPD2    H3 5644   2.420   3.500  12.053 -0.6109 -1.7603 -2.2427
  377MPD2     N 5645   2.325   3.203  12.374  0.1609 -0.1683 -0.2399
  377MPD2    H5 5646   2.228   3.230  12.362 -0.5524 -2.6381  0.0749
  377MPD2    N1 5647   2.769   3.254  12.165  0.7999 -0.6125  0.6393
  377MPD2    H7 5648   2.815   3.307  12.092 -2.7236  0.8856 -0.4879
  378TMC3    C1 5649   3.081   3.213  11.934 -0.0473  0.6242  0.6916
  378TMC3    C2 5650   2.963   3.186  12.002  0.1193 -0.0202  0.2253
  378TMC3    C3 5651   2.965   3.136  12.128  1.1451  0.1355 -0.2192
  378TMC3    C4 5652   3.201   3.181  11.993  0.1527 -0.2086  0.3911
  378TMC3    C5 5653   3.197   3.121  12.118 -0.0395 -0.3469 -0.2527
  378TMC3    C6 5654   3.083   3.096  12.186  0.5156 -0.1405  1.0010
  378TMC3     C 5655   3.081   3.204  11.787 -0.5669 -0.3563  0.0854
  378TMC3     O 5656   2.972   3.222  11.731 -0.3799 -0.0824 -0.0355
  378TMC3     H 5657   2.869   3.201  11.951 -0.7882 -0.5104  1.7429
  378TMC3    H1 5658   3.291   3.233  11.963  0.9955 -2.1027 -0.3702
  378TMC3    H2 5659   3.096   3.063  12.288 -0.5432 -1.0131  0.8490
  378TMC3    C7 5660   3.321   3.116  12.195 -0.2084  0.3360 -0.2634
  378TMC3    C8 5661   2.847   3.152  12.215 -0.2576 -0.1397 -0.1202
  378TMC3    O1 5662   3.306   3.094  12.313 -0.4473  0.4470 -0.7662
  378TMC3    O2 5663   2.837   3.087  12.321 -0.0390 -0.3606 -0.2621
  379MPD2     C 5664   3.536   1.370  16.354  0.1948  0.0195  0.3798
  379MPD2    C1 5665   3.579   1.263  16.281 -0.0396 -0.1150  0.0958
  379MPD2    C2 5666   3.647   1.155  16.339 -0.0266  0.7313 -0.1035
  379MPD2    C3 5667   3.676   1.157  16.469  0.4115 -0.4355  0.5466
  379MPD2    C4 5668   3.621   1.254  16.548 -1.0227  0.8630 -0.3571
  379MPD2    C5 5669   3.553   1.360  16.489 -0.3661 -0.3285  0.2277
  379MPD2     H 5670   3.681   1.071  16.280 -0.9573  0.6584 -0.5441
  379MPD2    H1 5671   3.635   1.255  16.655  0.4007  0.6168 -0.5384
  379MPD2    H2 5672   3.489   1.462  16.321  1.0618  0.0009 -0.9059
  379MPD2    H3 5673   3.519   1.439  16.555  0.3652  0.4657 -0.3397
  379MPD2     N 5674   3.732   1.047  16.531  0.1906 -0.4004  0.3111
  379MPD2    H5 5675   3.742   1.042  16.632 -1.7149  2.1515  0.6256
  379MPD2    N1 5676   3.571   1.270  16.138 -0.3700  0.1718 -0.4784
  379MPD2    H7 5677   3.501   1.331  16.097 -2.1553 -0.3716  1.7380
  380TMC3    C1 5678   3.572   1.193  15.913  0.6492 -0.1469  0.2296
  380TMC3    C2 5679   3.636   1.123  15.810  0.1426 -0.5919  0.6012
  380TMC3    C3 5680   3.572   1.115  15.690 -0.4289 -0.0119 -0.1713
  380TMC3    C4 5681   3.447   1.251  15.898 -0.1429  0.0291  0.4409
  380TMC3    C5 5682   3.392   1.233  15.778 -0.0950 -0.2748 -0.4648
  380TMC3    C6 5683   3.449   1.168  15.672 -0.4064  0.0829  0.0597
  380TMC3     C 5684   3.637   1.187  16.044  0.0700  0.4350  0.1432
  380TMC3     O 5685   3.733   1.114  16.062 -0.1931 -0.1841  0.0381
  380TMC3     H 5686   3.730   1.076  15.834  0.7900  1.6977  2.6307
  380TMC3    H1 5687   3.392   1.322  15.959 -2.1860 -1.2296  0.0455
  380TMC3    H2 5688   3.400   1.165  15.575  0.0691 -2.7832 -0.0958
  380TMC3    C7 5689   3.247   1.263  15.771 -0.6370  0.2193 -0.3194
  380TMC3    C8 5690   3.662   1.140  15.574 -0.2444  0.1668  0.0099
  380TMC3    O1 5691   3.208   1.357  15.838  0.7044  0.4816 -0.1705
  380TMC3    O2 5692   3.617   1.220  15.493 -0.0613 -0.2050 -0.0822
  381TMC3    C1 5693   3.319   2.299  16.144 -0.8191 -0.7002  0.4034
  381TMC3    C2 5694   3.375   2.427  16.134  1.3177 -0.3355  0.6287
  381TMC3    C3 5695   3.340   2.517  16.230  0.1648 -0.0359 -0.4704
  381TMC3    C4 5696   3.237   2.274  16.249 -0.0461  0.1416  0.8092
  381TMC3    C5 5697   3.198   2.374  16.335  0.3812  0.0736  0.4491
  381TMC3    C6 5698   3.254   2.494  16.326 -0.4017 -0.7796  0.4975
  381TMC3     C 5699   3.394   2.191  16.072  0.0467  0.2465 -0.0012
  381TMC3     O 5700   3.498   2.224  16.012 -0.3610  0.4644  0.0032
  381TMC3     H 5701   3.444   2.446  16.054  1.6654 -2.0437  0.5171
  381TMC3    H1 5702   3.208   2.175  16.283 -2.0590  0.1519 -0.8757
  381TMC3    H2 5703   3.216   2.577  16.384  2.0651  0.2359  0.6774
  381TMC3    C7 5704   3.143   2.342  16.463  0.0649  0.4021  0.2002
  381TMC3    C8 5705   3.380   2.650  16.212 -0.4225 -0.3875  1.1297
  381TMC3    O1 5706   3.176   2.229  16.499 -0.1452  0.8847 -0.2391
  381TMC3    O2 5707   3.419   2.674  16.096 -0.5457  0.0054 -0.3421
  382MPD2     C 5708   2.976   4.465  17.649 -0.3849 -0.0607  0.1241
  382MPD2    C1 5709   2.942   4.580   0.018  0.8435  0.5275 -1.2441
  382MPD2    C2 5710   2.820   4.589   0.084  1.1172  0.1514  0.4423
  382MPD2    C3 5711   2.730   4.494   0.069 -0.8449 -1.6546 -0.0631
  382MPD2    C4 5712   2.770   4.379   0.012 -0.1715  0.5546 -0.9243
  382MPD2    C5 5713   2.890   4.363  17.659  0.2778 -0.4456 -0.1442
  382MPD2     H 5714   2.806   4.684   0.135 -0.7570  0.9853 -1.5811
  382MPD2    H1 5715   2.699   4.299  17.691  3.0581 -2.5930  0.0319
  382MPD2    H2 5716   3.063   4.450  17.586  0.0224  2.4119  0.0743
  382MPD2    H3 5717   2.927   4.269  17.621 -0.9830 -1.4302  1.0995
  382MPD2     N 5718   2.598   4.501   0.120  0.1889  0.3471 -0.0658
  382MPD2    H5 5719   2.540   4.419   0.105 -0.1500  0.6818 -0.5620
  382MPD2    N1 5720   3.029   4.684   0.024  0.0768 -0.1182 -0.7180
  382MPD2    H7 5721   3.007   0.037   0.086 -0.0992 -1.1693  0.5307
  383TMC3    C1 5722   2.410   4.589   0.212  0.0224 -0.9611 -0.6815
  383TMC3    C2 5723   2.332   4.491   0.161  0.5885  0.0707 -0.2837
  383TMC3    C3 5724   2.200   4.492   0.191 -0.0310 -0.6146  0.0529
  383TMC3    C4 5725   2.358   4.686   0.295  0.1243 -0.1702  0.1849
  383TMC3    C5 5726   2.224   4.684   0.321 -0.5441  0.2218 -0.2334
  383TMC3    C6 5727   2.141   4.585   0.276  0.1046  0.0024  0.1325
  383TMC3     C 5728   2.546   4.610   0.177  0.5903  0.2426 -0.3471
  383TMC3     O 5729   2.599   4.718   0.202 -0.1128 -0.3019  0.4479
  383TMC3     H 5730   2.355   4.438   0.069 -1.7243  0.1827 -0.9137
  383TMC3    H1 5731   2.423   0.039   0.333 -0.2361 -0.4180  1.3054
  383TMC3    H2 5732   2.035   4.584   0.299  0.1714 -1.1693  0.3772
  383TMC3    C7 5733   2.167   0.087   0.376 -0.2141 -0.6254  0.2893
  383TMC3    C8 5734   2.103   4.411   0.116  0.4634  0.3382  0.5900
  383TMC3    O1 5735   2.230   0.192   0.371 -0.2534  0.1783 -0.3472
  383TMC3    O2 5736   1.985   4.452   0.115  0.2875 -0.8408 -0.4237
  384MPD2     C 5737   4.219   1.430  12.150  0.3421 -0.1418 -0.4831
  384MPD2    C1 5738   4.196   1.366  12.271  0.0352  0.0978 -0.2107
  384MPD2    C2 5739   4.193   1.229  12.268 -0.2248  0.0001 -0.2178
  384MPD2    C3 5740   4.214   1.162  12.152 -0.0657 -0.7244 -0.7382
  384MPD2    C4 5741   4.235   1.221  12.031  0.0202  0.4293  0.3126
  384MPD2    C5 5742   4.236   1.361  12.030  0.2783  0.0792 -0.2329
  384MPD2     H 5743   4.174   1.170  12.356  1.8086 -0.1017  0.1356
  384MPD2    H1 5744   4.237   1.172  11.934 -1.2200 -1.4910  1.2354
  384MPD2    H2 5745   4.194   1.534  12.131 -0.9315 -0.2766  0.5056
  384MPD2    H3 5746   4.234   1.412  11.934 -1.4794  1.2504  0.4262
  384MPD2     N 5747   4.235   1.020  12.171  0.2457 -0.2055 -0.1548
  384MPD2    H5 5748   4.226   0.990  12.267  1.2843 -0.2120 -0.0575
  384MPD2    N1 5749   4.158   1.439  12.392  0.5478 -0.1854  0.4268
  384MPD2    H7 5750   4.139   1.386  12.476  1.1313 -0.0898  0.6174
  385TMC3    C1 5751   4.268   0.795  12.153 -0.3577  0.0510  0.2423
  385TMC3    C2 5752   4.185   0.698  12.109 -0.0979 -1.0656 -0.3587
  385TMC3    C3 5753   4.122   0.637  12.209 -0.7623 -0.5506  0.2784
  385TMC3    C4 5754   4.313   0.804  12.281  0.0852 -0.1137  0.1910
  385TMC3    C5 5755   4.241   0.743  12.382 -0.5622  0.2233  1.0419
  385TMC3    C6 5756   4.147   0.656  12.341  0.1519  0.3725  0.6217
  385TMC3     C 5757   4.239   0.919  12.084 -0.0062  0.5049  0.8114
  385TMC3     O 5758   4.229   0.917  11.964  0.3776 -0.0257  0.1107
  385TMC3     H 5759   4.137   0.699  12.012 -0.6538  1.1110 -0.0755
  385TMC3    H1 5760   4.391   0.877  12.302  0.8650 -0.8848 -0.0543
  385TMC3    H2 5761   4.090   0.593  12.408 -0.3772 -1.0579 -1.1450
  385TMC3    C7 5762   4.206   0.839  12.486  1.1073  0.1613 -0.9523
  385TMC3    C8 5763   4.030   0.537  12.176 -0.1744 -0.3171 -0.6224
  385TMC3    O1 5764   4.230   0.956  12.465  0.1750 -0.5572 -0.7001
  385TMC3    O2 5765   3.930   0.511  12.246 -0.9922 -0.4403 -0.1881
  386TMC3    C1 5766   4.017   3.097  11.371 -0.2156 -0.3257  0.2941
  386TMC3    C2 5767   4.080   3.056  11.254 -0.4028 -0.2083  0.9987
  386TMC3    C3 5768   3.998   3.044  11.142 -0.5027  0.0686 -0.2636
  386TMC3    C4 5769   3.883   3.123  11.377 -0.4006 -0.3419 -0.3002
  386TMC3    C5 5770   3.815   3.127  11.259 -0.1833  0.3162 -0.4121
  386TMC3    C6 5771   3.870   3.081  11.141 -0.2229 -0.6480  0.5430
  386TMC3     C 5772   4.085   3.096  11.501 -0.9764 -0.2028 -0.2929
  386TMC3     O 5773   4.013   3.107  11.600  0.3167 -0.0769  0.4908
  386TMC3     H 5774   4.182   3.019  11.261 -0.2148 -0.0212 -0.7079
  386TMC3    H1 5775   3.833   3.170  11.462  2.0069 -0.0288  0.9330
  386TMC3    H2 5776   3.812   3.081  11.049 -0.0883  0.0553  0.4612
  386TMC3    C7 5777   3.683   3.191  11.258  0.6978  0.4882 -0.1926
  386TMC3    C8 5778   4.058   3.029  11.012  0.4414 -0.0141 -0.3446
  386TMC3    O1 5779   3.640   3.229  11.365 -0.1902 -0.0852 -0.3052
  386TMC3    O2 5780   3.988   2.992  10.917  0.5288  0.9238 -0.3714
  387MPD2     C 5781   1.371   3.452   9.613  0.1497  0.0197  0.3400
  387MPD2    C1 5782   1.500   3.447   9.672  0.5029  0.2032 -0.2479
  387MPD2    C2 5783   1.565   3.331   9.655  0.3205 -0.3567 -0.4248
  387MPD2    C3 5784   1.512   3.221   9.588 -0.4818  0.3211 -0.2504
  387MPD2    C4 5785   1.390   3.232   9.531 -0.3174 -0.0410 -0.1363
  387MPD2    C5 5786   1.325   3.348   9.541  0.2242  0.3882  0.3365
  387MPD2     H 5787   1.658   3.314   9.709  0.4018  0.0314 -0.4418
  387MPD2    H1 5788   1.356   3.153   9.465  2.0167 -0.4331 -0.8686
  387MPD2    H2 5789   1.304   3.537   9.622  0.3748  0.1559  0.7357
  387MPD2    H3 5790   1.230   3.352   9.490  0.0318 -0.1427  0.6544
  387MPD2     N 5791   1.578   3.102   9.601  0.2842  0.1331 -0.0847
  387MPD2    H5 5792   1.661   3.106   9.660  1.2025  1.5652 -1.4831
  387MPD2    N1 5793   1.565   3.542   9.752 -0.4236  0.4549  0.2838
  387MPD2    H7 5794   1.657   3.512   9.780 -0.4672 -0.6283 -0.7358
  388TMC3    C1 5795   1.573   3.684   9.930 -0.1828 -0.3163  0.1682
  388TMC3    C2 5796   1.571   3.821   9.972 -0.3726 -0.4751  0.3083
  388TMC3    C3 5797   1.650   3.855  10.072  0.1320  0.2096  0.2943
  388TMC3    C4 5798   1.626   3.592  10.008 -0.3182  0.8377  0.1648
  388TMC3    C5 5799   1.702   3.625  10.114  0.3954  0.4323 -0.0599
  388TMC3    C6 5800   1.713   3.758  10.154  0.3453  0.0826 -0.7030
  388TMC3     C 5801   1.510   3.659   9.802 -0.4099 -0.4029 -0.0317
  388TMC3     O 5802   1.431   3.735   9.744 -0.3383 -1.2949 -0.7042
  388TMC3     H 5803   1.531   3.889   9.898 -0.7987  0.3839  1.3246
  388TMC3    H1 5804   1.601   3.487   9.995 -1.8710  1.3615 -1.0928
  388TMC3    H2 5805   1.767   3.791  10.242  1.0573 -2.5639 -0.1231
  388TMC3    C7 5806   1.757   3.517  10.192 -0.9264 -0.5239  0.3916
  388TMC3    C8 5807   1.666   3.997  10.098 -0.5209  0.0330  0.5795
  388TMC3    O1 5808   1.778   3.529  10.310  0.3165  0.0031 -0.0180
  388TMC3    O2 5809   1.602   4.073  10.030 -0.1511 -0.0602 -0.0136
  389MPD2     C 5810   1.306   1.545  11.753 -0.6743 -0.1986 -0.3537
  389MPD2    C1 5811   1.316   1.488  11.630  0.3477 -0.3185  1.1089
  389MPD2    C2 5812   1.237   1.379  11.599 -0.1038  0.1656  0.0827
  389MPD2    C3 5813   1.143   1.336  11.698  0.0861  0.9344 -0.1736
  389MPD2    C4 5814   1.134   1.393  11.820  0.3733  0.3880 -0.4325
  389MPD2    C5 5815   1.214   1.506  11.846  0.4564 -0.2702  0.5400
  389MPD2     H 5816   1.251   1.332  11.503  2.5547  2.1765 -0.5088
  389MPD2    H1 5817   1.050   1.369  11.885 -0.7275  1.3789 -1.4888
  389MPD2    H2 5818   1.371   1.630  11.774 -0.7075 -0.3810  0.5052
  389MPD2    H3 5819   1.208   1.558  11.941 -1.2580 -2.0658  1.4269
  389MPD2     N 5820   1.041   1.245  11.666 -0.1841 -0.3825 -0.3565
  389MPD2    H5 5821   0.981   1.219  11.743 -0.0177 -1.2016 -0.4987
  389MPD2    N1 5822   1.409   1.549  11.545  0.0599  0.0622 -0.0723
  389MPD2    H7 5823   1.443   1.640  11.577  1.1513  0.2627 -1.8096
  390TMC3    C1 5824   0.907   1.086  11.547 -0.5653  0.0528 -0.1402
  390TMC3    C2 5825   0.902   1.003  11.659 -0.7458  0.4435  0.5064
  390TMC3    C3 5826   0.823   0.888  11.658  0.0534  0.3511 -0.3127
  390TMC3    C4 5827   0.842   1.058  11.433 -0.8650  0.1529  0.0249
  390TMC3    C5 5828   0.773   0.935  11.433  0.2361  0.0955 -0.1707
  390TMC3    C6 5829   0.770   0.847  11.539  0.2852 -0.1060 -0.1451
  390TMC3     C 5830   1.016   1.186  11.540 -0.1005 -0.5465 -0.4462
  390TMC3     O 5831   1.051   1.229  11.435 -0.1345 -0.1512  0.1160
  390TMC3     H 5832   0.952   1.028  11.752 -2.2330  0.1639  1.3706
  390TMC3    H1 5833   0.843   1.122  11.346 -0.3749 -0.6689 -0.5808
  390TMC3    H2 5834   0.706   0.761  11.525  1.0087 -0.6539 -0.0870
  390TMC3    C7 5835   0.648   0.930  11.361  0.4378 -0.6953 -0.3995
  390TMC3    C8 5836   0.799   0.795  11.771  0.8630  0.6038 -0.4495
  390TMC3    O1 5837   0.657   0.937  11.240  0.0990  1.4323  0.1925
  390TMC3    O2 5838   0.717   0.705  11.747 -0.3576 -0.3062 -0.4428
  391MPD2     C 5839   0.647   2.725  10.708  0.6281  0.4943 -0.5360
  391MPD2    C1 5840   0.640   2.859  10.749  0.2512  0.2120 -0.8176
  391MPD2    C2 5841   0.625   2.949  10.643  0.0259 -0.8893  0.6898
  391MPD2    C3 5842   0.611   2.916  10.505 -0.0215  0.2039 -0.0296
  391MPD2    C4 5843   0.613   2.784  10.475  0.4458  0.1555  0.2770
  391MPD2    C5 5844   0.633   2.693  10.575  0.5384 -0.0605  0.2734
  391MPD2     H 5845   0.621   3.053  10.673  0.1074 -0.6002 -0.3233
  391MPD2    H1 5846   0.612   2.745  10.374 -0.8589  2.4822 -0.6211
  391MPD2    H2 5847   0.645   2.645  10.781  2.5427  0.2866 -0.7221
  391MPD2    H3 5848   0.644   2.587  10.557  0.1234  0.7145 -4.4211
  391MPD2     N 5849   0.608   3.024  10.414 -0.2593  1.2581  0.0461
  391MPD2    H5 5850   0.623   3.114  10.457 -0.5348  2.3777 -2.1746
  391MPD2    N1 5851   0.651   2.887  10.888  0.0634  0.6184  0.4142
  391MPD2    H7 5852   0.672   2.804  10.943 -1.4097  0.3299  0.5368
  392TMC3    C1 5853   0.605   3.138  10.206  0.0606  0.6260  0.2224
  392TMC3    C2 5854   0.512   3.159  10.113  0.1886  0.5394  0.2192
  392TMC3    C3 5855   0.485   3.291  10.078 -0.4072  0.1370 -0.5423
  392TMC3    C4 5856   0.687   3.243  10.255 -0.1566  0.5404  0.2862
  392TMC3    C5 5857   0.675   3.369  10.205  0.1857 -0.1479 -0.1590
  392TMC3    C6 5858   0.569   3.399  10.118  0.0718  0.0730 -0.0590
  392TMC3     C 5859   0.595   3.006  10.278  0.3604  0.2499  0.1122
  392TMC3     O 5860   0.559   2.909  10.219  0.1515 -0.1408  0.3163
  392TMC3     H 5861   0.437   3.086  10.087  0.4824 -1.0815  3.9882
  392TMC3    H1 5862   0.774   3.211  10.311 -0.8784  0.2237  1.2275
  392TMC3    H2 5863   0.537   3.502  10.107 -0.8714 -0.3623 -1.3783
  392TMC3    C7 5864   0.733   3.472  10.289 -0.1950  0.1872 -0.1320
  392TMC3    C8 5865   0.390   3.310   9.974  0.2861  0.4622  0.4198
  392TMC3    O1 5866   0.770   3.437  10.401 -0.1606  0.5650 -0.1465
  392TMC3    O2 5867   0.331   3.206   9.944  0.0014  0.4593 -0.2155
  393TMC3    C1 5868   4.632   0.976  10.355 -0.2510  0.3809  0.4723
  393TMC3    C2 5869   4.520   0.942  10.423  0.2899  0.0635  0.1101
  393TMC3    C3 5870   4.506   0.806  10.456  0.0538 -0.0433 -0.2820
  393TMC3    C4 5871   4.722   0.879  10.319 -0.1438 -0.1696 -0.7173
  393TMC3    C5 5872   4.698   0.750  10.346 -0.2096  0.5852 -0.2110
  393TMC3    C6 5873   4.594   0.711  10.420  0.4588 -0.1596  0.8892
  393TMC3     C 5874   4.647   1.116  10.306  0.3930  0.0856 -0.3597
  393TMC3     O 5875   4.546   1.178  10.322 -0.0779  0.1952 -0.2011
  393TMC3     H 5876   4.451   1.023  10.446 -0.6094 -0.4388 -0.8677
  393TMC3    H1 5877   0.079   0.909  10.254 -0.3434  2.2780  0.1823
  393TMC3    H2 5878   4.594   0.612  10.465  2.9327 -0.2869  0.6152
  393TMC3    C7 5879   0.058   0.645  10.293 -0.8754 -0.0080 -0.1236
  393TMC3    C8 5880   4.368   0.784  10.507  0.9374 -0.5861 -0.4931
  393TMC3    O1 5881   0.006   0.536  10.264  0.4819  0.9078 -0.2469
  393TMC3    O2 5882   4.308   0.877  10.565 -0.2176 -0.3057  0.2006
  394TMC3    C1 5883   1.492   1.635  11.345  0.0355  0.1933  0.6938
  394TMC3    C2 5884   1.426   1.747  11.366  0.4146  0.2878 -0.2277
  394TMC3    C3 5885   1.434   1.844  11.270  0.7103 -0.0257 -0.0924
  394TMC3    C4 5886   1.562   1.605  11.225  0.6232  0.2021  0.0282
  394TMC3    C5 5887   1.578   1.709  11.136  0.0833  0.2311 -0.0683
  394TMC3    C6 5888   1.508   1.829  11.159 -0.2069  0.2564  0.6373
  394TMC3     C 5889   1.428   1.518  11.416  0.0189 -0.3038  0.1827
  394TMC3     O 5890   1.423   1.412  11.360 -0.1139 -0.0126 -0.0059
  394TMC3     H 5891   1.341   1.756  11.434 -1.2753 -0.2607 -2.2534
  394TMC3    H1 5892   1.621   1.514  11.215 -1.4122 -1.2184  0.9351
  394TMC3    H2 5893   1.506   1.912  11.089  0.3440  0.2747  0.6449
  394TMC3    C7 5894   1.646   1.703  11.015 -0.9378  0.8775  0.5659
  394TMC3    C8 5895   1.304   1.882  11.234  0.3934  0.3069  0.4750
  394TMC3    O1 5896   1.674   1.810  10.959 -0.3384  0.0089 -0.7827
  394TMC3    O2 5897   1.241   1.971  11.290  0.0686  0.3513 -0.5492
  395TMC3    C1 5898   0.992   3.307  15.229  0.0046 -0.3915 -0.1893
  395TMC3    C2 5899   1.017   3.177  15.181  0.2131 -0.4242 -0.1885
  395TMC3    C3 5900   1.122   3.162  15.099 -0.0744  0.2505 -0.6774
  395TMC3    C4 5901   1.041   3.415  15.169 -0.2907 -0.3128 -0.2079
  395TMC3    C5 5902   1.147   3.395  15.084 -0.4727  0.1405  0.2844
  395TMC3    C6 5903   1.199   3.270  15.060  0.2755 -0.1602  0.7335
  395TMC3     C 5904   0.903   3.323  15.337  0.1330 -0.2938 -0.1974
  395TMC3     O 5905   0.844   3.430  15.358 -0.2125 -0.4902  0.0181
  395TMC3     H 5906   0.975   3.082  15.213  1.4996 -0.6299  0.8611
  395TMC3    H1 5907   1.019   3.514  15.208 -3.7651 -0.7063 -1.2232
  395TMC3    H2 5908   1.265   3.257  14.975 -1.1502 -0.1891 -0.3684
  395TMC3    C7 5909   1.245   3.510  15.096 -0.6146  1.0306 -0.1746
  395TMC3    C8 5910   1.131   3.037  15.023  0.2015  0.2485 -0.7491
  395TMC3    O1 5911   1.190   3.619  15.113 -0.3880  0.3280 -0.3396
  395TMC3    O2 5912   1.238   3.016  14.969 -0.5676  0.4675  0.8328
  396MPD2     C 5913   0.921   4.334  16.669 -0.0428 -0.2784  0.0844
  396MPD2    C1 5914   0.910   4.443  16.747  0.0306  0.3150 -0.2895
  396MPD2    C2 5915   0.962   4.560  16.696  0.0255  0.0364 -0.0802
  396MPD2    C3 5916   1.022   4.561  16.567  1.3948  0.0653 -0.0282
  396MPD2    C4 5917   1.030   4.442  16.489  0.0622 -0.3995 -1.3338
  396MPD2    C5 5918   0.979   4.331  16.545  0.2300 -0.1374  0.1848
  396MPD2     H 5919   0.956   4.651  16.755  0.0274 -0.2887  0.4214
  396MPD2    H1 5920   1.090   4.442  16.399  1.3402  1.1865 -0.4695
  396MPD2    H2 5921   0.901   4.235  16.708 -2.1108  0.5509  1.1482
  396MPD2    H3 5922   0.977   4.240  16.485  0.2151  0.0542 -0.1060
  396MPD2     N 5923   1.085   4.685  16.533  0.2468  0.1990 -0.6618
  396MPD2    H5 5924   1.092   0.038  16.598 -3.0259 -1.1181  1.2809
  396MPD2    N1 5925   0.840   4.420  16.868 -0.3313 -0.2679 -0.5009
  396MPD2    H7 5926   0.807   4.326  16.886 -0.4958 -0.0947  0.1210
  397TMC3    C1 5927   0.823   4.422  17.091 -0.3594  0.7405  0.0169
  397TMC3    C2 5928   0.956   4.382  17.097  0.1827 -0.2248 -0.5998
  397TMC3    C3 5929   0.981   4.248  17.095 -0.6727 -0.4604 -0.5634
  397TMC3    C4 5930   0.719   4.332  17.077  0.3092  0.0795  0.3701
  397TMC3    C5 5931   0.749   4.197  17.113 -0.4063  0.3471 -0.1413
  397TMC3    C6 5932   0.879   4.158  17.111  0.5703 -0.4780 -0.0912
  397TMC3     C 5933   0.823   4.503  16.975  0.2154  0.0206 -0.1697
  397TMC3     O 5934   0.877   4.611  16.994 -0.1179 -0.1268 -0.3531
  397TMC3     H 5935   1.032   4.448  17.058 -0.9750  1.9939  0.9017
  397TMC3    H1 5936   0.617   4.366  17.080  0.1559 -0.3014 -0.5253
  397TMC3    H2 5937   0.908   4.054  17.113 -1.6218 -1.1134 -0.7228
  397TMC3    C7 5938   0.650   4.109  17.168  0.0784 -0.7536 -0.4673
  397TMC3    C8 5939   1.076   4.219  16.989 -0.3469 -0.4217  1.2420
  397TMC3    O1 5940   0.638   4.000  17.111 -0.3201 -0.5567 -0.3932
  397TMC3    O2 5941   1.051   4.115  16.930 -0.3473 -0.0599  0.6588
  398MPD2     C 5942   3.642   0.571   0.207  0.5696 -0.5805 -0.4795
  398MPD2    C1 5943   3.669   0.508   0.321  0.3897 -0.1274 -0.4099
  398MPD2    C2 5944   3.742   0.568   0.423  0.0804  0.7031  0.9390
  398MPD2    C3 5945   3.794   0.697   0.400 -1.0013  0.0945  0.0021
  398MPD2    C4 5946   3.750   0.761   0.289 -0.4535  0.6424  0.5852
  398MPD2    C5 5947   3.668   0.705   0.202 -0.1641 -0.4857  0.5229
  398MPD2     H 5948   3.780   0.519   0.512 -1.5739 -0.2493  1.1258
  398MPD2    H1 5949   3.771   0.866   0.270 -0.3963  0.9192  2.1615
  398MPD2    H2 5950   3.605   0.522   0.117  2.7384  0.4746 -1.9336
  398MPD2    H3 5951   3.633   0.764   0.118  0.7914 -0.5355  0.0901
  398MPD2     N 5952   3.884   0.745   0.492  0.8971 -0.1367  0.6370
  398MPD2    H5 5953   3.912   0.687   0.571 -2.0304 -0.4307  1.4609
  398MPD2    N1 5954   3.633   0.375   0.351 -0.8340  0.3278  1.0344
  398MPD2    H7 5955   3.664   0.343   0.443  1.5601 -1.5123 -0.4341
  399TMC3    C1 5956   3.549   0.155   0.317  0.1572 -0.3590 -0.5233
  399TMC3    C2 5957   3.647   0.108   0.400  0.4963  0.1647  0.4338
  399TMC3    C3 5958   3.640   4.701   0.444 -0.4051 -0.3809 -0.1460
  399TMC3    C4 5959   3.442   0.075   0.273  0.1407 -0.2052 -0.3188
  399TMC3    C5 5960   3.436   4.668   0.325 -0.5611  0.9357  0.1769
  399TMC3    C6 5961   3.535   4.617   0.411  0.0770 -0.9796 -0.3911
  399TMC3     C 5962   3.566   0.291   0.265  0.1621 -0.2362  0.3690
  399TMC3     O 5963   3.511   0.313   0.158  0.7320 -0.0564  0.1923
  399TMC3     H 5964   3.736   0.167   0.420  1.2836 -1.8242  2.7003
  399TMC3    H1 5965   3.371   0.110   0.199 -1.1817 -0.7359  0.7019
  399TMC3    H2 5966   3.512   4.534   0.476  1.3441 -1.1906 -0.2163
  399TMC3    C7 5967   3.314   4.592   0.308 -0.2067 -0.2155 -0.1864
  399TMC3    C8 5968   3.734   4.666   0.556 -0.2403  0.5170  0.0354
  399TMC3    O1 5969   3.205   4.647   0.295  0.0711  0.3139  0.0065
  399TMC3    O2 5970   3.808   0.030   0.585 -0.6751  0.8335 -0.2247
  400TMC3    C1 5971   2.080   4.211  17.237  0.1018 -0.4486  1.0177
  400TMC3    C2 5972   1.953   4.214  17.185  0.4089  0.0598  0.7443
  400TMC3    C3 5973   1.864   4.318  17.211  0.1248 -0.0856 -0.0419
  400TMC3    C4 5974   2.121   4.304  17.325 -0.4341  0.4890  0.1629
  400TMC3    C5 5975   2.034   4.419  17.342 -0.6047  0.3609  0.0014
  400TMC3    C6 5976   1.906   4.424  17.293 -0.0814 -0.4108 -0.1803
  400TMC3     C 5977   2.162   4.096  17.202  0.0724  0.0483 -0.1016
  400TMC3     O 5978   2.116   4.019  17.121 -0.5458  0.4069  0.3760
  400TMC3     H 5979   1.927   4.131  17.120 -0.6446  0.6298  0.4443
  400TMC3    H1 5980   2.218   4.296  17.373 -1.1942  1.2668  1.8148
  400TMC3    H2 5981   1.834   4.495  17.332 -1.0552 -1.4981 -0.0057
  400TMC3    C7 5982   2.079   4.525  17.423 -0.4766  0.4401  0.0227
  400TMC3    C8 5983   1.733   4.308  17.167  0.6203 -0.9688  0.0122
  400TMC3    O1 5984   2.003   4.616  17.431  0.4008  0.1636  0.0945
  400TMC3    O2 5985   1.649   4.375  17.226  0.4907  0.5233 -0.0871
  401MPD2     C 5986   0.488   3.406   1.508 -0.5647  0.4454  0.6966
  401MPD2    C1 5987   0.611   3.353   1.474  0.1818  0.3678 -0.7587
  401MPD2    C2 5988   0.606   3.267   1.371 -0.4805  0.1082  0.0764
  401MPD2    C3 5989   0.503   3.228   1.296  0.2525 -0.2935 -0.2066
  401MPD2    C4 5990   0.381   3.284   1.336 -0.3101  0.0332  0.3330
  401MPD2    C5 5991   0.374   3.370   1.442  1.3107  0.1574 -0.5821
  401MPD2     H 5992   0.701   3.228   1.337 -0.2425  2.2296 -1.6299
  401MPD2    H1 5993   0.294   3.242   1.287  0.1533 -0.3745 -0.1323
  401MPD2    H2 5994   0.480   3.479   1.588  0.0461  0.6223  0.5938
  401MPD2    H3 5995   0.280   3.415   1.472  0.5867 -0.5595 -1.7867
  401MPD2     N 5996   0.528   3.155   1.179 -0.4068 -0.0747  1.2354
  401MPD2    H5 5997   0.623   3.120   1.168 -1.7412 -3.6480  0.8920
  401MPD2    N1 5998   0.733   3.387   1.525 -0.1573 -0.1211 -0.4432
  401MPD2    H7 5999   0.811   3.355   1.470  0.1376 -3.5861  2.0062
  402TMC3    C1 6000   0.498   3.021   0.989 -0.0267  0.2725  0.8934
  402TMC3    C2 6001   0.413   2.919   0.938 -0.3931 -0.5163 -0.4073
  402TMC3    C3 6002   0.475   2.826   0.864 -0.4523 -0.1061 -0.1360
  402TMC3    C4 6003   0.635   3.028   0.979  0.1675 -0.2516  0.2420
  402TMC3    C5 6004   0.691   2.926   0.897 -0.9436 -0.2988  0.3404
  402TMC3    C6 6005   0.607   2.824   0.845 -0.4425 -0.9869 -0.6597
  402TMC3     C 6006   0.439   3.102   1.093  0.3711 -0.3043  0.6377
  402TMC3     O 6007   0.313   3.104   1.098 -0.8334  0.4071  0.6729
  402TMC3     H 6008   0.307   2.922   0.961 -0.4711 -0.6192 -0.7600
  402TMC3    H1 6009   0.697   3.107   1.016 -1.6427  1.1629  0.2646
  402TMC3    H2 6010   0.654   2.753   0.778  1.3888  0.6371 -1.1031
  402TMC3    C7 6011   0.834   2.936   0.875  0.7755 -0.1349 -0.0180
  402TMC3    C8 6012   0.395   2.722   0.795  0.4721  0.0439 -0.6706
  402TMC3    O1 6013   0.887   3.028   0.936  0.3035  0.4818 -0.1759
  402TMC3    O2 6014   0.461   2.635   0.740 -0.0838 -0.7088  0.3635
  403MPD2     C 6015   3.541   1.390  13.479 -0.0852 -0.1141  0.2743
  403MPD2    C1 6016   3.645   1.336  13.418  0.6001 -0.8912  0.0741
  403MPD2    C2 6017   3.776   1.359  13.454  0.8709  1.0765  0.0599
  403MPD2    C3 6018   3.794   1.426  13.578 -0.2907  0.1326  0.1118
  403MPD2    C4 6019   3.686   1.482  13.646  0.1582  0.2839 -0.3862
  403MPD2    C5 6020   3.561   1.466  13.591  0.0801 -0.1812  0.0574
  403MPD2     H 6021   3.862   1.330  13.394 -0.1262 -0.6909 -0.4779
  403MPD2    H1 6022   3.694   1.552  13.728  1.1149  0.7061 -0.8481
  403MPD2    H2 6023   3.445   1.370  13.433  0.4700 -1.1093 -0.4607
  403MPD2    H3 6024   3.475   1.505  13.644 -0.0601  1.6161 -1.4907
  403MPD2     N 6025   3.932   1.450  13.612 -0.2060 -0.2827  0.2736
  403MPD2    H5 6026   3.989   1.378  13.570  0.7235  0.9462 -0.5620
  403MPD2    N1 6027   3.610   1.259  13.306 -0.1057  0.6481 -0.2190
  403MPD2    H7 6028   3.512   1.249  13.282  0.0648  0.5222 -0.8440
  404TMC3    C1 6029   3.629   1.119  13.131 -0.7584  0.4854  0.3162
  404TMC3    C2 6030   3.554   1.020  13.189  0.4464 -0.9666  0.1245
  404TMC3    C3 6031   3.516   0.921  13.100 -0.4911  0.1942 -0.3577
  404TMC3    C4 6032   3.664   1.134  13.007 -0.1608  0.1280 -0.2860
  404TMC3    C5 6033   3.628   1.033  12.924  0.2238  0.4740  0.6925
  404TMC3    C6 6034   3.544   0.929  12.966 -0.4025  0.1221 -0.3663
  404TMC3     C 6035   3.700   1.193  13.227 -0.3206  0.4390  0.1822
  404TMC3     O 6036   3.818   1.207  13.199  0.2684  0.1244 -0.3883
  404TMC3     H 6037   3.525   1.021  13.293 -0.9074 -0.2900 -0.2617
  404TMC3    H1 6038   3.723   1.218  12.973  1.2215 -1.5166 -1.9221
  404TMC3    H2 6039   3.511   0.847  12.902  1.7243  0.6777 -2.1719
  404TMC3    C7 6040   3.632   1.072  12.781 -0.7443  0.3230 -0.4568
  404TMC3    C8 6041   3.568   0.792  13.149 -0.0538 -0.2358 -0.2833
  404TMC3    O1 6042   3.709   1.159  12.747 -0.8513  0.3225 -0.0864
  404TMC3    O2 6043   3.622   0.715  13.072  0.1136 -0.5156 -0.0043
  405MPD2     C 6044   4.207   1.743  14.271 -0.5493  0.2477 -0.3490
  405MPD2    C1 6045   4.145   1.654  14.195  0.4612 -0.1380 -0.5714
  405MPD2    C2 6046   4.043   1.689  14.111 -0.1380  0.2281  0.0750
  405MPD2    C3 6047   3.992   1.817  14.107  0.3261  0.0409  0.1354
  405MPD2    C4 6048   4.056   1.909  14.188 -0.5069 -0.4328 -0.1885
  405MPD2    C5 6049   4.163   1.870  14.265  0.4183  0.5569 -0.3563
  405MPD2     H 6050   3.999   1.612  14.049  0.8025  0.0103 -0.3232
  405MPD2    H1 6051   4.034   2.014  14.182  1.6101 -0.0873 -1.6887
  405MPD2    H2 6052   4.298   1.721  14.326 -1.9015 -1.7728  1.0534
  405MPD2    H3 6053   4.212   1.950  14.318 -2.4421  1.3982  1.0417
  405MPD2     N 6054   3.884   1.848  14.022  0.0590  0.3164 -0.2675
  405MPD2    H5 6055   3.859   1.782  13.948  0.9003 -0.8323  0.4778
  405MPD2    N1 6056   4.171   1.514  14.191  0.0102 -0.4911  0.1620
  405MPD2    H7 6057   4.126   1.461  14.118  1.0623  1.5252 -1.9427
  406TMC3    C1 6058   3.465   1.952  14.013  0.3104  0.2724  0.2162
  406TMC3    C2 6059   3.441   1.821  14.007 -0.0491  0.3429 -1.1248
  406TMC3    C3 6060   3.546   1.747  13.963  0.6971  0.2396  0.3692
  406TMC3    C4 6061   3.586   2.016  13.988  0.6289 -1.1665 -0.6590
  406TMC3    C5 6062   3.686   1.936  13.956 -0.4937  0.3993 -0.1862
  406TMC3    C6 6063   3.665   1.802  13.932  0.4248  0.0868  0.1763
  406TMC3     C 6064   3.369   2.039  14.086 -0.3063 -0.0948 -0.0936
  406TMC3     O 6065   3.374   2.154  14.044  0.4444  0.0098  0.2369
  406TMC3     H 6066   3.349   1.773  14.038  1.1016 -0.0574  1.6439
  406TMC3    H1 6067   3.595   2.123  14.000  0.9914 -1.4041  1.0881
  406TMC3    H2 6068   3.733   1.728  13.891  0.7663  0.9793 -0.8548
  406TMC3    C7 6069   3.811   1.960  14.025  0.5911 -0.1771 -0.3266
  406TMC3    C8 6070   3.519   1.608  13.932 -0.0363 -0.1858  0.1278
  406TMC3    O1 6071   3.825   2.062  14.095  0.4009  0.0869  0.0766
  406TMC3    O2 6072   3.408   1.586  13.885  0.4193 -0.1427  0.2180
  407MPD2     C 6073   1.146   2.548   9.586 -0.4537 -0.0538  0.6285
  407MPD2    C1 6074   1.208   2.668   9.566 -0.0295  0.0029  0.5721
  407MPD2    C2 6075   1.252   2.746   9.669 -0.7162 -0.0524  0.2394
  407MPD2    C3 6076   1.254   2.693   9.793 -1.0216 -0.7682  0.4391
  407MPD2    C4 6077   1.205   2.561   9.812  0.1418  0.2128 -0.3600
  407MPD2    C5 6078   1.162   2.486   9.706  0.3075  0.4492  0.5761
  407MPD2     H 6079   1.284   2.848   9.651  2.4485 -1.2989 -1.1926
  407MPD2    H1 6080   1.201   2.518   9.912  2.9410  0.7492 -0.0168
  407MPD2    H2 6081   1.094   2.498   9.505  1.2556 -0.6283 -0.0996
  407MPD2    H3 6082   1.128   2.384   9.724  0.6076 -0.0690 -1.8119
  407MPD2     N 6083   1.294   2.760   9.910 -0.4585 -0.1257  0.8601
  407MPD2    H5 6084   1.292   2.711   9.999  0.1872 -2.0468 -0.1962
  407MPD2    N1 6085   1.212   2.728   9.438 -1.0161 -0.0367  0.6266
  407MPD2    H7 6086   1.234   2.827   9.440 -0.6950 -0.1301  2.0648
  408TMC3    C1 6087   1.291   2.742   9.225  0.1638  0.3219 -0.0555
  408TMC3    C2 6088   1.415   2.702   9.182 -0.3226 -0.1077 -0.3930
  408TMC3    C3 6089   1.506   2.785   9.124  0.9868 -0.6520 -0.0781
  408TMC3    C4 6090   1.267   2.884   9.216  0.0170  0.8849  0.6584
  408TMC3    C5 6091   1.350   2.964   9.152 -0.0946  0.1067 -0.5132
  408TMC3    C6 6092   1.470   2.915   9.102 -0.3483  0.4017  0.3403
  408TMC3     C 6093   1.229   2.654   9.322  0.1653 -0.7839  0.8279
  408TMC3     O 6094   1.250   2.532   9.310 -0.6976 -0.2759  0.0119
  408TMC3     H 6095   1.451   2.600   9.181 -0.4173 -0.1384 -1.0918
  408TMC3    H1 6096   1.172   2.918   9.256 -0.1100 -1.3913  2.3621
  408TMC3    H2 6097   1.544   2.986   9.067  2.3523 -2.7627 -0.2822
  408TMC3    C7 6098   1.350   3.105   9.178  0.7511 -0.3337 -0.2520
  408TMC3    C8 6099   1.644   2.755   9.162  0.0651  1.4031 -0.2494
  408TMC3    O1 6100   1.463   3.149   9.191 -0.7980 -0.6891 -0.3315
  408TMC3    O2 6101   1.695   2.647   9.139  0.2261 -0.2662  0.4266
  409MPD2     C 6102   0.898   3.678  17.659  0.1563  0.2797 -0.5200
  409MPD2    C1 6103   1.033   3.655  17.682 -0.0353 -0.0735  0.1372
  409MPD2    C2 6104   1.121   3.755  17.642 -0.4108 -0.2697  0.8341
  409MPD2    C3 6105   1.077   3.873  17.580  0.9096  0.1139 -0.3320
  409MPD2    C4 6106   0.940   3.887  17.558  0.8884 -0.2374  0.4041
  409MPD2    C5 6107   0.856   3.789  17.596 -0.4938 -0.2072 -0.5272
  409MPD2     H 6108   1.225   3.750  17.671 -0.9616  1.6261  3.1687
  409MPD2    H1 6109   0.898   3.973  17.507 -2.9880 -3.3530 -1.7043
  409MPD2    H2 6110   0.825   3.607  17.694 -0.0574  2.5178  3.6394
  409MPD2    H3 6111   0.749   3.808  17.587 -0.3023  1.1619  0.1663
  409MPD2     N 6112   1.159   3.977  17.534  0.3052  0.0314 -0.0915
  409MPD2    H5 6113   1.116   4.060  17.496  0.1146  0.4208  0.9767
  409MPD2    N1 6114   1.087   3.542   0.046 -0.0477  0.9420 -1.0041
  409MPD2    H7 6115   1.189   3.545   0.050  0.0411 -0.0311 -2.8122
  410TMC3    C1 6116   1.363   4.099  17.505  0.6653 -0.1934 -0.8505
  410TMC3    C2 6117   1.500   4.104  17.524  0.1304 -0.3577 -0.0600
  410TMC3    C3 6118   1.547   4.227  17.488 -0.6543 -0.3835 -0.0365
  410TMC3    C4 6119   1.287   4.200  17.444  0.6714 -0.4110 -0.4477
  410TMC3    C5 6120   1.352   4.312  17.405 -0.1531 -0.8790 -0.6538
  410TMC3    C6 6121   1.479   4.339  17.440  0.3503  0.3625 -0.2582
  410TMC3     C 6122   1.297   3.982  17.556 -0.4563  0.4614 -0.2403
  410TMC3     O 6123   1.371   3.898  17.612 -0.2715 -0.0915 -0.0480
  410TMC3     H 6124   1.563   4.030  17.571 -0.7429 -1.2071 -0.2402
  410TMC3    H1 6125   1.182   4.177  17.432  0.5218  0.7148 -1.2733
  410TMC3    H2 6126   1.528   4.435  17.425  1.2216 -0.3053 -1.6209
  410TMC3    C7 6127   1.275   4.412  17.334 -0.1192 -0.1045 -0.2788
  410TMC3    C8 6128   1.687   4.246  17.515 -0.7793  0.3762  0.0218
  410TMC3    O1 6129   1.154   4.420  17.337 -0.3968 -0.2526 -0.2161
  410TMC3    O2 6130   1.703   4.359  17.563 -0.1473 -0.0682 -0.2458
  411MPD2     C 6131   1.431   4.167  14.901 -1.4791  1.4872  0.0344
  411MPD2    C1 6132   1.303   4.217  14.895 -0.2736 -0.3303 -0.2741
  411MPD2    C2 6133   1.194   4.137  14.930  0.2702 -0.0837  0.5659
  411MPD2    C3 6134   1.219   4.009  14.975  0.1963  0.0056  0.6506
  411MPD2    C4 6135   1.354   3.969  14.995  0.0477  0.2978  0.6427
  411MPD2    C5 6136   1.460   4.052  14.964 -0.2602  0.8695 -0.0793
  411MPD2     H 6137   1.092   4.173  14.923  0.5968  0.9933  1.2790
  411MPD2    H1 6138   1.371   3.864  15.017 -1.1836  0.1566  0.9323
  411MPD2    H2 6139   1.516   4.211  14.850 -0.5784 -0.2330  0.0337
  411MPD2    H3 6140   1.566   4.030  14.970 -0.6214 -0.4696  1.6036
  411MPD2     N 6141   1.119   3.908  15.009  0.0486 -0.0110  0.1437
  411MPD2    H5 6142   1.159   3.817  15.029  1.7796  0.6621 -0.2232
  411MPD2    N1 6143   1.272   4.346  14.840 -0.3657  0.5578 -0.3674
  411MPD2    H7 6144   1.180   4.374  14.805  0.1728  1.3112 -1.1928
  412TMC3    C1 6145   0.895   3.838  15.069  0.0125 -0.5799 -0.9919
  412TMC3    C2 6146   0.769   3.888  15.074 -0.4693  0.1755 -0.2819
  412TMC3    C3 6147   0.665   3.827  15.017 -0.7893 -0.2551 -0.7819
  412TMC3    C4 6148   0.923   3.722  15.004  0.1836 -0.4447  0.0899
  412TMC3    C5 6149   0.817   3.666  14.943  0.1434  0.3494  0.3386
  412TMC3    C6 6150   0.690   3.712  14.951 -0.7666 -0.1903  0.5031
  412TMC3     C 6151   0.985   3.942  15.023 -0.2509  0.8397 -0.5572
  412TMC3     O 6152   0.929   4.044  14.983  0.3154  0.2614 -0.5964
  412TMC3     H 6153   0.749   3.983  15.122  1.2019 -0.4010  1.5246
  412TMC3    H1 6154   1.026   3.704  14.976 -0.4534  0.7648 -3.0584
  412TMC3    H2 6155   0.615   3.653  14.900 -0.4511  2.0302 -2.5558
  412TMC3    C7 6156   0.853   3.622  14.818 -0.1920 -0.2969 -0.0545
  412TMC3    C8 6157   0.590   3.913  14.932  0.1474  0.1171  0.3382
  412TMC3    O1 6158   0.943   3.542  14.801  0.2484 -0.0705  0.0050
  412TMC3    O2 6159   0.581   3.879  14.816  0.2997 -0.1132  0.5011
  413MPD2     C 6160   3.033   3.134  15.224 -0.0293 -0.2929 -0.9078
  413MPD2    C1 6161   2.944   3.071  15.139 -0.2047 -0.2970 -0.2001
  413MPD2    C2 6162   2.979   2.946  15.092 -0.4729  0.1360 -0.8736
  413MPD2    C3 6163   3.102   2.890  15.128  0.6752  0.0065 -0.4610
  413MPD2    C4 6164   3.188   2.962  15.197  0.7830 -0.1074  0.5087
  413MPD2    C5 6165   3.152   3.079  15.255  0.0871  0.4559 -0.3800
  413MPD2     H 6166   2.922   2.885  15.023 -1.8046  2.2996 -1.6956
  413MPD2    H1 6167   3.282   2.919  15.228  1.6064  0.3844 -1.3087
  413MPD2    H2 6168   2.993   3.219  15.279  0.8060 -0.0252 -0.7212
  413MPD2    H3 6169   3.224   3.122  15.323  0.1406 -2.8113  1.6118
  413MPD2     N 6170   3.118   2.756  15.083  0.4322 -0.5839 -0.1068
  413MPD2    H5 6171   3.073   2.726  14.997 -2.2713  0.3694  0.9960
  413MPD2    N1 6172   2.806   3.109  15.149 -0.0189 -0.1622 -0.1049
  413MPD2    H7 6173   2.778   3.185  15.210 -0.7540 -1.4167  1.1299
  414TMC3    C1 6174   3.251   2.555  15.056  0.5744 -0.4708 -0.5795
  414TMC3    C2 6175   3.362   2.494  15.104  0.1107  0.1062 -0.0753
  414TMC3    C3 6176   3.389   2.370  15.056  0.5302 -0.6016 -0.4350
  414TMC3    C4 6177   3.166   2.508  14.965  0.0096 -0.8894  0.0030
  414TMC3    C5 6178   3.209   2.393  14.911  0.0907 -0.9753  0.2618
  414TMC3    C6 6179   3.319   2.316  14.957 -0.0306 -0.3896 -0.4563
  414TMC3     C 6180   3.221   2.679  15.125  0.5572 -0.0056  0.4840
  414TMC3     O 6181   3.282   2.691  15.229  0.1401 -0.4725  0.2526
  414TMC3     H 6182   3.434   2.542  15.170 -0.3044 -0.0959  0.5285
  414TMC3    H1 6183   3.085   2.566  14.922  0.9294  0.3220 -0.1203
  414TMC3    H2 6184   3.338   2.215  14.923 -0.5289 -0.4902 -0.4297
  414TMC3    C7 6185   3.125   2.341  14.805  0.2578  0.0228 -0.5422
  414TMC3    C8 6186   3.511   2.293  15.098  0.1690 -0.2996 -0.2349
  414TMC3    O1 6187   3.004   2.345  14.830  0.1400  0.9174 -0.0160
  414TMC3    O2 6188   3.526   2.187  15.040 -0.1398  0.0399  0.1508
  415TMC3    C1 6189   3.327   4.481  10.074 -0.1387  0.4449 -0.2651
  415TMC3    C2 6190   3.261   4.556   9.983  0.0465 -0.1422 -0.2483
  415TMC3    C3 6191   3.233   4.506   9.864 -0.1004  0.0102  0.1027
  415TMC3    C4 6192   3.361   4.358  10.047  0.4118 -0.0911  0.4667
  415TMC3    C5 6193   3.337   4.309   9.925  0.3257 -0.7575  0.0178
  415TMC3    C6 6194   3.268   4.382   9.826 -0.2442 -0.8601 -0.6881
  415TMC3     C 6195   3.361   4.534  10.206 -0.2068 -0.0199  0.1288
  415TMC3     O 6196   3.389   4.450  10.286  0.5637  0.3844 -0.9709
  415TMC3     H 6197   3.234   4.656  10.014 -0.6358 -0.8712  1.5439
  415TMC3    H1 6198   3.394   4.290  10.125 -0.9319 -0.7499  0.4642
  415TMC3    H2 6199   3.248   4.333   9.732  2.1381 -2.5572 -0.3154
  415TMC3    C7 6200   3.369   4.167   9.900 -0.0019  0.5236  0.5613
  415TMC3    C8 6201   3.176   4.587   9.753 -0.8057  0.8375 -0.3451
  415TMC3    O1 6202   3.324   4.111   9.796 -0.1517 -0.4386  0.3367
  415TMC3    O2 6203   3.149   4.532   9.647 -0.4657 -0.4883  0.2972
  416MPD2     C 6204   0.510   4.126  12.001 -0.2430 -0.0242  0.0838
  416MPD2    C1 6205   0.393   4.149  11.925  0.3746 -0.1749 -0.4901
  416MPD2    C2 6206   0.380   4.074  11.808 -0.6256 -0.0284 -0.4098
  416MPD2    C3 6207   0.470   3.972  11.784  1.5409  0.1260 -0.1080
  416MPD2    C4 6208   0.566   3.940  11.870 -0.3291  0.1735 -0.0544
  416MPD2    C5 6209   0.591   4.024  11.979  0.0571 -0.3317  0.0787
  416MPD2     H 6210   0.291   4.085  11.747 -0.5538  0.0466 -0.5020
  416MPD2    H1 6211   0.639   3.864  11.842 -0.8603 -0.6326  0.7394
  416MPD2    H2 6212   0.546   4.190  12.081  0.3127  0.5894 -0.6632
  416MPD2    H3 6213   0.684   4.006  12.032 -1.6853 -1.7030  2.7085
  416MPD2     N 6214   0.452   3.892  11.670  0.3219 -0.2937 -0.2028
  416MPD2    H5 6215   0.516   3.813  11.663  3.3450  1.9990  1.9162
  416MPD2    N1 6216   0.296   4.248  11.964  0.1374  0.0891 -0.3994
  416MPD2    H7 6217   0.307   4.288  12.056 -0.4835  1.5201 -0.9572
  417TMC3    C1 6218   0.137   4.418  11.946  0.6523  0.1949  0.3011
  417TMC3    C2 6219   0.130   4.438  12.081 -0.4040  0.2627  0.6059
  417TMC3    C3 6220   0.081   4.558  12.130  0.1842 -0.9429  0.3208
  417TMC3    C4 6221   0.068   4.503  11.869  0.1606 -0.1286  0.0557
  417TMC3    C5 6222   0.013   4.614  11.923  0.0112  0.1287  0.5023
  417TMC3    C6 6223   0.020   4.651  12.052 -0.2657  0.6554 -0.1313
  417TMC3     C 6224   0.188   4.297  11.894 -0.1784 -0.4733 -0.8525
  417TMC3     O 6225   0.155   4.270  11.778 -0.2634 -0.3192 -0.4750
  417TMC3     H 6226   0.167   4.358  12.144  1.6589  1.8780  1.4256
  417TMC3    H1 6227   0.071   4.485  11.762  0.3566  1.0699 -0.1434
  417TMC3    H2 6228   4.697   0.016  12.094 -0.1478  0.8437 -0.3973
  417TMC3    C7 6229   4.663   4.707  11.843  0.1148 -0.0262 -0.0455
  417TMC3    C8 6230   0.033   4.560  12.266  0.0302  0.0096 -0.0735
  417TMC3    O1 6231   4.667   0.102  11.857  0.2588  0.6040 -0.2112
  417TMC3    O2 6232   4.651   4.615  12.288  0.2076  0.3828 -0.1607
  418TMC3    C1 6233   4.188   0.832   0.743 -0.3573 -0.2855 -0.3630
  418TMC3    C2 6234   4.136   0.876   0.622  0.6369 -0.4220  0.7872
  418TMC3    C3 6235   4.001   0.894   0.613 -0.2194  0.6457 -0.1486
  418TMC3    C4 6236   4.113   0.795   0.852  0.8493  0.8820 -0.0786
  418TMC3    C5 6237   3.976   0.802   0.831 -0.6188 -0.2461 -0.6966
  418TMC3    C6 6238   3.921   0.855   0.717 -0.1688 -0.2165  0.5956
  418TMC3     C 6239   4.333   0.787   0.735  0.2292  0.1810 -0.2004
  418TMC3     O 6240   4.401   0.847   0.656  0.1906 -0.0346 -0.2411
  418TMC3     H 6241   4.192   0.877   0.529 -0.2052 -1.6842  0.2690
  418TMC3    H1 6242   4.159   0.741   0.935 -0.7174  0.2762  0.4011
  418TMC3    H2 6243   3.814   0.838   0.708  0.1379 -3.1572  2.3088
  418TMC3    C7 6244   3.892   0.707   0.902 -0.4960  0.8281  0.6862
  418TMC3    C8 6245   3.940   0.868   0.488  0.4961 -0.4206  0.0658
  418TMC3    O1 6246   3.807   0.651   0.833  0.3248 -0.2675  0.1919
  418TMC3    O2 6247   3.934   0.956   0.405 -0.0629  0.2009 -0.1063
  419MPD2     C 6248   2.586   4.188  12.075 -0.4629 -1.1255 -0.0577
  419MPD2    C1 6249   2.584   4.312  12.123  0.4285 -0.9605 -0.1927
  419MPD2    C2 6250   2.539   4.342  12.250 -0.1972 -0.7927 -0.8542
  419MPD2    C3 6251   2.518   4.244  12.348 -0.5270 -0.2721  0.1976
  419MPD2    C4 6252   2.528   4.113  12.296  0.0893  0.4194  0.8199
  419MPD2    C5 6253   2.556   4.092  12.164  0.8656  0.1913 -0.9832
  419MPD2     H 6254   2.543   4.446  12.282 -1.4355 -1.0833  0.2565
  419MPD2    H1 6255   2.498   4.027  12.355 -0.3548  0.1100  0.1389
  419MPD2    H2 6256   2.620   4.161  11.976 -0.3256  1.4845 -0.7278
  419MPD2    H3 6257   2.554   3.991  12.124 -1.5167  0.1895 -0.8956
  419MPD2     N 6258   2.483   4.273  12.480 -0.3472 -0.6012  0.0141
  419MPD2    H5 6259   2.458   4.368  12.502  0.3170 -0.3359 -0.3543
  419MPD2    N1 6260   2.612   4.432  12.045 -0.0264 -0.2804 -0.5112
  419MPD2    H7 6261   2.592   4.527  12.073 -0.0018 -0.9902  1.9492
  420TMC3    C1 6262   2.449   4.237  12.709 -0.2161 -0.8118  0.2675
  420TMC3    C2 6263   2.360   4.341  12.715  0.1429  0.4814  0.0892
  420TMC3    C3 6264   2.302   4.365  12.834  0.2224  0.0956 -0.0875
  420TMC3    C4 6265   2.485   4.152  12.814  0.6419 -0.4621  0.8197
  420TMC3    C5 6266   2.425   4.186  12.931  0.6323 -0.6360 -0.4756
  420TMC3    C6 6267   2.339   4.291  12.948  0.5512  0.5393 -0.6155
  420TMC3     C 6268   2.473   4.180  12.583 -0.2243 -0.7147 -0.1623
  420TMC3     O 6269   2.505   4.062  12.579  0.9122 -0.3888  0.1247
  420TMC3     H 6270   2.313   4.383  12.627  0.1976  0.4664  0.0528
  420TMC3    H1 6271   2.550   4.067  12.799  0.1958 -0.9918  1.9380
  420TMC3    H2 6272   2.302   4.313  13.048  1.1258  0.9985 -0.4953
  420TMC3    C7 6273   2.498   4.151  13.057  0.2233 -0.6289 -0.3776
  420TMC3    C8 6274   2.228   4.492  12.851  0.1742  0.2182  0.2088
  420TMC3    O1 6275   2.439   4.176  13.162 -0.4916 -0.0985  0.1344
  420TMC3    O2 6276   2.242   4.581  12.770 -0.7874  0.7495 -0.2537
  421TMC3    C1 6277   4.124   1.518  13.743 -0.3397 -0.4386  0.4322
  421TMC3    C2 6278   4.174   1.624  13.810 -0.9606 -0.5007  0.4678
  421TMC3    C3 6279   4.301   1.614  13.846 -0.0939  0.4419  0.4624
  421TMC3    C4 6280   4.185   1.405  13.709 -0.0553  0.0001  0.2414
  421TMC3    C5 6281   4.312   1.387  13.758  0.1828 -0.3453  0.0523
  421TMC3    C6 6282   4.375   1.498  13.813  0.3061  0.7060 -0.2189
  421TMC3     C 6283   3.973   1.530  13.714 -0.0160  0.1517 -0.1225
  421TMC3     O 6284   3.915   1.623  13.770  0.0163 -0.0296 -0.3620
  421TMC3     H 6285   4.112   1.711  13.830 -0.0894  0.4930 -1.1582
  421TMC3    H1 6286   4.141   1.316  13.663 -2.8242  1.2261  0.4952
  421TMC3    H2 6287   4.479   1.498  13.843  0.1782 -1.8594  0.2168
  421TMC3    C7 6288   4.355   1.263  13.815  0.3044  0.1616 -0.3264
  421TMC3    C8 6289   4.376   1.706  13.930  0.5260 -0.6245  0.6845
  421TMC3    O1 6290   4.468   1.262  13.862  0.4110 -0.3301  0.3614
  421TMC3    O2 6291   4.472   1.661  13.990 -0.5631 -0.1218  0.7654
  422TMC3    C1 6292   1.530   2.312  12.689  0.6550  0.3563 -0.2465
  422TMC3    C2 6293   1.476   2.434  12.657  0.8914 -0.6611 -1.2425
  422TMC3    C3 6294   1.350   2.460  12.695 -0.2727  0.5046  0.3529
  422TMC3    C4 6295   1.461   2.220  12.763  0.1798 -0.1800 -0.0252
  422TMC3    C5 6296   1.334   2.252  12.801  0.2500  0.6659 -0.1323
  422TMC3    C6 6297   1.279   2.378  12.777 -0.1383  0.3278 -0.1657
  422TMC3     C 6298   1.656   2.282  12.623  0.0276 -0.1929  0.3071
  422TMC3     O 6299   1.724   2.378  12.582 -0.4859  0.1187  0.2835
  422TMC3     H 6300   1.531   2.514  12.609 -0.3012  1.2481  0.5317
  422TMC3    H1 6301   1.508   2.127  12.794  2.2940  0.3624 -1.6169
  422TMC3    H2 6302   1.187   2.418  12.818 -1.2246 -0.2584 -2.0687
  422TMC3    C7 6303   1.289   2.179  12.910  0.9856  0.3817 -0.0496
  422TMC3    C8 6304   1.312   2.597  12.699 -0.2771 -0.3382 -0.4486
  422TMC3    O1 6305   1.364   2.100  12.966  0.2127 -0.0261 -0.2616
  422TMC3    O2 6306   1.399   2.679  12.724 -0.6519 -0.1828  0.0967
  423MPD2     C 6307   3.077   3.503   0.592  0.1054  0.1608 -0.1253
  423MPD2    C1 6308   2.964   3.426   0.612  0.0698  0.6318  0.0493
  423MPD2    C2 6309   2.919   3.340   0.514 -0.5625 -0.2259  0.6551
  423MPD2    C3 6310   2.984   3.325   0.389 -0.3452  0.2478  0.0228
  423MPD2    C4 6311   3.096   3.403   0.376  0.9550  0.0914  0.3385
  423MPD2    C5 6312   3.147   3.483   0.473  0.3377  0.4304  0.1824
  423MPD2     H 6313   2.832   3.277   0.531 -1.0753  0.1929 -0.3799
  423MPD2    H1 6314   3.165   3.384   0.294  0.4630  3.2098 -0.7898
  423MPD2    H2 6315   3.121   3.568   0.667 -1.4474  1.1120 -0.0113
  423MPD2    H3 6316   3.245   3.529   0.470  0.2601  0.6650  1.4914
  423MPD2     N 6317   2.947   3.234   0.284 -0.3094  0.1824  0.4430
  423MPD2    H5 6318   3.010   3.219   0.206 -1.1601 -1.1476  0.0024
  423MPD2    N1 6319   2.879   3.453   0.723  0.1218  0.4925 -0.4161
  423MPD2    H7 6320   2.784   3.418   0.713 -1.3518  3.9406  1.3746
  424TMC3    C1 6321   2.805   3.538   0.932 -0.2533 -0.2343 -0.3816
  424TMC3    C2 6322   2.822   3.527   1.069  0.5007  0.1113 -0.6508
  424TMC3    C3 6323   2.707   3.535   1.141 -0.3444  0.1337 -0.7529
  424TMC3    C4 6324   2.682   3.566   0.875 -0.0998 -0.1247  0.0391
  424TMC3    C5 6325   2.578   3.599   0.958  0.2779 -0.0469  0.4209
  424TMC3    C6 6326   2.585   3.572   1.093 -0.7487 -0.0469  0.1672
  424TMC3     C 6327   2.918   3.514   0.841 -0.3846 -0.0639  0.6670
  424TMC3     O 6328   3.030   3.539   0.884 -0.2014 -0.2255  0.5135
  424TMC3     H 6329   2.912   3.470   1.090 -0.3028 -1.0804 -0.4065
  424TMC3    H1 6330   2.683   3.585   0.769 -0.4610 -0.5995 -0.0513
  424TMC3    H2 6331   2.506   3.582   1.167 -1.2101  1.1949 -0.4973
  424TMC3    C7 6332   2.471   3.675   0.906 -0.5272 -0.3246 -0.6714
  424TMC3    C8 6333   2.705   3.461   1.269  0.5391 -0.3494  0.1308
  424TMC3    O1 6334   2.502   3.758   0.818  0.1979  0.3586  0.0102
  424TMC3    O2 6335   2.595   3.432   1.314 -0.0507 -0.2797 -0.0486
  425MPD2     C 6336   1.927   2.584  17.259 -0.0381  0.3326  0.0454
  425MPD2    C1 6337   1.910   2.450  17.286 -0.0867 -0.3966 -0.5580
  425MPD2    C2 6338   1.789   2.413  17.350  0.3492  0.5494 -0.5098
  425MPD2    C3 6339   1.700   2.509  17.393 -0.3946  0.4173 -0.4065
  425MPD2    C4 6340   1.728   2.644  17.377  0.0230 -0.8407  0.4411
  425MPD2    C5 6341   1.838   2.678  17.304  0.0741 -0.9450  0.2482
  425MPD2     H 6342   1.761   2.310  17.370  2.1334  0.7340  2.8974
  425MPD2    H1 6343   1.657   2.718  17.412  1.6951  1.2795 -0.6770
  425MPD2    H2 6344   2.015   2.613  17.203 -0.6523  1.2872 -0.4365
  425MPD2    H3 6345   1.855   2.777  17.265  1.1080 -1.6318 -1.0425
  425MPD2     N 6346   1.585   2.459  17.455 -0.7412 -0.0692  0.1989
  425MPD2    H5 6347   1.573   2.359  17.460  1.7110 -0.3449  0.3128
  425MPD2    N1 6348   2.001   2.361  17.237  0.2005  0.3349 -0.3993
  425MPD2    H7 6349   2.095   2.387  17.210  0.0761  0.8007 -0.3888
  426TMC3    C1 6350   2.103   2.147  17.268 -0.6417  0.7432  0.4853
  426TMC3    C2 6351   2.120   2.041  17.192  0.1029 -0.0467 -0.2245
  426TMC3    C3 6352   2.232   1.958  17.211 -0.1335  0.4406 -0.3422
  426TMC3    C4 6353   2.182   2.185  17.368  0.9563  0.4371  0.9368
  426TMC3    C5 6354   2.287   2.102  17.389  0.0934  0.2387 -0.3314
  426TMC3    C6 6355   2.324   1.998  17.308  0.3795 -0.7131 -0.4005
  426TMC3     C 6356   1.980   2.221  17.241 -0.6034  0.1105  0.5246
  426TMC3     O 6357   1.879   2.153  17.251 -0.5839 -0.1298  0.4337
  426TMC3     H 6358   2.054   2.032  17.106 -0.8680  2.2725  0.2779
  426TMC3    H1 6359   2.152   2.253  17.446  1.3218  1.2548  0.3640
  426TMC3    H2 6360   2.396   1.926  17.346 -1.1873 -2.9971 -1.7518
  426TMC3    C7 6361   2.360   2.118  17.522  0.1291 -0.5287 -0.5921
  426TMC3    C8 6362   2.243   1.841  17.125 -0.0448  0.4754 -0.3473
  426TMC3    O1 6363   2.474   2.077  17.533 -0.0699 -0.0819  0.0137
  426TMC3    O2 6364   2.357   1.794  17.116 -0.3824  0.4993 -0.2303
  427MPD2     C 6365   0.698   4.585  14.757 -0.3660  0.3805 -0.1284
  427MPD2    C1 6366   0.630   4.570  14.875 -0.3330  0.7714  0.1899
  427MPD2    C2 6367   0.500   4.622  14.894  0.5205 -0.0408  0.0061
  427MPD2    C3 6368   0.433   4.671  14.790  0.4742 -0.1701 -0.3405
  427MPD2    C4 6369   0.496   4.679  14.668 -0.2448 -0.3291 -0.0627
  427MPD2    C5 6370   0.623   4.640  14.657 -0.0288  0.4385  0.4702
  427MPD2     H 6371   0.455   4.617  14.993  2.0106 -3.1421  0.5206
  427MPD2    H1 6372   0.445   4.707  14.576 -2.4653  0.2655  1.3538
  427MPD2    H2 6373   0.802   4.555  14.746  0.3735  2.8977 -0.0007
  427MPD2    H3 6374   0.677   4.646  14.563  1.6089  1.1838  1.4591
  427MPD2     N 6375   0.292   4.690  14.795 -0.0370 -0.5400  1.2248
  427MPD2    H5 6376   0.242   4.721  14.712  2.4369  0.5570  0.1450
  427MPD2    N1 6377   0.685   4.499  14.981 -0.2161 -0.6087 -0.0027
  427MPD2    H7 6378   0.625   4.491  15.062  0.9388  0.5302  0.9636
  428TMC3    C1 6379   0.850   4.370  15.102 -0.2698 -0.6319  1.2259
  428TMC3    C2 6380   0.752   4.305  15.176 -0.2391 -0.0645  0.0694
  428TMC3    C3 6381   0.792   4.210  15.258  0.3512  0.4655  0.4582
  428TMC3    C4 6382   0.979   4.345  15.123 -0.2615  0.6598 -0.2974
  428TMC3    C5 6383   1.019   4.244  15.207  0.5003 -0.0528 -0.2201
  428TMC3    C6 6384   0.922   4.173  15.271  0.1461 -0.3946 -0.4726
  428TMC3     C 6385   0.816   4.449  14.984 -0.3852 -0.2960 -0.6173
  428TMC3     O 6386   0.906   4.463  14.904  0.1465  0.9812 -0.2377
  428TMC3     H 6387   0.648   4.318  15.147 -0.4835 -4.0713 -0.8825
  428TMC3    H1 6388   1.052   4.385  15.053  1.3981  0.0268  1.0454
  428TMC3    H2 6389   0.946   4.091  15.339 -0.9825 -1.5058 -1.4197
  428TMC3    C7 6390   1.143   4.257  15.274  1.0381 -0.1080 -0.0554
  428TMC3    C8 6391   0.700   4.147  15.356 -0.7269 -0.7011  0.0694
  428TMC3    O1 6392   1.140   4.213  15.384 -0.3146 -0.2908  0.3403
  428TMC3    O2 6393   0.721   4.027  15.369 -0.6203 -0.1212  0.0166
  429MPD2     C 6394   1.514   4.578   0.179  0.2417 -0.1433 -0.0140
  429MPD2    C1 6395   1.647   4.569   0.169  0.2233  0.1315 -0.1410
  429MPD2    C2 6396   1.724   4.687   0.154 -0.5570 -0.4134  0.5019
  429MPD2    C3 6397   1.667   0.086   0.149  0.6001 -0.5180  0.1927
  429MPD2    C4 6398   1.531   0.097   0.162  0.0023 -0.4884  0.9556
  429MPD2    C5 6399   1.460   4.706   0.175 -0.0890 -0.2304 -0.1831
  429MPD2     H 6400   1.832   4.683   0.148 -0.5725 -1.8162  1.1039
  429MPD2    H1 6401   1.469   0.184   0.179  0.0619  0.0951 -1.8390
  429MPD2    H2 6402   1.445   4.495   0.187  1.1684 -1.0591 -1.7675
  429MPD2    H3 6403   1.352   4.712   0.186 -0.2309 -1.0454 -1.1579
  429MPD2     N 6404   1.755   0.198   0.135 -0.0729 -0.1146  0.0113
  429MPD2    H5 6405   1.852   0.169   0.128 -0.0296 -0.1461  0.7537
  429MPD2    N1 6406   1.719   4.447   0.174  0.8749 -0.5253 -0.1848
  429MPD2    H7 6407   1.818   4.453   0.191  1.0557  1.8209 -2.0415
  430TMC3    C1 6408   1.845   0.412   0.115 -0.5272  0.7300  0.5415
  430TMC3    C2 6409   1.845   0.504   0.015 -0.0526  0.0453  0.2057
  430TMC3    C3 6410   1.964   0.530  17.647 -0.5113 -0.1930  0.2831
  430TMC3    C4 6411   1.964   0.356   0.149  0.0559  0.0022 -0.1789
  430TMC3    C5 6412   2.079   0.374   0.085  0.0915  0.5958  0.5239
  430TMC3    C6 6413   2.082   0.465  17.682 -0.3077  0.5065 -0.2351
  430TMC3     C 6414   1.722   0.333   0.122  0.0961 -0.9097  0.3318
  430TMC3     O 6415   1.615   0.382   0.090 -0.1831  0.1582 -0.3242
  430TMC3     H 6416   1.747   0.532  17.676 -0.8944 -0.7916  1.7999
  430TMC3    H1 6417   1.963   0.298   0.240  1.6584 -0.0277 -0.1819
  430TMC3    H2 6418   2.172   0.461  17.622  0.0689  2.3086  0.2103
  430TMC3    C7 6419   2.113   0.242   0.040 -0.5134 -0.4053  0.1282
  430TMC3    C8 6420   1.949   0.566  17.507  1.2922  0.4499 -0.0325
  430TMC3    O1 6421   2.018   0.164   0.055 -0.0494 -1.0290 -0.9694
  430TMC3    O2 6422   1.839   0.589  17.467  0.0336 -0.0378 -0.3906
  431MPD2     C 6423   2.547   0.436  12.462 -0.5041  0.0142 -0.0313
  431MPD2    C1 6424   2.603   0.475  12.348  0.0780  0.5045 -0.1681
  431MPD2    C2 6425   2.636   0.387  12.250 -0.1498 -0.5497 -0.3429
  431MPD2    C3 6426   2.610   0.246  12.257 -0.3074 -0.3738 -0.2609
  431MPD2    C4 6427   2.561   0.207  12.377 -0.4274  0.5102  0.4806
  431MPD2    C5 6428   2.526   0.300  12.470  0.7476 -0.0621 -0.0985
  431MPD2     H 6429   2.692   0.422  12.164  1.8240 -1.8745  0.4295
  431MPD2    H1 6430   2.544   0.105  12.410  0.1462  0.1844 -0.2545
  431MPD2    H2 6431   2.539   0.504  12.547 -1.7320  0.6067 -0.6222
  431MPD2    H3 6432   2.498   0.259  12.566  1.4053 -0.9642 -0.2938
  431MPD2     N 6433   2.648   0.150  12.163  0.0621 -0.1171 -0.0744
  431MPD2    H5 6434   2.631   0.053  12.185  1.6964 -0.2753  0.4988
  431MPD2    N1 6435   2.641   0.610  12.328 -0.4263  0.7336  0.1232
  431MPD2    H7 6436   2.682   0.638  12.239  2.1896 -1.1370  0.7313
  432TMC3    C1 6437   2.725   0.072  11.942 -0.6884 -0.1069 -0.0646
  432TMC3    C2 6438   2.757   0.099  11.817  0.3478  0.3155 -0.2696
  432TMC3    C3 6439   2.767   4.721  11.727 -0.5683  0.2822  0.3942
  432TMC3    C4 6440   2.700   4.670  11.982 -0.1751 -0.4425  0.1706
  432TMC3    C5 6441   2.717   4.565  11.893  0.8939 -0.1987 -0.6452
  432TMC3    C6 6442   2.752   4.587  11.765 -0.5068 -0.6986 -0.9447
  432TMC3     C 6443   2.708   0.185  12.039  0.0810  0.8989  0.4615
  432TMC3     O 6444   2.735   0.295  11.989 -0.0328 -0.7491 -0.2559
  432TMC3     H 6445   2.777   0.200  11.785 -0.0191  0.5038  0.1047
  432TMC3    H1 6446   2.683   4.647  12.087  0.1025 -2.7479 -0.2838
  432TMC3    H2 6447   2.784   4.506  11.700 -2.6828 -1.4965 -1.0183
  432TMC3    C7 6448   2.682   4.429  11.926 -0.2173  0.5494  0.4447
  432TMC3    C8 6449   2.848   0.017  11.616  0.5155 -0.2732  0.0945
  432TMC3    O1 6450   2.718   4.336  11.853 -0.0896  0.0634 -0.5700
  432TMC3    O2 6451   2.825   0.113  11.542 -0.1198  0.3816 -0.2589
  433MPD2     C 6452   1.164   3.340  11.012 -0.6368  0.0369  0.3626
  433MPD2    C1 6453   1.146   3.243  11.108 -0.1585 -0.4453  0.0732
  433MPD2    C2 6454   1.206   3.272  11.232  0.3760 -0.7718  0.2439
  433MPD2    C3 6455   1.283   3.388  11.254  0.0183  0.2829  0.3038
  433MPD2    C4 6456   1.299   3.478  11.146  0.4995 -0.9159  1.0032
  433MPD2    C5 6457   1.232   3.455  11.030  0.3970  0.0552  0.5986
  433MPD2     H 6458   1.199   3.202  11.314  0.4367  0.5262  1.3519
  433MPD2    H1 6459   1.369   3.560  11.155 -0.9368  0.0568  3.1942
  433MPD2    H2 6460   1.127   3.325  10.911 -1.1425  0.0114  0.5511
  433MPD2    H3 6461   1.242   3.519  10.942  0.0472 -0.8448 -0.0975
  433MPD2     N 6462   1.354   3.398  11.378 -0.1072 -0.1712 -0.3656
  433MPD2    H5 6463   1.331   3.336  11.454 -0.2165 -1.2684 -1.2966
  433MPD2    N1 6464   1.083   3.118  11.073 -0.1424 -0.5478  0.2505
  433MPD2    H7 6465   1.071   3.100  10.974 -1.7482 -1.9371  0.7115
  434TMC3    C1 6466   1.075   2.892  11.082 -0.0361  0.5193  0.6301
  434TMC3    C2 6467   1.171   2.810  11.129  0.0043 -0.4451  0.6773
  434TMC3    C3 6468   1.219   2.707  11.053 -0.2081  0.3583  0.4162
  434TMC3    C4 6469   1.043   2.888  10.948  0.1933 -0.0044  0.3850
  434TMC3    C5 6470   1.106   2.792  10.869 -0.8178  0.4680  0.3708
  434TMC3    C6 6471   1.194   2.696  10.919 -0.1414 -0.3732 -0.7751
  434TMC3     C 6472   1.071   3.016  11.158  0.6915  0.0859 -0.8420
  434TMC3     O 6473   1.072   3.013  11.280  0.4560 -0.1459  0.1608
  434TMC3     H 6474   1.198   2.814  11.234 -1.1915 -0.7096  0.9966
  434TMC3    H1 6475   0.974   2.955  10.897 -1.3786 -1.2305  0.8906
  434TMC3    H2 6476   1.235   2.617  10.859  0.4846  0.5016 -1.4983
  434TMC3    C7 6477   1.066   2.788  10.730 -0.0372  0.3744 -0.2265
  434TMC3    C8 6478   1.347   2.657  11.104 -0.1141 -0.1304 -0.5226
  434TMC3    O1 6479   0.978   2.857  10.687 -0.3047 -0.7541  0.4968
  434TMC3    O2 6480   1.415   2.734  11.162  0.0118 -0.2921 -0.5781
  435MPD2     C 6481   3.086   3.510  15.421 -0.2031 -0.3660 -0.1087
  435MPD2    C1 6482   3.104   3.523  15.554 -0.2197  0.3129  0.1789
  435MPD2    C2 6483   3.225   3.500  15.615 -0.1550 -0.1582  0.7880
  435MPD2    C3 6484   3.328   3.449  15.541  0.1458  0.0741 -0.2937
  435MPD2    C4 6485   3.319   3.446  15.409 -0.3273  0.0370 -0.2262
  435MPD2    C5 6486   3.197   3.471  15.347 -0.3981 -0.5412  0.1385
  435MPD2     H 6487   3.224   3.489  15.723  1.1229  0.3671  0.8482
  435MPD2    H1 6488   3.409   3.421  15.355 -1.8920 -1.8075 -2.0018
  435MPD2    H2 6489   2.993   3.533  15.372 -0.1225 -0.1029 -0.1381
  435MPD2    H3 6490   3.185   3.466  15.240 -0.1302  1.2515  0.0170
  435MPD2     N 6491   3.449   3.428  15.619  0.0886 -0.2698  0.1762
  435MPD2    H5 6492   3.445   3.440  15.720  0.1894 -1.2825  0.3038
  435MPD2    N1 6493   3.003   3.564  15.647  0.2394  0.0945 -0.3960
  435MPD2    H7 6494   3.032   3.558  15.744  1.7610  3.7614 -0.6139
  436TMC3    C1 6495   2.796   3.656  15.979 -0.8194  0.4684 -0.1725
  436TMC3    C2 6496   2.869   3.626  15.869  0.1093 -0.5718 -1.6376
  436TMC3    C3 6497   2.806   3.630  15.746 -0.1828 -0.5277  0.0672
  436TMC3    C4 6498   2.659   3.681  15.979 -0.4112 -0.3926  0.1607
  436TMC3    C5 6499   2.606   3.697  15.852 -0.3559  0.5441 -0.1851
  436TMC3    C6 6500   2.674   3.670  15.739  0.3024 -0.3941  0.5670
  436TMC3     C 6501   2.885   3.675  16.098 -0.3018  0.1012  0.1613
  436TMC3     O 6502   3.004   3.634  16.090 -0.2496 -0.7781  0.6565
  436TMC3     H 6503   2.974   3.601  15.882 -0.6825 -1.7423  2.4520
  436TMC3    H1 6504   2.605   3.717  16.066  0.5255  1.3991 -0.0021
  436TMC3    H2 6505   2.623   3.681  15.643  0.6771  0.0923  0.4230
  436TMC3    C7 6506   2.474   3.760  15.834 -0.7605  0.5074 -0.7293
  436TMC3    C8 6507   2.873   3.600  15.622 -0.1304 -0.2267 -0.9482
  436TMC3    O1 6508   2.439   3.765  15.716 -0.3721  0.1356 -0.2495
  436TMC3    O2 6509   2.809   3.604  15.514  0.1471  0.4497 -0.7327
  437TMC3    C1 6510   2.146   1.044  12.813  0.0004  0.4575 -0.5981
  437TMC3    C2 6511   2.072   1.154  12.855  0.0004 -0.3197  0.2167
  437TMC3    C3 6512   2.016   1.238  12.761  0.5312 -0.9072  0.2064
  437TMC3    C4 6513   2.160   1.020  12.678 -0.7182 -0.6605  0.7419
  437TMC3    C5 6514   2.112   1.111  12.588 -0.1612  0.7401 -0.7203
  437TMC3    C6 6515   2.042   1.221  12.627  0.5242 -0.2014 -0.0023
  437TMC3     C 6516   2.152   0.933  12.904 -0.4437 -0.1254  0.4012
  437TMC3     O 6517   2.066   0.923  12.996 -0.2555  0.3550  0.2412
  437TMC3     H 6518   2.068   1.188  12.957 -0.7046 -0.2476  0.1697
  437TMC3    H1 6519   2.203   0.926  12.649 -1.0635 -0.8364  0.7983
  437TMC3    H2 6520   2.013   1.298  12.558  1.0710  1.8646  2.0692
  437TMC3    C7 6521   2.196   1.127  12.473 -0.1782  0.1440 -0.3563
  437TMC3    C8 6522   1.932   1.342  12.809 -0.5030  0.2564 -0.1535
  437TMC3    O1 6523   2.156   1.194  12.381 -0.1701 -0.3712 -0.0322
  437TMC3    O2 6524   1.867   1.311  12.907 -0.2143  0.2938  0.1247
  438MPD2     C 6525   4.681   1.094  16.536  0.0222  0.0554 -0.4866
  438MPD2    C1 6526   4.724   0.966  16.542 -0.2564  0.2340 -0.9681
  438MPD2    C2 6527   4.683   0.879  16.643  0.3837  0.0963  0.4526
  438MPD2    C3 6528   4.602   0.927  16.748 -0.2622 -0.1611  0.3429
  438MPD2    C4 6529   4.558   1.055  16.738 -0.4349 -0.6110  0.2603
  438MPD2    C5 6530   4.592   1.140  16.631 -0.4655 -0.3508 -0.1648
  438MPD2     H 6531   4.721   0.777  16.651  2.9057  0.9787 -0.1834
  438MPD2    H1 6532   4.495   1.103  16.812  0.5471  1.1130 -0.0036
  438MPD2    H2 6533   4.706   1.157  16.452  1.8744  1.5725  1.1969
  438MPD2    H3 6534   4.562   1.244  16.630 -3.1317 -1.1267 -0.2333
  438MPD2     N 6535   4.572   0.850  16.869 -0.4158  0.4199 -0.1229
  438MPD2    H5 6536   4.504   0.886  16.935  0.0561 -1.9663  1.6991
  438MPD2    N1 6537   0.100   0.921  16.450 -0.0638 -0.0531  0.5055
  438MPD2    H7 6538   0.137   0.829  16.473 -3.2949 -0.3265  4.6935
  439TMC3    C1 6539   0.206   0.892  16.242 -0.0571 -0.0049 -0.0997
  439TMC3    C2 6540   0.172   0.859  16.112  0.2386 -0.0461 -0.2176
  439TMC3    C3 6541   0.265   0.784  16.040 -0.2953 -0.4436  0.3378
  439TMC3    C4 6542   0.328   0.858  16.290 -0.9191  0.7400  0.0360
  439TMC3    C5 6543   0.420   0.788  16.213  0.1116 -0.2546 -0.1103
  439TMC3    C6 6544   0.391   0.755  16.085  0.4932  0.0395 -0.9146
  439TMC3     C 6545   0.104   0.962  16.321 -0.1552  0.1083  0.0600
  439TMC3     O 6546   0.036   1.038  16.256  0.1841  0.1735 -0.0785
  439TMC3     H 6547   0.076   0.887  16.069 -0.6539 -3.5336 -0.5100
  439TMC3    H1 6548   0.353   0.895  16.389  0.1340 -0.2692  0.1481
  439TMC3    H2 6549   0.458   0.683  16.040  0.6207  0.4385 -1.3588
  439TMC3    C7 6550   0.548   0.753  16.275  0.6620  0.0402  0.5691
  439TMC3    C8 6551   0.232   0.741  15.910  0.7118 -0.1507 -0.4479
  439TMC3    O1 6552   0.564   0.761  16.397  0.2159  0.1848 -1.0463
  439TMC3    O2 6553   0.116   0.735  15.870  0.1732 -0.3639 -0.1971
  440MPD2     C 6554   3.351   1.922  14.692 -0.1117  0.8710  1.0372
  440MPD2    C1 6555   3.375   1.903  14.829  0.4147  0.3019  1.4627
  440MPD2    C2 6556   3.501   1.862  14.870 -0.0905  0.4978  0.3286
  440MPD2    C3 6557   3.604   1.841  14.778  0.3354 -0.0589 -0.2565
  440MPD2    C4 6558   3.579   1.853  14.645  0.6248  0.1120 -0.8388
  440MPD2    C5 6559   3.453   1.889  14.608 -0.4344  0.1432 -0.2819
  440MPD2     H 6560   3.512   1.839  14.975  0.3827 -1.8578 -0.2474
  440MPD2    H1 6561   3.651   1.834  14.567 -0.7757 -2.2958 -1.5340
  440MPD2    H2 6562   3.261   1.962  14.647 -0.5276 -1.8278 -0.5318
  440MPD2    H3 6563   3.439   1.903  14.501 -3.2033  1.3256  0.2269
  440MPD2     N 6564   3.733   1.802  14.824 -0.4116  0.5129 -0.2437
  440MPD2    H5 6565   3.809   1.789  14.758  1.5340 -0.1799  2.1378
  440MPD2    N1 6566   3.286   1.913  14.937 -0.0395 -0.3841  0.1377
  440MPD2    H7 6567   3.316   1.884  15.029 -1.9614  1.0704  1.2174
  441TMC3    C1 6568   3.900   1.727  14.973 -0.2851 -0.3655 -0.7918
  441TMC3    C2 6569   3.974   1.831  15.017 -0.4387 -0.2695 -0.0728
  441TMC3    C3 6570   4.053   1.813  15.130  0.2240  0.1595 -0.2761
  441TMC3    C4 6571   3.883   1.622  15.055 -0.0022  0.1046  0.0762
  441TMC3    C5 6572   3.972   1.594  15.163 -1.0192 -0.7326 -0.3577
  441TMC3    C6 6573   4.055   1.696  15.200 -0.7270 -0.6171  0.1705
  441TMC3     C 6574   3.769   1.786  14.956 -0.4097  0.6500  0.4928
  441TMC3     O 6575   3.713   1.830  15.052  0.0089 -0.2446 -0.2997
  441TMC3     H 6576   3.969   1.923  14.960 -0.0094  0.5206  1.1579
  441TMC3    H1 6577   3.825   1.537  15.019 -1.1496  1.5702 -1.6002
  441TMC3    H2 6578   4.098   1.696  15.299 -1.8606 -1.7425  0.6674
  441TMC3    C7 6579   3.925   1.498  15.256 -0.2552  0.2998  0.1471
  441TMC3    C8 6580   4.045   1.930  15.214  0.3069 -0.7694 -0.0901
  441TMC3    O1 6581   3.810   1.464  15.249  0.4993  0.5081  0.0682
  441TMC3    O2 6582   4.150   1.959  15.274  0.0275 -0.4924 -0.8072
  442MPD2     C 6583   1.766   2.251  16.579  0.2130  0.0721  0.3200
  442MPD2    C1 6584   1.650   2.173  16.599 -0.2978 -0.2769  0.3238
  442MPD2    C2 6585   1.653   2.038  16.573 -0.0514 -0.4134  0.4418
  442MPD2    C3 6586   1.769   1.988  16.516  0.2431  0.1432 -0.2149
  442MPD2    C4 6587   1.883   2.067  16.500 -0.7008  0.2864 -0.1170
  442MPD2    C5 6588   1.882   2.199  16.530 -0.2935  0.0478 -0.7433
  442MPD2     H 6589   1.563   1.981  16.591 -0.6205  1.2542  2.8727
  442MPD2    H1 6590   1.971   2.028  16.451 -0.0302 -0.0257  1.3357
  442MPD2    H2 6591   1.766   2.357  16.603 -0.5326  0.0907  0.2465
  442MPD2    H3 6592   1.970   2.258  16.510 -0.9336  0.4517 -2.3496
  442MPD2     N 6593   1.770   1.852  16.469 -0.2324  0.4001 -0.5393
  442MPD2    H5 6594   1.858   1.824  16.426 -0.1852 -0.9415  0.4039
  442MPD2    N1 6595   1.536   2.223  16.670  0.1670  0.2164  0.1032
  442MPD2    H7 6596   1.465   2.158  16.701  0.5749  0.2079  1.0124
  443TMC3    C1 6597   1.389   2.383  16.770  0.3050  0.3752 -0.1446
  443TMC3    C2 6598   1.339   2.517  16.774 -0.0246 -0.3855 -0.7074
  443TMC3    C3 6599   1.223   2.528  16.834  0.5053  0.2868 -0.0924
  443TMC3    C4 6600   1.320   2.277  16.835 -0.5355 -0.4154  0.2406
  443TMC3    C5 6601   1.216   2.314  16.914 -0.5680 -0.6505  0.1049
  443TMC3    C6 6602   1.160   2.441  16.910 -0.8903  0.4069 -0.5547
  443TMC3     C 6603   1.513   2.360  16.695 -0.2193  0.5118 -0.1884
  443TMC3     O 6604   1.586   2.456  16.682 -0.1385 -0.4130 -0.6101
  443TMC3     H 6605   1.386   2.599  16.719 -0.6045  0.1823 -0.3590
  443TMC3    H1 6606   1.364   2.179  16.849  2.8442  1.2056  1.2741
  443TMC3    H2 6607   1.065   2.464  16.955 -0.2112  0.9602  0.6068
  443TMC3    C7 6608   1.149   2.206  16.988 -1.0303  0.0600  0.1540
  443TMC3    C8 6609   1.144   2.652  16.827  0.5633  1.2197 -0.5047
  443TMC3    O1 6610   1.145   2.107  16.922  0.3059  0.1247 -0.0385
  443TMC3    O2 6611   1.131   2.707  16.938  0.4824  0.2179 -0.6776
  444MPD2     C 6612   2.338   1.315  17.129 -0.0304  0.6424 -0.2691
  444MPD2    C1 6613   2.225   1.244  17.093 -0.4538  0.2554  0.9928
  444MPD2    C2 6614   2.248   1.123  17.022  0.3255  0.0653  0.4300
  444MPD2    C3 6615   2.372   1.076  16.999  0.4097  0.8831 -1.0247
  444MPD2    C4 6616   2.481   1.148  17.051 -0.2785  0.2363  0.1120
  444MPD2    C5 6617   2.463   1.266  17.110 -0.4162  0.1901  0.0804
  444MPD2     H 6618   2.169   1.064  16.977 -0.0114 -1.3019  2.8107
  444MPD2    H1 6619   2.584   1.129  17.023 -0.3300  0.8546 -0.5113
  444MPD2    H2 6620   2.329   1.401  17.194  2.2670 -0.6255  1.7315
  444MPD2    H3 6621   2.552   1.320  17.139 -1.0655  0.8646  0.7967
  444MPD2     N 6622   2.387   0.955  16.934  0.6217 -0.5543  0.2067
  444MPD2    H5 6623   2.304   0.922  16.886  1.1307 -2.0015  0.3283
  444MPD2    N1 6624   2.094   1.273  17.129 -0.7211  0.3638 -0.1182
  444MPD2    H7 6625   2.025   1.199  17.123 -2.8132  2.4591 -2.2157
  445TMC3    C1 6626   2.491   0.767  16.847 -0.5289  0.6631 -0.4754
  445TMC3    C2 6627   2.419   0.781  16.732 -0.1495 -0.2882  0.3077
  445TMC3    C3 6628   2.452   0.698  16.628 -0.0543 -0.2709 -0.5049
  445TMC3    C4 6629   2.603   0.688  16.848  0.3486  0.0902 -0.3637
  445TMC3    C5 6630   2.637   0.616  16.736 -0.1356  0.3273  0.1043
  445TMC3    C6 6631   2.559   0.611  16.623 -0.6648  0.2410  0.6215
  445TMC3     C 6632   2.497   0.877  16.942  0.1099  1.1967  0.0698
  445TMC3     O 6633   2.604   0.890  17.004 -0.2588 -0.4882 -0.5569
  445TMC3     H 6634   2.337   0.850  16.713 -0.0476  0.3922  2.3376
  445TMC3    H1 6635   2.666   0.683  16.936  0.4674  0.8592 -0.4016
  445TMC3    H2 6636   2.585   0.559  16.532  0.6774 -0.5423  1.4413
  445TMC3    C7 6637   2.768   0.569  16.710 -0.2481 -0.3360 -0.6939
  445TMC3    C8 6638   2.373   0.718  16.508  0.8692  0.5472 -0.4299
  445TMC3    O1 6639   2.791   0.508  16.608  0.2568 -0.0436 -0.0402
  445TMC3    O2 6640   2.304   0.819  16.498 -0.0172 -0.7299  0.3858
  446MPD2     C 6641   1.499   2.473  11.629  0.3472  0.4821  0.2890
  446MPD2    C1 6642   1.422   2.502  11.517  0.1685  0.7097  0.8809
  446MPD2    C2 6643   1.443   2.624  11.452 -0.6759 -0.0988 -0.9672
  446MPD2    C3 6644   1.537   2.716  11.501 -0.3855 -0.5645 -0.0852
  446MPD2    C4 6645   1.595   2.695  11.620  0.0260  0.0753 -0.6997
  446MPD2    C5 6646   1.573   2.575  11.683  0.1197 -0.3230  0.4789
  446MPD2     H 6647   1.382   2.632  11.362 -0.4885  0.0086 -1.0855
  446MPD2    H1 6648   1.657   2.772  11.664 -0.1928  1.1158 -2.1890
  446MPD2    H2 6649   1.507   2.377  11.679  0.4624  0.4280  0.1688
  446MPD2    H3 6650   1.611   2.555  11.783  0.1581 -0.4205  0.4449
  446MPD2     N 6651   1.552   2.832  11.423 -0.1829  0.4940 -0.0543
  446MPD2    H5 6652   1.514   2.823  11.329  2.4389  1.1546 -1.1864
  446MPD2    N1 6653   1.321   2.417  11.455 -0.8949  0.4167  0.4123
  446MPD2    H7 6654   1.274   2.455  11.374 -0.3374 -0.5173 -0.3400
  447TMC3    C1 6655   1.595   3.050  11.346  0.5035 -1.1273 -0.1868
  447TMC3    C2 6656   1.512   3.032  11.239  0.3083 -0.2547  0.1979
  447TMC3    C3 6657   1.517   3.127  11.142 -0.1062  0.2663 -0.7036
  447TMC3    C4 6658   1.683   3.148  11.351  0.5521 -0.1051  0.0705
  447TMC3    C5 6659   1.695   3.238  11.244 -0.5622 -0.1322 -0.4291
  447TMC3    C6 6660   1.605   3.231  11.140  0.2513  0.3633  0.7935
  447TMC3     C 6661   1.603   2.952  11.451  0.7527  0.4381  0.0981
  447TMC3     O 6662   1.653   2.981  11.560 -0.0158 -0.1931 -0.1247
  447TMC3     H 6663   1.430   2.960  11.237  0.7646 -0.7362 -0.9843
  447TMC3    H1 6664   1.758   3.154  11.430  0.8677  0.7893 -0.2953
  447TMC3    H2 6665   1.603   3.297  11.053  2.7199 -1.6541 -0.7927
  447TMC3    C7 6666   1.838   3.248  11.203  0.0605  0.3700  0.4222
  447TMC3    C8 6667   1.493   3.089  11.007 -0.0651 -1.0970 -0.4072
  447TMC3    O1 6668   1.910   3.168  11.265  0.2677  0.1923  0.4349
  447TMC3    O2 6669   1.497   3.175  10.915 -0.7873  0.1993  0.2701
  448TMC3    C1 6670   0.801   2.543  17.107  0.4268 -0.1260  0.6537
  448TMC3    C2 6671   0.787   2.417  17.070 -0.3364  0.1184  0.1249
  448TMC3    C3 6672   0.711   2.333  17.150 -0.3059 -0.1709 -0.1982
  448TMC3    C4 6673   0.747   2.595  17.224 -0.2374  0.1179  0.5630
  448TMC3    C5 6674   0.684   2.507  17.304  0.7600  0.7585 -0.3617
  448TMC3    C6 6675   0.653   2.377  17.269  0.0129  0.2606 -0.3009
  448TMC3     C 6676   0.838   2.645  17.012  0.3105  0.0233  0.3324
  448TMC3     O 6677   0.860   2.755  17.063 -0.2444 -0.5652 -0.0420
  448TMC3     H 6678   0.841   2.375  16.985 -0.3450  1.2233 -0.4286
  448TMC3    H1 6679   0.765   2.697  17.255  1.6164 -0.3924  1.1492
  448TMC3    H2 6680   0.588   2.312  17.328  1.3844  0.1511  1.1186
  448TMC3    C7 6681   0.596   2.552  17.411 -0.1204  0.6097  0.2155
  448TMC3    C8 6682   0.664   2.208  17.100  0.6263 -0.0456 -0.0945
  448TMC3    O1 6683   0.549   2.458  17.478 -0.2672 -0.1221  0.0431
  448TMC3    O2 6684   0.568   2.156  17.155  0.0560  0.1997  0.1078
  449MPD2     C 6685   1.385   1.022  14.060 -0.0103  0.3172 -0.5167
  449MPD2    C1 6686   1.280   1.052  13.979 -0.6242  0.2311 -0.2249
  449MPD2    C2 6687   1.158   0.994  13.998  0.4834 -0.1871 -0.1661
  449MPD2    C3 6688   1.130   0.915  14.106  0.4110  0.4515 -0.1935
  449MPD2    C4 6689   1.236   0.885  14.188  0.7427  0.0674  0.5465
  449MPD2    C5 6690   1.364   0.931  14.159  0.0489 -0.6280 -0.0632
  449MPD2     H 6691   1.077   1.028  13.935  0.9934  0.7676 -0.3079
  449MPD2    H1 6692   1.224   0.827  14.279 -0.8363  0.1821  0.4135
  449MPD2    H2 6693   1.483   1.065  14.047 -0.4396  1.3951 -0.1373
  449MPD2    H3 6694   1.442   0.897  14.226  0.7117  2.7058  0.8728
  449MPD2     N 6695   1.007   0.853  14.130  0.2242  0.3416  0.0297
  449MPD2    H5 6696   0.936   0.863  14.058  0.9679 -3.4144 -1.2252
  449MPD2    N1 6697   1.295   1.134  13.860  0.6211 -0.7580 -0.2754
  449MPD2    H7 6698   1.215   1.171  13.811 -0.0795 -0.9829  0.7144
  450TMC3    C1 6699   1.393   1.190  13.656 -0.4244  0.1752  0.9999
  450TMC3    C2 6700   1.456   1.121  13.558  0.7508  0.5993 -0.3609
  450TMC3    C3 6701   1.389   1.062  13.461 -0.5824 -0.1624 -0.3982
  450TMC3    C4 6702   1.269   1.239  13.632 -0.1857 -0.2279  0.1079
  450TMC3    C5 6703   1.193   1.187  13.531  1.0082  0.4342 -0.8618
  450TMC3    C6 6704   1.252   1.093  13.449 -1.1594  0.1331 -0.1038
  450TMC3     C 6705   1.416   1.143  13.791 -1.0929 -0.7938  0.1470
  450TMC3     O 6706   1.510   1.075  13.815 -0.2527  0.6481 -0.3663
  450TMC3     H 6707   1.556   1.086  13.581  1.3132  0.7190 -2.6392
  450TMC3    H1 6708   1.212   1.289  13.710  0.0847  0.5722 -0.2134
  450TMC3    H2 6709   1.191   1.045  13.374 -0.6573 -0.9594  0.1828
  450TMC3    C7 6710   1.067   1.143  13.583 -0.0287 -0.3081 -0.2854
  450TMC3    C8 6711   1.451   0.943  13.402  0.8698  0.1034  0.4281
  450TMC3    O1 6712   1.058   1.140  13.706  0.5831 -0.2718 -0.7963
  450TMC3    O2 6713   1.384   0.843  13.384 -0.0461 -0.0812  0.9336
  451MPD2     C 6714   2.851   0.141   1.679  0.1921  0.6484 -0.0619
  451MPD2    C1 6715   2.726   0.168   1.619  0.5346  0.1184 -0.4972
  451MPD2    C2 6716   2.650   0.057   1.582 -0.2532  0.6045  0.2862
  451MPD2    C3 6717   2.687   4.651   1.610 -0.3712 -0.0101  0.4699
  451MPD2    C4 6718   2.813   4.629   1.661 -0.1852  0.8344  1.1317
  451MPD2    C5 6719   2.891   0.013   1.692  0.6674  0.3684 -0.3626
  451MPD2     H 6720   2.556   0.075   1.532 -1.3546  1.9506  2.8578
  451MPD2    H1 6721   2.862   4.535   1.686  0.2417  0.0384 -2.6259
  451MPD2    H2 6722   2.915   0.217   1.723  1.3680 -0.2579 -0.2331
  451MPD2    H3 6723   2.982   4.717   1.748  0.5588 -0.1484 -0.3695
  451MPD2     N 6724   2.611   4.539   1.574  0.0090 -0.2058  0.3307
  451MPD2    H5 6725   2.650   4.451   1.606 -2.0455 -1.2609 -0.1279
  451MPD2    N1 6726   2.675   0.299   1.615 -0.3479 -0.0101 -0.1281
  451MPD2    H7 6727   2.735   0.381   1.622 -0.1641 -0.1263 -0.3291
  452TMC3    C1 6728   2.439   4.410   1.474  0.1075  0.0147 -0.0088
  452TMC3    C2 6729   2.443   4.319   1.577  0.9661  0.1676  0.1616
  452TMC3    C3 6730   2.363   4.210   1.559  0.5249 -0.8317 -0.2261
  452TMC3    C4 6731   2.357   4.399   1.363 -0.4604 -0.0482 -0.2348
  452TMC3    C5 6732   2.276   4.293   1.358 -0.3990  0.3157  0.1377
  452TMC3    C6 6733   2.271   4.193   1.456 -0.1562 -0.2243 -0.3414
  452TMC3     C 6734   2.505   4.538   1.487  0.2790 -0.8661 -0.2525
  452TMC3     O 6735   2.457   4.627   1.413 -0.6374 -0.1570 -0.1882
  452TMC3     H 6736   2.501   4.329   1.669 -1.0792 -0.6357  1.5351
  452TMC3    H1 6737   2.344   4.478   1.290  1.5464 -0.4386 -1.0161
  452TMC3    H2 6738   2.205   4.107   1.459 -1.6041  0.9621  1.4593
  452TMC3    C7 6739   2.193   4.275   1.247  0.2014  0.2749 -0.6002
  452TMC3    C8 6740   2.373   4.094   1.649 -0.1113 -0.1102  0.5446
  452TMC3    O1 6741   2.083   4.227   1.268  0.3146 -0.3343  0.5680
  452TMC3    O2 6742   2.269   4.034   1.671 -0.1303 -0.1224 -0.7700
  453TMC3    C1 6743   3.844   1.797  11.942 -0.5863 -0.7444  0.5629
  453TMC3    C2 6744   3.833   1.704  12.047 -0.0516 -0.2936  0.2005
  453TMC3    C3 6745   3.886   1.577  12.026 -0.1723  0.7905  1.0074
  453TMC3    C4 6746   3.900   1.749  11.824  0.4288  0.1008 -0.1488
  453TMC3    C5 6747   3.952   1.622  11.806  0.4380  0.8788 -0.2392
  453TMC3    C6 6748   3.956   1.540  11.913 -0.6034  0.0993  0.5544
  453TMC3     C 6749   3.920   1.915  11.975 -0.2655  0.1454 -0.0986
  453TMC3     O 6750   4.035   1.922  11.938  0.4029 -0.0739 -0.0177
  453TMC3     H 6751   3.791   1.737  12.141  1.8736 -0.1580  1.0101
  453TMC3    H1 6752   3.917   1.826  11.749  0.5658 -0.2058 -0.4344
  453TMC3    H2 6753   4.007   1.444  11.914 -0.3434  0.2331 -0.1153
  453TMC3    C7 6754   4.045   1.606  11.703  0.0853  0.3341  0.3746
  453TMC3    C8 6755   3.856   1.478  12.123 -0.4464  0.0414 -0.3831
  453TMC3    O1 6756   4.166   1.573  11.724  0.4686  0.1699 -0.1709
  453TMC3    O2 6757   3.784   1.515  12.220  0.4233  0.1039  0.1766
  454MPD2     C 6758   3.031   1.001  16.617 -0.2806 -0.2465 -0.1347
  454MPD2    C1 6759   2.973   1.122  16.598 -0.6718  0.5074 -0.3779
  454MPD2    C2 6760   2.941   1.201  16.709  0.6761  0.7675 -0.1371
  454MPD2    C3 6761   2.946   1.144  16.832  0.1490  0.4851  0.2328
  454MPD2    C4 6762   3.015   1.027  16.850 -0.0145 -0.3325  0.4632
  454MPD2    C5 6763   3.060   0.959  16.739  0.0125  0.3462 -0.1716
  454MPD2     H 6764   2.898   1.298  16.687  0.2151  0.7460  0.6625
  454MPD2    H1 6765   3.010   0.974  16.945  1.5110 -1.3461 -0.0097
  454MPD2    H2 6766   3.047   0.937  16.531 -1.1556 -1.6025  0.7148
  454MPD2    H3 6767   3.110   0.864  16.760  0.3296  0.6925  0.6569
  454MPD2     N 6768   2.881   1.193  16.946  0.1471 -0.3358 -0.1801
  454MPD2    H5 6769   2.906   1.161  17.039  1.1804 -1.6798 -0.9299
  454MPD2    N1 6770   2.923   1.177  16.479  0.5660  0.2447 -0.5288
  454MPD2    H7 6771   2.872   1.263  16.492 -1.6650 -0.8254 -2.1022
  455TMC3    C1 6772   2.691   1.307  16.832  0.2816  0.3221 -0.0449
  455TMC3    C2 6773   2.615   1.423  16.823 -0.3917 -0.1571 -0.2072
  455TMC3    C3 6774   2.505   1.416  16.745  0.2178  0.3908  0.2540
  455TMC3    C4 6775   2.649   1.200  16.756 -0.0311 -0.1489 -0.1989
  455TMC3    C5 6776   2.550   1.203  16.661 -0.2339 -0.3176 -0.2137
  455TMC3    C6 6777   2.474   1.317  16.658  0.4429  0.3672 -0.6029
  455TMC3     C 6778   2.787   1.293  16.946 -0.3571 -0.0648 -0.1104
  455TMC3     O 6779   2.780   1.375  17.035 -0.0431  0.4366  0.1202
  455TMC3     H 6780   2.627   1.514  16.881  0.7456  0.9365 -2.1584
  455TMC3    H1 6781   2.701   1.108  16.777 -1.4339 -0.9586 -0.3049
  455TMC3    H2 6782   2.397   1.327  16.583  2.2309  0.4285 -2.4471
  455TMC3    C7 6783   2.545   1.109  16.551  0.2462 -0.6196 -0.2352
  455TMC3    C8 6784   2.403   1.515  16.776 -0.0601 -0.7278 -0.4150
  455TMC3    O1 6785   2.454   1.125  16.464  0.9907  0.7440 -0.5048
  455TMC3    O2 6786   2.441   1.618  16.821 -0.1027 -0.1534 -0.1686
  456MPD2     C 6787   0.255   1.269  16.261 -0.3827  0.5538  0.0724
  456MPD2    C1 6788   0.353   1.273  16.359  0.0384 -0.3501  0.5410
  456MPD2    C2 6789   0.334   1.338  16.481  0.0953  0.2573 -0.2203
  456MPD2    C3 6790   0.214   1.409  16.502 -0.6780  0.0430  0.2877
  456MPD2    C4 6791   0.114   1.398  16.403  0.0161 -0.3212  0.7299
  456MPD2    C5 6792   0.135   1.330  16.281 -0.0969  0.1276  0.1743
  456MPD2     H 6793   0.404   1.347  16.563  1.9651  0.3570 -1.8365
  456MPD2    H1 6794   0.023   1.455  16.396  0.6314  0.5876  0.1364
  456MPD2    H2 6795   0.270   1.233  16.160 -0.1379  1.1625 -0.1048
  456MPD2    H3 6796   0.055   1.331  16.207  1.4398 -1.9090 -1.5141
  456MPD2     N 6797   0.201   1.496  16.610 -0.6034 -0.1203  0.3046
  456MPD2    H5 6798   0.279   1.506  16.674 -0.6010 -0.2135  0.3152
  456MPD2    N1 6799   0.473   1.198  16.329  0.1775 -0.6241  0.0491
  456MPD2    H7 6800   0.479   1.157  16.237  0.4224  1.0401 -0.6779
  457TMC3    C1 6801   0.085   1.646  16.760  0.5859 -0.2581  0.3221
  457TMC3    C2 6802   0.206   1.686  16.791 -0.3433 -0.0855  0.1002
  457TMC3    C3 6803   0.212   1.770  16.897 -0.4971  0.0286  0.7197
  457TMC3    C4 6804   4.693   1.682  16.818  0.5478 -0.2706  0.4741
  457TMC3    C5 6805   4.699   1.765  16.923  0.3909 -0.2262  0.7672
  457TMC3    C6 6806   0.099   1.797  16.967  0.6794 -0.0763 -0.6699
  457TMC3     C 6807   0.081   1.557  16.645  0.0208 -0.3502 -0.4700
  457TMC3     O 6808   4.692   1.544  16.598  0.3613 -0.2732 -0.4833
  457TMC3     H 6809   0.291   1.672  16.726 -0.8425 -0.5565 -0.4446
  457TMC3    H1 6810   4.594   1.653  16.784  0.1659 -0.0513  1.4072
  457TMC3    H2 6811   0.106   1.863  17.053 -2.2644  0.2202 -0.6746
  457TMC3    C7 6812   4.609   1.733  17.029  0.0806  0.8918 -0.6262
  457TMC3    C8 6813   0.335   1.813  16.954  0.0429  0.1950 -0.8386
  457TMC3    O1 6814   4.545   1.623  17.024 -0.3845  0.1852 -0.7144
  457TMC3    O2 6815   0.330   1.879  17.058  0.3000  0.4450 -0.4452
  458MPD2     C 6816   2.688   1.207  12.355  0.4930 -0.2797 -0.3175
  458MPD2    C1 6817   2.681   1.168  12.481 -0.2373 -0.2444  0.2213
  458MPD2    C2 6818   2.555   1.145  12.533  0.0892  0.0984 -0.4224
  458MPD2    C3 6819   2.441   1.138  12.452 -1.0984  0.3089 -0.2542
  458MPD2    C4 6820   2.455   1.170  12.320 -1.2380 -0.5835  0.5420
  458MPD2    C5 6821   2.573   1.211  12.273 -0.6737  0.1289 -0.4121
  458MPD2     H 6822   2.548   1.132  12.641 -0.0957 -1.0907 -0.5786
  458MPD2    H1 6823   2.368   1.172  12.256 -0.7064 -0.5500 -0.1815
  458MPD2    H2 6824   2.784   1.231  12.309  0.1128 -0.0610 -0.9879
  458MPD2    H3 6825   2.586   1.234  12.167 -1.2063 -0.3563 -0.5825
  458MPD2     N 6826   2.319   1.112  12.522  0.9744 -0.0972  0.1394
  458MPD2    H5 6827   2.323   1.077  12.618 -0.5424  0.7332  0.4949
  458MPD2    N1 6828   2.798   1.167  12.562 -1.0664  0.1246  0.2512
  458MPD2    H7 6829   2.886   1.209  12.532 -1.5339 -0.6543 -2.2178
  459TMC3    C1 6830   2.926   1.127  12.752  0.7836 -0.1369 -0.3500
  459TMC3    C2 6831   2.999   1.238  12.721  1.0078 -0.0345 -0.5226
  459TMC3    C3 6832   3.128   1.238  12.769  0.3327  0.4919  0.4455
  459TMC3    C4 6833   2.971   1.026  12.826 -0.1353 -0.0699 -0.6922
  459TMC3    C5 6834   3.100   1.033  12.883  0.1686 -0.4273 -0.2744
  459TMC3    C6 6835   3.182   1.139  12.857 -0.1486 -0.1385 -0.0844
  459TMC3     C 6836   2.796   1.111  12.690  1.3901 -0.0643  0.7489
  459TMC3     O 6837   2.715   1.034  12.744  0.6314  0.6059  0.6551
  459TMC3     H 6838   2.957   1.324  12.670  2.8234  0.1603 -1.6938
  459TMC3    H1 6839   2.906   0.941  12.844  1.6232 -0.6283  3.0153
  459TMC3    H2 6840   3.282   1.149  12.898 -0.2889 -1.4800  0.5728
  459TMC3    C7 6841   3.163   0.912  12.931  0.6133 -0.5607  0.4336
  459TMC3    C8 6842   3.228   1.335  12.730 -0.3588  0.6961 -0.0938
  459TMC3    O1 6843   3.240   0.914  13.030 -0.6695 -0.0973 -0.5927
  459TMC3    O2 6844   3.319   1.347  12.809  0.1359 -0.4264 -0.1652
  460MPD2     C 6845   1.548   2.745  10.866 -0.6090  0.2167  0.5684
  460MPD2    C1 6846   1.517   2.881  10.859  0.5575  0.2107 -0.2785
  460MPD2    C2 6847   1.477   2.940  10.737  0.2430  0.2734 -0.3891
  460MPD2    C3 6848   1.488   2.859  10.624 -0.1075 -0.7013  0.8897
  460MPD2    C4 6849   1.533   2.725  10.632 -0.0849 -0.2884 -0.5886
  460MPD2    C5 6850   1.553   2.671  10.753  0.1384  0.9418  0.1913
  460MPD2     H 6851   1.437   3.041  10.730  1.4588  0.7733 -0.1590
  460MPD2    H1 6852   1.542   2.661  10.544 -1.9772 -0.4439 -0.6684
  460MPD2    H2 6853   1.569   2.687  10.955 -0.9061 -0.1994  0.3679
  460MPD2    H3 6854   1.571   2.564  10.755 -3.1570  0.3213 -2.1536
  460MPD2     N 6855   1.459   2.913  10.499 -0.7677 -0.1478 -0.3998
  460MPD2    H5 6856   1.430   3.010  10.507 -0.8859 -0.2025 -0.1858
  460MPD2    N1 6857   1.508   2.953  10.986  0.7692  0.9002 -0.5106
  460MPD2    H7 6858   1.521   2.895  11.069 -0.0380  1.8204  0.2651
  461TMC3    C1 6859   1.399   2.942  10.266 -0.3095  0.4452 -0.1155
  461TMC3    C2 6860   1.386   2.868  10.150 -1.0020 -0.2989 -0.1531
  461TMC3    C3 6861   1.371   2.946  10.038 -0.0243 -0.5631 -0.6144
  461TMC3    C4 6862   1.401   3.079  10.273 -0.2078  0.1621 -0.2985
  461TMC3    C5 6863   1.402   3.149  10.158 -0.0971  0.6539  0.6174
  461TMC3    C6 6864   1.404   3.084  10.040  0.2736  0.0122 -0.4394
  461TMC3     C 6865   1.452   2.855  10.373  0.2346 -0.2965 -0.2167
  461TMC3     O 6866   1.473   2.740  10.340  0.7755  0.3544  0.3469
  461TMC3     H 6867   1.374   2.761  10.141  0.8389 -0.4707 -0.4656
  461TMC3    H1 6868   1.399   3.123  10.372 -0.9597 -0.0834 -0.2074
  461TMC3    H2 6869   1.395   3.145   9.951 -1.4055 -0.2364 -0.4251
  461TMC3    C7 6870   1.411   3.297  10.148 -0.7668  0.2564  0.0992
  461TMC3    C8 6871   1.330   2.893   9.908 -0.1453 -0.0539 -0.0972
  461TMC3    O1 6872   1.419   3.348  10.039  0.4509 -0.1800  0.0991
  461TMC3    O2 6873   1.322   2.976   9.820 -0.0909  0.2202 -0.1173
  462TMC3    C1 6874   2.228   3.319   0.186  0.2098 -0.0369  0.4123
  462TMC3    C2 6875   2.226   3.234   0.083 -0.4466  0.4804 -1.4530
  462TMC3    C3 6876   2.132   3.136   0.081  0.2533 -0.4537  0.5965
  462TMC3    C4 6877   2.142   3.311   0.290 -0.3743  0.2305 -0.0675
  462TMC3    C5 6878   2.051   3.213   0.285 -0.0852  0.3972 -0.6602
  462TMC3    C6 6879   2.049   3.119   0.187  0.0994 -0.3750 -0.0367
  462TMC3     C 6880   2.328   3.429   0.184  0.0394  0.6926  0.4154
  462TMC3     O 6881   2.284   3.531   0.234 -0.2971  0.8405 -0.1420
  462TMC3     H 6882   2.289   3.242  17.693  1.6253  1.5588  0.1453
  462TMC3    H1 6883   2.154   3.368   0.381 -0.9492  0.1843  0.0391
  462TMC3    H2 6884   1.959   3.060   0.171 -1.7801  1.8836  2.2421
  462TMC3    C7 6885   1.913   3.226   0.338 -0.0231  0.3393  0.2433
  462TMC3    C8 6886   2.099   3.065  17.657  0.5643 -0.1798 -0.4086
  462TMC3    O1 6887   1.844   3.126   0.353 -0.4778  0.4222 -0.2048
  462TMC3    O2 6888   2.023   2.973  17.673 -0.1101 -0.3435 -0.3663
  463MPD2     C 6889   2.206   3.060   2.013 -0.4814 -1.0369 -0.4720
  463MPD2    C1 6890   2.193   3.095   1.881 -0.5315 -0.0554  0.6664
  463MPD2    C2 6891   2.270   3.199   1.833  0.8100  0.6362 -0.0196
  463MPD2    C3 6892   2.368   3.261   1.908 -0.5430 -0.3030 -0.0141
  463MPD2    C4 6893   2.376   3.231   2.044  0.2424 -0.2080  0.2771
  463MPD2    C5 6894   2.296   3.133   2.092  0.6035 -0.8589 -0.8517
  463MPD2     H 6895   2.256   3.247   1.737  0.7145  0.3648 -0.1400
  463MPD2    H1 6896   2.443   3.281   2.112 -0.3839  2.0141 -0.7395
  463MPD2    H2 6897   2.137   2.987   2.054  0.8845 -0.1192  3.4910
  463MPD2    H3 6898   2.307   3.111   2.198  1.0821  0.5943 -0.6016
  463MPD2     N 6899   2.449   3.363   1.858  0.0215 -0.1558 -0.0340
  463MPD2    H5 6900   2.518   3.406   1.919  1.2488 -0.7123 -1.0197
  463MPD2    N1 6901   2.092   3.038   1.801 -1.1071  0.1909  0.6891
  463MPD2    H7 6902   2.072   3.081   1.711 -1.4326  0.2155  0.7743
  464TMC3    C1 6903   1.925   2.897   1.725  0.4424  0.6074 -0.2900
  464TMC3    C2 6904   1.884   2.982   1.628  0.1682 -0.2789 -0.0422
  464TMC3    C3 6905   1.783   2.948   1.539  0.2685  0.7353  0.4961
  464TMC3    C4 6906   1.856   2.776   1.735  0.0574  0.6368 -0.2631
  464TMC3    C5 6907   1.767   2.736   1.639  0.0860 -0.4841 -0.1014
  464TMC3    C6 6908   1.732   2.824   1.540  1.1313  0.7416 -0.2855
  464TMC3     C 6909   2.011   2.930   1.831  0.2331 -0.1022 -0.3981
  464TMC3     O 6910   2.009   2.856   1.931 -0.1237  0.6840 -0.1468
  464TMC3     H 6911   1.921   3.083   1.613  2.8191 -1.7733 -3.4063
  464TMC3    H1 6912   1.877   2.712   1.819  3.1170  1.6128 -0.2695
  464TMC3    H2 6913   1.649   2.797   1.474  1.9276  0.0409 -1.0041
  464TMC3    C7 6914   1.689   2.616   1.662 -0.1190 -0.3126  0.6309
  464TMC3    C8 6915   1.764   3.037   1.432 -0.5122 -0.1766  0.1423
  464TMC3    O1 6916   1.691   2.576   1.777 -0.3441 -0.2403 -0.5341
  464TMC3    O2 6917   1.861   3.090   1.383  0.2184  0.0214  0.3687
  465MPD2     C 6918   4.228   0.834  16.794 -0.1494  0.1346  0.4711
  465MPD2    C1 6919   4.125   0.850  16.884 -0.1400  0.2730  0.1568
  465MPD2    C2 6920   4.041   0.959  16.866 -0.3300 -0.0006  0.5754
  465MPD2    C3 6921   4.075   1.054  16.777 -0.2722 -0.0481 -0.4633
  465MPD2    C4 6922   4.186   1.043  16.697 -0.5840 -0.2315  0.0439
  465MPD2    C5 6923   4.261   0.930  16.706  0.1990  0.8573 -0.1903
  465MPD2     H 6924   3.961   0.977  16.936  0.4556  0.4499  1.3557
  465MPD2    H1 6925   4.206   1.111  16.615  1.6710 -0.4902  0.3916
  465MPD2    H2 6926   4.299   0.752  16.783 -0.5714 -0.4644  2.3021
  465MPD2    H3 6927   4.337   0.912  16.631  0.5317 -1.2417  0.6709
  465MPD2     N 6928   3.986   1.165  16.778  0.2403  0.0370 -0.1330
  465MPD2    H5 6929   3.906   1.168  16.840  0.2065 -1.2227 -0.1063
  465MPD2    N1 6930   4.080   0.761  16.989  0.1752  0.0330 -0.5491
  465MPD2    H7 6931   3.997   0.794  17.037  0.2504  3.4212 -2.7931
  466TMC3    C1 6932   3.704   1.458  16.832 -0.0259  0.1450 -0.0019
  466TMC3    C2 6933   3.696   1.556  16.738 -0.1737  0.0315  1.1782
  466TMC3    C3 6934   3.778   1.560  16.621 -0.4139 -0.1276  0.2789
  466TMC3    C4 6935   3.809   1.375  16.822  0.6745 -0.0967 -0.5290
  466TMC3    C5 6936   3.897   1.374  16.717 -0.1619 -0.0018  0.4383
  466TMC3    C6 6937   3.873   1.464  16.610  0.0735 -0.3053 -0.4178
  466TMC3     C 6938   3.615   1.461  16.943  0.0566  0.6967  0.5987
  466TMC3     O 6939   3.646   1.390  17.033  0.0265 -0.4083 -0.0295
  466TMC3     H 6940   3.618   1.631  16.748  0.4299  0.7333  0.6516
  466TMC3    H1 6941   3.844   1.327  16.913 -1.4897 -1.9695 -0.6992
  466TMC3    H2 6942   3.934   1.449  16.521 -1.5680  0.5506 -1.6886
  466TMC3    C7 6943   4.009   1.280  16.706  0.4860  0.6284  0.1611
  466TMC3    C8 6944   3.763   1.674  16.522  0.2650 -0.0202  1.3588
  466TMC3    O1 6945   4.100   1.313  16.629  0.4031  0.1204 -0.2774
  466TMC3    O2 6946   3.819   1.666  16.414 -0.4217  0.5347  0.1634
  467TMC3    C1 6947   0.473   4.692  13.714 -0.2811 -0.7136 -0.0119
  467TMC3    C2 6948   0.414   0.012  13.594  0.6181  0.1277  0.8349
  467TMC3    C3 6949   0.297   0.085  13.598 -0.8702 -0.2559  0.3866
  467TMC3    C4 6950   0.417   4.711  13.838  0.0596 -0.4636  0.2317
  467TMC3    C5 6951   0.294   0.056  13.836  0.3424  0.3253  0.1701
  467TMC3    C6 6952   0.238   0.104  13.720 -0.3564 -0.2529 -0.8067
  467TMC3     C 6953   0.609   4.669  13.709  0.2215 -0.7832 -0.2513
  467TMC3     O 6954   0.680   0.026  13.649  0.4731  1.1654  0.2618
  467TMC3     H 6955   0.481   0.015  13.509 -1.4676 -1.0530 -0.8613
  467TMC3    H1 6956   0.465   4.689  13.932  0.9792  1.4161  0.2063
  467TMC3    H2 6957   0.154   0.172  13.713 -0.9221 -1.3505 -4.8038
  467TMC3    C7 6958   0.241   0.135  13.948 -0.3742  0.5999 -0.0314
  467TMC3    C8 6959   0.281   0.194  13.507 -0.2746 -0.3631 -0.4263
  467TMC3    O1 6960   0.323   0.185  14.021 -0.6267  0.2674  0.3881
  467TMC3    O2 6961   0.247   0.300  13.554 -0.3543 -0.3930 -0.1912
  468MPD2     C 6962   3.645   2.814  10.310 -0.2829  0.0394  0.1985
  468MPD2    C1 6963   3.777   2.787  10.335  0.4245 -0.5166  0.0650
  468MPD2    C2 6964   3.805   2.673  10.404 -0.0578 -0.7332 -0.1473
  468MPD2    C3 6965   3.707   2.579  10.445 -0.4859 -0.5037 -0.3170
  468MPD2    C4 6966   3.577   2.613  10.422 -0.3829 -0.1330  0.5739
  468MPD2    C5 6967   3.548   2.734  10.365  0.7764  0.0049  0.7384
  468MPD2     H 6968   3.907   2.655  10.435  0.4751  0.3962 -1.2557
  468MPD2    H1 6969   3.494   2.551  10.453 -0.2919 -0.7006 -0.3032
  468MPD2    H2 6970   3.627   2.911  10.265  1.4045  0.1969 -0.1697
  468MPD2    H3 6971   3.441   2.749  10.354  0.8459  1.0841  1.5937
  468MPD2     N 6972   3.741   2.456  10.511  0.1272 -0.9526  0.3344
  468MPD2    H5 6973   3.665   2.395  10.538  0.3479 -2.2224 -1.9521
  468MPD2    N1 6974   3.887   2.860  10.280 -0.1133 -0.0916  0.4435
  468MPD2    H7 6975   3.975   2.827  10.318  1.9323  4.3697 -0.4286
  469TMC3    C1 6976   4.000   3.057  10.207 -0.4746 -0.6313 -0.2285
  469TMC3    C2 6977   4.092   3.038  10.304 -0.3811 -0.0188 -0.0642
  469TMC3    C3 6978   4.199   3.121  10.311 -0.4580  0.2136  0.8460
  469TMC3    C4 6979   3.995   3.171  10.137  0.6275  1.0372  0.7108
  469TMC3    C5 6980   4.108   3.250  10.143  0.3211 -0.6688 -0.0454
  469TMC3    C6 6981   4.212   3.230  10.229 -0.2687  0.1380 -0.1281
  469TMC3     C 6982   3.882   2.975  10.208 -0.7736 -0.0195  0.3090
  469TMC3     O 6983   3.786   3.021  10.147  0.3188  0.4294 -0.1869
  469TMC3     H 6984   4.083   2.956  10.375 -0.3014  0.1771  0.1752
  469TMC3    H1 6985   3.922   3.182  10.057  0.6087  1.3560  0.7722
  469TMC3    H2 6986   4.304   3.285  10.238  0.4446 -1.3265  1.5610
  469TMC3    C7 6987   4.087   3.382  10.072  0.1995 -0.3415 -0.1312
  469TMC3    C8 6988   4.300   3.117  10.418 -0.0779 -0.3178  0.3030
  469TMC3    O1 6989   4.012   3.388   9.975 -0.0690 -0.5251 -0.0570
  469TMC3    O2 6990   4.420   3.120  10.390  0.0638 -0.1598 -0.4422
  470TMC3    C1 6991   1.706   4.082   1.361 -0.2173 -0.1326  0.0361
  470TMC3    C2 6992   1.766   4.183   1.293 -0.1442  0.2786  0.0101
  470TMC3    C3 6993   1.707   4.246   1.189  0.9063  0.3065 -0.8487
  470TMC3    C4 6994   1.580   4.047   1.319  0.5191 -0.2666 -0.0057
  470TMC3    C5 6995   1.535   4.100   1.201  1.0550 -0.4853 -0.3342
  470TMC3    C6 6996   1.588   4.202   1.134 -0.1849 -0.0414  0.2719
  470TMC3     C 6997   1.792   3.977   1.418  0.4023 -0.3077  0.7245
  470TMC3     O 6998   1.744   3.891   1.493 -0.2096  0.4483 -0.2862
  470TMC3     H 6999   1.866   4.215   1.320  0.1563 -0.6491  0.0262
  470TMC3    H1 7000   1.527   3.967   1.368  0.1871 -0.0788 -0.0634
  470TMC3    H2 7001   1.530   4.253   1.059 -0.8086 -0.8784  0.1860
  470TMC3    C7 7002   1.390   4.106   1.188  0.6408  0.5198  0.1241
  470TMC3    C8 7003   1.732   4.388   1.177  0.4526 -0.4031  0.1324
  470TMC3    O1 7004   1.338   4.073   1.084  0.1170 -0.2435  0.4650
  470TMC3    O2 7005   1.655   4.443   1.100  0.6737  0.0406  0.2952
  471MPD2     C 7006   2.159   0.557  17.037 -0.3317 -0.1883  0.1991
  471MPD2    C1 7007   2.028   0.532  17.076 -0.7357 -0.0081 -0.3964
  471MPD2    C2 7008   1.993   0.554  17.209 -0.5054  0.5494 -0.4068
  471MPD2    C3 7009   2.088   0.590  17.301 -0.0387  0.1009 -0.5451
  471MPD2    C4 7010   2.216   0.596  17.264  0.4188 -1.0747  0.3257
  471MPD2    C5 7011   2.251   0.593  17.130  0.3876 -0.0962 -0.2326
  471MPD2     H 7012   1.895   0.513  17.233 -0.3053  0.5970  0.4556
  471MPD2    H1 7013   2.287   0.619  17.343  0.2491  2.4842 -0.5492
  471MPD2    H2 7014   2.196   0.540  16.937 -0.0417 -1.4149  0.5144
  471MPD2    H3 7015   2.352   0.613  17.095  0.1074 -0.5304 -1.2662
  471MPD2     N 7016   2.068   0.594  17.445  0.0967 -0.5120  0.2489
  471MPD2    H5 7017   2.148   0.590  17.507  0.4207 -0.8612 -0.2004
  471MPD2    N1 7018   1.936   0.464  16.997 -0.0185  0.1927  0.0884
  471MPD2    H7 7019   1.844   0.449  17.037  0.1752 -1.1676  0.0467
  472TMC3    C1 7020   1.858   0.324  16.819  0.0225  1.2250 -0.1955
  472TMC3    C2 7021   1.837   0.321  16.688  0.2277  0.0190  0.1497
  472TMC3    C3 7022   1.755   0.226  16.637 -0.3637 -0.2122 -0.0942
  472TMC3    C4 7023   1.784   0.253  16.907  0.4598 -0.4658  0.0570
  472TMC3    C5 7024   1.694   0.169  16.861 -0.8071 -0.4327 -0.1669
  472TMC3    C6 7025   1.677   0.149  16.726 -0.3379  0.1867  0.6470
  472TMC3     C 7026   1.957   0.411  16.869  0.6757  0.3139 -0.4076
  472TMC3     O 7027   2.053   0.428  16.794  0.1577  0.4952 -0.1346
  472TMC3     H 7028   1.901   0.378  16.622  3.8744 -2.5534  1.4477
  472TMC3    H1 7029   1.797   0.269  17.013  2.7113  0.3837 -0.3668
  472TMC3    H2 7030   1.598   0.081  16.695  0.8207 -0.0774 -1.7158
  472TMC3    C7 7031   1.619   0.086  16.951  0.5231 -0.1413  0.0395
  472TMC3    C8 7032   1.754   0.213  16.494 -0.5369  0.1087  0.9039
  472TMC3    O1 7033   1.678   0.050  17.052  0.1469 -0.4154 -0.1981
  472TMC3    O2 7034   1.812   0.299  16.428  0.0120  0.1978 -0.1154
  473MPD2     C 7035   1.812   2.668  13.876 -0.4054 -0.3963 -0.8133
  473MPD2    C1 7036   1.703   2.710  13.939  0.3348 -0.3534  0.6179
  473MPD2    C2 7037   1.715   2.769  14.067  0.3375  0.5975 -1.0591
  473MPD2    C3 7038   1.831   2.782  14.138 -0.6159 -0.5631 -0.1487
  473MPD2    C4 7039   1.931   2.713  14.081 -0.4738 -0.1170 -0.5274
  473MPD2    C5 7040   1.926   2.667  13.953 -0.2568 -0.0387  0.3030
  473MPD2     H 7041   1.625   2.812  14.108  1.7149  1.9556  0.5697
  473MPD2    H1 7042   2.029   2.708  14.125 -1.1792  0.8507  1.1534
  473MPD2    H2 7043   1.819   2.631  13.775  1.7924  0.5101 -0.9953
  473MPD2    H3 7044   2.013   2.630  13.901 -0.9525 -0.5933 -0.4785
  473MPD2     N 7045   1.836   2.847  14.264  0.0286  0.2649 -0.1952
  473MPD2    H5 7046   1.926   2.833  14.309 -0.4474  1.6362  1.1490
  473MPD2    N1 7047   1.580   2.717  13.872  0.5091 -0.5406  0.3316
  473MPD2    H7 7048   1.507   2.770  13.917 -0.5727  0.8567 -3.0427
  474TMC3    C1 7049   1.773   2.976  14.445 -0.3084  0.4376 -0.1637
  474TMC3    C2 7050   1.662   3.000  14.532  0.1368  0.7312 -1.0914
  474TMC3    C3 7051   1.695   3.099  14.625 -0.6374 -0.4473 -0.1117
  474TMC3    C4 7052   1.890   3.045  14.442  0.0551  0.6758  0.3348
  474TMC3    C5 7053   1.915   3.129  14.548 -0.1676 -0.3055  1.1311
  474TMC3    C6 7054   1.815   3.156  14.638  0.1657  0.6284 -0.8993
  474TMC3     C 7055   1.731   2.915  14.320 -0.4826  0.1275  0.7645
  474TMC3     O 7056   1.609   2.917  14.293  0.2192  0.4681  0.0736
  474TMC3     H 7057   1.563   2.956  14.531  0.3304  0.2425  0.6160
  474TMC3    H1 7058   1.961   3.031  14.361  0.4664  0.3787  0.7481
  474TMC3    H2 7059   1.829   3.215  14.729  2.2725  0.3213 -1.0301
  474TMC3    C7 7060   2.050   3.163  14.577  0.1393  0.7608 -0.3010
  474TMC3    C8 7061   1.581   3.165  14.686 -0.3034  0.1297 -0.1848
  474TMC3    O1 7062   2.138   3.128  14.495 -0.2784 -0.1877 -0.1608
  474TMC3    O2 7063   1.489   3.103  14.722 -0.2803  0.0789  0.5643
  475MPD2     C 7064   0.506   0.495  10.046 -0.2792 -0.2892 -0.2216
  475MPD2    C1 7065   0.511   0.630  10.086  0.3176 -0.6692 -0.0368
  475MPD2    C2 7066   0.406   0.688  10.160  0.6470 -0.5266  0.6634
  475MPD2    C3 7067   0.293   0.621  10.192 -0.0721 -0.7180 -0.2791
  475MPD2    C4 7068   0.282   0.489  10.140  0.0684 -0.5390  0.2532
  475MPD2    C5 7069   0.388   0.432  10.079 -0.3527 -0.6471 -0.0858
  475MPD2     H 7070   0.413   0.787  10.204  1.6607 -1.7968  3.3483
  475MPD2    H1 7071   0.190   0.432  10.148 -0.7902  1.0103  1.2696
  475MPD2    H2 7072   0.585   0.444   9.992  0.0306  2.1545 -2.0190
  475MPD2    H3 7073   0.372   0.335  10.034  2.0012 -1.7069  1.3593
  475MPD2     N 7074   0.190   0.689  10.272 -0.3796  0.7277 -0.0547
  475MPD2    H5 7075   0.212   0.782  10.306  2.0112 -0.5142  1.7885
  475MPD2    N1 7076   0.629   0.700  10.051 -0.7015 -0.1535 -0.2067
  475MPD2    H7 7077   0.690   0.657   9.983  1.4673  1.6098  0.6429
  476TMC3    C1 7078   0.739   0.895   9.988 -0.6672 -0.0970 -0.1360
  476TMC3    C2 7079   0.677   0.906   9.874  0.6089  0.0771 -0.4902
  476TMC3    C3 7080   0.664   1.029   9.813  0.6597  0.6078 -0.0232
  476TMC3    C4 7081   0.803   1.011  10.031 -0.3767  0.0880  0.5381
  476TMC3    C5 7082   0.794   1.130   9.973 -0.2330 -0.5240  0.0806
  476TMC3    C6 7083   0.729   1.139   9.854 -0.4541 -0.2315  0.6338
  476TMC3     C 7084   0.666   0.829  10.089 -0.0515  0.7160 -0.0660
  476TMC3     O 7085   0.643   0.894  10.190 -0.0168  0.3266 -0.4419
  476TMC3     H 7086   0.613   0.829   9.831  1.0991  0.0975 -1.2634
  476TMC3    H1 7087   0.846   1.017  10.130  0.4770 -0.2497  0.1918
  476TMC3    H2 7088   0.707   1.240   9.822  1.1428 -0.9126 -2.6814
  476TMC3    C7 7089   0.764   1.236  10.069  0.1154  0.4876 -0.1020
  476TMC3    C8 7090   0.528   1.065   9.782 -0.8946  0.0475 -0.1404
  476TMC3    O1 7091   0.650   1.258  10.092  0.0115 -0.5670  0.3169
  476TMC3    O2 7092   0.503   1.167   9.722 -0.1308  0.0148 -0.8882
  477MPD2     C 7093   2.522   2.655  11.847  0.0639 -0.5554 -0.1737
  477MPD2    C1 7094   2.452   2.544  11.803 -0.1314 -0.4251  0.1630
  477MPD2    C2 7095   2.457   2.432  11.878 -0.3463  0.0135 -0.1145
  477MPD2    C3 7096   2.531   2.431  11.996 -0.2067  0.1260 -0.4262
  477MPD2    C4 7097   2.595   2.545  12.032 -1.3487 -0.3348  0.1596
  477MPD2    C5 7098   2.591   2.659  11.962 -0.0969  1.1349  0.0696
  477MPD2     H 7099   2.407   2.340  11.850  1.2070 -1.5800  2.3089
  477MPD2    H1 7100   2.649   2.550  12.127 -2.9077 -0.6943  1.0618
  477MPD2    H2 7101   2.509   2.748  11.793 -0.3503  0.0447  0.9645
  477MPD2    H3 7102   2.628   2.755  11.996  0.2293  1.3860 -0.9856
  477MPD2     N 7103   2.545   2.307  12.068  0.8384 -0.5692  0.2086
  477MPD2    H5 7104   2.526   2.218  12.023 -0.2124 -0.2234 -0.0212
  477MPD2    N1 7105   2.362   2.558  11.697  0.0835 -0.7426 -0.4684
  477MPD2    H7 7106   2.347   2.647  11.651  0.0040  0.7363  2.4394
  478TMC3    C1 7107   2.167   2.506  11.586  0.8579 -0.5521  0.4200
  478TMC3    C2 7108   2.124   2.633  11.611 -0.0059 -0.5777 -0.0294
  478TMC3    C3 7109   2.011   2.682  11.556  0.8897 -0.9337  0.1110
  478TMC3    C4 7110   2.083   2.424  11.517  0.5138  0.4142 -0.0206
  478TMC3    C5 7111   1.958   2.470  11.474  0.8516  0.5287  0.3817
  478TMC3    C6 7112   1.913   2.597  11.500 -0.4311  0.1741  0.9854
  478TMC3     C 7113   2.275   2.455  11.662 -0.2101  1.1122 -0.4158
  478TMC3     O 7114   2.288   2.334  11.670 -0.4521  0.2287  0.5254
  478TMC3     H 7115   2.180   2.706  11.667 -0.5474  0.8068 -1.3000
  478TMC3    H1 7116   2.117   2.323  11.502 -0.9762 -0.3052  1.5076
  478TMC3    H2 7117   1.819   2.644  11.472 -0.6520  0.1967  1.7491
  478TMC3    C7 7118   1.889   2.399  11.370 -0.2403 -0.3455 -0.4546
  478TMC3    C8 7119   1.986   2.824  11.575  0.2262  0.4585 -0.2076
  478TMC3    O1 7120   1.920   2.284  11.356 -0.3594  0.4304 -0.0747
  478TMC3    O2 7121   1.887   2.848  11.644  0.4756 -0.2191  0.4835
  479MPD2     C 7122   1.361   4.544  15.237 -0.5291  0.4622  0.7091
  479MPD2    C1 7123   1.296   4.446  15.305 -0.5061  0.3120  0.0206
  479MPD2    C2 7124   1.291   4.451  15.443  0.4087 -0.1511 -0.1870
  479MPD2    C3 7125   1.356   4.551  15.513 -0.1384  0.7359  0.5453
  479MPD2    C4 7126   1.433   4.643  15.439 -0.5521  0.6032  0.6698
  479MPD2    C5 7127   1.431   4.637  15.303  0.6491  0.0971  0.7599
  479MPD2     H 7128   1.226   4.376  15.487  0.9642 -0.9526 -0.7479
  479MPD2    H1 7129   1.490   4.721  15.487 -2.4220  2.4207 -0.0497
  479MPD2    H2 7130   1.362   4.552  15.129  2.0688  0.6374  0.7418
  479MPD2    H3 7131   1.491   4.706  15.246 -0.8567  2.0424  1.4906
  479MPD2     N 7132   1.354   4.568  15.658  0.8477 -0.2586  0.1568
  479MPD2    H5 7133   1.429   4.624  15.697  0.5539 -0.1080  0.5078
  479MPD2    N1 7134   1.217   4.368  15.231  0.0268  0.2709  0.0375
  479MPD2    H7 7135   1.214   4.384  15.131 -1.2603  0.2851  0.0758
  480TMC3    C1 7136   0.976   4.306  15.770 -0.3960  0.1723 -0.2086
  480TMC3    C2 7137   0.884   4.379  15.691  0.1084 -0.4382  0.4919
  480TMC3    C3 7138   0.937   4.488  15.621 -0.1742  0.2178  0.1858
  480TMC3    C4 7139   1.110   4.327  15.785  0.7323  0.4362 -0.4428
  480TMC3    C5 7140   1.154   4.442  15.720  0.4773  0.0787 -0.2812
  480TMC3    C6 7141   1.070   4.526  15.654  0.1352  0.1932  0.7034
  480TMC3     C 7142   0.931   4.181  15.816 -0.3411 -0.3478 -0.2769
  480TMC3     O 7143   1.004   4.087  15.786 -0.5703 -0.2439 -0.3957
  480TMC3     H 7144   0.788   4.337  15.664 -0.6987  0.6495  1.6139
  480TMC3    H1 7145   1.170   4.271  15.855  0.9210  0.5686 -0.4990
  480TMC3    H2 7146   1.103   4.622  15.616 -0.0507 -0.3075 -0.7472
  480TMC3    C7 7147   1.284   4.497  15.759  0.6495  0.5529 -0.0769
  480TMC3    C8 7148   0.863   4.542  15.507  0.2550  0.4918 -0.1782
  480TMC3    O1 7149   1.314   4.483  15.879  0.2386  0.4696 -0.2502
  480TMC3    O2 7150   0.751   4.497  15.490 -0.3000 -0.0795 -0.6673
  481MPD2     C 7151   2.977   4.295  14.115  0.4945 -0.2233  0.6776
  481MPD2    C1 7152   2.898   4.206  14.166 -0.4608 -0.0772  0.8605
  481MPD2    C2 7153   2.884   4.186  14.301 -0.3304  0.1689  0.0023
  481MPD2    C3 7154   2.951   4.269  14.389 -0.4338  0.0558  0.2743
  481MPD2    C4 7155   3.028   4.364  14.329  0.7941  0.9659 -0.2501
  481MPD2    C5 7156   3.041   4.383  14.197 -0.4724  0.1795 -0.3368
  481MPD2     H 7157   2.817   4.118  14.352  0.3354 -0.4385  0.0782
  481MPD2    H1 7158   3.093   4.429  14.385 -2.4068  2.4982  1.7188
  481MPD2    H2 7159   2.974   4.320  14.009 -2.6130  2.2961  1.3455
  481MPD2    H3 7160   3.108   4.461  14.163 -0.8668 -0.8103 -3.4407
  481MPD2     N 7161   2.943   4.265  14.528 -0.0804 -0.7930  0.1109
  481MPD2    H5 7162   2.999   4.338  14.570  1.5423 -1.1844 -1.3923
  481MPD2    N1 7163   2.822   4.132  14.071  0.2743 -0.4979  0.2545
  481MPD2    H7 7164   2.838   4.157  13.973 -0.2621 -0.3535  0.2070
  482TMC3    C1 7165   2.704   3.975  13.966 -0.1844  0.8357  0.1118
  482TMC3    C2 7166   2.570   3.939  13.959  0.5925  0.1763  0.1931
  482TMC3    C3 7167   2.507   3.954  13.836  0.1285 -0.4926 -1.0204
  482TMC3    C4 7168   2.774   4.013  13.855  0.4686 -0.0054  0.1132
  482TMC3    C5 7169   2.714   4.004  13.733 -0.1373 -0.4837 -0.2852
  482TMC3    C6 7170   2.582   3.971  13.726  0.9039  0.0583 -0.4298
  482TMC3     C 7171   2.742   4.029  14.092 -0.8009 -0.5548 -0.5792
  482TMC3     O 7172   2.707   3.982  14.200  0.1302 -0.8637  0.3007
  482TMC3     H 7173   2.526   3.891  14.046  1.2522 -0.4383  0.1909
  482TMC3    H1 7174   2.872   4.059  13.861  1.3542 -1.8636 -0.1151
  482TMC3    H2 7175   2.540   3.949  13.628  2.7920  1.9416 -1.6641
  482TMC3    C7 7176   2.796   4.025  13.610  0.0128  0.0759 -0.3662
  482TMC3    C8 7177   2.391   3.873  13.818  0.8002 -0.6140  0.7244
  482TMC3    O1 7178   2.912   4.052  13.637  0.7331 -0.0243  0.6332
  482TMC3    O2 7179   2.393   3.777  13.889 -0.3271 -0.1332  0.8136
  483TMC3    C1 7180   0.897   3.519   1.618 -0.5722 -0.1545  0.4841
  483TMC3    C2 7181   0.909   3.554   1.491  0.4379 -1.1930 -0.3191
  483TMC3    C3 7182   1.014   3.522   1.417 -0.0562  0.5038 -0.0608
  483TMC3    C4 7183   0.996   3.438   1.678 -0.1486  1.0194 -0.0952
  483TMC3    C5 7184   1.109   3.413   1.597 -0.1521 -0.8402 -0.4291
  483TMC3    C6 7185   1.120   3.459   1.470 -0.3461  0.2618  0.1451
  483TMC3     C 7186   0.759   3.475   1.631  0.1633  0.1305  0.0436
  483TMC3     O 7187   0.702   3.495   1.738  0.0024 -0.5204  0.6406
  483TMC3     H 7188   0.836   3.616   1.439  0.9039 -0.2702  0.1242
  483TMC3    H1 7189   0.983   3.399   1.778 -0.9726 -0.5589 -0.8292
  483TMC3    H2 7190   1.206   3.439   1.407 -0.7694  1.1452 -0.7123
  483TMC3    C7 7191   1.213   3.316   1.635 -0.1229  0.5232 -0.0547
  483TMC3    C8 7192   0.991   3.491   1.277 -0.1811  0.5842 -0.1067
  483TMC3    O1 7193   1.282   3.270   1.544 -0.0308 -0.0999 -0.2693
  483TMC3    O2 7194   1.086   3.478   1.203  0.3982  0.0857 -0.0801
  484MPD2     C 7195   3.276   1.483  12.384 -0.6109  0.3988  0.0972
  484MPD2    C1 7196   3.297   1.459  12.522 -0.3098 -0.4809 -0.0541
  484MPD2    C2 7197   3.421   1.500  12.567  0.3158 -0.5732  0.0963
  484MPD2    C3 7198   3.527   1.547  12.483  0.7562 -0.0410 -0.3061
  484MPD2    C4 7199   3.503   1.555  12.347  0.3015  0.3411  0.6597
  484MPD2    C5 7200   3.378   1.519  12.298 -0.1137  0.0064  0.9138
  484MPD2     H 7201   3.432   1.486  12.674  1.7413 -2.6118 -0.3093
  484MPD2    H1 7202   3.574   1.600  12.279 -0.4160 -0.6348 -0.7280
  484MPD2    H2 7203   3.187   1.453  12.330 -0.6320 -0.3323  0.5362
  484MPD2    H3 7204   3.356   1.513  12.192 -1.5528 -2.3868  1.3514
  484MPD2     N 7205   3.661   1.567  12.523  0.2128 -0.3143 -0.3742
  484MPD2    H5 7206   3.731   1.580  12.450  1.0490  0.9164  0.6387
  484MPD2    N1 7207   3.202   1.383  12.599  0.0056 -0.3866 -0.5134
  484MPD2    H7 7208   3.128   1.343  12.543 -0.9604 -2.4740  2.2533
  485TMC3    C1 7209   3.856   1.533  12.643 -0.0586  0.1072  0.5226
  485TMC3    C2 7210   3.912   1.438  12.724 -0.3134 -0.6451 -0.0169
  485TMC3    C3 7211   4.048   1.426  12.717  0.3633 -0.4990  0.6578
  485TMC3    C4 7212   3.926   1.608  12.548 -0.2567  0.0836 -0.0615
  485TMC3    C5 7213   4.059   1.586  12.541  0.1350 -0.8270 -0.4976
  485TMC3    C6 7214   4.121   1.505  12.626 -0.4162  0.1839 -0.1529
  485TMC3     C 7215   3.707   1.540  12.652 -1.0547 -0.9849 -0.1585
  485TMC3     O 7216   3.656   1.525  12.760 -0.0717  0.0179  0.5679
  485TMC3     H 7217   3.841   1.371  12.772 -0.2941 -0.6814 -0.0398
  485TMC3    H1 7218   3.886   1.680  12.477  0.6867 -0.0743 -0.7522
  485TMC3    H2 7219   4.230   1.507  12.626 -0.4155 -0.2208 -1.2812
  485TMC3    C7 7220   4.102   1.557  12.406  0.2975  0.8117  0.0292
  485TMC3    C8 7221   4.109   1.291  12.720 -0.4261  0.5434 -0.7933
  485TMC3    O1 7222   4.069   1.624  12.312  0.2193  0.0909  0.4013
  485TMC3    O2 7223   4.181   1.275  12.623 -0.4401  0.1585  0.0987
  486MPD2     C 7224   0.696   0.201  13.336  0.0944  0.3171  0.0294
  486MPD2    C1 7225   0.655   0.122  13.229 -0.0406 -0.4367  0.2505
  486MPD2    C2 7226   0.627   0.186  13.107  0.1327 -0.6205 -0.4392
  486MPD2    C3 7227   0.624   0.324  13.101  0.5396 -0.6194 -0.3365
  486MPD2    C4 7228   0.642   0.397  13.218 -0.1175  0.0575  0.6944
  486MPD2    C5 7229   0.687   0.338  13.330  0.1779 -0.3108  0.4373
  486MPD2     H 7230   0.600   0.136  13.015 -1.3513 -2.2966  0.8936
  486MPD2    H1 7231   0.623   0.503  13.225 -0.7379  0.0237 -0.3874
  486MPD2    H2 7232   0.735   0.150  13.423  0.1318  2.2132  1.1354
  486MPD2    H3 7233   0.717   0.399  13.414  0.5798 -1.2909  1.0035
  486MPD2     N 7234   0.605   0.396  12.978  0.1428 -0.4833 -0.6057
  486MPD2    H5 7235   0.593   0.344  12.892  0.4604 -1.8887  0.2000
  486MPD2    N1 7236   0.640   4.706  13.247 -0.3393  0.1505 -0.0532
  486MPD2    H7 7237   0.668   4.671  13.338  2.4209 -2.1841 -1.7769
  487TMC3    C1 7238   0.596   4.480  13.210 -0.3635 -0.5419  0.4175
  487TMC3    C2 7239   0.618   4.384  13.117 -0.0232  0.2317 -0.1747
  487TMC3    C3 7240   0.614   4.259  13.176  0.4924  0.0459  0.7476
  487TMC3    C4 7241   0.569   4.470  13.345 -0.4242 -0.1081 -0.1511
  487TMC3    C5 7242   0.567   4.338  13.392  0.7357 -0.4184  0.4569
  487TMC3    C6 7243   0.599   4.232  13.313 -0.5043  0.6790  0.3321
  487TMC3     C 7244   0.605   4.610  13.153  0.1421  0.0279  0.4710
  487TMC3     O 7245   0.577   4.628  13.039  0.3367 -0.0643  0.1707
  487TMC3     H 7246   0.631   4.412  13.013  0.6293  0.2563 -0.0918
  487TMC3    H1 7247   0.545   4.553  13.410  0.6443 -0.4673  0.6842
  487TMC3    H2 7248   0.643   4.137  13.343 -0.4473  0.3427 -0.8126
  487TMC3    C7 7249   0.505   4.305  13.516 -0.9439 -0.4624  0.2650
  487TMC3    C8 7250   0.680   4.166  13.085  0.3931 -0.5486 -0.4900
  487TMC3    O1 7251   0.470   4.401  13.585 -0.1367  0.4767 -0.4058
  487TMC3    O2 7252   0.766   4.227  13.028 -0.3587  0.0443  0.1692
  488MPD2     C 7253   1.157   1.502  16.449  0.0200  0.4305 -0.3887
  488MPD2    C1 7254   1.203   1.588  16.546  0.1682 -0.6295 -0.0197
  488MPD2    C2 7255   1.161   1.571  16.671 -0.2802  0.1121 -0.1623
  488MPD2    C3 7256   1.074   1.464  16.707 -0.8046 -0.0990  0.5530
  488MPD2    C4 7257   1.035   1.375  16.607  0.1791  0.5157  0.2043
  488MPD2    C5 7258   1.080   1.395  16.478 -0.6351 -0.5663 -0.6792
  488MPD2     H 7259   1.192   1.643  16.746  0.0147  0.5685 -0.7265
  488MPD2    H1 7260   0.981   1.282  16.621  2.3865 -0.7547  0.3445
  488MPD2    H2 7261   1.184   1.521  16.345  1.3840  0.8881  0.0469
  488MPD2    H3 7262   1.054   1.326  16.399  1.0221 -0.9328 -0.9038
  488MPD2     N 7263   1.023   1.463  16.838 -0.3692  0.6000  0.9294
  488MPD2    H5 7264   1.054   1.538  16.899  0.1732  1.4506 -0.4079
  488MPD2    N1 7265   1.263   1.712  16.517 -0.2694 -0.7212 -0.5043
  488MPD2    H7 7266   1.254   1.787  16.584 -0.3478 -0.6296 -0.6170
  489TMC3    C1 7267   0.890   1.415  17.023  0.0477  0.0678  0.2299
  489TMC3    C2 7268   0.955   1.521  17.072  0.4101 -0.1963 -0.6684
  489TMC3    C3 7269   0.888   1.606  17.152  0.5488 -0.0941  0.5057
  489TMC3    C4 7270   0.759   1.392  17.053  0.4832 -0.3710  0.2025
  489TMC3    C5 7271   0.689   1.494  17.111 -0.2812 -0.0024 -0.0907
  489TMC3    C6 7272   0.756   1.604  17.161 -0.0646  0.0155 -0.5437
  489TMC3     C 7273   0.928   1.375  16.891 -0.1672  0.2165 -0.9557
  489TMC3     O 7274   0.868   1.285  16.831 -0.3849  0.0442  0.1319
  489TMC3     H 7275   1.063   1.518  17.064  0.5661  0.9436  0.7810
  489TMC3    H1 7276   0.709   1.303  17.016 -0.9384 -0.1992  1.7124
  489TMC3    H2 7277   0.692   1.682  17.201  0.2091  0.4031 -0.8536
  489TMC3    C7 7278   0.545   1.506  17.100  0.3398  0.8167  0.1583
  489TMC3    C8 7279   0.943   1.737  17.159  0.1060  0.5808  0.6626
  489TMC3    O1 7280   0.492   1.563  17.195  0.4718 -0.2403  0.3943
  489TMC3    O2 7281   1.057   1.758  17.110  0.2604 -0.2321  0.5849
  490MPD2     C 7282   1.693   1.104  17.536  1.3285  0.0118 -0.1992
  490MPD2    C1 7283   1.751   0.986  17.494  0.4912 -0.2670 -0.6442
  490MPD2    C2 7284   1.885   0.986  17.466 -0.8523 -0.0753  1.3234
  490MPD2    C3 7285   1.966   1.098  17.473  0.3557 -0.1188 -0.1228
  490MPD2    C4 7286   1.913   1.212  17.537  0.6691  0.5024 -0.4046
  490MPD2    C5 7287   1.773   1.217  17.552 -0.2694  0.2494 -0.7071
  490MPD2     H 7288   1.922   0.898  17.416 -1.5510  0.1403  0.4375
  490MPD2    H1 7289   1.968   1.305  17.545  0.3615  0.5478  1.2283
  490MPD2    H2 7290   1.588   1.123  17.553  1.9491  1.8350  1.6811
  490MPD2    H3 7291   1.730   1.310  17.587 -0.2146  0.3475 -0.8984
  490MPD2     N 7292   2.105   1.102  17.440 -0.2904 -0.1294  0.0944
  490MPD2    H5 7293   2.150   1.186  17.477  0.6567 -1.6963  2.4638
  490MPD2    N1 7294   1.685   0.867  17.460 -0.1709  0.8509 -0.0545
  490MPD2    H7 7295   1.733   0.796  17.406  0.9464 -1.3422  3.8664
  491TMC3    C1 7296   1.515   0.708  17.466  0.8421  0.9915  0.6599
  491TMC3    C2 7297   1.403   0.684  17.536 -0.2989  0.3896 -0.0059
  491TMC3    C3 7298   1.308   0.618  17.471  0.1228  0.1488  0.1928
  491TMC3    C4 7299   1.538   0.660  17.344 -0.4307  0.0884  0.2418
  491TMC3    C5 7300   1.441   0.572  17.287  1.2930  0.2793  0.0400
  491TMC3    C6 7301   1.318   0.565  17.349 -0.3041  0.8196 -0.7749
  491TMC3     C 7302   1.566   0.833  17.514 -0.1334 -1.1254  0.4284
  491TMC3     O 7303   1.511   0.895  17.602  0.2678 -0.1986 -0.3233
  491TMC3     H 7304   1.384   0.724  17.635 -1.2519  0.5060 -0.2368
  491TMC3    H1 7305   1.625   0.688  17.286 -1.7619 -0.4297 -2.0188
  491TMC3    H2 7306   1.237   0.510  17.302  0.4686 -1.0000  0.0082
  491TMC3    C7 7307   1.448   0.530  17.147  1.0116  0.9596 -0.4899
  491TMC3    C8 7308   1.173   0.622  17.535 -0.0494  0.4624 -0.2801
  491TMC3    O1 7309   1.368   0.445  17.106 -0.4541 -0.2258  0.1053
  491TMC3    O2 7310   1.165   0.663  17.653 -0.3515  0.5667  0.1759
  492MPD2     C 7311   2.269   1.130  11.251 -0.5875 -0.1436 -1.0920
  492MPD2    C1 7312   2.163   1.070  11.191 -0.7948  0.2400  0.0748
  492MPD2    C2 7313   2.073   0.995  11.271 -0.8079  0.3362  0.3315
  492MPD2    C3 7314   2.101   0.988  11.412 -0.1626 -0.0582 -0.3155
  492MPD2    C4 7315   2.211   1.035  11.468  0.1662  0.5995 -0.5692
  492MPD2    C5 7316   2.287   1.112  11.389  0.7874 -0.2473  0.1234
  492MPD2     H 7317   1.977   0.968  11.230 -2.1347  0.7070  3.1838
  492MPD2    H1 7318   2.235   1.036  11.574  0.6342 -1.9058 -0.6353
  492MPD2    H2 7319   2.338   1.182  11.186 -0.1980  0.8780  0.1495
  492MPD2    H3 7320   2.378   1.154  11.431  1.3723 -0.9857 -0.3993
  492MPD2     N 7321   2.015   0.934  11.509 -0.5525  0.8007 -0.1936
  492MPD2    H5 7322   2.041   0.951  11.606  0.2135  0.0937 -0.2715
  492MPD2    N1 7323   2.163   1.074  11.050  0.0348 -0.4623  0.2898
  492MPD2    H7 7324   2.238   1.133  11.014  0.0422 -0.6421  0.0064
  493TMC3    C1 7325   2.086   1.044  10.827  0.3798  0.0232 -0.4875
  493TMC3    C2 7326   2.143   1.165  10.807 -0.5621  0.5201 -0.1597
  493TMC3    C3 7327   2.105   1.233  10.694  0.3902  0.2347 -0.0888
  493TMC3    C4 7328   1.988   0.994  10.741 -0.4090 -0.5391 -1.3942
  493TMC3    C5 7329   1.943   1.076  10.639 -0.6226  0.0839 -0.2519
  493TMC3    C6 7330   1.999   1.198  10.618 -0.0076 -0.4283 -0.1786
  493TMC3     C 7331   2.078   1.001  10.966  0.5850 -0.6731 -0.1250
  493TMC3     O 7332   2.009   0.905  10.992  0.6059  0.4359 -0.1917
  493TMC3     H 7333   2.223   1.213  10.862  1.3845 -2.1309 -0.6588
  493TMC3    H1 7334   1.948   0.894  10.753  1.2989 -0.9468  1.0040
  493TMC3    H2 7335   1.957   1.273  10.552 -1.1729  1.1191  2.3198
  493TMC3    C7 7336   1.813   1.058  10.580 -0.2343 -0.6045  0.4360
  493TMC3    C8 7337   2.129   1.375  10.706 -0.0522  0.2814 -0.3885
  493TMC3    O1 7338   1.776   1.136  10.498 -0.0374  0.6971 -0.1139
  493TMC3    O2 7339   2.163   1.422  10.814 -0.8606  0.4008 -0.1905
  494TMC3    C1 7340   2.454   2.910   0.497 -0.2746 -0.1456  0.1484
  494TMC3    C2 7341   2.451   2.804   0.579  0.5219  0.1702 -0.0964
  494TMC3    C3 7342   2.465   2.684   0.517  1.2604  0.0349  0.4778
  494TMC3    C4 7343   2.488   2.901   0.362 -0.7779  0.2137 -0.4151
  494TMC3    C5 7344   2.479   2.775   0.307 -0.2550 -0.0443 -0.1893
  494TMC3    C6 7345   2.470   2.665   0.383 -0.0882 -0.4564  0.0784
  494TMC3     C 7346   2.409   3.037   0.557  0.3382  0.9258  0.7213
  494TMC3     O 7347   2.342   3.020   0.660  0.4509 -0.4443 -0.0724
  494TMC3     H 7348   2.440   2.801   0.687  3.0928 -1.8383  0.1063
  494TMC3    H1 7349   2.469   2.991   0.306  2.5835  0.0993 -1.7336
  494TMC3    H2 7350   2.466   2.564   0.346 -0.5281  0.5474 -2.5764
  494TMC3    C7 7351   2.442   2.775   0.171  0.0569  0.0441 -0.1356
  494TMC3    C8 7352   2.444   2.575   0.603  0.1255 -0.8225 -0.5151
  494TMC3    O1 7353   2.475   2.872   0.103  0.2809  0.0402  0.4137
  494TMC3    O2 7354   2.359   2.587   0.688 -0.1622 -0.0760  1.2985
  495TMC3    C1 7355   1.314   4.563  14.785  0.2820  0.0480 -0.0895
  495TMC3    C2 7356   1.222   4.540  14.686 -0.0523  0.6471  0.2839
  495TMC3    C3 7357   1.120   4.623  14.673  0.2316 -0.4647  0.1053
  495TMC3    C4 7358   1.302   4.669  14.867 -0.4435 -0.2457 -0.4940
  495TMC3    C5 7359   1.197   0.028  14.850  0.2707 -0.2280  0.4322
  495TMC3    C6 7360   1.109   0.011  14.748 -0.3333 -0.5916  0.5356
  495TMC3     C 7361   1.359   4.452  14.848  0.0317 -0.2956  0.2024
  495TMC3     O 7362   1.468   4.463  14.903  0.3902  0.0332 -0.1973
  495TMC3     H 7363   1.248   4.472  14.606  1.8764  0.6702  0.8862
  495TMC3    H1 7364   1.382   4.687  14.937  0.5381 -0.5995 -1.5240
  495TMC3    H2 7365   1.024   0.076  14.729  0.0720 -0.1757  0.1583
  495TMC3    C7 7366   1.140   0.064  14.979  0.5846 -0.3047 -0.7166
  495TMC3    C8 7367   1.059   4.646  14.543  0.2053  0.2774 -0.0106
  495TMC3    O1 7368   1.219   0.083  15.071 -0.0480 -0.4844 -0.4068
  495TMC3    O2 7369   1.007   0.028  14.514 -0.0491  0.2679  0.9697
  496MPD2     C 7370   3.474   0.101  15.563  1.0667 -0.6859 -0.3666
  496MPD2    C1 7371   3.411   4.708  15.528  0.6140 -0.3872  0.0107
  496MPD2    C2 7372   3.328   4.649  15.626  0.4111 -0.4171 -0.2018
  496MPD2    C3 7373   3.313   4.705  15.748  0.6610 -0.7978 -0.2458
  496MPD2    C4 7374   3.382   0.094  15.778 -0.6321  1.0050 -0.2204
  496MPD2    C5 7375   3.462   0.158  15.688  0.0876 -0.0669 -0.3819
  496MPD2     H 7376   3.280   4.555  15.602 -1.3841  0.8356 -1.5280
  496MPD2    H1 7377   3.383   0.141  15.876 -0.6662 -2.3217  1.3622
  496MPD2    H2 7378   3.518   0.164  15.486 -1.5965  0.5651 -0.8609
  496MPD2    H3 7379   3.514   0.251  15.706 -0.9304  0.3369  0.4625
  496MPD2     N 7380   3.226   4.639  15.834 -0.1297 -0.0646 -0.6339
  496MPD2    H5 7381   3.199   4.545  15.805 -1.9557 -0.1616  1.3445
  496MPD2    N1 7382   3.434   4.654  15.401  0.0280 -0.1659  0.1493
  496MPD2    H7 7383   3.506   4.702  15.348 -1.4756  2.2614  0.3280
  497TMC3    C1 7384   3.097   4.601  16.030  0.2026 -0.5259  0.3340
  497TMC3    C2 7385   3.016   4.509  15.962 -0.3276  0.1128  0.2709
  497TMC3    C3 7386   2.931   4.440  16.043  0.2017 -0.0923 -0.3523
  497TMC3    C4 7387   3.090   4.616  16.167  0.5114 -0.7930  0.0530
  497TMC3    C5 7388   3.004   4.534  16.238 -0.6239 -0.5223 -0.8794
  497TMC3    C6 7389   2.910   4.458  16.178 -0.1763  0.6103 -0.3311
  497TMC3     C 7390   3.202   4.674  15.967  0.0249  0.0382 -0.3857
  497TMC3     O 7391   3.263   0.022  16.040 -0.4029 -0.5938 -0.4090
  497TMC3     H 7392   3.016   4.493  15.855  1.5719  0.7230  0.1754
  497TMC3    H1 7393   3.154   4.689  16.216  1.2671 -1.4567  0.0561
  497TMC3    H2 7394   2.852   4.385  16.232 -0.4378  0.8057 -0.3449
  497TMC3    C7 7395   3.020   4.514  16.380  0.1131 -0.1785 -0.4546
  497TMC3    C8 7396   2.848   4.343  15.979  0.8968 -0.0148 -0.0431
  497TMC3    O1 7397   2.941   4.435  16.436 -0.2147  0.5771  0.5679
  497TMC3    O2 7398   2.732   4.338  16.026  0.4482 -0.5039 -0.0524
  498MPD2     C 7399   3.197   0.315   9.506 -0.0602  0.0840 -0.6323
  498MPD2    C1 7400   3.229   0.339   9.641 -0.9907 -0.2706  0.5284
  498MPD2    C2 7401   3.221   0.230   9.728  0.3360 -0.1266  0.4235
  498MPD2    C3 7402   3.198   0.104   9.687 -0.1561 -0.7304 -0.1075
  498MPD2    C4 7403   3.163   0.085   9.555  0.3487 -0.3146  0.5684
  498MPD2    C5 7404   3.166   0.192   9.468 -0.4842 -0.3221  0.6181
  498MPD2     H 7405   3.249   0.246   9.832 -0.9589 -0.5146  0.8313
  498MPD2    H1 7406   3.165   4.709   9.513  0.4798  0.0756 -0.3407
  498MPD2    H2 7407   3.193   0.391   9.430 -1.7900  0.6790  0.0662
  498MPD2    H3 7408   3.140   0.172   9.365  0.5815  2.7510 -0.2301
  498MPD2     N 7409   3.199   4.723   9.779  0.0192  0.4303  0.3913
  498MPD2    H5 7410   3.236   0.021   9.871  3.0509 -2.0948 -0.2153
  498MPD2    N1 7411   3.274   0.461   9.698  0.1830 -0.1775 -0.1366
  498MPD2    H7 7412   3.302   0.459   9.796 -0.4549 -2.9275 -0.0065
  499TMC3    C1 7413   3.363   0.680   9.708  0.3221 -0.5095  0.1292
  499TMC3    C2 7414   3.317   0.688   9.837 -0.8979 -0.4117  0.0876
  499TMC3    C3 7415   3.381   0.767   9.923  0.1054  0.0873  0.3360
  499TMC3    C4 7416   3.479   0.734   9.676 -1.1401  0.6168  0.5703
  499TMC3    C5 7417   3.546   0.806   9.771 -0.4686 -0.0311  0.1180
  499TMC3    C6 7418   3.504   0.818   9.894  0.3069 -0.0472 -0.0656
  499TMC3     C 7419   3.322   0.568   9.628  0.3340 -0.0893  0.0600
  499TMC3     O 7420   3.332   0.575   9.505 -0.0716  0.1182 -0.1537
  499TMC3     H 7421   3.224   0.643   9.868  1.1122 -4.4043  0.3524
  499TMC3    H1 7422   3.515   0.732   9.574  2.5238 -2.9452  1.9553
  499TMC3    H2 7423   3.556   0.883   9.963  0.7172  0.5961 -0.9721
  499TMC3    C7 7424   3.668   0.870   9.717  0.3677 -0.3609 -0.5238
  499TMC3    C8 7425   3.360   0.709  10.055  0.0585  0.0688  0.2828
  499TMC3    O1 7426   3.673   0.893   9.596  0.2190 -0.0229  0.4940
  499TMC3    O2 7427   3.325   0.595  10.048  0.2410  0.4526 -0.6540
  500MPD2     C 7428   1.128   1.732  10.000 -0.5592 -0.1552  0.3679
  500MPD2    C1 7429   1.072   1.840  10.065  0.2652  0.4871  0.1905
  500MPD2    C2 7430   0.944   1.881  10.029  0.5324 -0.4922  0.6401
  500MPD2    C3 7431   0.866   1.806   9.934  0.1443 -0.1423  0.1144
  500MPD2    C4 7432   0.924   1.692   9.877 -0.0516  0.0350  0.5211
  500MPD2    C5 7433   1.047   1.659   9.910  0.1053 -0.2550 -0.1042
  500MPD2     H 7434   0.906   1.966  10.084 -0.8148  0.6290 -1.9942
  500MPD2    H1 7435   0.874   1.636   9.799  0.8647  0.3847 -0.3180
  500MPD2    H2 7436   1.231   1.702  10.016 -0.7594 -1.1028 -0.1650
  500MPD2    H3 7437   1.082   1.574   9.852 -1.9233 -2.0602  1.3328
  500MPD2     N 7438   0.734   1.829   9.893 -0.1708 -0.7361 -0.1421
  500MPD2    H5 7439   0.703   1.763   9.822 -0.6170 -0.9946  0.2925
  500MPD2    N1 7440   1.141   1.906  10.171 -0.1242 -0.0897 -0.4224
  500MPD2    H7 7441   1.090   1.981  10.217 -1.7284 -2.2860  1.3794
  501TMC3    C1 7442   1.308   1.974  10.308 -0.2140  0.3446  0.4386
  501TMC3    C2 7443   1.270   2.103  10.274  0.0675  0.7441 -0.5701
  501TMC3    C3 7444   1.369   2.200  10.294 -0.6565 -0.3993  1.6019
  501TMC3    C4 7445   1.436   1.943  10.350 -0.1832 -0.1711  0.1417
  501TMC3    C5 7446   1.528   2.040  10.362 -0.4552 -0.5494  0.2973
  501TMC3    C6 7447   1.497   2.164  10.325 -0.1908 -0.6825 -0.6896
  501TMC3     C 7448   1.255   1.867  10.231 -0.5752  0.5233  0.1786
  501TMC3     O 7449   1.330   1.779  10.201 -0.0179  0.6903  0.1529
  501TMC3     H 7450   1.169   2.139  10.259  0.0624  0.5304 -1.0345
  501TMC3    H1 7451   1.463   1.839  10.368 -0.6064 -0.2042  0.5873
  501TMC3    H2 7452   1.575   2.239  10.327 -1.0407  0.1393  2.1515
  501TMC3    C7 7453   1.614   2.023  10.478 -0.2366 -0.1106 -0.1525
  501TMC3    C8 7454   1.337   2.333  10.337  0.3181  0.4593 -0.1219
  501TMC3    O1 7455   1.635   1.910  10.511 -0.1965 -0.0671  0.2307
  501TMC3    O2 7456   1.424   2.369  10.422 -0.2982  0.6470 -0.4872
  502TMC3    C1 7457   0.948   1.320  14.860 -0.8566  0.7299 -0.4940
  502TMC3    C2 7458   0.928   1.447  14.897 -0.3467 -0.2145  0.1479
  502TMC3    C3 7459   0.814   1.485  14.961  0.6049 -0.1238  0.2837
  502TMC3    C4 7460   0.846   1.231  14.874  0.2548  0.1119 -0.0697
  502TMC3    C5 7461   0.730   1.279  14.932  0.2005 -0.5925  0.4726
  502TMC3    C6 7462   0.714   1.399  14.995  0.3740  0.6362  0.5188
  502TMC3     C 7463   1.089   1.259  14.879 -0.6634  0.0297 -0.1966
  502TMC3     O 7464   1.185   1.335  14.891  0.4938  0.3194  0.0283
  502TMC3     H 7465   1.014   1.512  14.905 -1.1269  1.0423 -1.5620
  502TMC3    H1 7466   0.842   1.131  14.832 -0.2876 -0.4060  1.2338
  502TMC3    H2 7467   0.614   1.422  15.030 -0.0220 -2.7328  1.5670
  502TMC3    C7 7468   0.640   1.171  14.981  0.2526 -0.3861  0.1602
  502TMC3    C8 7469   0.814   1.621  15.000 -0.3010 -0.4036 -0.4853
  502TMC3    O1 7470   0.693   1.055  14.986 -0.2449 -0.3966 -0.0861
  502TMC3    O2 7471   0.915   1.691  14.983 -0.0605 -0.7568  0.0895
  503MPD2     C 7472   2.810   1.823  16.678  0.2673  0.4855 -0.2798
  503MPD2    C1 7473   2.777   1.807  16.808  0.3679 -0.1432 -0.3570
  503MPD2    C2 7474   2.848   1.717  16.892  0.0359 -0.3965 -0.4683
  503MPD2    C3 7475   2.951   1.643  16.842  0.2721 -0.9117 -0.0182
  503MPD2    C4 7476   2.979   1.657  16.707  0.3077 -0.6684 -0.3880
  503MPD2    C5 7477   2.918   1.752  16.630  0.1278 -0.3121 -0.7075
  503MPD2     H 7478   2.822   1.699  16.996  0.7264  0.2204 -0.1898
  503MPD2    H1 7479   3.055   1.604  16.650 -0.3859 -0.6552 -1.3223
  503MPD2    H2 7480   2.763   1.901  16.621 -0.1581 -1.0312 -1.9987
  503MPD2    H3 7481   2.955   1.770  16.530  1.8062 -0.4899 -0.1301
  503MPD2     N 7482   3.019   1.562  16.929  0.1673  0.1256  0.0216
  503MPD2    H5 7483   2.998   1.569  17.028  0.3853 -0.9648  0.1391
  503MPD2    N1 7484   2.687   1.889  16.878 -0.2308 -0.2413 -0.1243
  503MPD2    H7 7485   2.664   1.863  16.973  0.6387  0.9610  0.4186
  504TMC3    C1 7486   3.155   1.386  17.003  0.0946  0.0041 -0.3503
  504TMC3    C2 7487   3.117   1.405  17.132  0.1451  0.3280 -0.5057
  504TMC3    C3 7488   3.177   1.327  17.230 -0.2322 -0.1448 -0.2970
  504TMC3    C4 7489   3.235   1.285  16.968 -0.4510  1.0889 -0.5534
  504TMC3    C5 7490   3.283   1.206  17.065  0.0575  0.3225 -0.4035
  504TMC3    C6 7491   3.264   1.227  17.195  0.1751  0.1240 -0.0529
  504TMC3     C 7492   3.115   1.472  16.892  0.7522  0.3707 -0.5952
  504TMC3     O 7493   3.177   1.458  16.785 -0.4239 -0.4931  0.8688
  504TMC3     H 7494   3.037   1.473  17.160  0.5084  0.5064  0.1027
  504TMC3    H1 7495   3.252   1.266  16.862 -2.0646  0.0973 -0.6355
  504TMC3    H2 7496   3.309   1.169  17.275  2.1676  0.0791 -1.2051
  504TMC3    C7 7497   3.360   1.087  17.020 -0.3978 -0.3849 -0.1364
  504TMC3    C8 7498   3.158   1.376  17.367 -0.2829  0.4117  0.1751
  504TMC3    O1 7499   3.401   1.091  16.903  0.0372  0.3554  0.2933
  504TMC3    O2 7500   3.101   1.484  17.387  0.1794  0.0539 -0.1717
  505MPD2     C 7501   3.490   3.749  10.887 -0.2417  0.5886 -0.5733
  505MPD2    C1 7502   3.595   3.820  10.841 -0.5792  0.0780  0.8247
  505MPD2    C2 7503   3.605   3.955  10.872  0.6097 -0.2477  0.2664
  505MPD2    C3 7504   3.510   4.019  10.944 -0.4254 -0.2134 -0.1758
  505MPD2    C4 7505   3.402   3.951  10.981 -0.4980 -0.2057 -1.3013
  505MPD2    C5 7506   3.387   3.819  10.949  0.2811  0.1035  0.7992
  505MPD2     H 7507   3.684   4.020  10.836  1.4116 -0.6348  1.3407
  505MPD2    H1 7508   3.320   3.987  11.043 -1.3238 -0.6187 -2.1517
  505MPD2    H2 7509   3.480   3.642  10.871 -3.7083  0.7904  0.2363
  505MPD2    H3 7510   3.303   3.765  10.991  1.0043 -0.0049  2.1305
  505MPD2     N 7511   3.520   4.157  10.975  0.0287  0.6586 -0.2331
  505MPD2    H5 7512   3.437   4.200  11.015  0.9502  2.9747 -0.8307
  505MPD2    N1 7513   3.681   3.762  10.753  0.0224 -0.1205  0.6321
  505MPD2    H7 7514   3.672   3.662  10.740  0.4465 -0.0308 -0.3310
  506TMC3    C1 7515   3.877   3.723  10.637 -0.1489  0.5444 -0.3314
  506TMC3    C2 7516   3.803   3.677  10.532  0.1586  0.0990  0.0805
  506TMC3    C3 7517   3.849   3.704  10.405 -0.3510  0.7603 -0.5521
  506TMC3    C4 7518   4.001   3.786  10.618  0.2665 -0.5635  0.6280
  506TMC3    C5 7519   4.027   3.822  10.487  0.1839 -0.1248 -0.1560
  506TMC3    C6 7520   3.951   3.788  10.385 -1.1060  0.4535 -0.0743
  506TMC3     C 7521   3.805   3.807  10.724  0.1622  0.6643  0.2736
  506TMC3     O 7522   3.851   3.918  10.731 -0.0691 -0.1212  0.1481
  506TMC3     H 7523   3.712   3.620  10.551  1.2369 -1.5800  0.1902
  506TMC3    H1 7524   4.063   3.819  10.700  2.4742  1.6155 -1.8922
  506TMC3    H2 7525   3.974   3.824  10.286 -0.3678  0.8843  0.2596
  506TMC3    C7 7526   4.085   3.960  10.472  0.0880 -0.0287 -0.4498
  506TMC3    C8 7527   3.746   3.697  10.301  0.1413  0.2716  0.5966
  506TMC3    O1 7528   4.132   3.995  10.366  0.5729  0.6827  0.1750
  506TMC3    O2 7529   3.674   3.595  10.308  0.0553  0.4194  0.2700
  507TMC3    C1 7530   4.103   1.126  14.354 -0.2971 -0.0837  0.1233
  507TMC3    C2 7531   4.087   1.086  14.221 -0.2037  0.2855 -0.7034
  507TMC3    C3 7532   4.129   1.161  14.119  0.8392  0.3540  0.2114
  507TMC3    C4 7533   4.169   1.237  14.383 -0.5748 -0.1636 -0.2565
  507TMC3    C5 7534   4.221   1.307  14.273  0.0999  0.8539  0.6366
  507TMC3    C6 7535   4.205   1.275  14.143 -0.3485  0.7346 -0.0582
  507TMC3     C 7536   3.984   1.117  14.431 -0.0124 -0.3889 -0.3961
  507TMC3     O 7537   4.004   1.141  14.549 -0.1463  0.2500 -0.0436
  507TMC3     H 7538   4.029   1.001  14.189 -0.1635 -0.1713  0.4383
  507TMC3    H1 7539   4.191   1.273  14.483  0.0813  1.3961 -0.9729
  507TMC3    H2 7540   4.251   1.324  14.057 -0.1923  0.4475 -0.1380
  507TMC3    C7 7541   4.234   1.448  14.293 -0.1607 -0.0894 -0.0162
  507TMC3    C8 7542   4.028   1.220  14.037  0.5335 -0.5017  0.1678
  507TMC3    O1 7543   4.252   1.498  14.406  0.2844 -0.1304 -0.4150
  507TMC3    O2 7544   4.051   1.334  14.005  0.9580 -0.3360  0.9063
  508MPD2     C 7545   4.118   3.206  15.789 -0.2876  0.7395 -0.1003
  508MPD2    C1 7546   4.246   3.212  15.761 -1.4027 -0.1230  0.2031
  508MPD2    C2 7547   4.292   3.311  15.684 -0.4140  0.6735  0.1287
  508MPD2    C3 7548   4.198   3.404  15.635  0.5144 -0.2433 -0.3938
  508MPD2    C4 7549   4.067   3.405  15.666  0.4497  0.3722  0.3853
  508MPD2    C5 7550   4.025   3.297  15.740 -0.4265  0.0431 -0.7185
  508MPD2     H 7551   4.396   3.317  15.653 -0.2592 -0.3049  0.4632
  508MPD2    H1 7552   3.994   3.477  15.634 -0.0113 -0.4316 -0.3706
  508MPD2    H2 7553   4.076   3.131  15.856  1.1555  0.0599  0.0345
  508MPD2    H3 7554   3.919   3.292  15.764  0.1770 -0.4133  1.9132
  508MPD2     N 7555   4.246   3.511  15.552  0.4593  0.0001 -0.5254
  508MPD2    H5 7556   4.341   3.504  15.517  0.3116 -2.4240 -0.4403
  508MPD2    N1 7557   4.332   3.110  15.820 -0.6332  0.2130 -0.0042
  508MPD2    H7 7558   4.287   3.042  15.881 -0.7495 -1.2507 -1.6923
  509TMC3    C1 7559   4.246   3.865  15.251  0.1314  0.0487  0.6601
  509TMC3    C2 7560   4.376   3.911  15.284  0.9406 -0.2121  0.2168
  509TMC3    C3 7561   4.443   3.828  15.371 -0.8091 -0.3356  0.3565
  509TMC3    C4 7562   4.180   3.765  15.318  0.4034  0.2640 -0.4723
  509TMC3    C5 7563   4.250   3.711  15.424 -0.1472 -0.2258 -0.9025
  509TMC3    C6 7564   4.387   3.727  15.444 -1.1371  0.3698  0.1380
  509TMC3     C 7565   4.166   3.940  15.155  0.0503 -0.1433 -0.4018
  509TMC3     O 7566   4.053   3.898  15.143 -0.1393 -0.0703  0.0172
  509TMC3     H 7567   4.436   3.978  15.224  0.7797 -0.3064 -0.0489
  509TMC3    H1 7568   4.087   3.718  15.289 -0.5945  1.0874  1.4267
  509TMC3    H2 7569   4.440   3.687  15.529 -1.7858  0.4405  0.5774
  509TMC3    C7 7570   4.176   3.618  15.510 -0.2093  0.7634 -0.3119
  509TMC3    C8 7571   4.581   3.855  15.392  0.3309 -0.5174 -0.3614
  509TMC3    O1 7572   4.055   3.638  15.514 -0.1689  0.7069  0.0777
  509TMC3    O2 7573   4.655   3.762  15.422  0.1670 -0.0269  0.3104
  510MPD2     C 7574   2.745   0.229  14.187 -0.0972  0.7363 -0.7862
  510MPD2    C1 7575   2.817   0.250  14.297 -0.4889 -0.7040 -0.8416
  510MPD2    C2 7576   2.952   0.283  14.293  0.5271  0.0815 -0.5476
  510MPD2    C3 7577   3.011   0.304  14.168  0.1625  0.1635  0.7051
  510MPD2    C4 7578   2.938   0.291  14.055  0.2220  0.1607  0.3864
  510MPD2    C5 7579   2.805   0.243  14.067 -0.2384 -0.3776 -0.2404
  510MPD2     H 7580   3.004   0.290  14.388  0.1445 -0.3401 -0.3058
  510MPD2    H1 7581   2.982   0.305  13.958 -2.7859 -1.3635 -1.2190
  510MPD2    H2 7582   2.648   0.180  14.185 -0.3101  1.0219  2.5701
  510MPD2    H3 7583   2.753   0.213  13.976 -0.5446  0.4522 -0.3437
  510MPD2     N 7584   3.150   0.342  14.161 -0.4566 -0.0034  1.4575
  510MPD2    H5 7585   3.201   0.344  14.249  1.4673  2.1753  0.2874
  510MPD2    N1 7586   2.751   0.215  14.413  0.3820 -0.4366 -1.0327
  510MPD2    H7 7587   2.660   0.169  14.404  0.8810 -1.3951 -1.1952
  511TMC3    C1 7588   2.691   0.221  14.642 -0.0884 -0.4424 -0.5024
  511TMC3    C2 7589   2.708   0.287  14.764 -0.2257  1.2426 -0.1758
  511TMC3    C3 7590   2.603   0.266  14.857  0.7777 -0.7129 -0.1226
  511TMC3    C4 7591   2.584   0.143  14.614 -1.0637 -0.4139  0.4443
  511TMC3    C5 7592   2.492   0.119  14.717  0.0836 -0.4187  1.0206
  511TMC3    C6 7593   2.504   0.179  14.833  0.7152  0.7997 -0.1824
  511TMC3     C 7594   2.781   0.263  14.543 -0.5615 -0.2416 -0.0864
  511TMC3     O 7595   2.872   0.335  14.571 -0.4055  0.0326 -0.1794
  511TMC3     H 7596   2.797   0.347  14.781  0.8977 -0.5807  0.4460
  511TMC3    H1 7597   2.577   0.076  14.529 -0.1767 -0.6992  0.5901
  511TMC3    H2 7598   2.429   0.183  14.912  1.6011 -1.0867  0.7679
  511TMC3    C7 7599   2.392   0.015  14.695  0.7212  0.3693 -0.7739
  511TMC3    C8 7600   2.607   0.336  14.984  0.4644 -0.8508 -0.1660
  511TMC3    O1 7601   2.371   4.699  14.583 -0.4349 -0.1589  0.2662
  511TMC3    O2 7602   2.500   0.372  15.029 -0.2305 -0.2332 -0.1035
  512TMC3    C1 7603   1.391   4.441  13.483  0.1350 -0.5562 -0.5020
  512TMC3    C2 7604   1.516   4.392  13.473 -0.1147 -0.1928  0.6000
  512TMC3    C3 7605   1.536   4.260  13.450 -0.2676  0.1267  0.9892
  512TMC3    C4 7606   1.282   4.361  13.464 -0.5066 -0.3212 -0.3504
  512TMC3    C5 7607   1.298   4.232  13.431 -0.0176  0.4288  0.1066
  512TMC3    C6 7608   1.426   4.178  13.423 -0.1553 -0.0018  0.1147
  512TMC3     C 7609   1.368   4.593  13.473 -0.3121  0.1199 -0.5420
  512TMC3     O 7610   1.268   4.634  13.418 -0.1250 -0.3478  0.1628
  512TMC3     H 7611   1.594   4.467  13.483  1.1766 -1.5944  0.9873
  512TMC3    H1 7612   1.180   4.398  13.470  0.1490  1.1928  1.4093
  512TMC3    H2 7613   1.441   4.071  13.419 -2.5499 -0.2915 -1.4769
  512TMC3    C7 7614   1.181   4.159  13.377  0.2491  0.5086  0.2976
  512TMC3    C8 7615   1.667   4.203  13.415 -0.5776 -0.1944 -0.2338
  512TMC3    O1 7616   1.096   4.235  13.333  0.3576  0.3473  0.3382
  512TMC3    O2 7617   1.671   4.104  13.347  0.6023 -0.2030 -0.6290
  513MPD2     C 7618   3.337   4.384  12.838 -0.4475 -0.4221 -0.4071
  513MPD2    C1 7619   3.277   4.272  12.888 -0.6400  0.2637  0.0382
  513MPD2    C2 7620   3.284   4.248  13.025 -0.3020 -0.0902 -0.0575
  513MPD2    C3 7621   3.339   4.342  13.110 -0.1487  0.7262  0.1281
  513MPD2    C4 7622   3.410   4.454  13.060  0.5473 -0.4610  0.9964
  513MPD2    C5 7623   3.402   4.473  12.924  0.5882 -1.0249  0.2253
  513MPD2     H 7624   3.242   4.159  13.072 -0.0898 -0.4700 -0.5819
  513MPD2    H1 7625   3.450   4.535  13.120  2.3511 -1.5130  1.2234
  513MPD2    H2 7626   3.333   4.408  12.732  0.3983  0.5339 -0.2216
  513MPD2    H3 7627   3.446   4.565  12.887 -1.0418 -0.2943  0.1034
  513MPD2     N 7628   3.337   4.309  13.245  0.0484  0.2474 -0.2957
  513MPD2    H5 7629   3.291   4.222  13.271 -0.7156  1.3770  2.1688
  513MPD2    N1 7630   3.201   4.192  12.796 -0.1855 -0.2558  0.2956
  513MPD2    H7 7631   3.196   4.228  12.701 -0.3098 -0.7979  0.0972
  514TMC3    C1 7632   3.100   3.993  12.712  0.1678 -0.3744  0.7558
  514TMC3    C2 7633   3.184   3.997  12.604 -0.5347 -0.2486  1.1760
  514TMC3    C3 7634   3.222   3.877  12.557  0.0055  0.2974 -1.1677
  514TMC3    C4 7635   3.040   3.878  12.757  0.3328  0.5549 -0.3108
  514TMC3    C5 7636   3.088   3.758  12.708  0.1964 -0.4666  0.5846
  514TMC3    C6 7637   3.172   3.755  12.602 -0.5559 -0.2548  0.4753
  514TMC3     C 7638   3.143   4.070  12.826 -0.2501  0.3844  0.3982
  514TMC3     O 7639   3.147   4.007  12.929 -0.5034  0.7237 -0.0197
  514TMC3     H 7640   3.249   4.082  12.591  1.5251 -2.4247 -2.4442
  514TMC3    H1 7641   2.982   3.880  12.848 -0.0909 -0.3777 -0.5612
  514TMC3    H2 7642   3.216   3.663  12.565 -2.0897  0.0062 -2.0227
  514TMC3    C7 7643   3.128   3.665  12.808 -0.2019 -0.2747 -0.4369
  514TMC3    C8 7644   3.347   3.858  12.486 -0.1837 -0.3920 -0.2083
  514TMC3    O1 7645   3.122   3.546  12.777  0.0307  0.3429  0.6903
  514TMC3    O2 7646   3.413   3.756  12.511 -0.0629  0.0600  0.4881
  515MPD2     C 7647   1.419   1.730  14.778  0.2305  0.0939  0.1496
  515MPD2    C1 7648   1.498   1.626  14.749 -0.1596  0.0449 -0.6312
  515MPD2    C2 7649   1.635   1.636  14.780 -0.0950  1.4687 -0.0573
  515MPD2    C3 7650   1.700   1.751  14.827  0.2001  0.1731 -0.2170
  515MPD2    C4 7651   1.610   1.855  14.858 -0.8191 -0.3313  0.0766
  515MPD2    C5 7652   1.474   1.844  14.833  0.1084 -0.1077 -0.2739
  515MPD2     H 7653   1.694   1.545  14.770 -1.4990  0.4762  0.6974
  515MPD2    H1 7654   1.647   1.943  14.911  0.6279 -0.2485 -1.0657
  515MPD2    H2 7655   1.313   1.719  14.756  0.1033  0.0420  0.8006
  515MPD2    H3 7656   1.409   1.929  14.851  0.4681 -0.1589  1.3369
  515MPD2     N 7657   1.841   1.760  14.842  0.4637 -0.2283  0.1576
  515MPD2    H5 7658   1.865   1.839  14.901 -1.5606  1.0381 -0.7050
  515MPD2    N1 7659   1.435   1.516  14.691  0.0829 -0.0400  0.1270
  515MPD2    H7 7660   1.337   1.523  14.669 -0.5173  0.1714  2.8108
  516TMC3    C1 7661   1.397   1.295  14.622 -0.2107  0.2261  0.1829
  516TMC3    C2 7662   1.341   1.341  14.503 -0.4420  0.5069  0.9696
  516TMC3    C3 7663   1.275   1.249  14.420  0.0097  0.5728 -0.5960
  516TMC3    C4 7664   1.405   1.155  14.641 -0.1409  0.1017 -0.2631
  516TMC3    C5 7665   1.311   1.080  14.577  0.1394  0.7519  0.0937
  516TMC3    C6 7666   1.248   1.126  14.463 -0.2168  0.0686 -0.0208
  516TMC3     C 7667   1.488   1.391  14.686 -0.5004 -0.5399 -0.0377
  516TMC3     O 7668   1.581   1.341  14.741  0.2112  0.2712  0.1301
  516TMC3     H 7669   1.348   1.446  14.476  3.2263  0.3864  1.4343
  516TMC3    H1 7670   1.448   1.113  14.731  2.8507 -0.3331 -1.9002
  516TMC3    H2 7671   1.189   1.059  14.401  1.2418 -1.5277  0.2968
  516TMC3    C7 7672   1.272   0.962  14.649  1.1095  0.8026  0.2865
  516TMC3    C8 7673   1.226   1.285  14.291  0.8269  0.6780  0.0353
  516TMC3    O1 7674   1.355   0.896  14.713 -0.0407 -0.1840 -0.4937
  516TMC3    O2 7675   1.114   1.247  14.251  0.1730  0.0769 -0.1020
  517MPD2     C 7676   0.845   2.579   0.185 -0.2643 -0.4779  0.1610
  517MPD2    C1 7677   0.970   2.607   0.178  0.0901  0.1713 -0.3332
  517MPD2    C2 7678   1.020   2.724   0.234  0.6124 -0.2508  0.6279
  517MPD2    C3 7679   0.922   2.810   0.286 -0.5609 -0.6675  0.2882
  517MPD2    C4 7680   0.786   2.780   0.286 -0.1889 -0.0355  0.5536
  517MPD2    C5 7681   0.749   2.661   0.237  0.7713  0.1295 -0.7759
  517MPD2     H 7682   1.127   2.740   0.234  0.3354  1.6684  1.9447
  517MPD2    H1 7683   0.707   2.844   0.323 -0.7896 -0.6965  0.4065
  517MPD2    H2 7684   0.813   2.484   0.145 -2.4532  0.1152  0.4699
  517MPD2    H3 7685   0.647   2.625   0.230  0.5469  1.0013 -2.0983
  517MPD2     N 7686   0.958   2.935   0.347 -0.0387  0.5880 -0.2335
  517MPD2    H5 7687   0.879   2.988   0.382  0.0269  0.5112  0.0307
  517MPD2    N1 7688   1.075   2.531   0.122  0.3753 -0.5671  0.3964
  517MPD2    H7 7689   1.164   2.580   0.122  0.1238 -0.1138  0.3702
  518TMC3    C1 7690   1.181   2.379  17.665 -0.3686  0.7899 -0.0842
  518TMC3    C2 7691   1.177   2.253  17.607 -0.0865  0.1112 -0.1187
  518TMC3    C3 7692   1.281   2.222  17.522  0.1950  0.0975 -0.5177
  518TMC3    C4 7693   1.277   2.465  17.634 -0.1143  0.0161 -0.2552
  518TMC3    C5 7694   1.372   2.436  17.542  0.8006 -0.1234  0.3554
  518TMC3    C6 7695   1.372   2.314  17.490 -0.2193 -0.5969 -0.1622
  518TMC3     C 7696   1.060   2.417   0.047  0.4963  0.9201 -0.7897
  518TMC3     O 7697   0.959   2.351   0.018  0.5379  0.3334 -0.2763
  518TMC3     H 7698   1.105   2.178  17.635 -0.4025  0.2351 -0.5983
  518TMC3    H1 7699   1.278   2.567  17.671  0.3284  0.9748 -2.8998
  518TMC3    H2 7700   1.442   2.284  17.413 -0.2796  0.2677 -0.5542
  518TMC3    C7 7701   1.477   2.532  17.510  0.0355 -0.1397  0.1472
  518TMC3    C8 7702   1.299   2.087  17.476 -0.1207  0.1473  0.0064
  518TMC3    O1 7703   1.460   2.651  17.541  0.7170  0.0201 -0.1997
  518TMC3    O2 7704   1.373   2.071  17.381 -0.3437  0.6006  0.5151
  519MPD2     C 7705   2.648   1.503  14.363  0.1260  0.3744 -0.2995
  519MPD2    C1 7706   2.575   1.413  14.294  0.0478 -0.0441 -0.5810
  519MPD2    C2 7707   2.620   1.277  14.300 -0.1886 -0.0892  0.3975
  519MPD2    C3 7708   2.736   1.237  14.368  0.2373 -0.6071 -0.2266
  519MPD2    C4 7709   2.811   1.338  14.424  0.3903 -0.8733  0.2622
  519MPD2    C5 7710   2.769   1.469  14.426 -0.7683  1.5439  0.1977
  519MPD2     H 7711   2.564   1.200  14.247  0.4501 -1.5262  1.7881
  519MPD2    H1 7712   2.913   1.331  14.461  1.5895  0.7641 -2.7219
  519MPD2    H2 7713   2.629   1.609  14.376  0.4032  0.3190  0.5568
  519MPD2    H3 7714   2.825   1.541  14.485 -2.7233  0.7156  3.1030
  519MPD2     N 7715   2.785   1.105  14.373  0.9648  0.7319 -0.0991
  519MPD2    H5 7716   2.860   1.072  14.433  0.0340  0.2679  0.8174
  519MPD2    N1 7717   2.450   1.437  14.235  0.2141  0.3195  0.6186
  519MPD2    H7 7718   2.392   1.358  14.210 -3.3075  2.2248  2.7531
  520TMC3    C1 7719   2.825   0.885  14.313 -0.5129  0.3225 -0.2314
  520TMC3    C2 7720   2.769   0.778  14.259 -0.1109  0.5277  0.1592
  520TMC3    C3 7721   2.845   0.695  14.181  0.6660 -0.0895 -0.3190
  520TMC3    C4 7722   2.968   0.910  14.311  0.2610  0.2334 -0.1984
  520TMC3    C5 7723   3.040   0.830  14.236 -0.0193 -0.2580 -0.1209
  520TMC3    C6 7724   2.979   0.722  14.174  0.1514 -0.5685 -0.2105
  520TMC3     C 7725   2.744   1.001  14.298 -0.4918  0.0066  0.1221
  520TMC3     O 7726   2.652   0.994  14.213  0.0298  0.1347 -0.1440
  520TMC3     H 7727   2.662   0.766  14.272 -0.4844  3.6616  0.1301
  520TMC3    H1 7728   3.017   0.993  14.360  0.0970 -0.1177  0.5576
  520TMC3    H2 7729   3.042   0.644  14.132  0.2036 -0.2443 -0.7234
  520TMC3    C7 7730   3.180   0.842  14.228 -0.3126 -0.3581 -0.3498
  520TMC3    C8 7731   2.800   0.668  14.045 -0.1104 -0.1701 -0.1490
  520TMC3    O1 7732   3.231   0.896  14.325  0.3035 -0.0157 -0.5058
  520TMC3    O2 7733   2.875   0.613  13.968  0.0744  0.4843  0.2196
  521MPD2     C 7734   3.378   3.199  17.473 -0.4914 -0.7083  0.5345
  521MPD2    C1 7735   3.402   3.301  17.385  0.3278  0.1086 -1.0867
  521MPD2    C2 7736   3.497   3.273  17.292  0.3046  0.0901  0.7658
  521MPD2    C3 7737   3.577   3.159  17.288  0.9720 -0.0727 -0.6396
  521MPD2    C4 7738   3.538   3.046  17.365  1.0467  0.2304  0.4038
  521MPD2    C5 7739   3.439   3.071  17.455 -0.1630  0.7335  0.2203
  521MPD2     H 7740   3.526   3.359  17.233 -0.9035  0.0023  0.0414
  521MPD2    H1 7741   3.579   2.946  17.357 -1.1026 -0.4406 -2.5998
  521MPD2    H2 7742   3.302   3.205  17.551 -1.9175  0.1837 -0.9239
  521MPD2    H3 7743   3.404   2.991  17.520 -2.2700  0.4493 -1.2543
  521MPD2     N 7744   3.675   3.160  17.189  0.5570 -0.0409 -0.3289
  521MPD2    H5 7745   3.693   3.250  17.145  0.4379  0.1092 -0.0715
  521MPD2    N1 7746   3.329   3.420  17.409  0.1442  0.3239 -0.3522
  521MPD2    H7 7747   3.260   3.413  17.483  1.1287 -1.3082  0.3942
  522TMC3    C1 7748   3.848   3.077  17.036  0.3530 -0.1736  0.3388
  522TMC3    C2 7749   3.882   2.970  16.963 -0.3350 -0.5167 -0.5281
  522TMC3    C3 7750   3.993   2.982  16.879  1.1015 -0.1071 -0.1884
  522TMC3    C4 7751   3.927   3.188  17.042 -0.2082 -0.1706  0.6123
  522TMC3    C5 7752   4.028   3.198  16.956  0.0191 -0.0425 -0.0052
  522TMC3    C6 7753   4.071   3.096  16.874  0.5610  0.3973 -0.1593
  522TMC3     C 7754   3.749   3.049  17.148 -0.5565 -0.0840  0.3704
  522TMC3     O 7755   3.749   2.938  17.199  0.1892  0.1123 -0.2758
  522TMC3     H 7756   3.807   2.892  16.954 -0.5816 -0.2778 -0.5158
  522TMC3    H1 7757   3.914   3.267  17.115 -1.4956 -0.5162  0.7593
  522TMC3    H2 7758   4.160   3.114  16.816 -0.2203  1.2007 -1.1117
  522TMC3    C7 7759   4.096   3.326  16.951 -0.0730 -0.4813 -0.3290
  522TMC3    C8 7760   3.999   2.888  16.768  0.1448  0.2442  0.0673
  522TMC3    O1 7761   4.209   3.321  16.911  0.3301  0.0316 -0.2077
  522TMC3    O2 7762   3.937   2.783  16.787 -0.1666  0.4552 -0.0899
  523MPD2     C 7763   1.420   3.553  10.413 -0.2482  0.1427  0.0364
  523MPD2    C1 7764   1.399   3.504  10.287  0.3700 -0.3432 -0.4451
  523MPD2    C2 7765   1.344   3.582  10.182 -0.1632 -0.5175 -0.2950
  523MPD2    C3 7766   1.299   3.711  10.206 -0.6712  0.0110 -0.0974
  523MPD2    C4 7767   1.321   3.758  10.326 -0.6371  0.2075 -0.4249
  523MPD2    C5 7768   1.385   3.684  10.431 -0.3776 -0.0354  0.6264
  523MPD2     H 7769   1.327   3.543  10.082  1.9950 -0.0478 -0.8465
  523MPD2    H1 7770   1.309   3.862  10.356 -1.6121  0.0063 -0.1154
  523MPD2    H2 7771   1.470   3.497  10.491 -2.7235 -0.3681  1.2607
  523MPD2    H3 7772   1.410   3.733  10.524  1.2303  0.3286  0.0126
  523MPD2     N 7773   1.228   3.795  10.109  0.3884  0.2676  0.2910
  523MPD2    H5 7774   1.208   3.892  10.126  0.0000  0.0573  1.0214
  523MPD2    N1 7775   1.429   3.364  10.268  0.5122 -0.6652  0.3605
  523MPD2    H7 7776   1.457   3.312  10.351  2.3680  0.5334  0.4879
  524TMC3    C1 7777   1.090   3.841   9.922  0.3217 -0.5926 -0.1815
  524TMC3    C2 7778   1.054   3.808   9.798  0.3345  0.0714 -0.2690
  524TMC3    C3 7779   0.968   3.888   9.731  0.0755  0.0699 -0.5221
  524TMC3    C4 7780   1.070   3.964   9.968  0.1893  0.7108  0.1275
  524TMC3    C5 7781   0.980   4.043   9.903 -0.8159  0.7210  0.1174
  524TMC3    C6 7782   0.932   4.016   9.774  0.7400  0.1012  0.1833
  524TMC3     C 7783   1.185   3.746   9.986 -0.8162  0.0331 -0.4621
  524TMC3     O 7784   1.180   3.629   9.941 -0.2878 -0.4041 -0.1182
  524TMC3     H 7785   1.045   3.704   9.770  1.7240 -0.2085  0.3340
  524TMC3    H1 7786   1.120   3.989  10.061  2.4963 -1.9013 -0.4154
  524TMC3    H2 7787   0.859   4.077   9.724  0.8558  0.6519  0.6848
  524TMC3    C7 7788   0.927   4.150   9.982 -0.2488  1.1868 -0.3222
  524TMC3    C8 7789   0.936   3.853   9.593  0.1725 -0.1834  0.0847
  524TMC3    O1 7790   1.001   4.191  10.069  0.5589 -0.5695  0.2992
  524TMC3    O2 7791   0.992   3.758   9.538 -0.9566  0.3572 -0.0981
  525MPD2     C 7792   4.423   0.974  14.456  0.3553  0.5792  1.0462
  525MPD2    C1 7793   4.510   1.012  14.556  0.0167 -0.8421 -0.9619
  525MPD2    C2 7794   4.602   1.112  14.534 -0.2072  0.3703  0.1632
  525MPD2    C3 7795   4.590   1.182  14.410 -0.7733  0.0249 -1.1793
  525MPD2    C4 7796   4.501   1.148  14.313  0.1755  0.3757  0.1435
  525MPD2    C5 7797   4.423   1.035  14.335 -0.1538  0.5408 -0.1229
  525MPD2     H 7798   4.657   1.154  14.617  0.9196 -0.8597  0.0416
  525MPD2    H1 7799   4.495   1.194  14.215 -1.4279  1.1900  0.6354
  525MPD2    H2 7800   4.362   0.886  14.472 -0.2904  0.7363 -0.5874
  525MPD2    H3 7801   4.362   0.988  14.259 -3.0576  1.0859  1.8892
  525MPD2     N 7802   4.661   1.301  14.382  0.3589 -0.4379  0.0960
  525MPD2    H5 7803   4.616   1.360  14.312  3.0781  0.6431 -0.7446
  525MPD2    N1 7804   4.515   0.942  14.676  0.1746 -0.2726  0.1461
  525MPD2    H7 7805   4.605   0.937  14.723  1.0737 -0.9691 -1.6357
  526TMC3    C1 7806   4.451   0.781  14.829 -0.0634 -0.8102  0.2714
  526TMC3    C2 7807   4.361   0.741  14.923  0.1273 -0.3951  0.0741
  526TMC3    C3 7808   4.408   0.649  15.009 -0.0145 -0.2334  0.5023
  526TMC3    C4 7809   4.578   0.725  14.821 -0.5461  0.0670  0.2482
  526TMC3    C5 7810   4.615   0.625  14.909 -0.2925 -0.4899 -0.5801
  526TMC3    C6 7811   4.528   0.591  15.000  0.1904  0.0251  0.1835
  526TMC3     C 7812   4.408   0.872  14.732 -0.4452  0.0104  0.5679
  526TMC3     O 7813   4.291   0.881  14.705 -0.0277  0.2205  0.3610
  526TMC3     H 7814   4.275   0.805  14.940  0.1153 -0.0433 -1.3000
  526TMC3    H1 7815   4.646   0.753  14.741 -2.2560  3.9990  0.1956
  526TMC3    H2 7816   4.555   0.512  15.069 -2.3717  1.1387  2.4459
  526TMC3    C7 7817   0.011   0.550  14.873 -0.3781  0.0723  0.3295
  526TMC3    C8 7818   4.341   0.632  15.147 -0.1035  0.7311 -0.4368
  526TMC3    O1 7819   0.010   0.427  14.887  0.6615  0.1997  0.0477
  526TMC3    O2 7820   4.411   0.588  15.240 -0.2627 -0.0868 -0.0359
  527MPD2     C 7821   2.015   3.904   0.936  0.6429 -0.1220  0.2860
  527MPD2    C1 7822   2.011   3.792   1.014 -0.5271  0.6018  0.2582
  527MPD2    C2 7823   2.122   3.713   1.018  0.0494  0.7582  1.3062
  527MPD2    C3 7824   2.237   3.736   0.949  0.1166 -0.2944 -0.5215
  527MPD2    C4 7825   2.243   3.850   0.869  0.0664  0.5257  0.1453
  527MPD2    C5 7826   2.130   3.926   0.864  1.0854  0.4894 -1.0688
  527MPD2     H 7827   2.122   3.627   1.085 -0.2583 -0.2063  0.0861
  527MPD2    H1 7828   2.333   3.895   0.829 -0.1737  0.5299 -0.3921
  527MPD2    H2 7829   1.939   3.982   0.935  0.3620 -0.3954  0.1261
  527MPD2    H3 7830   2.139   4.022   0.813 -0.4610  0.1923 -1.9024
  527MPD2     N 7831   2.348   3.658   0.970  0.5041  0.1660 -0.1331
  527MPD2    H5 7832   2.338   3.587   1.042  1.1586 -0.7378 -0.9574
  527MPD2    N1 7833   1.905   3.744   1.091  0.4966  0.1147 -0.1589
  527MPD2    H7 7834   1.927   3.664   1.150 -1.7725 -2.0700 -2.3160
  528TMC3    C1 7835   1.697   3.717   1.206  0.4814  0.0939 -0.5950
  528TMC3    C2 7836   1.742   3.606   1.280  0.3961 -0.2206  0.8373
  528TMC3    C3 7837   1.648   3.522   1.342  0.2219 -0.8576 -0.5575
  528TMC3    C4 7838   1.563   3.729   1.182 -0.3292 -0.1489 -0.1079
  528TMC3    C5 7839   1.479   3.643   1.254 -0.4445  0.5788  0.0879
  528TMC3    C6 7840   1.514   3.549   1.340  0.1023 -0.4582 -0.0594
  528TMC3     C 7841   1.774   3.789   1.102 -0.2043  0.7195  0.7345
  528TMC3     O 7842   1.713   3.871   1.033  0.5777 -0.5795  0.1792
  528TMC3     H 7843   1.849   3.598   1.294  0.4268 -3.4660 -1.2677
  528TMC3    H1 7844   1.516   3.818   1.141 -1.6948  0.6254  3.1435
  528TMC3    H2 7845   1.435   3.483   1.374 -0.5496 -0.8478 -2.2885
  528TMC3    C7 7846   1.349   3.693   1.295 -0.1547  0.2502 -0.3281
  528TMC3    C8 7847   1.697   3.440   1.454  0.0234 -0.5218 -0.2020
  528TMC3    O1 7848   1.316   3.669   1.412 -0.1751  0.0915 -0.2861
  528TMC3    O2 7849   1.816   3.442   1.480  0.3252  0.2163 -0.0049
  529MPD2     C 7850   4.232   2.179   0.701 -0.3055 -0.9785 -0.2950
  529MPD2    C1 7851   4.372   2.157   0.683 -0.4381  0.1305  0.3439
  529MPD2    C2 7852   4.444   2.231   0.589  0.3757  0.3640  0.1098
  529MPD2    C3 7853   4.387   2.334   0.515 -0.0321  0.3904  0.7481
  529MPD2    C4 7854   4.255   2.357   0.540 -0.9494  0.3582  0.7412
  529MPD2    C5 7855   4.182   2.279   0.620 -0.3158 -0.3424  0.0940
  529MPD2     H 7856   4.552   2.237   0.592  0.4061  0.0890 -0.3892
  529MPD2    H1 7857   4.206   2.443   0.497  0.4382  0.9065  0.2518
  529MPD2    H2 7858   4.168   2.125   0.770 -0.6046  0.0610  0.2429
  529MPD2    H3 7859   4.081   2.308   0.643  0.1293  1.1674  0.1336
  529MPD2     N 7860   4.460   2.427   0.438  0.2007  0.3695 -0.2739
  529MPD2    H5 7861   4.406   2.506   0.405 -0.3225  0.4315  0.7409
  529MPD2    N1 7862   4.450   2.077   0.758  0.9329 -0.5746  0.5824
  529MPD2    H7 7863   4.549   2.069   0.735  1.5542  3.3674  1.8921
  530TMC3    C1 7864   4.518   1.948   0.928 -0.2837 -0.6802  0.1995
  530TMC3    C2 7865   4.597   1.868   0.850  0.3862 -0.1771  0.4021
  530TMC3    C3 7866   4.674   1.781   0.922  0.1214 -0.0719  0.0405
  530TMC3    C4 7867   4.503   1.935   1.065  0.0056 -0.0273  0.1283
  530TMC3    C5 7868   4.602   1.866   1.125  0.5383  0.2755 -0.0967
  530TMC3    C6 7869   4.679   1.779   1.062  0.1140 -0.0214 -0.0495
  530TMC3     C 7870   4.407   2.012   0.867 -0.5706  0.0455 -0.0644
  530TMC3     O 7871   4.304   1.995   0.931  0.5779 -0.1617  0.6442
  530TMC3     H 7872   4.588   1.852   0.743  2.0833  2.1426 -0.0935
  530TMC3    H1 7873   4.428   1.997   1.112 -0.4246 -1.6858  1.6106
  530TMC3    H2 7874   0.035   1.725   1.112 -1.3467 -0.6713  1.5884
  530TMC3    C7 7875   4.588   1.816   1.261  0.0510  0.6529  0.6199
  530TMC3    C8 7876   0.043   1.703   0.857 -0.2380 -0.2408  0.2760
  530TMC3    O1 7877   4.688   1.757   1.307 -0.3522 -0.6718 -0.5061
  530TMC3    O2 7878   0.083   1.742   0.748 -0.3291  0.1446  0.7901
  531MPD2     C 7879   3.298   3.598  13.280 -0.1130 -0.0438  0.1952
  531MPD2    C1 7880   3.281   3.732  13.261 -0.3530  0.3910 -0.0565
  531MPD2    C2 7881   3.236   3.770  13.138 -0.2225  0.4741 -0.6631
  531MPD2    C3 7882   3.207   3.679  13.039  1.0456 -0.1964  0.1796
  531MPD2    C4 7883   3.226   3.540  13.056  0.4077 -0.7194 -0.3029
  531MPD2    C5 7884   3.283   3.506  13.183  0.7869  0.1303  0.1199
  531MPD2     H 7885   3.216   3.875  13.118  1.2487  0.8837  0.0427
  531MPD2    H1 7886   3.217   3.466  12.977  0.7255  0.5378 -1.5122
  531MPD2    H2 7887   3.329   3.573  13.381 -2.0352  2.3671  1.3784
  531MPD2    H3 7888   3.309   3.402  13.189 -0.5971 -0.2155  0.1995
  531MPD2     N 7889   3.170   3.736  12.919  0.0994  0.2594 -0.0562
  531MPD2    H5 7890   3.181   3.834  12.899  0.6526  0.2192  0.0669
  531MPD2    N1 7891   3.298   3.818  13.376 -0.3969 -0.3490 -0.3245
  531MPD2    H7 7892   3.324   3.783  13.467  0.8089  1.8734  0.1708
  532TMC3    C1 7893   3.341   4.041  13.485 -0.3236 -0.1992  0.0464
  532TMC3    C2 7894   3.307   4.174  13.460  0.3976  0.4629  0.4838
  532TMC3    C3 7895   3.397   4.279  13.467  0.2817 -0.2844 -0.0262
  532TMC3    C4 7896   3.471   4.008  13.515 -0.6158  0.1658 -0.4227
  532TMC3    C5 7897   3.555   4.117  13.522 -0.2436 -0.4436  0.4380
  532TMC3    C6 7898   3.519   4.251  13.500  0.1670  0.1308 -0.2462
  532TMC3     C 7899   3.282   3.965  13.374  0.4868  0.2897  0.0241
  532TMC3     O 7900   3.256   4.036  13.280  0.3073 -0.1906  0.4009
  532TMC3     H 7901   3.202   4.192  13.442  0.3672 -2.1189 -1.9373
  532TMC3    H1 7902   3.498   3.903  13.525 -0.9068  0.0743 -0.5632
  532TMC3    H2 7903   3.593   4.327  13.523 -1.0057  1.1032  0.2524
  532TMC3    C7 7904   3.688   4.100  13.585 -0.2788  0.3524 -0.6046
  532TMC3    C8 7905   3.391   4.373  13.350  0.2599 -0.9614 -0.2051
  532TMC3    O1 7906   3.758   4.199  13.594  0.0806 -0.2357  0.6408
  532TMC3    O2 7907   3.452   4.479  13.340 -0.3000 -0.0147 -0.6438
  533TMC3    C1 7908   0.056   1.497  14.438 -0.1953 -0.4631  1.1428
  533TMC3    C2 7909   0.173   1.562  14.459  0.2698 -0.6985 -0.2710
  533TMC3    C3 7910   0.169   1.693  14.491  0.3289  0.5416  0.0569
  533TMC3    C4 7911   4.665   1.567  14.440  0.6185  0.3493  0.2992
  533TMC3    C5 7912   4.664   1.684  14.504  0.4477 -0.5079 -0.0866
  533TMC3    C6 7913   0.053   1.753  14.516 -0.1595 -0.0845  0.0554
  533TMC3     C 7914   0.050   1.350  14.445  0.2848 -0.4382  0.1743
  533TMC3     O 7915   0.126   1.289  14.522  0.1516 -0.2334 -0.3562
  533TMC3     H 7916   0.260   1.497  14.450  0.8304 -0.4270  3.2689
  533TMC3    H1 7917   4.573   1.511  14.429 -0.2449  1.6188  1.2418
  533TMC3    H2 7918   0.048   1.857  14.545 -0.0214  0.4436 -1.8181
  533TMC3    C7 7919   4.588   1.673  14.627 -0.9581 -0.1797  0.0016
  533TMC3    C8 7920   0.293   1.767  14.507  0.4468  0.0264  0.0752
  533TMC3    O1 7921   4.531   1.565  14.634 -0.2031 -0.0240  0.0347
  533TMC3    O2 7922   0.278   1.881  14.552  0.4954 -0.4421 -0.4935
  534MPD2     C 7923   1.474   2.401   1.666  0.6897  0.1698 -0.3060
  534MPD2    C1 7924   1.553   2.434   1.556 -0.7108 -0.1506  0.1183
  534MPD2    C2 7925   1.540   2.365   1.436 -0.3065  0.4350  0.3270
  534MPD2    C3 7926   1.438   2.274   1.420 -0.3193 -0.4597 -0.2144
  534MPD2    C4 7927   1.361   2.247   1.529 -0.0996 -0.0263 -0.2552
  534MPD2    C5 7928   1.372   2.305   1.657  0.0162  0.0699  0.4333
  534MPD2     H 7929   1.594   2.404   1.351  1.9240  1.6239  2.3036
  534MPD2    H1 7930   1.279   2.179   1.510 -1.8806  1.6392  1.5428
  534MPD2    H2 7931   1.472   2.458   1.759 -0.5149 -1.4926  0.7000
  534MPD2    H3 7932   1.305   2.286   1.740 -0.6067  1.1088  0.1640
  534MPD2     N 7933   1.406   2.211   1.295 -0.3326 -0.8122 -0.2594
  534MPD2    H5 7934   1.317   2.162   1.297 -1.2989  0.8307 -2.2721
  534MPD2    N1 7935   1.642   2.544   1.552  0.3432 -0.5568 -0.2237
  534MPD2    H7 7936   1.675   2.573   1.460  1.6936 -0.4310  0.2980
  535TMC3    C1 7937   1.456   2.118   1.081  0.3450  0.0633 -0.1983
  535TMC3    C2 7938   1.325   2.070   1.071  0.0073 -0.4152  0.9178
  535TMC3    C3 7939   1.283   1.998   0.963 -0.1222 -0.0760  0.7170
  535TMC3    C4 7940   1.547   2.087   0.988  0.7211  0.1672 -0.2215
  535TMC3    C5 7941   1.499   2.018   0.877  0.4406  0.7200 -0.1691
  535TMC3    C6 7942   1.371   1.966   0.862  0.7564 -0.1536  0.5276
  535TMC3     C 7943   1.494   2.200   1.190 -0.4272  0.1550  0.0153
  535TMC3     O 7944   1.615   2.235   1.189  0.0540  0.1434 -0.5413
  535TMC3     H 7945   1.253   2.099   1.147 -3.9909 -1.8209 -2.3058
  535TMC3    H1 7946   1.645   2.132   0.981  0.3953  1.0315  0.8057
  535TMC3    H2 7947   1.338   1.914   0.773  0.6017  0.7287  0.0659
  535TMC3    C7 7948   1.590   2.008   0.761 -0.1972  0.0230 -0.0422
  535TMC3    C8 7949   1.142   1.991   0.936 -0.0056  0.3590 -0.1467
  535TMC3    O1 7950   1.707   2.020   0.792 -0.0997  0.3048 -0.9214
  535TMC3    O2 7951   1.104   2.000   0.817 -0.3180 -0.3287  0.0896
  536MPD2     C 7952   1.472   0.669  16.089 -0.1656 -0.3644 -0.6246
  536MPD2    C1 7953   1.393   0.558  16.065  0.1575  0.4691 -0.0339
  536MPD2    C2 7954   1.336   0.548  15.939 -0.1202 -0.0407  0.3466
  536MPD2    C3 7955   1.359   0.650  15.841 -0.6017  0.2255 -0.0300
  536MPD2    C4 7956   1.429   0.762  15.869  0.5620  0.0784 -0.4115
  536MPD2    C5 7957   1.498   0.764  15.991 -0.2389 -0.4403 -0.4331
  536MPD2     H 7958   1.277   0.462  15.906 -1.2127  0.8042  0.0913
  536MPD2    H1 7959   1.457   0.828  15.788  5.0946 -1.8609 -0.4099
  536MPD2    H2 7960   1.509   0.692  16.188  2.4085  0.7189 -1.8187
  536MPD2    H3 7961   1.558   0.849  16.020 -0.2158 -0.9945  1.1229
  536MPD2     N 7962   1.295   0.648  15.716  0.8348 -0.5380  0.2384
  536MPD2    H5 7963   1.309   0.731  15.659  4.1105 -0.3606  1.2833
  536MPD2    N1 7964   1.373   0.467  16.165 -0.0193 -0.4369 -0.2491
  536MPD2    H7 7965   1.433   0.474  16.246 -1.6313 -0.4720  0.9452
  537TMC3    C1 7966   1.297   0.294  16.298 -0.1381  0.0815 -0.2302
  537TMC3    C2 7967   1.346   0.358  16.409 -0.5044  0.1986 -0.4321
  537TMC3    C3 7968   1.336   0.292  16.530  0.3726 -0.5540 -0.2687
  537TMC3    C4 7969   1.232   0.178  16.302 -0.0366 -0.4215 -0.2423
  537TMC3    C5 7970   1.226   0.115  16.420  0.5576 -0.5784  0.3882
  537TMC3    C6 7971   1.276   0.168  16.536  0.0078  1.0536  0.6337
  537TMC3     C 7972   1.280   0.368  16.170  0.1841 -0.6415  0.6552
  537TMC3     O 7973   1.203   0.321  16.089 -0.3154 -0.2348 -0.6397
  537TMC3     H 7974   1.382   0.460  16.397  0.8955 -0.5398 -2.5102
  537TMC3    H1 7975   1.184   0.130  16.217 -3.1662  0.9039  0.8035
  537TMC3    H2 7976   1.265   0.122  16.634  1.5296 -1.5813 -0.4094
  537TMC3    C7 7977   1.159   4.704  16.415  0.2414 -0.1802 -0.0844
  537TMC3    C8 7978   1.407   0.340  16.654  0.6109  0.4855 -0.0483
  537TMC3    O1 7979   1.135   4.653  16.305 -0.2599 -0.9283  0.0527
  537TMC3    O2 7980   1.391   0.281  16.760  0.3816  0.1421 -0.0518
  538TMC3    C1 7981   2.077   3.915  10.957  0.0445  0.5838  0.1957
  538TMC3    C2 7982   2.096   3.833  10.846  0.0278 -0.1823  0.4370
  538TMC3    C3 7983   2.084   3.885  10.723 -0.2400  0.4329 -0.4125
  538TMC3    C4 7984   2.029   4.039  10.950  0.0773  0.4818 -0.0463
  538TMC3    C5 7985   1.987   4.080  10.827 -0.7692  0.8304  0.0954
  538TMC3    C6 7986   2.028   4.010  10.716  0.6969  0.5377  0.5684
  538TMC3     C 7987   2.106   3.860  11.085 -0.3290  0.4715  0.5994
  538TMC3     O 7988   2.066   3.916  11.190 -0.1862  0.0144  1.2286
  538TMC3     H 7989   2.137   3.733  10.835  1.2209  0.3577 -0.1064
  538TMC3    H1 7990   2.018   4.101  11.038  1.0346  1.0468 -0.3290
  538TMC3    H2 7991   1.995   4.039  10.617  1.5030 -1.2857 -0.2260
  538TMC3    C7 7992   1.852   4.130  10.836  0.7675  0.0181 -0.3101
  538TMC3    C8 7993   2.162   3.833  10.611 -0.0597  0.4948  0.6809
  538TMC3    O1 7994   1.794   4.114  10.942  0.1765 -0.1491 -0.3235
  538TMC3    O2 7995   2.163   3.710  10.604 -0.0740  0.0652 -0.3748
  539MPD2     C 7996   2.217   3.099  11.463  0.7507  0.0148 -0.0552
  539MPD2    C1 7997   2.102   3.042  11.521 -0.6761  0.5102 -0.1881
  539MPD2    C2 7998   1.996   3.121  11.559 -0.0714  0.0144 -0.3233
  539MPD2    C3 7999   1.999   3.258  11.538  0.7744 -0.1047  0.0715
  539MPD2    C4 8000   2.105   3.305  11.468 -0.4592  0.9005 -0.8270
  539MPD2    C5 8001   2.215   3.231  11.436  0.0618 -0.2309 -0.2925
  539MPD2     H 8002   1.911   3.079  11.611 -0.2529  1.4428  0.5385
  539MPD2    H1 8003   2.110   3.409  11.438  2.1089  0.1320 -3.1356
  539MPD2    H2 8004   2.302   3.040  11.432  0.5735 -0.3371  0.1356
  539MPD2    H3 8005   2.306   3.264  11.387 -0.0470  1.3944  0.6193
  539MPD2     N 8006   1.893   3.343  11.572 -0.0305 -0.3323  0.0785
  539MPD2    H5 8007   1.885   3.438  11.536  0.1031 -0.8180 -1.2115
  539MPD2    N1 8008   2.097   2.900  11.538  0.0091 -0.6161 -0.3867
  539MPD2    H7 8009   2.175   2.855  11.490 -0.4211 -0.7449 -0.9703
  540TMC3    C1 8010   1.683   3.387  11.677  0.6269  0.0516  0.1899
  540TMC3    C2 8011   1.636   3.446  11.557 -0.6315  0.3647  0.0194
  540TMC3    C3 8012   1.501   3.459  11.542 -0.7735 -0.3957 -0.0113
  540TMC3    C4 8013   1.599   3.353  11.781  0.0731  0.9287  0.2108
  540TMC3    C5 8014   1.467   3.375  11.757 -0.5511  0.0606  0.2639
  540TMC3    C6 8015   1.414   3.433  11.644  0.3743 -0.7536  0.4061
  540TMC3     C 8016   1.807   3.313  11.675  0.3407 -0.4831  0.0483
  540TMC3     O 8017   1.825   3.240  11.772 -0.3771 -0.6867 -0.2496
  540TMC3     H 8018   1.693   3.471  11.468  1.0444  1.3963  1.3713
  540TMC3    H1 8019   1.639   3.348  11.882 -0.7202  0.6947  0.5175
  540TMC3    H2 8020   1.311   3.434  11.608 -0.2378 -1.0376  2.1166
  540TMC3    C7 8021   1.375   3.336  11.855 -0.5771 -0.4004 -0.2599
  540TMC3    C8 8022   1.455   3.488  11.407 -0.1528 -0.1704  0.1490
  540TMC3    O1 8023   1.265   3.380  11.834 -0.2498 -0.1065  0.2224
  540TMC3    O2 8024   1.521   3.555  11.327  0.3840 -0.1102  0.2806
  541MPD2     C 8025   4.640   4.686  13.717  0.5061 -0.1772  0.1428
  541MPD2    C1 8026   4.695   4.607  13.620  0.2076 -0.5624 -0.0529
  541MPD2    C2 8027   4.695   4.664  13.489  0.0165  0.1441  0.1156
  541MPD2    C3 8028   4.659   0.068  13.466  0.7325  0.1645  0.1794
  541MPD2    C4 8029   4.604   0.150  13.563  0.1597 -0.7652  0.0543
  541MPD2    C5 8030   4.588   0.086  13.684  0.5448  0.1594  1.0686
  541MPD2     H 8031   4.694   4.590  13.409  1.7231 -0.8308  1.0061
  541MPD2    H1 8032   4.575   0.252  13.541 -0.0627 -0.6708  0.7797
  541MPD2    H2 8033   4.627   4.656  13.820  2.2059 -0.9614  0.1270
  541MPD2    H3 8034   4.543   0.151  13.758  2.6366  0.8862  1.6847
  541MPD2     N 8035   4.652   0.112  13.329  0.6942 -0.3073  0.3791
  541MPD2    H5 8036   4.580   0.179  13.305  0.1351 -1.0089  0.1059
  541MPD2    N1 8037   0.007   4.476  13.655  0.2664  0.2026 -0.3442
  541MPD2    H7 8038   0.001   4.440  13.749 -2.8340  1.7897  0.0659
  542TMC3    C1 8039   4.649   0.091  13.103 -0.2087 -0.1277  0.4892
  542TMC3    C2 8040   4.630   4.713  13.017  0.3091 -0.5776 -0.1250
  542TMC3    C3 8041   4.550   0.009  12.909  0.1069 -0.1961 -0.1097
  542TMC3    C4 8042   4.578   0.206  13.085  0.7953  0.4454 -0.4237
  542TMC3    C5 8043   4.478   0.217  12.988  0.1829 -0.3918 -0.0514
  542TMC3    C6 8044   4.470   0.124  12.892  0.6467 -0.2674  0.1544
  542TMC3     C 8045   4.721   0.059  13.223  0.2547 -0.0952  1.1462
  542TMC3     O 8046   0.083   4.697  13.208  0.6998  0.6563  0.3124
  542TMC3     H 8047   4.677   4.615  13.024  1.6139  0.2677  2.7637
  542TMC3    H1 8048   4.608   0.291  13.144  1.8377  0.8083 -1.4776
  542TMC3    H2 8049   4.421   0.146  12.797 -1.2040 -1.8187  0.7520
  542TMC3    C7 8050   4.429   0.349  12.943 -0.4043  0.3990 -0.7993
  542TMC3    C8 8051   4.603   4.690  12.784 -0.7211  0.3171  0.5716
  542TMC3    O1 8052   4.312   0.358  12.905  0.3577  0.3438 -0.2274
  542TMC3    O2 8053   4.591   0.039  12.685 -0.9277  0.6522 -0.5565
  543TMC3    C1 8054   4.563   0.677  17.022 -0.5311 -0.3981 -0.4578
  543TMC3    C2 8055   4.592   0.551  17.054 -0.3483  0.2468  0.5943
  543TMC3    C3 8056   4.562   0.517  17.186  0.3905  0.0069  0.5440
  543TMC3    C4 8057   4.499   0.763  17.107  0.3864  0.5421 -0.1921
  543TMC3    C5 8058   4.470   0.718  17.231 -0.5620 -0.2273 -0.0548
  543TMC3    C6 8059   4.505   0.598  17.279  0.0447 -0.1566 -0.4925
  543TMC3     C 8060   4.621   0.725  16.896  0.0424 -0.0676  0.1252
  543TMC3     O 8061   4.710   0.661  16.847  0.2027  0.2787 -0.4888
  543TMC3     H 8062   4.618   0.468  16.990  1.3557  0.6520  0.7753
  543TMC3    H1 8063   4.487   0.871  17.098 -1.2113  0.1607 -2.4890
  543TMC3    H2 8064   4.461   0.556  17.370  1.9925 -0.5966  0.2423
  543TMC3    C7 8065   4.377   0.791  17.318  0.1189  0.4948  0.2131
  543TMC3    C8 8066   4.570   0.373  17.233  0.4659  0.3289  0.1104
  543TMC3    O1 8067   4.346   0.740  17.424 -0.3821 -0.3017  0.3902
  543TMC3    O2 8068   4.569   0.287  17.150 -0.0541  1.2502  0.1681
  544MPD2     C 8069   0.047   0.029  17.555  0.1518  0.2861 -0.2150
  544MPD2    C1 8070   0.018   0.018  17.424 -0.4996 -0.5071 -0.6133
  544MPD2    C2 8071   4.683   0.123  17.364 -0.3608 -0.0659 -0.1064
  544MPD2    C3 8072   4.664   0.247  17.427 -0.0667  0.3497 -0.0632
  544MPD2    C4 8073   4.694   0.253  17.559 -0.0048 -0.6337 -0.5915
  544MPD2    C5 8074   0.014   0.144  17.622 -0.2249 -0.2445  0.2630
  544MPD2     H 8075   4.669   0.114  17.257 -2.1568 -0.7377  0.1749
  544MPD2    H1 8076   4.678   0.346  17.611  0.6642 -0.7207 -0.2252
  544MPD2    H2 8077   0.077   4.669  17.615  1.2698 -0.1037 -1.3173
  544MPD2    H3 8078   0.026   0.146   0.032 -4.0104 -2.7481  0.7203
  544MPD2     N 8079   4.615   0.366  17.361  0.0045 -0.3410 -0.3509
  544MPD2    H5 8080   4.601   0.451  17.415 -0.0777 -0.5831  0.0074
  544MPD2    N1 8081   0.058   4.631  17.353  0.2396  0.0929 -0.4896
  544MPD2    H7 8082   0.090   4.556  17.414 -2.3699 -0.5664  0.0743
  545TMC3    C1 8083   0.070   4.472  17.181 -0.2324 -1.0019  1.0456
  545TMC3    C2 8084   0.125   4.452  17.056 -0.6014  0.4853 -0.3895
  545TMC3    C3 8085   0.192   4.334  17.030  0.2289 -0.1099  0.5951
  545TMC3    C4 8086   0.062   4.375  17.272  0.8815  0.5946  0.0449
  545TMC3    C5 8087   0.113   4.255  17.246 -0.2822 -0.2980  0.8112
  545TMC3    C6 8088   0.187   4.232  17.136 -0.1599 -0.1255 -0.2740
  545TMC3     C 8089   0.052   4.614  17.216  0.0432  0.6760  0.1526
  545TMC3     O 8090   0.076   4.697  17.128  0.4956  0.1723 -0.2862
  545TMC3     H 8091   0.143   4.529  16.981 -0.3072  0.3831 -0.4254
  545TMC3    H1 8092   0.010   4.398  17.364 -1.2002  1.8155 -1.4142
  545TMC3    H2 8093   0.243   4.139  17.133 -0.7792 -0.5005 -0.1485
  545TMC3    C7 8094   0.120   4.152  17.350 -0.8765  0.0802 -0.2291
  545TMC3    C8 8095   0.279   4.313  16.925 -0.0526  0.3510 -0.9351
  545TMC3    O1 8096   0.090   4.039  17.320  0.8301 -0.0536 -0.2532
  545TMC3    O2 8097   0.292   4.194  16.893  0.0758 -0.1397 -0.4649
  546MPD2     C 8098   1.238   0.912  17.265 -0.0141 -0.4241 -0.7941
  546MPD2    C1 8099   1.294   0.935  17.142  0.0275  0.6242  0.3554
  546MPD2    C2 8100   1.382   1.039  17.128 -0.8681  0.0855  0.5993
  546MPD2    C3 8101   1.415   1.117  17.239  0.7229 -0.8391  0.2282
  546MPD2    C4 8102   1.358   1.088  17.361 -0.1370  0.0080 -0.2405
  546MPD2    C5 8103   1.265   0.994  17.370  0.5784  1.0467  0.1364
  546MPD2     H 8104   1.426   1.064  17.032 -1.2474 -0.0647  0.3878
  546MPD2    H1 8105   1.368   1.153  17.447 -0.2808  0.1306 -0.3146
  546MPD2    H2 8106   1.168   0.834  17.291 -2.3371  2.7251  2.5593
  546MPD2    H3 8107   1.210   0.972  17.461 -0.5732  1.6514 -0.4044
  546MPD2     N 8108   1.518   1.216  17.245  0.4758  0.0566 -0.0931
  546MPD2    H5 8109   1.522   1.265  17.334  1.6407 -0.4639  0.1410
  546MPD2    N1 8110   1.275   0.844  17.032 -0.2337  0.3577 -0.9952
  546MPD2    H7 8111   1.205   0.771  17.047  0.9875 -0.0520  2.7135
  547TMC3    C1 8112   1.280   0.719  16.844 -0.7589 -0.0063 -0.8134
  547TMC3    C2 8113   1.262   0.727  16.705  0.1689  0.1992  0.2710
  547TMC3    C3 8114   1.182   0.634  16.650  0.6161  0.6815  0.5633
  547TMC3    C4 8115   1.220   0.619  16.920 -0.1684  0.9082 -0.4199
  547TMC3    C5 8116   1.146   0.526  16.849  0.0690 -1.0366 -0.3874
  547TMC3    C6 8117   1.125   0.532  16.717 -0.3268 -0.2682 -0.7007
  547TMC3     C 8118   1.332   0.838  16.910 -0.7697  0.1463  0.3750
  547TMC3     O 8119   1.431   0.901  16.868 -0.2214 -0.0846  0.4275
  547TMC3     H 8120   1.310   0.804  16.645  1.0575 -0.3188  0.3281
  547TMC3    H1 8121   1.241   0.617  17.027 -0.5130  0.7617 -0.3565
  547TMC3    H2 8122   1.048   0.470  16.672  0.3855 -1.1168 -0.7444
  547TMC3    C7 8123   1.060   0.448  16.933 -0.1155 -0.2094 -0.3028
  547TMC3    C8 8124   1.158   0.640  16.503 -0.6529 -0.1957 -0.8598
  547TMC3    O1 8125   0.947   0.424  16.890  0.1566  0.6681 -0.2747
  547TMC3    O2 8126   1.261   0.667  16.438 -0.1060 -0.1219 -0.2178
  548MPD2     C 8127   0.911   1.856  12.419 -0.2239  0.1549  0.7534
  548MPD2    C1 8128   0.879   1.761  12.511  0.0779  0.2726  0.2376
  548MPD2    C2 8129   0.966   1.657  12.542 -0.5688  0.5950  0.7576
  548MPD2    C3 8130   1.095   1.662  12.487  0.9120  0.3763 -0.2250
  548MPD2    C4 8131   1.127   1.762  12.399  0.1544  0.2684  0.3018
  548MPD2    C5 8132   1.036   1.856  12.364 -0.0282 -0.7031  0.0808
  548MPD2     H 8133   0.934   1.574  12.603 -0.9659 -0.1778 -0.4896
  548MPD2    H1 8134   1.225   1.774  12.355 -0.9430  1.5752 -1.7466
  548MPD2    H2 8135   0.842   1.933  12.386  1.0120  1.0475  0.2427
  548MPD2    H3 8136   1.065   1.932  12.292 -0.7181 -1.1974 -0.7261
  548MPD2     N 8137   1.187   1.562  12.520  0.2960 -0.1545 -0.1632
  548MPD2    H5 8138   1.160   1.492  12.589 -0.0494  0.1895  0.0488
  548MPD2    N1 8139   0.744   1.770  12.558  0.5658 -0.3772 -0.1075
  548MPD2    H7 8140   0.686   1.849  12.531  0.0562 -0.1777  1.5592
  549TMC3    C1 8141   0.545   1.717  12.680 -0.2936 -0.7713 -0.0330
  549TMC3    C2 8142   0.494   1.842  12.657  0.2444  0.4907  0.1373
  549TMC3    C3 8143   0.357   1.850  12.659  0.7422  0.3705 -0.0029
  549TMC3    C4 8144   0.462   1.603  12.706 -0.7002  0.0381 -0.1911
  549TMC3    C5 8145   0.329   1.625  12.722  0.2296  0.2319  0.2233
  549TMC3    C6 8146   0.277   1.748  12.689  0.0962 -0.5247  0.4911
  549TMC3     C 8147   0.686   1.682  12.644 -0.5483 -0.4383  0.0630
  549TMC3     O 8148   0.728   1.571  12.676  0.0450 -0.0709  0.8782
  549TMC3     H 8149   0.558   1.920  12.618  1.4962 -0.1622  0.8879
  549TMC3    H1 8150   0.504   1.519  12.759 -0.7158  0.0189 -0.2090
  549TMC3    H2 8151   0.169   1.757  12.688  0.1581  0.3374  1.9217
  549TMC3    C7 8152   0.232   1.514  12.708 -1.0615  0.5000  0.9249
  549TMC3    C8 8153   0.289   1.966  12.597 -0.1174 -0.1064 -0.7669
  549TMC3    O1 8154   0.110   1.542  12.701  0.0018  0.5292 -0.7194
  549TMC3    O2 8155   0.196   1.948  12.519 -0.1526  0.2948 -0.2548
  550TMC3    C1 8156   4.462   4.088  12.485  0.4825 -0.2287  0.5039
  550TMC3    C2 8157   4.455   4.159  12.602  0.1742 -0.5197  0.6965
  550TMC3    C3 8158   4.462   4.298  12.598  0.6881 -0.0410 -0.0062
  550TMC3    C4 8159   4.491   4.145  12.365 -0.4447  0.9517 -0.7734
  550TMC3    C5 8160   4.483   4.281  12.358  0.5664  0.4905 -0.4904
  550TMC3    C6 8161   4.467   4.358  12.471 -0.3894 -0.0696  0.6363
  550TMC3     C 8162   4.362   3.984  12.483 -0.0321 -0.1648  0.2402
  550TMC3     O 8163   4.334   3.925  12.586  0.0393  0.2269 -0.5077
  550TMC3     H 8164   4.450   4.101  12.693  1.2669 -0.1254  1.0082
  550TMC3    H1 8165   4.501   4.084  12.276 -1.2347 -1.3494  0.7351
  550TMC3    H2 8166   4.461   4.467  12.472 -1.7455 -0.1439  0.9942
  550TMC3    C7 8167   4.414   4.327  12.240 -0.3001 -0.2839 -0.9413
  550TMC3    C8 8168   4.380   4.369  12.695  0.2765  0.2956  0.6288
  550TMC3    O1 8169   4.342   4.238  12.194  0.5312 -0.5997  0.2033
  550TMC3    O2 8170   4.324   4.468  12.649 -0.0481  0.1995 -0.0432
  551TMC3    C1 8171   1.773   2.319  13.438  0.6557  0.8601 -0.3046
  551TMC3    C2 8172   1.847   2.402  13.354  0.3250  0.3520  0.3485
  551TMC3    C3 8173   1.956   2.469  13.403 -0.0448 -0.2543  0.3356
  551TMC3    C4 8174   1.803   2.302  13.574  0.0394  0.4055  0.3553
  551TMC3    C5 8175   1.915   2.364  13.613 -0.2834  0.1536 -0.3827
  551TMC3    C6 8176   1.994   2.444  13.537  0.0144  0.4307  0.4930
  551TMC3     C 8177   1.668   2.234  13.381 -0.5342  0.1750  0.0250
  551TMC3     O 8178   1.623   2.263  13.273  0.2129  0.5847 -0.0485
  551TMC3     H 8179   1.808   2.413  13.254  0.3339 -3.5433 -0.0783
  551TMC3    H1 8180   1.749   2.239  13.643 -0.5018  0.6581  0.1564
  551TMC3    H2 8181   2.076   2.505  13.574  0.4388 -1.3452  2.4896
  551TMC3    C7 8182   1.955   2.335  13.749  0.0217 -0.0164  0.4414
  551TMC3    C8 8183   2.054   2.459  13.297  0.2866  0.4371  0.3063
  551TMC3    O1 8184   1.865   2.337  13.834  0.2614 -0.1621 -0.3204
  551TMC3    O2 8185   2.145   2.379  13.323 -0.1072 -0.5163  0.4054
  552MPD2     C 8186   3.694   4.188  14.037  0.6940  0.0265 -0.6511
  552MPD2    C1 8187   3.714   4.060  14.096 -0.4015  0.4422  0.0327
  552MPD2    C2 8188   3.791   4.047  14.207  0.6269  0.0188 -0.5301
  552MPD2    C3 8189   3.832   4.160  14.271 -0.1855 -0.7016  0.0433
  552MPD2    C4 8190   3.789   4.282  14.233 -0.1903 -0.2185 -0.3460
  552MPD2    C5 8191   3.733   4.292  14.110 -0.1034 -0.0188 -0.1642
  552MPD2     H 8192   3.824   3.946  14.229 -0.4699 -0.3417 -0.5604
  552MPD2    H1 8193   3.810   4.371  14.291  0.3439  0.0160 -0.8959
  552MPD2    H2 8194   3.634   4.201  13.948 -2.3641 -0.8928  1.2781
  552MPD2    H3 8195   3.712   4.394  14.080 -1.6596  0.0609  1.1650
  552MPD2     N 8196   3.921   4.161  14.380  0.4718 -0.2280 -0.1260
  552MPD2    H5 8197   3.921   4.249  14.431 -0.6031  0.5197 -1.3932
  552MPD2    N1 8198   3.648   3.946  14.051  0.1444 -0.3875  0.6958
  552MPD2    H7 8199   3.675   3.861  14.100  0.0196 -0.5814  0.4258
  553TMC3    C1 8200   3.488   3.815  13.942 -0.5992 -0.1770  0.1793
  553TMC3    C2 8201   3.420   3.794  13.822  0.4400  0.0832  0.3814
  553TMC3    C3 8202   3.351   3.672  13.813 -0.0727  0.0364  0.6057
  553TMC3    C4 8203   3.489   3.731  14.048  0.1031  0.3231 -0.4339
  553TMC3    C5 8204   3.426   3.615  14.033  0.5111  0.0393 -0.9054
  553TMC3    C6 8205   3.359   3.581  13.918  0.2065  0.3544 -0.0456
  553TMC3     C 8206   3.550   3.942  13.953 -0.5373  0.4743 -0.8117
  553TMC3     O 8207   3.510   4.025  13.873  0.2614  0.1539  0.0401
  553TMC3     H 8208   3.397   3.877  13.756  0.6431 -0.5033 -0.4191
  553TMC3    H1 8209   3.550   3.752  14.135  0.8771 -1.7237 -0.4882
  553TMC3    H2 8210   3.323   3.479  13.911  0.9329  0.0743  0.4297
  553TMC3    C7 8211   3.425   3.512  14.135  0.1368  0.1089  0.6989
  553TMC3    C8 8212   3.385   3.609  13.680  0.4154  0.0413 -0.4366
  553TMC3    O1 8213   3.317   3.456  14.154  0.0317 -0.1909 -0.2532
  553TMC3    O2 8214   3.471   3.668  13.615 -0.3084 -0.0616  0.3300
  554TMC3    C1 8215   0.682   2.930  11.296 -0.0178  0.1832  1.1995
  554TMC3    C2 8216   0.666   2.907  11.166 -0.1591  0.6763 -0.1382
  554TMC3    C3 8217   0.645   3.018  11.085  0.0349 -0.0549 -0.0789
  554TMC3    C4 8218   0.680   3.054  11.352 -0.4550 -0.2712 -0.7062
  554TMC3    C5 8219   0.647   3.160  11.272  0.5129 -0.7490 -0.2513
  554TMC3    C6 8220   0.632   3.141  11.137  0.0479 -0.3100  0.3630
  554TMC3     C 8221   0.678   2.818  11.392  0.4123  0.6988  0.1603
  554TMC3     O 8222   0.614   2.724  11.353 -0.0378  0.0972 -0.3006
  554TMC3     H 8223   0.677   2.808  11.123  0.0382  1.1705 -1.2370
  554TMC3    H1 8224   0.688   3.075  11.458 -0.4815 -1.7521 -0.4044
  554TMC3    H2 8225   0.608   3.227  11.074 -1.6596 -1.3683 -0.4476
  554TMC3    C7 8226   0.689   3.292  11.303 -0.1795 -0.1189 -0.0150
  554TMC3    C8 8227   0.623   3.006  10.941 -0.0536  0.2733 -0.3124
  554TMC3    O1 8228   0.636   3.383  11.242  0.2038 -0.2172 -0.1427
  554TMC3    O2 8229   0.590   3.112  10.893 -0.0373 -0.3095 -0.1762
  555TMC3    C1 8230   4.592   2.871  15.122 -0.0174 -0.2250  0.3191
  555TMC3    C2 8231   4.702   2.907  15.194 -0.3878 -0.2144 -0.3641
  555TMC3    C3 8232   0.038   2.819  15.277  0.1380 -0.1915  0.3727
  555TMC3    C4 8233   4.550   2.740  15.127 -0.7138  0.4223 -0.8408
  555TMC3    C5 8234   4.622   2.659  15.213 -0.2474  0.5005  0.2145
  555TMC3    C6 8235   0.014   2.684  15.285 -0.0229  0.1224 -0.0041
  555TMC3     C 8236   4.548   2.954  15.007 -0.2590  0.2845  0.4718
  555TMC3     O 8237   4.643   3.023  14.970 -0.1259 -0.0549 -0.1997
  555TMC3     H 8238   0.019   3.006  15.180  1.2630 -1.0444 -1.3846
  555TMC3    H1 8239   4.475   2.696  15.064 -1.5043 -1.8277  1.6984
  555TMC3    H2 8240   0.060   2.600  15.334  1.0743  0.9003  0.3007
  555TMC3    C7 8241   4.591   2.520  15.201  0.2424 -0.2599  0.8233
  555TMC3    C8 8242   0.092   2.883  15.403  0.1083 -0.6539  0.7110
  555TMC3    O1 8243   4.474   2.490  15.214 -0.1319  0.5040 -0.5934
  555TMC3    O2 8244   0.078   3.004  15.407  0.3830 -0.6031 -0.0766
  556MPD2     C 8245   2.690   0.309  10.428  0.3241  0.0607  0.1537
  556MPD2    C1 8246   2.710   0.188  10.491 -0.4498  0.1126  0.8137
  556MPD2    C2 8247   2.691   0.070  10.412 -0.4352 -0.9240 -0.4723
  556MPD2    C3 8248   2.652   0.073  10.281  0.0178 -0.2653 -0.5041
  556MPD2    C4 8249   2.630   0.198  10.224  0.0095  0.4588  0.1071
  556MPD2    C5 8250   2.652   0.311  10.295  1.0594  0.1249 -0.2272
  556MPD2     H 8251   2.709   4.699  10.461  0.3207 -0.3281  0.4145
  556MPD2    H1 8252   2.598   0.216  10.122 -2.4321 -1.7330  0.4679
  556MPD2    H2 8253   2.705   0.395  10.492 -0.6069  1.3023 -1.2824
  556MPD2    H3 8254   2.642   0.409  10.249  0.6299  1.1263  1.9853
  556MPD2     N 8255   2.618   4.679  10.218  0.2735 -0.2577  0.2029
  556MPD2    H5 8256   2.613   4.595  10.275  0.2167 -0.3344  0.0853
  556MPD2    N1 8257   2.749   0.184  10.626  0.1192  0.4715 -0.1648
  556MPD2    H7 8258   2.763   0.271  10.676 -3.0171  0.5056  0.6367
  557TMC3    C1 8259   2.559   4.532  10.041 -0.3655  0.0811 -0.3230
  557TMC3    C2 8260   2.501   4.513   9.916 -0.1784  0.0603 -0.3499
  557TMC3    C3 8261   2.425   4.401   9.893  0.4356 -0.2239  0.1912
  557TMC3    C4 8262   2.570   4.432  10.134  0.4781  0.0113  0.3866
  557TMC3    C5 8263   2.501   4.321  10.101  0.4097 -0.0315  0.5753
  557TMC3    C6 8264   2.426   4.302   9.989 -0.1915  0.0207 -0.9087
  557TMC3     C 8265   2.603   4.664  10.080  0.0210  0.2591 -0.0332
  557TMC3     O 8266   2.618   0.020   9.987 -0.2739 -0.1476  0.0571
  557TMC3     H 8267   2.484   4.596   9.849  2.5700 -2.6560 -4.4570
  557TMC3    H1 8268   2.618   4.442  10.231  1.7508  1.5125 -0.3970
  557TMC3    H2 8269   2.359   4.218   9.975 -0.9830  0.6467 -0.8682
  557TMC3    C7 8270   2.483   4.227  10.208  0.2417  0.0553 -0.1255
  557TMC3    C8 8271   2.387   4.368   9.759 -0.2398 -0.5914  0.3715
  557TMC3    O1 8272   2.462   4.275  10.317  0.0199 -0.6364  0.3822
  557TMC3    O2 8273   2.411   4.449   9.672  0.9760 -0.0046 -0.8486
  558TMC3    C1 8274   0.514   1.912   9.893  0.4191  0.1541  0.2221
  558TMC3    C2 8275   0.414   1.939   9.984 -0.2634  0.0272  0.3036
  558TMC3    C3 8276   0.284   1.913   9.944 -0.7904 -0.9405  0.0290
  558TMC3    C4 8277   0.488   1.857   9.774 -0.3572  0.3105  0.4930
  558TMC3    C5 8278   0.358   1.820   9.743 -0.3534 -0.7073 -0.8431
  558TMC3    C6 8279   0.253   1.850   9.829 -0.9303  0.5757  0.8992
  558TMC3     C 8280   0.648   1.914   9.943 -0.0524  0.1626  0.7294
  558TMC3     O 8281   0.665   1.988  10.043  0.2405 -0.0473 -0.8735
  558TMC3     H 8282   0.432   2.006  10.068  1.1477 -1.3579  1.1068
  558TMC3    H1 8283   0.570   1.846   9.705 -0.4152  0.0333  0.4702
  558TMC3    H2 8284   0.151   1.817   9.811  0.3662 -1.8379 -1.9175
  558TMC3    C7 8285   0.334   1.819   9.597  0.2822 -0.8609  0.3781
  558TMC3    C8 8286   0.191   1.879  10.053 -0.0982  0.1215  0.5529
  558TMC3    O1 8287   0.421   1.836   9.512 -0.1638 -0.4309  0.3435
  558TMC3    O2 8288   0.077   1.842  10.030  0.1711 -0.1877 -0.6920
  559MPD2     C 8289   0.825   2.327  10.609 -0.1021 -0.1538  0.0215
  559MPD2    C1 8290   0.725   2.329  10.703  0.1344 -0.4747 -0.4272
  559MPD2    C2 8291   0.766   2.328  10.832 -0.0041 -0.2433  0.3064
  559MPD2    C3 8292   0.897   2.315  10.874 -0.0465  0.2063  0.0600
  559MPD2    C4 8293   1.000   2.307  10.775 -0.2911 -0.5807 -0.5634
  559MPD2    C5 8294   0.958   2.318  10.639 -0.1672 -0.0851  0.2077
  559MPD2     H 8295   0.692   2.337  10.910  1.6536 -0.7445  1.9347
  559MPD2    H1 8296   1.104   2.289  10.796 -0.3711 -0.0335  0.2897
  559MPD2    H2 8297   0.797   2.336  10.505  1.1047 -1.6889 -0.4441
  559MPD2    H3 8298   1.031   2.315  10.559  2.4485 -2.9546  2.6740
  559MPD2     N 8299   0.919   2.310  11.011 -0.0139  0.0940 -0.1395
  559MPD2    H5 8300   0.841   2.314  11.077  0.0324 -1.6486  0.0440
  559MPD2    N1 8301   0.595   2.353  10.657 -0.3151 -0.8332  0.3241
  559MPD2    H7 8302   0.572   2.313  10.566  1.6738  0.0939 -0.5687
  560TMC3    C1 8303   1.046   2.285  11.215  0.7058  0.2181  0.0053
  560TMC3    C2 8304   0.950   2.200  11.255  1.1843 -0.7228  0.2953
  560TMC3    C3 8305   0.973   2.138  11.372 -0.3873 -0.1964  0.2778
  560TMC3    C4 8306   1.157   2.317  11.288  0.1241 -0.2416 -0.4071
  560TMC3    C5 8307   1.167   2.250  11.409  0.8460 -0.7846 -0.3442
  560TMC3    C6 8308   1.071   2.166  11.460  0.2038 -0.8157  0.1681
  560TMC3     C 8309   1.043   2.322  11.073 -0.3701 -0.1994  0.0641
  560TMC3     O 8310   1.145   2.362  11.018  0.4458  0.2314  0.3944
  560TMC3     H 8311   0.870   2.161  11.193 -0.0490  0.1549  1.3291
  560TMC3    H1 8312   1.228   2.376  11.232 -0.8552  1.5553  0.2418
  560TMC3    H2 8313   1.077   2.102  11.548 -1.4512 -0.5217  0.5081
  560TMC3    C7 8314   1.277   2.294  11.500 -0.0120 -0.1858 -0.3809
  560TMC3    C8 8315   0.895   2.024  11.376  0.2326 -0.2287 -0.6496
  560TMC3    O1 8316   1.296   2.241  11.610  0.3085 -0.2443  0.2047
  560TMC3    O2 8317   0.776   2.017  11.349 -0.8964 -0.0426 -0.5716
  561TMC3    C1 8318   3.264   1.713  11.286 -0.8826 -0.4126  0.9060
  561TMC3    C2 8319   3.236   1.664  11.410 -0.5371 -0.9320 -0.4373
  561TMC3    C3 8320   3.152   1.748  11.485 -0.2423 -0.2655  0.3205
  561TMC3    C4 8321   3.225   1.829  11.240 -0.8594 -0.8367  0.1782
  561TMC3    C5 8322   3.165   1.916  11.321  0.5857  1.2143  0.1524
  561TMC3    C6 8323   3.120   1.876  11.444  0.6003 -0.1641 -0.0563
  561TMC3     C 8324   3.286   1.621  11.189  0.1215  0.2498  0.1470
  561TMC3     O 8325   3.192   1.596  11.122  0.3782 -0.7576  0.0134
  561TMC3     H 8326   3.257   1.559  11.425 -0.0189 -0.7384  0.1568
  561TMC3    H1 8327   3.240   1.850  11.135  4.2488 -1.2376  0.8503
  561TMC3    H2 8328   3.066   1.944  11.507  0.9397  0.0455  0.0087
  561TMC3    C7 8329   3.210   2.053  11.305 -0.7574 -0.3354  0.0806
  561TMC3    C8 8330   3.132   1.699  11.622  0.6801 -0.6886 -0.4347
  561TMC3    O1 8331   3.177   2.136  11.388  0.5996 -0.1117  0.4055
  561TMC3    O2 8332   3.192   1.596  11.645  0.1157  0.0614  0.3144
  562TMC3    C1 8333   0.253   2.508  15.879  0.8286  0.7812 -0.1127
  562TMC3    C2 8334   0.138   2.586  15.889 -0.0514  0.3937  0.6145
  562TMC3    C3 8335   0.060   2.601  15.774  0.4455 -0.2331  0.2612
  562TMC3    C4 8336   0.282   2.433  15.767  0.2729  0.4935  0.5901
  562TMC3    C5 8337   0.200   2.446  15.658  0.0453 -0.2075 -0.1228
  562TMC3    C6 8338   0.092   2.528  15.665  0.6411 -0.2294 -0.3767
  562TMC3     C 8339   0.329   2.474  15.996 -0.3730 -0.1638 -0.4201
  562TMC3     O 8340   0.447   2.458  15.982 -0.1608 -0.0598  0.1837
  562TMC3     H 8341   0.117   2.648  15.975  0.6514 -1.4353  2.0845
  562TMC3    H1 8342   0.376   2.379  15.759 -0.6190 -0.5924 -2.3497
  562TMC3    H2 8343   0.019   2.546  15.588  0.5699  0.2471 -0.1926
  562TMC3    C7 8344   0.194   2.349  15.552 -0.0516  0.1346 -0.0647
  562TMC3    C8 8345   4.652   2.655  15.796 -0.2137 -0.0097 -0.1360
  562TMC3    O1 8346   0.125   2.367  15.451 -0.1535  0.2616  0.0029
  562TMC3    O2 8347   4.601   2.652  15.904  0.1244 -0.2395 -0.2230
  563MPD2     C 8348   2.142   4.319  15.940 -0.3371  0.5224  0.2756
  563MPD2    C1 8349   2.175   4.384  16.056  0.1655 -0.2487  0.1905
  563MPD2    C2 8350   2.288   4.347  16.125  0.0596  0.2721  0.4577
  563MPD2    C3 8351   2.367   4.238  16.085  0.5063  0.0469 -0.0537
  563MPD2    C4 8352   2.338   4.172  15.966  0.2430 -0.4060 -0.1298
  563MPD2    C5 8353   2.226   4.214  15.896  0.2342  0.1358  0.3877
  563MPD2     H 8354   2.310   4.400  16.217 -0.4227  0.1016  0.6672
  563MPD2    H1 8355   2.378   4.075  15.940  1.6723  0.3693 -0.8493
  563MPD2    H2 8356   2.048   4.328  15.888 -0.6132 -1.5867  0.4056
  563MPD2    H3 8357   2.186   4.150  15.818  0.9218  0.7341 -0.4581
  563MPD2     N 8358   2.481   4.201  16.164  0.4192  0.1524 -0.2710
  563MPD2    H5 8359   2.509   4.267  16.235 -1.6543  0.3591  0.3523
  563MPD2    N1 8360   2.094   4.488  16.098  0.0285 -0.3011 -0.8203
  563MPD2    H7 8361   2.002   4.487  16.056  1.2801 -1.9599 -3.4663
  564TMC3    C1 8362   2.003   4.634  16.263 -0.8676  0.5042 -0.6986
  564TMC3    C2 8363   1.897   4.548  16.243  0.1827 -0.5374  0.3035
  564TMC3    C3 8364   1.840   4.491  16.351  0.8599  0.6464  0.1926
  564TMC3    C4 8365   2.035   4.673  16.393 -0.1481  0.2089 -0.0202
  564TMC3    C5 8366   1.963   4.624  16.495  0.5283 -0.8366 -0.3687
  564TMC3    C6 8367   1.872   4.526  16.478 -0.0264 -0.5190 -0.3613
  564TMC3     C 8368   2.124   4.583  16.196 -0.1031  0.4963 -0.5825
  564TMC3     O 8369   2.230   4.626  16.243  0.0937 -0.1650 -0.4391
  564TMC3     H 8370   1.864   4.538  16.140  0.8392 -0.8762  0.1259
  564TMC3    H1 8371   2.122   0.008  16.421 -0.2063 -0.1487  0.9126
  564TMC3    H2 8372   1.824   4.482  16.566  0.5711  1.6234  1.0325
  564TMC3    C7 8373   1.980   4.651  16.636  0.3846  0.1127  0.4257
  564TMC3    C8 8374   1.756   4.376  16.331 -0.2836 -0.1235  0.1086
  564TMC3    O1 8375   1.998   0.043  16.668 -0.0305 -0.2259  0.3430
  564TMC3    O2 8376   1.702   4.327  16.430  0.3578 -0.1084 -0.3597
  565TMC3    C1 8377   2.518   0.700  10.358 -0.0340 -0.0007 -0.0745
  565TMC3    C2 8378   2.551   0.659  10.483  0.5098 -0.2493 -0.0801
  565TMC3    C3 8379   2.481   0.561  10.544 -0.2065 -0.3282 -0.1589
  565TMC3    C4 8380   2.413   0.649  10.290  0.6425 -0.2583  0.0657
  565TMC3    C5 8381   2.337   0.556  10.360  0.0735  0.6660  0.2484
  565TMC3    C6 8382   2.376   0.499  10.479 -0.0263 -1.0030 -0.2168
  565TMC3     C 8383   2.581   0.823  10.306  0.4107  0.2363 -0.1565
  565TMC3     O 8384   2.572   0.841  10.185  0.2627 -0.4942  0.3679
  565TMC3     H 8385   2.650   0.683  10.520  0.7625 -0.6003 -0.5404
  565TMC3    H1 8386   2.386   0.681  10.190  0.3919  0.7035  0.4394
  565TMC3    H2 8387   2.310   0.452  10.551  1.6587  0.3824  2.2170
  565TMC3    C7 8388   2.222   0.495  10.306 -0.0530 -0.7040 -0.0457
  565TMC3    C8 8389   2.535   0.542  10.677  0.0584  0.4777  0.3320
  565TMC3    O1 8390   2.169   0.411  10.370 -0.1458  0.2911  0.5081
  565TMC3    O2 8391   2.608   0.635  10.727  0.0230  0.2796 -0.3537
  566MPD2     C 8392   3.831   2.838  14.224  0.3233 -0.0881 -0.4131
  566MPD2    C1 8393   3.925   2.785  14.132 -0.8970 -0.3747 -0.5912
  566MPD2    C2 8394   3.881   2.710  14.023 -0.4154  0.1626 -0.4329
  566MPD2    C3 8395   3.749   2.717  13.988 -0.4345 -0.6352  0.0351
  566MPD2    C4 8396   3.661   2.782  14.073  0.7073 -0.2533 -0.4423
  566MPD2    C5 8397   3.701   2.824  14.193  0.5982  0.5059  0.4344
  566MPD2     H 8398   3.945   2.684  13.940  2.1763  0.4071  1.5011
  566MPD2    H1 8399   3.561   2.778  14.031  0.1782  0.1709  0.8097
  566MPD2    H2 8400   3.860   2.882  14.319  0.9617 -0.7303 -0.3115
  566MPD2    H3 8401   3.629   2.872  14.259  0.8835 -3.4487  3.6582
  566MPD2     N 8402   3.707   2.671  13.863 -0.5010 -0.3766 -0.1084
  566MPD2    H5 8403   3.616   2.707  13.833 -0.5871  0.9255  1.7325
  566MPD2    N1 8404   4.059   2.829  14.146  0.6612 -0.0875  0.3685
  566MPD2    H7 8405   4.085   2.870  14.235  1.9186 -0.9009  0.3882
  567TMC3    C1 8406   4.274   2.869  14.083  0.0056  0.0467 -0.2205
  567TMC3    C2 8407   4.324   2.958  13.998  0.3084 -0.3116  0.1705
  567TMC3    C3 8408   4.448   3.015  14.025  0.1613 -0.7161  0.2397
  567TMC3    C4 8409   4.328   2.853  14.210 -0.7959  0.2340 -1.0388
  567TMC3    C5 8410   4.443   2.917  14.235  0.0329 -0.4632  0.5487
  567TMC3    C6 8411   4.508   3.004  14.149  0.4749  0.8407 -0.1741
  567TMC3     C 8412   4.149   2.810  14.046  0.1693  0.0094  0.2053
  567TMC3     O 8413   4.142   2.781  13.930 -0.0327 -0.1834  0.3007
  567TMC3     H 8414   4.273   2.966  13.902  0.7158  0.0358 -0.0191
  567TMC3    H1 8415   4.280   2.779  14.273 -0.5011 -0.7726 -1.9895
  567TMC3    H2 8416   4.599   3.050  14.188  0.5294  1.8284 -1.4524
  567TMC3    C7 8417   4.508   2.884  14.358 -0.3212  0.3947 -0.2209
  567TMC3    C8 8418   4.508   3.067  13.904  0.0810 -0.2325 -0.1806
  567TMC3    O1 8419   4.627   2.897  14.365 -0.2151  0.3566 -0.3662
  567TMC3    O2 8420   4.440   3.054  13.805  0.6881 -0.0181 -0.0803
  568MPD2     C 8421   1.876   2.938  16.796 -0.1401 -0.1344 -0.1455
  568MPD2    C1 8422   1.740   2.931  16.821 -0.2834 -0.0047 -0.1912
  568MPD2    C2 8423   1.665   3.037  16.770  0.3224  0.8020  0.1677
  568MPD2    C3 8424   1.732   3.150  16.716 -0.2213  0.4219 -0.1251
  568MPD2    C4 8425   1.865   3.144  16.686 -0.1037  0.3625  0.2308
  568MPD2    C5 8426   1.935   3.035  16.716  0.1166  0.1377 -0.1771
  568MPD2     H 8427   1.556   3.035  16.773  0.2446 -0.0700 -2.7698
  568MPD2    H1 8428   1.913   3.223  16.629  0.1955 -0.5365 -0.7648
  568MPD2    H2 8429   1.939   2.865  16.846 -0.8592  0.3694  1.4674
  568MPD2    H3 8430   2.040   3.033  16.690 -0.3757 -1.7035 -2.0778
  568MPD2     N 8431   1.652   3.271  16.696  0.1072 -0.4000  0.2161
  568MPD2    H5 8432   1.557   3.272  16.732  0.1492 -1.4399  0.3611
  568MPD2    N1 8433   1.685   2.824  16.902 -0.5022  0.5016  0.3069
  568MPD2    H7 8434   1.754   2.756  16.931  0.3672  1.3727  0.2533
  569TMC3    C1 8435   1.603   3.478  16.578 -0.0658 -0.2890 -0.2089
  569TMC3    C2 8436   1.564   3.546  16.690 -0.4419 -0.7163  0.1206
  569TMC3    C3 8437   1.534   3.678  16.672  0.2732 -0.3450  0.4101
  569TMC3    C4 8438   1.611   3.537  16.457 -0.1782 -0.6214  0.3692
  569TMC3    C5 8439   1.584   3.668  16.449  0.9219 -0.6012 -0.3238
  569TMC3    C6 8440   1.541   3.744  16.559  0.2906  0.2389 -0.3575
  569TMC3     C 8441   1.687   3.364  16.596 -0.4055 -0.1461 -0.4430
  569TMC3     O 8442   1.787   3.378  16.525  0.5254 -0.1276  1.0968
  569TMC3     H 8443   1.594   3.502  16.784  0.9565  1.9560  0.9310
  569TMC3    H1 8444   1.636   3.486  16.365 -2.1743 -2.2934  0.7420
  569TMC3    H2 8445   1.506   3.847  16.552  2.1726  0.9108  0.1460
  569TMC3    C7 8446   1.608   3.733  16.313 -0.1646  0.8529 -0.3095
  569TMC3    C8 8447   1.506   3.738  16.797  0.0998  1.2636 -0.2243
  569TMC3    O1 8448   1.618   3.666  16.214  0.3005 -0.5462  0.2014
  569TMC3    O2 8449   1.441   3.673  16.877 -0.0305 -0.1959 -0.0664
  570TMC3    C1 8450   1.343   1.883  16.373 -0.2088  0.6690 -0.2066
  570TMC3    C2 8451   1.445   1.909  16.292  0.1839  0.4435 -0.0405
  570TMC3    C3 8452   1.463   2.039  16.246  0.8358 -0.3272  0.6179
  570TMC3    C4 8453   1.269   1.982  16.430 -0.6015  0.5484 -0.7039
  570TMC3    C5 8454   1.293   2.112  16.386  0.2652 -0.6444  0.0054
  570TMC3    C6 8455   1.383   2.141  16.284  1.0114 -0.2529  0.5792
  570TMC3     C 8456   1.315   1.744  16.393  0.4183  0.7722  1.6207
  570TMC3     O 8457   1.364   1.675  16.303 -0.0808  0.0429 -0.5623
  570TMC3     H 8458   1.521   1.832  16.281  0.4848  0.7870 -0.3845
  570TMC3    H1 8459   1.185   1.970  16.497  0.6884  1.6082  1.0902
  570TMC3    H2 8460   1.393   2.244  16.250 -0.2650 -0.2553  0.1938
  570TMC3    C7 8461   1.224   2.216  16.452  0.0689 -0.0591  0.2701
  570TMC3    C8 8462   1.571   2.068  16.158 -0.4291 -0.1544  0.6131
  570TMC3    O1 8463   1.181   2.184  16.560 -0.3289  0.2177 -0.7617
  570TMC3    O2 8464   1.592   2.190  16.157  0.5972 -0.3393 -0.1933
  571MPD2     C 8465   4.417   3.029  17.518 -0.8437  0.0390  0.2145
  571MPD2    C1 8466   4.362   2.964  17.624  0.1572 -0.5351  0.3869
  571MPD2    C2 8467   4.345   3.032   0.045  0.7705 -0.1193 -0.2054
  571MPD2    C3 8468   4.393   3.164   0.058  0.7081 -0.0576 -0.1166
  571MPD2    C4 8469   4.462   3.223  17.649 -0.0457 -0.1476 -0.5983
  571MPD2    C5 8470   4.468   3.153  17.526 -0.0183 -0.2266 -0.7683
  571MPD2     H 8471   4.295   2.983   0.128  0.8502  2.3736  1.2927
  571MPD2    H1 8472   4.492   3.327  17.649  0.5969 -0.3350  1.1044
  571MPD2    H2 8473   4.419   2.986  17.418  0.3489 -2.3840  1.2712
  571MPD2    H3 8474   4.514   3.201  17.440  0.2508  0.8945 -0.0025
  571MPD2     N 8475   4.364   3.224   0.181 -0.1461  0.2801  0.0151
  571MPD2    H5 8476   4.310   3.171   0.249 -0.3044 -0.9018 -1.0093
  571MPD2    N1 8477   4.318   2.835  17.602  0.1885 -0.5148  0.7511
  571MPD2    H7 8478   4.324   2.796  17.509 -1.5677 -0.1497  0.4861
  572TMC3    C1 8479   4.332   3.395   0.338  0.1580 -0.0309 -0.0359
  572TMC3    C2 8480   4.225   3.322   0.386  0.1882 -0.6964 -0.0100
  572TMC3    C3 8481   4.160   3.379   0.494  0.3377 -0.6095  0.3261
  572TMC3    C4 8482   4.365   3.519   0.376 -0.1306  0.2122 -0.2921
  572TMC3    C5 8483   4.307   3.567   0.490 -0.2366 -0.7798  0.1970
  572TMC3    C6 8484   4.206   3.496   0.551  0.7226  0.4285  0.5769
  572TMC3     C 8485   4.391   3.353   0.211 -0.3247  0.3003  0.1792
  572TMC3     O 8486   4.444   3.444   0.146 -0.0225  0.1523 -0.3609
  572TMC3     H 8487   4.202   3.218   0.367  0.9462 -0.8068 -0.3113
  572TMC3    H1 8488   4.451   3.568   0.332 -0.6221  0.2647 -1.1863
  572TMC3    H2 8489   4.147   3.545   0.628  1.4875  2.5227 -0.1866
  572TMC3    C7 8490   4.300   3.712   0.510 -0.4459 -0.4356 -0.3644
  572TMC3    C8 8491   4.020   3.344   0.502  0.2529  0.0590 -0.4117
  572TMC3    O1 8492   4.307   3.781   0.412  0.0838 -0.1122  0.2614
  572TMC3    O2 8493   3.980   3.265   0.415 -0.4103 -0.1228 -0.5603
  573MPD2     C 8494   4.595   4.286   1.234  0.7510 -0.5573  0.3268
  573MPD2    C1 8495   0.003   4.323   1.238  0.1148  1.0628  0.0101
  573MPD2    C2 8496   0.078   4.316   1.124 -0.6385 -0.3783  0.2889
  573MPD2    C3 8497   0.017   4.286   1.001 -0.3587 -0.1288  0.3053
  573MPD2    C4 8498   4.608   4.246   0.994 -0.2157  0.5857  0.0540
  573MPD2    C5 8499   4.530   4.242   1.113 -0.3679 -0.0089 -0.6188
  573MPD2     H 8500   0.180   4.351   1.125 -0.3363 -1.2917  1.4288
  573MPD2    H1 8501   4.557   4.232   0.899 -0.0377 -0.6848  0.1415
  573MPD2    H2 8502   4.536   4.283   1.325  1.0689 -0.8226  0.5240
  573MPD2    H3 8503   4.422   4.227   1.114 -0.3665 -0.0624 -1.0130
  573MPD2     N 8504   0.082   4.295   0.873  0.3837  0.7260 -0.2658
  573MPD2    H5 8505   0.029   4.263   0.793  2.6148 -2.5199 -0.4265
  573MPD2    N1 8506   0.053   4.360   1.365  0.0474  0.9448  0.3230
  573MPD2    H7 8507   4.709   4.377   1.438 -3.2258 -0.4706 -2.4242
  574TMC3    C1 8508   0.247   4.361   0.704  0.7809 -0.3224  0.7296
  574TMC3    C2 8509   0.176   4.285   0.610 -0.5251  0.0638 -0.0897
  574TMC3    C3 8510   0.226   4.301   0.481 -0.2776  0.4966  0.8571
  574TMC3    C4 8511   0.342   4.454   0.677  0.5296 -0.6201 -0.3519
  574TMC3    C5 8512   0.379   4.469   0.544 -0.7422  0.9343  0.6268
  574TMC3    C6 8513   0.332   4.384   0.445 -0.7107  0.1202 -0.1329
  574TMC3     C 8514   0.210   4.352   0.847 -0.0443  0.1859 -1.2325
  574TMC3     O 8515   0.294   4.405   0.920 -0.0188 -0.5520  0.0321
  574TMC3     H 8516   0.097   4.221   0.648 -0.1809 -0.9593 -1.0824
  574TMC3    H1 8517   0.402   4.500   0.755 -1.6814  0.3597  0.7590
  574TMC3    H2 8518   0.372   4.385   0.345  0.4983  3.6429  0.3816
  574TMC3    C7 8519   0.493   4.548   0.505  0.1419  0.6017 -0.0915
  574TMC3    C8 8520   0.175   4.214   0.377 -0.1848  0.0309 -0.2087
  574TMC3    O1 8521   0.559   4.504   0.411 -0.4671  0.4711  0.4134
  574TMC3    O2 8522   0.116   4.122   0.427  0.0400  0.3252 -0.2533
  575TMC3    C1 8523   2.986   0.831  11.327  0.7270  0.4240  0.0971
  575TMC3    C2 8524   2.905   0.865  11.437 -0.2088 -0.0030 -0.1964
  575TMC3    C3 8525   2.803   0.779  11.451  0.0015 -0.0347 -1.0752
  575TMC3    C4 8526   2.968   0.725  11.242  0.3401  0.2886  0.2815
  575TMC3    C5 8527   2.856   0.649  11.264  0.0577 -1.2059 -0.0862
  575TMC3    C6 8528   2.767   0.680  11.361 -0.5758 -0.3957 -0.3897
  575TMC3     C 8529   3.120   0.886  11.317  0.2302 -0.2506  0.2092
  575TMC3     O 8530   3.196   0.846  11.231  0.0668 -0.1420  0.0189
  575TMC3     H 8531   2.936   0.908  11.531  0.2327  3.5945 -1.9781
  575TMC3    H1 8532   3.039   0.709  11.162  1.5113  0.2206  1.3304
  575TMC3    H2 8533   2.681   0.620  11.386 -0.3671 -1.0290 -1.1939
  575TMC3    C7 8534   2.814   0.580  11.145 -0.8924  1.0042 -0.6306
  575TMC3    C8 8535   2.717   0.816  11.563  0.2614  0.0446 -0.0067
  575TMC3    O1 8536   2.864   0.607  11.034 -0.0465  0.0286 -0.9456
  575TMC3    O2 8537   2.646   0.726  11.611 -0.2763 -0.1629 -0.2433
  576MPD2     C 8538   2.240   1.948  12.787  0.3531 -0.1331 -0.3049
  576MPD2    C1 8539   2.240   2.060  12.709 -0.1885  0.6831  0.7046
  576MPD2    C2 8540   2.146   2.155  12.733  0.5729 -0.4972 -0.1328
  576MPD2    C3 8541   2.048   2.139  12.821 -0.5182 -0.9265 -0.1751
  576MPD2    C4 8542   2.053   2.026  12.903 -0.1959 -0.5935  0.7140
  576MPD2    C5 8543   2.146   1.925  12.884 -0.2215 -0.1799 -0.4016
  576MPD2     H 8544   2.141   2.235  12.659 -0.0109 -0.1966  0.2277
  576MPD2    H1 8545   1.980   2.012  12.982  2.2289 -0.7569  2.8926
  576MPD2    H2 8546   2.317   1.873  12.775  0.9590  0.8326 -2.4367
  576MPD2    H3 8547   2.160   1.847  12.959 -0.3800 -0.4499 -0.6536
  576MPD2     N 8548   1.947   2.241  12.832 -0.4111  0.3715  0.2626
  576MPD2    H5 8549   1.954   2.325  12.775  1.7285 -0.0279 -0.0595
  576MPD2    N1 8550   2.337   2.083  12.602  0.3880  0.4656 -0.4591
  576MPD2    H7 8551   2.335   2.174  12.557  2.2417 -0.5081 -2.5256
  577TMC3    C1 8552   2.497   2.027  12.434 -0.3492 -0.3510  0.2967
  577TMC3    C2 8553   2.579   1.936  12.379  0.2575  0.0386  0.3361
  577TMC3    C3 8554   2.654   1.965  12.269  0.0215  0.6408  0.0236
  577TMC3    C4 8555   2.483   2.154  12.372  0.3609 -0.2380 -0.0507
  577TMC3    C5 8556   2.567   2.179  12.265 -0.2033 -0.7728 -0.7164
  577TMC3    C6 8557   2.651   2.088  12.211  0.3320  0.0468  0.3046
  577TMC3     C 8558   2.429   1.991  12.555 -0.2621 -0.2797  0.2511
  577TMC3     O 8559   2.467   1.885  12.605 -0.3126 -0.0440 -0.4461
  577TMC3     H 8560   2.594   1.835  12.416  1.5702  0.4820  1.0205
  577TMC3    H1 8561   2.401   2.221  12.393  0.9042  0.4360 -0.0710
  577TMC3    H2 8562   2.724   2.106  12.133  0.0035 -1.6890 -0.4149
  577TMC3    C7 8563   2.550   2.310  12.203  0.4681  0.7528  0.2233
  577TMC3    C8 8564   2.743   1.864  12.214  0.1007  0.3389 -0.4510
  577TMC3    O1 8565   2.490   2.388  12.279 -0.4134  0.9914  0.1623
  577TMC3    O2 8566   2.721   1.749  12.260 -0.0018  0.0689  0.0059
  578MPD2     C 8567   0.032   2.659   0.805  0.7474  0.4397 -0.2971
  578MPD2    C1 8568   0.161   2.640   0.781  0.4899  0.1163 -0.5412
  578MPD2    C2 8569   0.202   2.518   0.727  0.4620  0.3258 -0.5468
  578MPD2    C3 8570   0.115   2.412   0.721  0.0915  0.0605 -0.6218
  578MPD2    C4 8571   4.707   2.432   0.756  0.5398  0.4734  0.5979
  578MPD2    C5 8572   4.665   2.556   0.791  0.0082  0.2446 -0.5689
  578MPD2     H 8573   0.300   2.503   0.683  0.8990  0.2133  0.4739
  578MPD2    H1 8574   4.641   2.348   0.734  1.5741  0.4962 -2.6189
  578MPD2    H2 8575   4.719   2.747   0.856  0.0132  1.6690 -2.9739
  578MPD2    H3 8576   4.559   2.574   0.808 -0.1780 -2.6322  1.3397
  578MPD2     N 8577   0.168   2.293   0.675 -0.4439 -0.8244 -0.0409
  578MPD2    H5 8578   0.268   2.290   0.654 -0.4026 -0.3886  0.0978
  578MPD2    N1 8579   0.260   2.744   0.806  0.0558 -0.1901  0.2298
  578MPD2    H7 8580   0.213   2.828   0.839 -0.7319 -0.4349 -0.2440
  579TMC3    C1 8581   0.195   2.063   0.679  0.0546 -0.2069 -0.6552
  579TMC3    C2 8582   0.301   2.094   0.759  0.1362  0.3639 -0.3158
  579TMC3    C3 8583   0.418   2.039   0.743 -0.6150  0.0131 -0.2114
  579TMC3    C4 8584   0.218   1.982   0.574  0.0427 -0.0723 -0.7056
  579TMC3    C5 8585   0.338   1.921   0.563  0.0941  0.0390 -0.5093
  579TMC3    C6 8586   0.445   1.953   0.643 -0.1690 -0.5703  0.6299
  579TMC3     C 8587   0.098   2.171   0.678  0.2354 -0.3289 -0.2870
  579TMC3     O 8588   4.717   2.139   0.729  0.8455  0.4522  0.1059
  579TMC3     H 8589   0.287   2.161   0.843 -2.2787 -0.1294 -0.3163
  579TMC3    H1 8590   0.142   1.973   0.497 -0.7991  0.9147 -0.0032
  579TMC3    H2 8591   0.536   1.896   0.628  0.0066  0.0249 -0.5417
  579TMC3    C7 8592   0.340   1.794   0.482 -0.2239  0.5606 -0.3151
  579TMC3    C8 8593   0.491   2.025   0.870 -0.1785 -0.7568  0.2639
  579TMC3    O1 8594   0.453   1.758   0.457  0.2381  0.0939 -0.3056
  579TMC3    O2 8595   0.420   2.014   0.974 -1.1463  0.7878  0.6963
  580TMC3    C1 8596   4.633   0.977  11.958  0.4248 -0.2985  0.6918
  580TMC3    C2 8597   4.689   0.939  11.840  0.1212  0.5362  0.2373
  580TMC3    C3 8598   4.697   0.806  11.813 -0.1337 -0.4377 -0.3592
  580TMC3    C4 8599   4.595   0.879  12.047  0.2972 -0.3243 -0.0237
  580TMC3    C5 8600   4.601   0.746  12.018 -0.4025 -0.3276 -0.0637
  580TMC3    C6 8601   4.655   0.708  11.898 -0.3457  0.8653 -0.2285
  580TMC3     C 8602   4.656   1.115  12.008 -0.0434 -0.0580  0.0268
  580TMC3     O 8603   0.033   1.168  11.963 -0.4141  0.1329  0.0530
  580TMC3     H 8604   4.722   1.017  11.772 -0.7592 -0.7676 -1.6733
  580TMC3    H1 8605   4.548   0.907  12.140 -1.2659 -0.2580 -0.8437
  580TMC3    H2 8606   4.662   0.603  11.874 -4.3201  0.7379 -0.7241
  580TMC3    C7 8607   4.618   0.658  12.132  0.0473 -0.9646  0.3065
  580TMC3    C8 8608   0.019   0.774  11.677 -0.4816  0.3641  0.1807
  580TMC3    O1 8609   4.594   0.705  12.241 -0.0898 -0.6333 -0.2223
  580TMC3    O2 8610   4.694   0.679  11.618  0.1949  0.0616 -0.2659
  581MPD2     C 8611   3.388   0.775  14.700  0.2108  0.3527  0.2890
  581MPD2    C1 8612   3.357   0.812  14.823  0.0606  0.8289  0.0946
  581MPD2    C2 8613   3.221   0.834  14.858  0.0194  0.0175  0.1923
  581MPD2    C3 8614   3.121   0.827  14.761 -0.4720 -0.4191 -0.2396
  581MPD2    C4 8615   3.160   0.795  14.631 -0.6047 -0.0478 -0.2737
  581MPD2    C5 8616   3.289   0.761  14.603  0.1088 -0.8441 -0.4779
  581MPD2     H 8617   3.192   0.846  14.961  2.4278 -2.6901  1.1627
  581MPD2    H1 8618   3.086   0.786  14.552  0.1443 -1.0354 -0.8634
  581MPD2    H2 8619   3.492   0.761  14.672  0.5858  1.0159  1.3817
  581MPD2    H3 8620   3.317   0.743  14.500  0.3986 -2.6263 -0.0723
  581MPD2     N 8621   2.987   0.861  14.795 -0.0647  0.1118 -0.0248
  581MPD2    H5 8622   2.970   0.914  14.881 -0.8253  0.0514 -0.1411
  581MPD2    N1 8623   3.469   0.826  14.919 -0.2618 -0.4056 -0.1563
  581MPD2    H7 8624   3.552   0.778  14.887  0.0357 -0.7552  1.1533
  582TMC3    C1 8625   3.557   0.784  15.135  0.1049  0.0197 -0.0093
  582TMC3    C2 8626   3.522   0.781  15.269 -0.8235 -0.2865 -0.8908
  582TMC3    C3 8627   3.556   0.673  15.340  1.1231  0.0874  0.2125
  582TMC3    C4 8628   3.633   0.686  15.076 -0.2881  0.6882 -0.0161
  582TMC3    C5 8629   3.647   0.569  15.146 -0.3124 -0.1522  0.2482
  582TMC3    C6 8630   3.613   0.565  15.282 -0.3323  0.4120 -0.6886
  582TMC3     C 8631   3.462   0.860  15.052  0.2670 -0.0914 -0.5224
  582TMC3     O 8632   3.382   0.940  15.099 -0.7060 -0.6504  0.2292
  582TMC3     H 8633   3.481   0.870  15.316 -3.8598 -1.4777 -1.3115
  582TMC3    H1 8634   3.667   0.701  14.974 -2.5612  1.0318 -0.7178
  582TMC3    H2 8635   3.616   0.472  15.338 -3.2801  1.2509  0.8896
  582TMC3    C7 8636   3.581   0.457  15.078  0.3301  0.5102 -0.6028
  582TMC3    C8 8637   3.566   0.694  15.487  0.2585 -0.1869  0.4872
  582TMC3    O1 8638   3.637   0.427  14.971  0.0612 -0.4189 -0.1537
  582TMC3    O2 8639   3.513   0.799  15.531  0.3001 -0.1853 -0.3098
  583MPD2     C 8640   2.992   2.295  16.709  0.1022  0.2695 -0.6375
  583MPD2    C1 8641   2.981   2.417  16.635 -1.1178 -0.9424 -0.3695
  583MPD2    C2 8642   2.910   2.523  16.698  0.2237  0.0141 -0.5472
  583MPD2    C3 8643   2.842   2.512  16.820  0.5340 -0.5757  0.0557
  583MPD2    C4 8644   2.854   2.388  16.881  0.0984  0.1816  0.4064
  583MPD2    C5 8645   2.932   2.287  16.831 -0.2382  0.0081  0.2112
  583MPD2     H 8646   2.908   2.613  16.638  3.9152  0.2057 -0.3615
  583MPD2    H1 8647   2.800   2.368  16.973  0.7892 -0.7845  0.5972
  583MPD2    H2 8648   3.037   2.207  16.664 -0.2479  1.1927 -2.8265
  583MPD2    H3 8649   2.917   2.193  16.883  0.3269 -1.0729 -1.5806
  583MPD2     N 8650   2.754   2.614  16.861 -0.0671 -0.0523 -0.1258
  583MPD2    H5 8651   2.732   2.682  16.789 -0.4859  0.1470  0.1860
  583MPD2    N1 8652   3.052   2.439  16.515 -0.2556  0.3969  0.2653
  583MPD2    H7 8653   3.042   2.524  16.460 -1.2162 -1.4447 -2.4236
  584TMC3    C1 8654   2.609   2.741  17.013 -0.0229 -0.4154  0.3154
  584TMC3    C2 8655   2.655   2.864  16.973 -0.9324  0.1958  0.4627
  584TMC3    C3 8656   2.634   2.974  17.052 -0.1834 -0.1659 -0.1693
  584TMC3    C4 8657   2.542   2.728  17.132  0.1078  0.6427 -0.1454
  584TMC3    C5 8658   2.538   2.833  17.217 -0.2931  0.1436  0.8600
  584TMC3    C6 8659   2.576   2.954  17.177 -0.0064 -0.5541 -0.2679
  584TMC3     C 8660   2.688   2.618  16.978 -0.2370 -0.6633  0.4144
  584TMC3     O 8661   2.666   2.531  17.059  0.3023  0.5391  0.3347
  584TMC3     H 8662   2.713   2.872  16.882 -3.3694 -0.3425 -1.1480
  584TMC3    H1 8663   2.511   2.633  17.173 -1.2873  1.7010  1.2623
  584TMC3    H2 8664   2.553   3.036  17.244  2.5200  0.8277 -1.0805
  584TMC3    C7 8665   2.475   2.826  17.348  0.6705 -0.0069 -0.1951
  584TMC3    C8 8666   2.653   3.105  16.997 -0.7273  0.4659 -0.1794
  584TMC3    O1 8667   2.514   2.904  17.431 -0.0728 -0.1796 -0.2282
  584TMC3    O2 8668   2.675   3.100  16.876  0.4133 -0.8347 -0.3022
  585MPD2     C 8669   2.743   1.621   0.049 -0.0088  0.4995 -0.7794
  585MPD2    C1 8670   2.607   1.618   0.043 -0.0481  0.0019  0.3161
  585MPD2    C2 8671   2.543   1.514  17.676  0.0656 -0.1659 -0.1471
  585MPD2    C3 8672   2.616   1.425  17.597  0.3065 -0.0052  0.5101
  585MPD2    C4 8673   2.745   1.436  17.592 -0.6576  0.4492 -0.6112
  585MPD2    C5 8674   2.814   1.529  17.674  0.1064 -0.4642  0.1399
  585MPD2     H 8675   2.436   1.502  17.683  0.1834 -2.0621 -1.7696
  585MPD2    H1 8676   2.812   1.367  17.544 -0.2807 -0.2674  0.9234
  585MPD2    H2 8677   2.798   1.709   0.080  2.2452 -0.2705 -2.6225
  585MPD2    H3 8678   2.922   1.523  17.671  0.1932  1.6929 -0.9635
  585MPD2     N 8679   2.542   1.324  17.525 -0.1648 -0.7586  0.2107
  585MPD2    H5 8680   2.448   1.309  17.557 -0.2884  2.0731  1.1783
  585MPD2    N1 8681   2.539   1.705   0.134  0.2055 -0.3740  0.0867
  585MPD2    H7 8682   2.597   1.759   0.198  2.9001 -1.8920 -1.0727
  586TMC3    C1 8683   2.517   1.121  17.411  0.2585  0.6426 -0.7339
  586TMC3    C2 8684   2.584   1.012  17.365  0.9786 -0.2989 -0.5640
  586TMC3    C3 8685   2.513   0.906  17.315  0.2941 -0.3320  0.3429
  586TMC3    C4 8686   2.377   1.136  17.408  0.1565  0.2430 -0.2301
  586TMC3    C5 8687   2.312   1.024  17.362 -0.2943 -0.1762  0.1515
  586TMC3    C6 8688   2.378   0.908  17.321  0.2467  0.4125  0.3273
  586TMC3     C 8689   2.602   1.233  17.434 -0.1634  0.2705 -0.3768
  586TMC3     O 8690   2.704   1.245  17.367  0.7986 -0.4613  0.4658
  586TMC3     H 8691   2.692   1.000  17.364  1.0263 -0.2813  2.7104
  586TMC3    H1 8692   2.322   1.226  17.432 -0.6625 -0.1773 -0.5108
  586TMC3    H2 8693   2.327   0.817  17.293 -0.0380  0.7746 -0.3291
  586TMC3    C7 8694   2.170   1.014  17.361 -0.4713  0.1128 -0.4666
  586TMC3    C8 8695   2.594   0.782  17.305 -0.9155 -0.4299  0.1414
  586TMC3    O1 8696   2.123   0.923  17.293  0.0709 -0.1522  0.0720
  586TMC3    O2 8697   2.566   0.698  17.390  0.2319  0.7149 -0.5807
  587TMC3    C1 8698   0.017   0.070  16.302 -0.1256 -0.4032 -0.3422
  587TMC3    C2 8699   4.693   0.194  16.317 -0.3910 -0.3882 -0.7593
  587TMC3    C3 8700   0.056   0.302  16.302  0.2799 -0.1180 -0.4566
  587TMC3    C4 8701   0.148   0.041  16.253 -0.4112 -0.1088 -0.0218
  587TMC3    C5 8702   0.231   0.152  16.250 -0.0870  0.8302  0.3847
  587TMC3    C6 8703   0.188   0.278  16.283 -1.2923 -0.2402 -0.4129
  587TMC3     C 8704   4.664   4.674  16.322  0.1244 -0.5920 -0.2282
  587TMC3     O 8705   4.693   4.575  16.253 -0.5518  0.1772 -0.6204
  587TMC3     H 8706   4.588   0.209  16.339  0.4920  3.7732  0.7452
  587TMC3    H1 8707   0.187   4.664  16.258 -0.9499 -0.4632 -3.3490
  587TMC3    H2 8708   0.258   0.361  16.275 -0.1150 -1.1113  0.7667
  587TMC3    C7 8709   0.371   0.111  16.269  0.2287  0.4947  0.6296
  587TMC3    C8 8710   0.004   0.447  16.307  0.0346  0.0575  0.2863
  587TMC3    O1 8711   0.386   0.010  16.330 -1.0418 -0.1348 -0.1139
  587TMC3    O2 8712   0.086   0.533  16.275 -0.1535 -0.2873  0.0862
  588TMC3    C1 8713   1.605   2.870   9.633  0.2540 -0.4307  0.5009
  588TMC3    C2 8714   1.625   2.745   9.579 -0.0021  0.2006  0.8177
  588TMC3    C3 8715   1.648   2.644   9.666 -0.7559  0.1551  0.0540
  588TMC3    C4 8716   1.632   2.900   9.765 -0.7602  0.1111  0.9055
  588TMC3    C5 8717   1.668   2.800   9.841 -0.5112  0.7497 -0.3699
  588TMC3    C6 8718   1.673   2.669   9.798 -0.2871 -0.4442  0.4495
  588TMC3     C 8719   1.552   2.975   9.547 -0.0861 -0.1840  0.6207
  588TMC3     O 8720   1.473   2.935   9.464 -0.3561 -0.0470 -0.1334
  588TMC3     H 8721   1.601   2.725   9.475  2.7401 -0.8608  0.3640
  588TMC3    H1 8722   1.592   2.989   9.812  0.4788  1.4544 -0.5709
  588TMC3    H2 8723   1.692   2.600   9.879 -1.4741 -0.9544  0.2968
  588TMC3    C7 8724   1.711   2.836   9.974 -0.1721  0.0666  0.3534
  588TMC3    C8 8725   1.640   2.505   9.628 -0.6623  0.1371  0.4384
  588TMC3    O1 8726   1.696   2.756  10.064  0.1640  0.2710  0.0753
  588TMC3    O2 8727   1.560   2.477   9.538 -0.3947  0.3502  0.1372
  589TMC3    C1 8728   1.308   0.406   1.271  0.3064  0.4307 -0.0308
  589TMC3    C2 8729   1.364   0.490   1.365  0.2887  0.3372 -0.0298
  589TMC3    C3 8730   1.498   0.474   1.390 -0.4791 -0.0418 -0.3896
  589TMC3    C4 8731   1.376   0.315   1.199  0.3247  0.2617  0.1202
  589TMC3    C5 8732   1.510   0.300   1.236  0.1136 -0.1831 -0.0744
  589TMC3    C6 8733   1.574   0.377   1.327 -0.0119 -1.0898  0.2201
  589TMC3     C 8734   1.170   0.422   1.225 -0.1789  0.0483 -0.1439
  589TMC3     O 8735   1.140   0.377   1.117  0.2721 -0.2005 -0.1558
  589TMC3     H 8736   1.312   0.575   1.408  0.2730  1.0158 -1.3631
  589TMC3    H1 8737   1.338   0.267   1.109 -2.0845  0.3893  1.0564
  589TMC3    H2 8738   1.675   0.357   1.360  0.0280 -0.0563  0.7466
  589TMC3    C7 8739   1.582   0.178   1.191  0.7256  0.0534 -0.2546
  589TMC3    C8 8740   1.566   0.568   1.481  0.2700 -0.1184  0.0706
  589TMC3    O1 8741   1.512   0.084   1.159  0.0412  0.3278 -0.4611
  589TMC3    O2 8742   1.498   0.654   1.537  0.2593  0.4016  0.2988
  590MPD2     C 8743   0.381   2.815  16.232 -0.4169  0.1484  0.8042
  590MPD2    C1 8744   0.331   2.932  16.173 -0.5494 -0.0111 -0.4628
  590MPD2    C2 8745   0.418   3.034  16.151 -0.1030 -0.1394 -0.1065
  590MPD2    C3 8746   0.547   3.026  16.182 -0.1221  0.1253  0.3997
  590MPD2    C4 8747   0.605   2.915  16.244  0.0817 -0.4771 -0.1038
  590MPD2    C5 8748   0.517   2.808  16.265  0.5614  0.1713  1.3423
  590MPD2     H 8749   0.385   3.118  16.092 -1.6679 -0.6397  0.0422
  590MPD2    H1 8750   0.710   2.889  16.248  0.3539  0.5347 -0.7550
  590MPD2    H2 8751   0.318   2.727  16.245  0.1731 -0.5327 -0.9986
  590MPD2    H3 8752   0.559   2.718  16.308  0.5007  0.4858  2.0572
  590MPD2     N 8753   0.631   3.134  16.134  0.3113 -0.1102 -0.2534
  590MPD2    H5 8754   0.578   3.212  16.097 -0.8305 -1.4438 -1.4541
  590MPD2    N1 8755   0.188   2.938  16.141  0.5550 -0.4825  0.4093
  590MPD2    H7 8756   0.117   2.867  16.160  1.2172 -0.9354  1.1691
  591TMC3    C1 8757   0.825   3.273  16.106 -0.6741 -0.3906  0.5112
  591TMC3    C2 8758   0.910   3.254  16.005  0.6726 -0.0102 -0.4108
  591TMC3    C3 8759   0.919   3.349  15.905  0.5465  0.4114 -0.9563
  591TMC3    C4 8760   0.744   3.375  16.106 -0.1615 -0.0441 -0.7629
  591TMC3    C5 8761   0.755   3.469  16.003 -0.2591 -0.1689  1.0214
  591TMC3    C6 8762   0.838   3.457  15.893 -0.4698  0.5977 -0.2068
  591TMC3     C 8763   0.768   3.148  16.153  0.4085 -0.2138  0.4176
  591TMC3     O 8764   0.854   3.078  16.205 -0.4008 -0.0636  0.6908
  591TMC3     H 8765   0.970   3.163  16.000  1.6285  0.5725  0.5603
  591TMC3    H1 8766   0.683   3.389  16.194  1.3321  2.5209 -0.1409
  591TMC3    H2 8767   0.845   3.529  15.813  1.1861 -0.1169 -0.6945
  591TMC3    C7 8768   0.694   3.596  16.036 -0.5198 -0.1667  0.3490
  591TMC3    C8 8769   1.027   3.330  15.806  0.5496  0.1241 -0.1779
  591TMC3    O1 8770   0.601   3.591  16.113  0.2497  0.0502 -0.0230
  591TMC3    O2 8771   1.100   3.237  15.820 -0.6181  0.2004 -0.5668
  592MPD2     C 8772   1.201   0.851  11.466 -0.6383 -0.0938  0.1240
  592MPD2    C1 8773   1.256   0.878  11.589 -1.0487 -0.8422  0.3976
  592MPD2    C2 8774   1.219   0.797  11.699 -0.0291  0.0600 -0.4785
  592MPD2    C3 8775   1.122   0.700  11.682  0.3825  0.5013 -0.6038
  592MPD2    C4 8776   1.059   0.690  11.555 -0.2144  0.1815 -0.7811
  592MPD2    C5 8777   1.099   0.762  11.454 -0.1607 -0.8645  0.2514
  592MPD2     H 8778   1.266   0.807  11.796 -0.5816  1.0690 -0.3200
  592MPD2    H1 8779   0.972   0.628  11.539 -0.3066 -0.2616  1.3678
  592MPD2    H2 8780   1.225   0.901  11.373 -0.6173  1.8129  1.1668
  592MPD2    H3 8781   1.043   0.753  11.362 -0.3995  1.1026  0.2037
  592MPD2     N 8782   1.099   0.615  11.794 -0.0686 -0.1954  0.0036
  592MPD2    H5 8783   1.138   0.640  11.884  1.2724  0.6988 -0.8246
  592MPD2    N1 8784   1.336   0.996  11.605  0.2418 -0.2638  0.1839
  592MPD2    H7 8785   1.375   1.040  11.522  0.4813  1.5385  1.2494
  593TMC3    C1 8786   1.466   1.164  11.713 -0.0793 -0.0516 -0.0863
  593TMC3    C2 8787   1.498   1.219  11.834 -0.1750  0.4407  0.8719
  593TMC3    C3 8788   1.589   1.322  11.833  0.1113  0.1748  0.4820
  593TMC3    C4 8789   1.526   1.191  11.597 -0.4156 -0.0638  0.2867
  593TMC3    C5 8790   1.623   1.284  11.603  0.5844 -0.4492 -0.4195
  593TMC3    C6 8791   1.661   1.354  11.715  0.0413  0.4933 -0.7097
  593TMC3     C 8792   1.367   1.059  11.718  0.6980 -0.3409 -0.0179
  593TMC3     O 8793   1.326   1.029  11.830  0.2748 -0.4619  0.2995
  593TMC3     H 8794   1.440   1.205  11.924 -2.5354  0.1269 -0.6921
  593TMC3    H1 8795   1.488   1.153  11.503  0.4047  2.3212 -0.9963
  593TMC3    H2 8796   1.741   1.428  11.716  1.4632 -1.0390 -0.5991
  593TMC3    C7 8797   1.709   1.318  11.485 -0.1861  0.2644  0.4405
  593TMC3    C8 8798   1.577   1.406  11.948  0.1058 -0.5066  0.1194
  593TMC3    O1 8799   1.779   1.416  11.490 -0.3969  0.5784  0.0214
  593TMC3    O2 8800   1.472   1.414  12.009  0.1518 -0.0554 -0.0468
  594MPD2     C 8801   4.414   4.390  14.177 -0.2678 -0.3307  0.2685
  594MPD2    C1 8802   4.452   4.379  14.307  0.2399  0.6069  0.3571
  594MPD2    C2 8803   4.561   4.451  14.356  0.0278  0.2139  0.1697
  594MPD2    C3 8804   4.641   4.511  14.268  0.3276  0.1091 -0.0365
  594MPD2    C4 8805   4.611   4.512  14.131 -0.2995 -0.0343  0.3219
  594MPD2    C5 8806   4.496   4.454  14.091 -0.2445 -0.2285 -0.5550
  594MPD2     H 8807   4.587   4.444  14.461 -1.0084 -1.1467  0.3327
  594MPD2    H1 8808   4.672   4.571  14.064 -1.3787  0.9542  0.2220
  594MPD2    H2 8809   4.333   4.332  14.134 -1.1046  0.5721  0.6443
  594MPD2    H3 8810   4.472   4.452  13.985 -3.6460  2.7885  0.1685
  594MPD2     N 8811   0.037   4.574  14.318 -0.7610  0.7355 -0.0393
  594MPD2    H5 8812   0.059   4.575  14.417 -0.0454 -0.4795 -0.1807
  594MPD2    N1 8813   4.366   4.287  14.380  0.3320  0.3811 -0.0961
  594MPD2    H7 8814   4.299   4.230  14.331 -1.7963 -0.3705  3.6770
  595TMC3    C1 8815   0.463   0.057  14.260 -0.5052 -0.5628  0.3110
  595TMC3    C2 8816   0.371   4.683  14.237  0.0425 -0.6190 -0.2143
  595TMC3    C3 8817   0.240   4.686  14.298 -0.0473  0.0173 -0.2872
  595TMC3    C4 8818   0.415   0.157  14.339  0.2738  0.0753 -0.1598
  595TMC3    C5 8819   0.292   0.167  14.391 -0.0793  1.1849 -0.0650
  595TMC3    C6 8820   0.201   0.060  14.381  0.7804  0.4557  0.5426
  595TMC3     C 8821   0.598   0.025  14.283  0.4739 -0.6544  0.2564
  595TMC3     O 8822   0.639   0.072  14.388 -0.3492 -0.1396  0.6132
  595TMC3     H 8823   0.385   4.610  14.158  0.7032 -0.1624 -0.5215
  595TMC3    H1 8824   0.480   0.242  14.359 -2.0618  1.9186 -0.3064
  595TMC3    H2 8825   0.095   0.068  14.402  0.7035  0.0062  0.3259
  595TMC3    C7 8826   0.274   0.261  14.503  0.1177 -0.8768  0.0845
  595TMC3    C8 8827   0.146   4.608  14.234  0.4470 -0.0265  0.3908
  595TMC3    O1 8828   0.186   0.225  14.577  0.2471  0.2007 -0.0278
  595TMC3    O2 8829   0.167   4.585  14.113 -0.2477  0.1473 -0.0883
  596MPD2     C 8830   3.751   2.390  16.612 -0.3072 -0.0120 -0.2607
  596MPD2    C1 8831   3.698   2.503  16.550 -0.0675  0.2248 -0.7275
  596MPD2    C2 8832   3.701   2.503  16.413  0.1044 -0.2037  0.4507
  596MPD2    C3 8833   3.746   2.388  16.341  0.0164 -0.3980  0.2012
  596MPD2    C4 8834   3.802   2.280  16.407 -0.1761 -0.2755  0.9146
  596MPD2    C5 8835   3.806   2.286  16.539  0.5124 -0.2450 -0.3091
  596MPD2     H 8836   3.679   2.597  16.365  1.6533  0.5320  1.1727
  596MPD2    H1 8837   3.846   2.195  16.357  1.7340 -0.4814  2.9698
  596MPD2    H2 8838   3.760   2.380  16.719  1.1548  1.3403 -0.2627
  596MPD2    H3 8839   3.833   2.189  16.579 -1.2756 -0.9062 -0.6873
  596MPD2     N 8840   3.750   2.387  16.202 -0.3038  0.2273 -0.3786
  596MPD2    H5 8841   3.771   2.299  16.156  0.4173 -0.5439  1.4032
  596MPD2    N1 8842   3.643   2.617  16.618 -0.0368  0.2092  0.0560
  596MPD2    H7 8843   3.614   2.701  16.570 -0.5926  0.0720  0.1485
  597TMC3    C1 8844   3.577   2.760  16.798 -0.3557 -0.2389  0.3090
  597TMC3    C2 8845   3.631   2.866  16.731 -0.7365 -0.4161 -0.1473
  597TMC3    C3 8846   3.614   2.988  16.788  0.1277 -0.2089 -0.5468
  597TMC3    C4 8847   3.501   2.768  16.905 -0.9443  0.1113  0.5871
  597TMC3    C5 8848   3.467   2.897  16.946 -1.4176 -0.6386 -0.4553
  597TMC3    C6 8849   3.527   3.011  16.893  0.1752  0.2867 -0.3751
  597TMC3     C 8850   3.623   2.628  16.759  0.1699 -0.2266 -0.2171
  597TMC3     O 8851   3.614   2.542  16.844 -0.2913 -0.0803 -0.9187
  597TMC3     H 8852   3.702   2.841  16.653 -1.1642 -1.9731 -0.0430
  597TMC3    H1 8853   3.465   2.678  16.955  0.2156 -0.3782  0.5456
  597TMC3    H2 8854   3.516   3.106  16.945 -0.6116 -0.4317  0.7715
  597TMC3    C7 8855   3.364   2.911  17.050 -0.4287 -0.3182  0.1185
  597TMC3    C8 8856   3.675   3.114  16.731  0.7301  0.3741 -0.4396
  597TMC3    O1 8857   3.335   2.811  17.115 -0.2161  0.1323 -0.0137
  597TMC3    O2 8858   3.679   3.218  16.795 -0.0150  0.0388 -0.2165
  598TMC3    C1 8859   2.072   4.375  15.521  0.0815 -0.5554  0.3951
  598TMC3    C2 8860   2.008   4.269  15.578 -0.3818 -0.4893 -0.5192
  598TMC3    C3 8861   1.991   4.162  15.503  0.1864  0.7049 -0.9774
  598TMC3    C4 8862   2.109   4.375  15.388 -0.1318  0.2421  1.3023
  598TMC3    C5 8863   2.095   4.259  15.315  0.0523  0.3393 -0.2091
  598TMC3    C6 8864   2.033   4.152  15.372 -0.2727 -0.0473 -0.5655
  598TMC3     C 8865   2.096   4.489  15.610  0.3970  0.7148 -0.5595
  598TMC3     O 8866   2.017   4.513  15.700 -0.5182 -0.3494 -0.6201
  598TMC3     H 8867   1.961   4.277  15.675  0.6942 -0.7367  0.0176
  598TMC3    H1 8868   2.125   4.474  15.348  0.4463  0.1717  1.3701
  598TMC3    H2 8869   2.026   4.064  15.309 -1.2735 -0.8049  0.6043
  598TMC3    C7 8870   2.089   4.264  15.170 -0.3819 -0.3480  0.5582
  598TMC3    C8 8871   1.918   4.056  15.571  0.3111  0.7586  0.1680
  598TMC3    O1 8872   2.033   4.173  15.116 -0.4819  0.0079 -0.1634
  598TMC3    O2 8873   1.863   4.088  15.675  0.1893  0.0463  0.0611
  599MPD2     C 8874   2.487   1.612  16.434  0.5934  0.4147 -0.0345
  599MPD2    C1 8875   2.439   1.499  16.371  0.0539 -0.0445 -0.5492
  599MPD2    C2 8876   2.310   1.492  16.346  0.8731  0.0809 -0.1465
  599MPD2    C3 8877   2.218   1.564  16.421  0.9334 -0.3076  0.1828
  599MPD2    C4 8878   2.269   1.679  16.479  1.0858 -0.2082 -0.0990
  599MPD2    C5 8879   2.402   1.703  16.488  0.0880 -0.1503 -0.3135
  599MPD2     H 8880   2.279   1.405  16.289 -0.8052 -0.5086  1.6653
  599MPD2    H1 8881   2.199   1.755  16.511  0.9974  0.5210 -2.0068
  599MPD2    H2 8882   2.594   1.629  16.445  0.5856 -0.8455  1.9730
  599MPD2    H3 8883   2.442   1.798  16.524 -1.9012 -0.0569  1.6584
  599MPD2     N 8884   2.082   1.538  16.431 -0.3255 -0.3223 -0.5625
  599MPD2    H5 8885   2.030   1.594  16.498 -0.4245 -1.5126  0.3519
  599MPD2    N1 8886   2.534   1.401  16.324  0.4040 -0.1692 -0.3889
  599MPD2    H7 8887   2.630   1.406  16.357 -0.0128 -0.7560  0.8939
  600TMC3    C1 8888   1.874   1.481  16.364 -0.4214 -0.0175 -0.0401
  600TMC3    C2 8889   1.798   1.371  16.366 -0.2787 -0.0448  1.0211
  600TMC3    C3 8890   1.684   1.395  16.441  0.3594 -0.0625 -0.1566
  600TMC3    C4 8891   1.839   1.607  16.396 -0.8872  0.8969  0.0056
  600TMC3    C5 8892   1.710   1.621  16.441 -0.0254  0.0536 -0.3499
  600TMC3    C6 8893   1.630   1.516  16.481  0.2232 -0.1573  0.1437
  600TMC3     C 8894   2.011   1.455  16.349  0.1278 -0.2406 -0.1557
  600TMC3     O 8895   2.051   1.360  16.278 -0.0898 -0.7382  0.0283
  600TMC3     H 8896   1.829   1.274  16.327  1.3495  0.8956 -0.0556
  600TMC3    H1 8897   1.894   1.695  16.363 -0.0861  0.0741 -0.8198
  600TMC3    H2 8898   1.528   1.525  16.517 -0.1371 -0.4327 -0.8090
  600TMC3    C7 8899   1.674   1.750  16.486  0.4230  0.6493  0.4074
  600TMC3    C8 8900   1.596   1.282  16.455 -0.4190 -0.0272 -0.4834
  600TMC3    O1 8901   1.575   1.757  16.557  0.2036 -0.1966 -0.2978
  600TMC3    O2 8902   1.602   1.184  16.379 -0.1514 -0.0413 -0.1192
  601MPD2     C 8903   4.316   4.130   0.800 -0.0456  0.4870 -0.0217
  601MPD2    C1 8904   4.296   4.118   0.660  0.3500 -0.6902  0.0217
  601MPD2    C2 8905   4.290   3.987   0.613  0.3398  0.4417  0.5904
  601MPD2    C3 8906   4.309   3.877   0.691  0.1130  0.1764  0.2228
  601MPD2    C4 8907   4.341   3.889   0.824 -0.5657  0.0078  0.7478
  601MPD2    C5 8908   4.346   4.019   0.876  0.2614  0.4478  0.0639
  601MPD2     H 8909   4.264   3.971   0.509  1.3254  0.5270  0.3290
  601MPD2    H1 8910   4.361   3.807   0.892 -1.2537 -0.4810  0.3630
  601MPD2    H2 8911   4.326   4.222   0.857 -0.0396  0.2868  0.3019
  601MPD2    H3 8912   4.367   4.034   0.981  0.1442 -0.0264  0.1587
  601MPD2     N 8913   4.310   3.746   0.644 -0.2613 -0.3857  0.0707
  601MPD2    H5 8914   4.319   3.678   0.718 -0.2727  0.3817  0.7686
  601MPD2    N1 8915   4.261   4.226   0.568 -0.1858  0.3554 -0.1908
  601MPD2    H7 8916   4.247   4.205   0.470 -2.6024  0.3213  0.1651
  602TMC3    C1 8917   4.183   4.448   0.513  0.2655  0.9562 -0.2355
  602TMC3    C2 8918   4.220   4.581   0.500  0.5432  0.8159 -0.4758
  602TMC3    C3 8919   4.131   4.655   0.421  0.2701 -0.3823 -0.7401
  602TMC3    C4 8920   4.076   4.394   0.447  0.5404  0.4037  0.9599
  602TMC3    C5 8921   3.992   4.477   0.380 -0.6900  0.0311 -0.3357
  602TMC3    C6 8922   4.017   4.608   0.360  0.0215 -0.7058 -0.2610
  602TMC3     C 8923   4.260   4.360   0.605  0.4247 -0.3446  0.5834
  602TMC3     O 8924   4.331   4.407   0.693 -0.6894 -0.2521  0.0257
  602TMC3     H 8925   4.291   4.625   0.568  1.1538  1.0427 -1.2691
  602TMC3    H1 8926   4.041   4.295   0.471  0.1304  0.0092 -1.3172
  602TMC3    H2 8927   3.935   4.675   0.336  0.2013 -1.1453 -2.1470
  602TMC3    C7 8928   3.892   4.406   0.303  0.2559  0.1867  0.0160
  602TMC3    C8 8929   4.141   0.080   0.423  0.3592  0.6988  0.2760
  602TMC3    O1 8930   3.848   4.299   0.329  0.1475 -1.2620  0.4037
  602TMC3    O2 8931   4.193   0.138   0.515 -0.2073 -0.0143 -0.3528
  603TMC3    C1 8932   2.102   0.344  10.775 -0.4212 -0.5008 -0.3395
  603TMC3    C2 8933   2.167   0.352  10.893  0.5423  0.7606  0.0382
  603TMC3    C3 8934   2.211   0.474  10.930  0.1490  0.5133 -0.7736
  603TMC3    C4 8935   2.082   0.448  10.689  0.6825  0.8569 -0.7838
  603TMC3    C5 8936   2.129   0.572  10.732 -0.5758  0.1971  0.4031
  603TMC3    C6 8937   2.197   0.585  10.851 -0.5840  0.4249  0.0893
  603TMC3     C 8938   2.060   0.206  10.734  0.4054 -0.0519 -0.2855
  603TMC3     O 8939   2.048   0.180  10.616 -0.6891  0.1451  0.0599
  603TMC3     H 8940   2.171   0.267  10.961  0.4090  0.1119 -0.7670
  603TMC3    H1 8941   2.040   0.422  10.593  0.2051  2.4599 -1.0091
  603TMC3    H2 8942   2.189   0.685  10.891 -0.6185  0.5423 -0.2171
  603TMC3    C7 8943   2.122   0.681  10.642  0.1710 -0.1995  0.2236
  603TMC3    C8 8944   2.253   0.483  11.062 -0.8815 -0.5538 -0.0593
  603TMC3    O1 8945   2.218   0.759  10.650  0.1656  0.4536  0.3791
  603TMC3    O2 8946   2.238   0.382  11.132  0.0335  0.3558  0.2647
  604MPD2     C 8947   3.006   3.835  16.567 -1.2093 -0.4439 -0.0374
  604MPD2    C1 8948   2.866   3.838  16.552  0.6626 -0.9405 -0.9086
  604MPD2    C2 8949   2.809   3.808  16.430 -0.2021 -0.5589  0.3578
  604MPD2    C3 8950   2.887   3.764  16.326  0.4221 -0.8658  0.1492
  604MPD2    C4 8951   3.025   3.779  16.342 -0.5550 -0.0772 -0.0452
  604MPD2    C5 8952   3.088   3.817  16.456  0.7026 -0.7445 -0.1721
  604MPD2     H 8953   2.702   3.814  16.413  0.1147 -1.1563 -1.8325
  604MPD2    H1 8954   3.094   3.764  16.260 -3.0506 -2.2987 -1.7923
  604MPD2    H2 8955   3.046   3.857  16.665  2.8209 -1.1388 -1.5542
  604MPD2    H3 8956   3.196   3.824  16.462  0.3426  2.9483  1.7266
  604MPD2     N 8957   2.825   3.723  16.209 -0.3500 -0.6759  0.1344
  604MPD2    H5 8958   2.727   3.748  16.199  0.2814  0.7140 -2.5837
  604MPD2    N1 8959   2.795   3.890  16.662 -0.2086  0.0986 -0.3767
  604MPD2    H7 8960   2.844   3.932  16.741 -2.2571  0.6159  0.6278
  605TMC3    C1 8961   2.617   3.954  16.802  0.3007 -0.1390 -0.2756
  605TMC3    C2 8962   2.693   3.953  16.911 -0.4432 -0.1171  0.1141
  605TMC3    C3 8963   2.654   4.030  17.021 -0.6186  0.0225  0.2649
  605TMC3    C4 8964   2.501   4.028  16.798  0.4770  0.1973  0.2655
  605TMC3    C5 8965   2.455   4.093  16.907 -0.1305  0.6400  0.4611
  605TMC3    C6 8966   2.536   4.099  17.018 -0.2076  0.6743  0.2474
  605TMC3     C 8967   2.656   3.904  16.674  0.1295  0.0303  0.1464
  605TMC3     O 8968   2.571   3.860  16.600  0.1404 -0.6859  0.2617
  605TMC3     H 8969   2.779   3.887  16.921  0.5828  0.4046 -5.3102
  605TMC3    H1 8970   2.444   4.025  16.706 -2.6720  0.3642  2.2114
  605TMC3    H2 8971   2.502   4.157  17.103  0.2939  1.3084  0.0244
  605TMC3    C7 8972   2.348   4.182  16.886 -0.4941 -0.3423 -0.9425
  605TMC3    C8 8973   2.733   4.045  17.136  0.0411  0.6317 -0.1973
  605TMC3    O1 8974   2.272   4.154  16.792  0.8425  0.0588  0.4016
  605TMC3    O2 8975   2.678   4.075  17.240  0.7835 -0.4660 -0.1610
  606TMC3    C1 8976   4.387   2.207  16.884  0.0517 -0.0030  0.1899
  606TMC3    C2 8977   4.393   2.307  16.976  0.2529 -0.1630 -0.0129
  606TMC3    C3 8978   4.360   2.273  17.106  0.0263  0.2068 -0.0062
  606TMC3    C4 8979   4.341   2.080  16.919  0.1304 -0.2824  0.2436
  606TMC3    C5 8980   4.327   2.048  17.050 -0.8181 -1.1680  0.1558
  606TMC3    C6 8981   4.320   2.144  17.145 -0.2610 -0.2358  0.0828
  606TMC3     C 8982   4.389   2.256  16.750  0.2149 -0.0330 -0.8600
  606TMC3     O 8983   4.452   2.356  16.724 -0.7835 -0.4943  0.2412
  606TMC3     H 8984   4.421   2.405  16.940 -0.1547 -0.8435 -2.1728
  606TMC3    H1 8985   4.346   1.996  16.851  0.7302 -0.3979  0.4316
  606TMC3    H2 8986   4.323   2.116  17.250  1.3716 -0.7588 -0.0932
  606TMC3    C7 8987   4.272   1.913  17.070 -0.5695 -0.1419 -0.6344
  606TMC3    C8 8988   4.414   2.357  17.212  0.0000  0.1528  0.3632
  606TMC3    O1 8989   4.287   1.832  16.980 -0.5216  0.2845 -0.4989
  606TMC3    O2 8990   4.439   2.305  17.317  0.2019 -0.3959 -0.0332
  607MPD2     C 8991   1.435   0.407  11.877  0.1863 -0.4764  0.5338
  607MPD2    C1 8992   1.471   0.531  11.933 -0.1503  0.1917  0.3292
  607MPD2    C2 8993   1.460   0.547  12.065 -0.5232 -0.2653  0.2399
  607MPD2    C3 8994   1.430   0.445  12.151 -0.9268  0.4157 -0.3927
  607MPD2    C4 8995   1.403   0.318  12.098 -0.0977 -0.3236 -1.0127
  607MPD2    C5 8996   1.402   0.301  11.958  0.4788  0.0849 -0.2454
  607MPD2     H 8997   1.492   0.645  12.099  0.9718  0.5041 -3.4491
  607MPD2    H1 8998   1.368   0.242  12.166  2.2384 -2.1814 -1.9030
  607MPD2    H2 8999   1.435   0.389  11.770  0.2518  0.0245  0.4471
  607MPD2    H3 9000   1.377   0.207  11.911  1.4321  0.4093 -1.3966
  607MPD2     N 9001   1.436   0.461  12.294  0.4775 -0.2115 -0.5505
  607MPD2    H5 9002   1.470   0.552  12.322  2.6885 -0.6853 -1.7221
  607MPD2    N1 9003   1.517   0.644  11.861  0.0834  0.5371  0.2357
  607MPD2    H7 9004   1.551   0.719  11.920  1.3442  0.6238 -0.5891
  608TMC3    C1 9005   1.626   0.771  11.710 -0.2270  0.3522  0.2318
  608TMC3    C2 9006   1.638   0.870  11.805  0.9506  0.0473 -0.2104
  608TMC3    C3 9007   1.749   0.953  11.802 -0.2730 -0.0307 -0.5306
  608TMC3    C4 9008   1.720   0.768  11.609 -0.1579  0.6337  0.4392
  608TMC3    C5 9009   1.816   0.868  11.607  0.6389  0.6019 -0.1153
  608TMC3    C6 9010   1.835   0.966  11.699 -0.7078  0.2627 -0.0940
  608TMC3     C 9011   1.555   0.652  11.731  0.3171 -0.2954 -0.5865
  608TMC3     O 9012   1.534   0.577  11.638  0.3368 -0.3547 -0.1540
  608TMC3     H 9013   1.569   0.887  11.887  0.5452 -2.6563 -0.0035
  608TMC3    H1 9014   1.703   0.701  11.525  1.4894  0.8398 -0.0489
  608TMC3    H2 9015   1.921   1.031  11.709  0.5644 -1.5282  0.6028
  608TMC3    C7 9016   1.895   0.873  11.484 -0.0451  0.1138 -0.7683
  608TMC3    C8 9017   1.791   1.028  11.923  0.8059  0.1379 -0.0271
  608TMC3    O1 9018   1.857   0.829  11.377 -0.2777 -0.5707  0.5209
  608TMC3    O2 9019   1.864   1.127  11.908  0.7530 -0.1610 -0.6362
  609TMC3    C1 9020   4.237   3.432   8.964  0.2155  0.3280  0.5671
  609TMC3    C2 9021   4.190   3.476   8.842  0.0585 -0.6272  0.4975
  609TMC3    C3 9022   4.271   3.555   8.761 -0.2567  0.2041  0.5352
  609TMC3    C4 9023   4.367   3.464   9.007  0.3493 -0.7031  0.0527
  609TMC3    C5 9024   4.441   3.540   8.921  0.1872 -0.3623  0.6939
  609TMC3    C6 9025   4.397   3.592   8.803  0.2746  0.1188  1.0146
  609TMC3     C 9026   4.148   3.366   9.058  0.2957 -0.9879 -0.1011
  609TMC3     O 9027   4.203   3.290   9.141 -0.5929 -0.2225 -0.8347
  609TMC3     H 9028   4.091   3.454   8.803 -0.0898 -0.0229  0.5316
  609TMC3    H1 9029   4.409   3.435   9.102 -1.2381 -1.1144  0.6362
  609TMC3    H2 9030   4.474   3.634   8.740 -1.0203 -1.5769 -1.7010
  609TMC3    C7 9031   4.581   3.550   8.960  0.3027 -0.3610  0.5118
  609TMC3    C8 9032   4.244   3.553   8.617  0.9639  0.1898  0.3761
  609TMC3    O1 9033   4.608   3.575   9.075 -0.6290 -0.3280  0.4689
  609TMC3    O2 9034   4.346   3.568   8.545  0.3379 -0.2146  0.0266
  610TMC3    C1 9035   1.783   0.569  12.946 -0.1834 -0.1059  0.4131
  610TMC3    C2 9036   1.855   0.656  12.865  0.2848  0.0363 -0.4556
  610TMC3    C3 9037   1.969   0.611  12.802 -0.0851 -0.2474  0.5394
  610TMC3    C4 9038   1.832   0.438  12.962  0.3886  0.4931 -0.2290
  610TMC3    C5 9039   1.950   0.403  12.903  0.5252  0.0400 -0.2299
  610TMC3    C6 9040   2.023   0.483  12.824  0.0574 -0.5250  0.2273
  610TMC3     C 9041   1.637   0.575  12.937 -0.0294 -0.1693  0.2326
  610TMC3     O 9042   1.569   0.474  12.953  0.7862  0.2362 -0.6667
  610TMC3     H 9043   1.818   0.757  12.854  0.2562 -0.2769 -3.1294
  610TMC3    H1 9044   1.777   0.370  13.025 -0.9877 -0.1098 -2.0654
  610TMC3    H2 9045   2.120   0.453  12.784 -1.0115 -1.2008 -1.8421
  610TMC3    C7 9046   2.010   0.274  12.932 -1.0513  0.5504 -0.0956
  610TMC3    C8 9047   2.012   0.697  12.689  0.0360  0.2726  0.3000
  610TMC3    O1 9048   2.117   0.254  12.881  0.3529  0.0308 -0.1920
  610TMC3    O2 9049   1.955   0.801  12.664 -0.1530 -0.5021  0.0135
  611MPD2     C 9050   1.071   0.283  10.414 -0.1488  0.8773 -0.6157
  611MPD2    C1 9051   0.999   0.395  10.382 -0.0416  0.5687 -0.4619
  611MPD2    C2 9052   1.062   0.496  10.316  0.9791  0.2611  0.2541
  611MPD2    C3 9053   1.199   0.493  10.282 -0.5694 -0.6864  0.6699
  611MPD2    C4 9054   1.260   0.373  10.306  0.1257 -0.2390 -0.2412
  611MPD2    C5 9055   1.202   0.270  10.374  0.1268  0.3322  0.5282
  611MPD2     H 9056   1.021   0.597  10.316  2.7748  1.0042  2.6157
  611MPD2    H1 9057   1.367   0.371  10.292 -0.0132 -0.1763 -1.2845
  611MPD2    H2 9058   1.027   0.195  10.460 -1.5248  1.4301 -0.8613
  611MPD2    H3 9059   1.261   0.183  10.403  1.5441  0.7684 -1.0450
  611MPD2     N 9060   1.278   0.605  10.243 -0.0166  0.1223  0.1042
  611MPD2    H5 9061   1.377   0.609  10.263 -0.0352 -0.5674  0.3372
  611MPD2    N1 9062   0.865   0.397  10.425  0.0610 -0.4842 -0.3180
  611MPD2    H7 9063   0.834   0.318  10.481 -1.3162 -0.5741 -1.2079
  612TMC3    C1 9064   1.303   0.826  10.155 -0.6944 -0.4592 -0.2223
  612TMC3    C2 9065   1.437   0.811  10.143  0.3887  0.1594 -0.4580
  612TMC3    C3 9066   1.507   0.927  10.131 -0.1272  0.7087 -0.7741
  612TMC3    C4 9067   1.239   0.952  10.151 -0.6287 -0.8371  0.1630
  612TMC3    C5 9068   1.318   1.061  10.126 -0.5484 -0.3653 -0.5358
  612TMC3    C6 9069   1.449   1.049  10.100  0.2278 -0.8685 -0.4523
  612TMC3     C 9070   1.217   0.710  10.179 -0.1350 -0.0493  0.1842
  612TMC3     O 9071   1.095   0.726  10.153 -0.1386 -0.5464 -0.5978
  612TMC3     H 9072   1.486   0.714  10.143 -0.5539 -0.2948  3.2922
  612TMC3    H1 9073   1.133   0.962  10.171 -0.4871  2.2134 -0.6102
  612TMC3    H2 9074   1.518   1.124  10.063 -2.0795  2.3651  1.7923
  612TMC3    C7 9075   1.259   1.157  10.033 -0.2524 -0.6194  0.1922
  612TMC3    C8 9076   1.653   0.929  10.145 -0.0796 -0.3100 -0.7648
  612TMC3    O1 9077   1.149   1.125   9.986 -0.2412  0.1357 -0.2197
  612TMC3    O2 9078   1.702   1.035  10.115 -0.0991 -0.3426 -0.5995
  613MPD2     C 9079   0.654   2.145  16.197 -0.0468  0.4797  0.2754
  613MPD2    C1 9080   0.751   2.166  16.105 -0.5362  1.2749 -0.3127
  613MPD2    C2 9081   0.775   2.062  16.018  0.2891  0.2355 -0.1067
  613MPD2    C3 9082   0.717   1.939  16.023 -0.1932 -0.4058 -0.0463
  613MPD2    C4 9083   0.619   1.922  16.120 -0.4057  0.5154  0.5787
  613MPD2    C5 9084   0.590   2.027  16.205 -0.0297  0.3925 -0.4533
  613MPD2     H 9085   0.855   2.068  15.945 -0.7326  1.7317 -1.1058
  613MPD2    H1 9086   0.564   1.830  16.135 -2.0082  1.2056 -1.0942
  613MPD2    H2 9087   0.629   2.215  16.276 -2.6950 -0.1990  0.0321
  613MPD2    H3 9088   0.506   2.010  16.271  0.7963 -0.0609  0.5048
  613MPD2     N 9089   0.758   1.827  15.936  0.3249  0.3829  0.7128
  613MPD2    H5 9090   0.826   1.850  15.865  0.9571  0.3118  1.2968
  613MPD2    N1 9091   0.815   2.286  16.088 -0.4764  0.7638 -0.3977
  613MPD2    H7 9092   0.879   2.286  16.010 -0.4325 -1.8352 -0.3637
  614TMC3    C1 9093   0.856   2.512  16.071  0.9344 -0.1589 -0.2758
  614TMC3    C2 9094   0.934   2.462  15.967  0.2153  0.2700 -0.1324
  614TMC3    C3 9095   0.916   2.506  15.837  0.1708  0.4885  0.0569
  614TMC3    C4 9096   0.753   2.587  16.030  0.2101  0.5912  0.8137
  614TMC3    C5 9097   0.727   2.626  15.898  0.3831  0.3695 -1.0003
  614TMC3    C6 9098   0.814   2.586  15.804  0.1512 -0.4484  0.0831
  614TMC3     C 9099   0.800   2.412  16.152  0.6443  0.4009  0.0462
  614TMC3     O 9100   0.750   2.442  16.255  0.1180 -0.1814  0.1514
  614TMC3     H 9101   1.034   2.425  15.986  0.5926  1.7050  0.7221
  614TMC3    H1 9102   0.677   2.604  16.106 -0.8332 -1.2143  0.1694
  614TMC3    H2 9103   0.787   2.612  15.702 -0.8055  0.6272  0.6156
  614TMC3    C7 9104   0.619   2.717  15.878  0.6824  0.2487  0.7483
  614TMC3    C8 9105   0.945   2.385  15.754 -0.3612 -0.4118  0.3254
  614TMC3    O1 9106   0.609   2.792  15.970  0.4655 -0.1705  0.3699
  614TMC3    O2 9107   0.981   2.287  15.819  0.5419  0.4519  0.5565
  615MPD2     C 9108   4.416   4.073  16.446 -0.0106 -0.3748 -0.2916
  615MPD2    C1 9109   4.493   4.109  16.337 -0.4613  0.7692  0.2514
  615MPD2    C2 9110   4.455   4.065  16.208  0.6649 -0.2834 -0.5238
  615MPD2    C3 9111   4.337   3.992  16.193  0.6909 -0.0033 -0.5893
  615MPD2    C4 9112   4.271   3.947  16.297 -0.0019 -0.3806 -0.6920
  615MPD2    C5 9113   4.307   3.991  16.427 -1.2984 -0.5167 -0.1738
  615MPD2     H 9114   4.501   4.106  16.119  2.5558 -2.7677 -0.6981
  615MPD2    H1 9115   4.191   3.875  16.295 -3.6304  3.5598  3.1399
  615MPD2    H2 9116   4.416   4.110  16.548 -0.1196 -0.5466 -0.2294
  615MPD2    H3 9117   4.247   3.962  16.512 -0.4521  1.6305  1.1331
  615MPD2     N 9118   4.293   3.972  16.061 -0.0261  0.2962 -0.9090
  615MPD2    H5 9119   4.364   3.999  15.994  1.7220 -1.2324  0.3614
  615MPD2    N1 9120   4.601   4.198  16.354  1.3136 -0.4863 -0.3175
  615MPD2    H7 9121   4.658   4.229  16.276  0.1139 -0.0594 -1.0348
  616TMC3    C1 9122   0.036   4.338  16.474  0.3235 -0.6095 -0.0794
  616TMC3    C2 9123   0.131   4.309  16.373  0.5891 -0.5729  0.1469
  616TMC3    C3 9124   0.245   4.384  16.372 -0.4941  0.2791 -0.0134
  616TMC3    C4 9125   0.064   4.430  16.568  0.6085 -0.0292  0.1595
  616TMC3    C5 9126   0.181   4.500  16.566  0.0744 -0.6996  0.3304
  616TMC3    C6 9127   0.268   4.478  16.466  0.3573 -0.0155  0.1086
  616TMC3     C 9128   4.632   4.262  16.476 -0.1957 -0.6805 -1.1223
  616TMC3     O 9129   4.574   4.270  16.584 -0.5648 -0.0888 -0.5612
  616TMC3     H 9130   0.111   4.244  16.289  0.0856  0.8468 -0.8336
  616TMC3    H1 9131   4.721   4.447  16.652  1.7580 -1.1424  1.3193
  616TMC3    H2 9132   0.362   4.533  16.460  0.1192  0.2820 -0.8643
  616TMC3    C7 9133   0.190   4.627  16.647 -0.6145  0.3714 -0.7322
  616TMC3    C8 9134   0.323   4.410  16.252  0.7595 -0.0079  0.2763
  616TMC3    O1 9135   0.112   4.639  16.737  0.2906 -0.1268  0.3938
  616TMC3    O2 9136   0.256   4.435  16.154 -0.2843  0.3768 -0.0285
  617MPD2     C 9137   2.415   1.966  13.784  0.3074 -0.5049  0.2419
  617MPD2    C1 9138   2.458   2.000  13.910  0.1384 -0.0134 -0.2176
  617MPD2    C2 9139   2.368   2.019  14.019 -0.2357  0.1017  0.1737
  617MPD2    C3 9140   2.234   1.981  14.003 -0.5190 -0.5282 -0.0274
  617MPD2    C4 9141   2.193   1.935  13.876 -0.1214  0.0684  0.3825
  617MPD2    C5 9142   2.282   1.928  13.773  0.1803 -0.7201  0.1491
  617MPD2     H 9143   2.406   2.055  14.114 -1.8977 -0.3479  1.0126
  617MPD2    H1 9144   2.088   1.915  13.860 -0.2937  0.8339  0.6041
  617MPD2    H2 9145   2.489   1.958  13.706 -1.3019 -0.9271 -1.2306
  617MPD2    H3 9146   2.247   1.886  13.679 -2.2122  0.2741  0.5767
  617MPD2     N 9147   2.135   1.985  14.096 -0.0106 -1.0247  0.1863
  617MPD2    H5 9148   2.049   1.939  14.068 -1.3269  1.4898  0.0138
  617MPD2    N1 9149   2.601   2.011  13.926  0.1383 -0.0986  0.2198
  617MPD2    H7 9150   2.663   1.986  13.850  1.0018 -0.2368  0.9600
  618TMC3    C1 9151   2.809   2.087  14.006  0.5997 -0.2994  0.2866
  618TMC3    C2 9152   2.882   1.974  13.968  0.2782  0.4177  0.8147
  618TMC3    C3 9153   3.011   2.005  13.933 -0.2359 -0.5631  0.0900
  618TMC3    C4 9154   2.854   2.219  14.006 -0.7457 -0.2482  0.3977
  618TMC3    C5 9155   2.977   2.242  13.957  0.7375 -0.8267  0.2738
  618TMC3    C6 9156   3.052   2.136  13.918  0.4464 -0.3391  0.2934
  618TMC3     C 9157   2.670   2.082  14.021 -0.1668 -0.3390  0.0674
  618TMC3     O 9158   2.626   2.136  14.119  0.3488 -0.0360 -0.2492
  618TMC3     H 9159   2.838   1.875  13.981 -3.5876  1.8680 -1.0604
  618TMC3    H1 9160   2.801   2.309  14.037  0.4874 -0.5251  3.2976
  618TMC3    H2 9161   3.156   2.162  13.903  0.0716  0.6990 -0.5519
  618TMC3    C7 9162   3.032   2.368  13.971  0.2411  0.3579 -0.2269
  618TMC3    C8 9163   3.088   1.906  13.862  0.3661 -0.2305  0.9156
  618TMC3    O1 9164   2.999   2.439  14.064  0.5998 -0.2072 -0.1494
  618TMC3    O2 9165   3.043   1.792  13.851  0.3235 -0.2875 -0.6897
  619MPD2     C 9166   3.768   3.151  14.095  0.1223  0.3770 -0.0657
  619MPD2    C1 9167   3.721   3.118  13.966  0.3944  0.0617  0.0170
  619MPD2    C2 9168   3.584   3.123  13.929 -0.0813 -0.5973 -0.5376
  619MPD2    C3 9169   3.490   3.132  14.032  0.9717  0.6572  0.0999
  619MPD2    C4 9170   3.540   3.147  14.161  0.1626  0.1683  0.0236
  619MPD2    C5 9171   3.672   3.164  14.190  0.8677  0.2403  0.3103
  619MPD2     H 9172   3.566   3.108  13.823 -1.2117 -0.0027 -0.4297
  619MPD2    H1 9173   3.474   3.161  14.245 -0.2370  0.3815 -0.3215
  619MPD2    H2 9174   3.872   3.154  14.125  0.3490  1.7235 -1.0084
  619MPD2    H3 9175   3.703   3.164  14.294  0.3315  1.1958  0.4654
  619MPD2     N 9176   3.348   3.137  14.006  0.2890 -0.0263  0.2986
  619MPD2    H5 9177   3.289   3.161  14.085 -1.4865  1.9050 -1.6127
  619MPD2    N1 9178   3.819   3.116  13.863 -0.6764  0.2874  0.0654
  619MPD2    H7 9179   3.781   3.115  13.769 -0.6391 -1.5002  0.0711
  620TMC3    C1 9180   4.003   3.171  13.735 -0.1583  0.0774  0.9824
  620TMC3    C2 9181   3.923   3.157  13.625 -0.4048 -0.2829  0.0419
  620TMC3    C3 9182   3.915   3.264  13.539  0.0890  0.1253 -0.6370
  620TMC3    C4 9183   4.098   3.273  13.756 -0.0992 -0.3028 -0.2389
  620TMC3    C5 9184   4.085   3.376  13.665  0.1160  0.0044 -0.2083
  620TMC3    C6 9185   4.005   3.369  13.555  0.1078 -0.1750 -0.0791
  620TMC3     C 9186   3.954   3.133  13.862  0.5875 -0.1636 -0.4722
  620TMC3     O 9187   4.027   3.138  13.961 -0.4158 -0.1529  0.1107
  620TMC3     H 9188   3.859   3.070  13.620 -2.2322  1.1356 -1.2622
  620TMC3    H1 9189   4.148   3.290  13.850 -1.1663  0.9764  0.1034
  620TMC3    H2 9190   3.999   3.435  13.470 -0.9734 -0.9067 -0.5731
  620TMC3    C7 9191   4.099   3.512  13.715 -0.4174 -0.5326  0.2461
  620TMC3    C8 9192   3.786   3.318  13.510  0.3836  0.2607 -0.4498
  620TMC3    O1 9193   4.187   3.537  13.797  0.0740 -0.0032 -0.2757
  620TMC3    O2 9194   3.783   3.435  13.482  0.2358  0.0850  0.2597
  621MPD2     C 9195   4.489   3.094   9.855 -0.5052  0.9581 -0.2392
  621MPD2    C1 9196   4.622   3.084   9.892  0.2209 -0.0816 -0.1443
  621MPD2    C2 9197   4.680   3.187   9.963 -0.5215 -0.1669  0.0667
  621MPD2    C3 9198   4.602   3.296  10.004  0.0469  0.6056  0.3584
  621MPD2    C4 9199   4.470   3.295   9.975 -0.3707 -0.0029  0.4568
  621MPD2    C5 9200   4.417   3.196   9.893 -0.0782  0.5998 -0.3056
  621MPD2     H 9201   0.060   3.185   9.994 -0.9934 -1.0762  1.5925
  621MPD2    H1 9202   4.398   3.373   9.997 -0.3819 -0.0693  0.6510
  621MPD2    H2 9203   4.425   3.019   9.809 -1.0430  0.6833  0.9530
  621MPD2    H3 9204   4.313   3.208   9.865 -0.4746  3.3858  2.3588
  621MPD2     N 9205   4.663   3.410  10.070  0.8579  0.8270  0.0838
  621MPD2    H5 9206   0.039   3.405  10.088  0.9013  0.1518 -0.3490
  621MPD2    N1 9207   4.704   2.969   9.854  0.4246 -0.1528 -0.2909
  621MPD2    H7 9208   0.067   2.953   9.902 -0.1543 -1.4933  0.3098
  622TMC3    C1 9209   0.029   2.772   9.724 -0.3010  0.4404 -0.1072
  622TMC3    C2 9210   0.122   2.733   9.825 -0.2080  0.5544 -0.0310
  622TMC3    C3 9211   0.176   2.614   9.809  0.6209  0.4307  0.0167
  622TMC3    C4 9212   4.724   2.702   9.610  0.2411 -0.0070 -0.3098
  622TMC3    C5 9213   0.065   2.584   9.598 -0.0342 -0.1421  0.4328
  622TMC3    C6 9214   0.148   2.536   9.697 -0.1584 -0.2642 -0.0801
  622TMC3     C 9215   4.666   2.883   9.751 -0.2840  0.4592  0.1483
  622TMC3     O 9216   4.580   2.908   9.664 -0.2472 -0.3992 -0.5566
  622TMC3     H 9217   0.145   2.786   9.916 -3.1524  0.4557  0.7964
  622TMC3    H1 9218   4.651   2.737   9.538 -0.3871 -0.2065  0.2331
  622TMC3    H2 9219   0.191   2.438   9.681 -0.7739 -0.3399 -1.2820
  622TMC3    C7 9220   0.020   2.488   9.495  0.0907  0.3911 -0.2746
  622TMC3    C8 9221   0.223   2.539   9.930  0.1860 -0.0163 -0.0613
  622TMC3    O1 9222   0.023   2.369   9.528 -0.5224 -0.3540  0.5634
  622TMC3    O2 9223   0.311   2.589  10.000 -0.4930 -0.1519 -0.6350
  623MPD2     C 9224   3.290   4.079  16.357  0.0538 -0.0161  0.2287
  623MPD2    C1 9225   3.222   4.144  16.458 -0.5529 -0.3156  0.5082
  623MPD2    C2 9226   3.288   4.199  16.567 -0.0299 -0.5367 -0.4959
  623MPD2    C3 9227   3.427   4.186  16.573  0.7057  0.4932 -0.2373
  623MPD2    C4 9228   3.496   4.131  16.465 -0.1536 -0.4440  0.2601
  623MPD2    C5 9229   3.424   4.082  16.354  0.0959 -1.1794  0.0316
  623MPD2     H 9230   3.230   4.234  16.651  0.4265  0.5776 -0.6440
  623MPD2    H1 9231   3.604   4.131  16.462 -0.1697 -2.9074  0.1088
  623MPD2    H2 9232   3.256   4.017  16.275 -2.2074  0.7062  0.6056
  623MPD2    H3 9233   3.476   4.045  16.267 -0.4160  1.6776 -1.4939
  623MPD2     N 9234   3.494   4.212  16.698  0.1878  0.3750  0.0563
  623MPD2    H5 9235   3.424   4.244  16.764  0.4990  1.8449 -0.3226
  623MPD2    N1 9236   3.080   4.147  16.460 -0.2350 -0.2689  0.5337
  623MPD2    H7 9237   3.027   4.157  16.546  0.4194  0.2102  0.8713
  624TMC3    C1 9238   3.701   4.030  17.019  0.3821 -1.4768 -0.2022
  624TMC3    C2 9239   3.588   4.068  17.091  0.1884 -0.1409 -0.2772
  624TMC3    C3 9240   3.518   4.179  17.055 -0.5443  0.4041 -0.1009
  624TMC3    C4 9241   3.741   4.109  16.912  0.1383 -0.1007 -0.6184
  624TMC3    C5 9242   3.659   4.213  16.874 -0.4870  0.0130  0.0060
  624TMC3    C6 9243   3.549   4.250  16.940  0.1450 -0.2905  0.0422
  624TMC3     C 9244   3.773   3.907  17.053  0.0338  0.4297 -0.2106
  624TMC3     O 9245   3.719   3.819  17.116  0.1994  0.4933 -0.2590
  624TMC3     H 9246   3.572   4.009  17.181  1.5732 -0.5877 -0.3173
  624TMC3    H1 9247   3.826   4.095  16.846 -0.4267  1.1596 -1.6214
  624TMC3    H2 9248   3.491   4.337  16.910 -0.3841 -0.6037  0.1659
  624TMC3    C7 9249   3.631   4.206  16.729  0.6440 -0.1092 -0.1954
  624TMC3    C8 9250   3.373   4.173  17.079  0.4177  0.5011 -0.6900
  624TMC3    O1 9251   3.721   4.173  16.654  0.0080  0.4491 -0.2332
  624TMC3    O2 9252   3.308   4.202  16.980  0.0588  0.4950  0.1180
  625MPD2     C 9253   3.275   0.313   0.474 -0.3719 -0.0059  0.1969
  625MPD2    C1 9254   3.360   0.389   0.553  0.0295  0.1366 -0.7815
  625MPD2    C2 9255   3.419   0.324   0.658  0.4086  0.4531 -0.4036
  625MPD2    C3 9256   3.400   0.192   0.693  0.3947  0.0457  0.6442
  625MPD2    C4 9257   3.321   0.112   0.614 -0.2456 -0.2212  0.6126
  625MPD2    C5 9258   3.258   0.181   0.510 -0.3771 -0.2095 -0.1065
  625MPD2     H 9259   3.471   0.388   0.728 -0.2443  2.8151 -2.0936
  625MPD2    H1 9260   3.308   0.006   0.632 -0.0892 -0.3500 -0.0426
  625MPD2    H2 9261   3.213   0.355   0.396  0.4952 -0.2314 -0.6023
  625MPD2    H3 9262   3.185   0.125   0.452  2.4778 -3.4134 -0.6297
  625MPD2     N 9263   3.461   0.151   0.817 -0.5557 -0.3434 -0.1617
  625MPD2    H5 9264   3.510   0.227   0.862  0.8459  0.0246 -2.2905
  625MPD2    N1 9265   3.382   0.526   0.522  0.4350 -0.3458  0.3492
  625MPD2    H7 9266   3.439   0.566   0.596  0.5525 -0.8566  0.5314
  626TMC3    C1 9267   3.384   0.729   0.389  0.2656  0.2498 -0.0259
  626TMC3    C2 9268   3.340   0.794   0.278 -0.2394  0.5292  0.0144
  626TMC3    C3 9269   3.389   0.912   0.263 -0.7597 -0.3456  0.3365
  626TMC3    C4 9270   3.472   0.785   0.479 -0.5196  0.0019  0.6979
  626TMC3    C5 9271   3.518   0.913   0.453  0.3260 -0.6970  0.5917
  626TMC3    C6 9272   3.470   0.977   0.344 -0.5014  0.5565  0.4303
  626TMC3     C 9273   3.346   0.586   0.403 -0.0795 -0.2450  0.7971
  626TMC3     O 9274   3.283   0.543   0.308  0.3133 -0.0040  0.0758
  626TMC3     H 9275   3.285   0.740   0.201 -0.4711  0.6048  0.1283
  626TMC3    H1 9276   3.530   0.720   0.544 -1.1401 -0.0529  1.2021
  626TMC3    H2 9277   3.502   1.079   0.330 -1.5421  0.8977  0.5714
  626TMC3    C7 9278   3.578   0.997   0.549 -0.3668 -0.5876 -0.8725
  626TMC3    C8 9279   3.323   0.995   0.161  0.0430  0.3150  0.2414
  626TMC3    O1 9280   3.647   1.089   0.507  0.2542  0.4779  0.0180
  626TMC3    O2 9281   3.264   0.943   0.069 -0.1462 -0.1652  0.1261
  627MPD2     C 9282   2.245   0.796  14.340  0.4090  0.2898 -0.2421
  627MPD2    C1 9283   2.278   0.747  14.465 -0.4593 -0.2869 -0.1141
  627MPD2    C2 9284   2.191   0.663  14.523 -0.3326 -0.6549  0.1131
  627MPD2    C3 9285   2.071   0.630  14.475  0.0271  0.2482  0.3165
  627MPD2    C4 9286   2.032   0.678  14.352  0.5346  0.0920 -0.6324
  627MPD2    C5 9287   2.118   0.766  14.293 -1.0057  0.6940 -0.0595
  627MPD2     H 9288   2.223   0.618  14.616  0.0298 -1.8542 -0.6034
  627MPD2    H1 9289   1.939   0.662  14.300 -1.1623  3.1452  1.4293
  627MPD2    H2 9290   2.316   0.853  14.281 -0.9854  0.6649 -1.5658
  627MPD2    H3 9291   2.090   0.815  14.200  1.5372 -1.0078 -1.7277
  627MPD2     N 9292   1.975   0.576  14.566  0.5179  0.1233 -0.6333
  627MPD2    H5 9293   2.012   0.547  14.656 -0.5586 -0.2964 -0.3149
  627MPD2    N1 9294   2.399   0.774  14.535 -0.1755  0.3349 -0.0247
  627MPD2    H7 9295   2.415   0.715  14.617 -1.9622 -0.2075 -0.0456
  628TMC3    C1 9296   2.561   0.921  14.620  0.0399 -0.1066 -0.2354
  628TMC3    C2 9297   2.654   0.835  14.679 -0.1044  0.0163 -0.6148
  628TMC3    C3 9298   2.760   0.897  14.742 -0.1973 -0.0565 -0.4572
  628TMC3    C4 9299   2.563   1.054  14.645  0.3345 -0.4988 -0.5434
  628TMC3    C5 9300   2.659   1.106  14.728 -0.2901  0.0720 -0.5343
  628TMC3    C6 9301   2.755   1.027  14.783 -0.2640  0.7138 -0.6862
  628TMC3     C 9302   2.472   0.888  14.510  0.1975  0.2537  0.2401
  628TMC3     O 9303   2.448   0.977  14.425 -0.4762 -0.4268 -0.1351
  628TMC3     H 9304   2.643   0.727  14.670 -1.2241  0.0840  0.0951
  628TMC3    H1 9305   2.483   1.115  14.603  0.5390  0.3021  0.2283
  628TMC3    H2 9306   2.846   1.074  14.820 -0.9373  0.3939  1.3602
  628TMC3    C7 9307   2.657   1.242  14.769  1.1863  0.4704  0.6125
  628TMC3    C8 9308   2.880   0.832  14.712  0.1962  0.4226  0.0916
  628TMC3    O1 9309   2.725   1.266  14.864 -0.3248  0.0463 -0.6309
  628TMC3    O2 9310   2.870   0.761  14.610  0.3802 -0.0565 -0.4354
  629MPD2     C 9311   0.755   4.507  15.992 -0.5844  1.3433  0.3517
  629MPD2    C1 9312   0.790   4.427  16.099  0.9927 -0.5701  0.6198
  629MPD2    C2 9313   0.686   4.389  16.189  0.0848 -0.1904 -0.3344
  629MPD2    C3 9314   0.557   4.427  16.174 -0.6387  0.4599 -0.5853
  629MPD2    C4 9315   0.524   4.503  16.060 -0.1038  0.2138 -0.9172
  629MPD2    C5 9316   0.625   4.543  15.975  0.1451 -0.4553 -0.2279
  629MPD2     H 9317   0.710   4.335  16.280 -2.2788 -1.0010 -0.1911
  629MPD2    H1 9318   0.426   4.548  16.050 -1.0432 -1.2563  1.5868
  629MPD2    H2 9319   0.832   4.549  15.928 -1.4273  1.5256 -0.5425
  629MPD2    H3 9320   0.605   4.614  15.896  1.0124  0.1923  0.1332
  629MPD2     N 9321   0.460   4.399  16.271 -0.2079  0.0469 -0.5701
  629MPD2    H5 9322   0.499   4.363  16.357 -2.1398  0.8594  0.6399
  629MPD2    N1 9323   0.923   4.398  16.121  0.2910  0.5429 -0.1613
  629MPD2    H7 9324   0.985   4.459  16.069  0.2913  0.3725 -0.3590
  630TMC3    C1 9325   1.113   4.261  16.181 -0.7555  0.5320 -0.2165
  630TMC3    C2 9326   1.212   4.358  16.145  0.1717  0.4685  0.2042
  630TMC3    C3 9327   1.336   4.346  16.199  0.2486 -0.5254  0.5234
  630TMC3    C4 9328   1.157   4.153  16.260 -0.8061 -0.4605  0.4184
  630TMC3    C5 9329   1.283   4.157  16.321  0.7159  0.0533  0.2843
  630TMC3    C6 9330   1.380   4.245  16.273 -0.2632 -0.1081 -0.3534
  630TMC3     C 9331   0.969   4.296  16.203  0.2720  0.1159  0.2410
  630TMC3     O 9332   0.897   4.211  16.261 -0.6889  0.2688 -0.7519
  630TMC3     H 9333   1.181   4.444  16.087 -0.9543 -0.3440 -0.3828
  630TMC3    H1 9334   1.079   4.100  16.313 -0.4797 -2.0812 -0.7199
  630TMC3    H2 9335   1.484   4.236  16.303 -0.0745 -1.4493 -1.4076
  630TMC3    C7 9336   1.271   4.144  16.468 -0.5341 -0.3005 -0.2429
  630TMC3    C8 9337   1.396   4.467  16.249  0.3002  0.0814  0.6701
  630TMC3    O1 9338   1.194   4.059  16.514 -0.1476  0.2771 -0.2320
  630TMC3    O2 9339   1.413   4.470  16.371 -0.2173  0.4135  0.0130
  631MPD2     C 9340   3.460   3.917  15.381 -0.1965 -0.2193 -0.2187
  631MPD2    C1 9341   3.553   3.997  15.322 -0.4342  0.3316  0.3547
  631MPD2    C2 9342   3.682   3.992  15.374 -0.0812  0.2695  0.6650
  631MPD2    C3 9343   3.714   3.911  15.483  0.1751  0.2771 -0.5944
  631MPD2    C4 9344   3.619   3.820  15.524 -0.7745  0.3275 -0.1580
  631MPD2    C5 9345   3.495   3.818  15.471 -0.4539 -0.0734  1.3388
  631MPD2     H 9346   3.752   4.065  15.334 -0.8038  1.1816  1.0725
  631MPD2    H1 9347   3.621   3.754  15.610 -0.4197  2.5173  1.5208
  631MPD2    H2 9348   3.356   3.907  15.351 -0.3696 -0.9733  0.6036
  631MPD2    H3 9349   3.421   3.752  15.513 -1.5236  0.2473 -0.0215
  631MPD2     N 9350   3.844   3.927  15.544 -0.1757 -0.6475  0.0869
  631MPD2    H5 9351   3.901   4.005  15.515 -0.0818 -0.1833  1.5450
  631MPD2    N1 9352   3.509   4.093  15.221 -0.4805  0.3552 -0.1240
  631MPD2    H7 9353   3.410   4.114  15.216 -0.1698  2.1050  1.2281
  632TMC3    C1 9354   3.540   4.312  15.133  0.2591 -0.2874  0.3632
  632TMC3    C2 9355   3.446   4.363  15.215 -0.3122  0.6258  0.1620
  632TMC3    C3 9356   3.431   4.497  15.218 -0.0169  0.0042  0.1623
  632TMC3    C4 9357   3.608   4.388  15.053  0.0749  0.2971  0.1201
  632TMC3    C5 9358   3.585   4.527  15.044 -0.1161  0.2782  0.7358
  632TMC3    C6 9359   3.503   4.590  15.141  0.1589  0.7049 -0.9342
  632TMC3     C 9360   3.599   4.179  15.164  0.0983  0.1918 -0.7294
  632TMC3     O 9361   3.713   4.155  15.124 -0.3085 -0.3214 -0.2081
  632TMC3     H 9362   3.380   4.302  15.276  1.0322 -2.6901 -1.7077
  632TMC3    H1 9363   3.695   4.346  15.004 -1.2330 -1.5281 -0.6355
  632TMC3    H2 9364   3.488   4.696  15.130 -2.8720  0.3251 -0.4670
  632TMC3    C7 9365   3.655   4.601  14.943  0.7296 -0.5080  0.3570
  632TMC3    C8 9366   3.375   4.545  15.345  0.0721  0.7159  0.0049
  632TMC3    O1 9367   3.655   4.539  14.838  0.0124 -0.1806  0.1799
  632TMC3    O2 9368   3.288   4.484  15.394  0.0560 -0.1880 -0.0767
  633MPD2     C 9369   3.175   2.303  17.455 -0.1546  0.4216 -0.2070
  633MPD2    C1 9370   3.266   2.234  17.374  0.0796 -0.5922  0.2144
  633MPD2    C2 9371   3.342   2.124  17.416 -0.1927  0.2756  0.1372
  633MPD2    C3 9372   3.320   2.082  17.544 -0.1484  0.8937  0.1733
  633MPD2    C4 9373   3.217   2.135  17.617 -0.1204 -0.1145  0.5876
  633MPD2    C5 9374   3.145   2.243  17.571 -0.2837  0.1253 -0.6354
  633MPD2     H 9375   3.413   2.091  17.341 -0.7647  1.3245 -0.8645
  633MPD2    H1 9376   3.202   2.092   0.017  0.9701  1.7621  1.5851
  633MPD2    H2 9377   3.112   2.386  17.427 -1.7465 -0.7829 -0.2291
  633MPD2    H3 9378   3.072   2.290  17.637  0.6541  1.1778 -0.3492
  633MPD2     N 9379   3.382   1.971  17.597  1.0945 -0.0114  0.6868
  633MPD2    H5 9380   3.343   1.923  17.677 -0.8082  0.1229 -0.1637
  633MPD2    N1 9381   3.294   2.269  17.238 -0.1022 -0.2260  1.0731
  633MPD2    H7 9382   3.344   2.205  17.178 -1.3612 -0.8073  0.6494
  634TMC3    C1 9383   3.259   2.376  17.031 -0.0436 -0.1031 -0.7036
  634TMC3    C2 9384   3.298   2.264  16.962  0.3659  0.0359 -0.1222
  634TMC3    C3 9385   3.322   2.278  16.826  0.1624 -0.2858  0.2007
  634TMC3    C4 9386   3.241   2.494  16.965  0.1813 -0.4726 -0.2222
  634TMC3    C5 9387   3.276   2.508  16.828  0.3161  0.2458  0.1382
  634TMC3    C6 9388   3.318   2.396  16.758 -0.1487 -0.4221 -0.0912
  634TMC3     C 9389   3.247   2.382  17.175  0.3951 -0.3375  0.1139
  634TMC3     O 9390   3.176   2.470  17.224 -0.0325 -0.4188 -0.1863
  634TMC3     H 9391   3.279   2.163  16.997  1.2174 -0.1347 -0.1675
  634TMC3    H1 9392   3.234   2.582  17.028 -0.8931 -0.6347 -0.1213
  634TMC3    H2 9393   3.329   2.397  16.650  1.2601 -1.9705  0.0369
  634TMC3    C7 9394   3.234   2.623  16.746  0.4626 -0.6430 -0.3126
  634TMC3    C8 9395   3.395   2.168  16.770 -0.5549  0.4003 -0.2422
  634TMC3    O1 9396   3.269   2.625  16.628  0.0456 -0.2617  0.3512
  634TMC3    O2 9397   3.410   2.074  16.838  0.2434  0.2569 -0.1867
  635TMC3    C1 9398   4.204   2.638  17.628  0.0434  0.1408 -0.0971
  635TMC3    C2 9399   4.168   2.638  17.494  0.1206 -0.4974 -0.1750
  635TMC3    C3 9400   4.084   2.544  17.454 -0.2708  0.8039  0.1936
  635TMC3    C4 9401   4.176   2.534   0.010  0.6446  0.2404 -0.0627
  635TMC3    C5 9402   4.094   2.437  17.661  0.5281  0.0554 -0.5005
  635TMC3    C6 9403   4.045   2.444  17.536 -0.9458  0.3148 -0.0408
  635TMC3     C 9404   4.263   2.747  17.694 -0.5186 -0.4829 -0.3912
  635TMC3     O 9405   4.259   2.760   0.115 -0.5267 -0.2657 -0.7494
  635TMC3     H 9406   4.207   2.715  17.427  0.9688 -0.2701  0.5800
  635TMC3    H1 9407   4.224   2.525   0.107  0.9037 -0.7589 -0.2861
  635TMC3    H2 9408   3.986   2.360  17.502 -0.4076 -1.3734  3.2409
  635TMC3    C7 9409   4.011   2.367   0.053 -0.3202 -0.1109 -0.7456
  635TMC3    C8 9410   4.059   2.542  17.316  0.1026 -0.2756  0.4381
  635TMC3    O1 9411   3.945   2.273   0.008  0.3792  0.2870  0.3066
  635TMC3    O2 9412   4.062   2.649  17.257 -0.8667  0.3760  0.2811
  636MPD2     C 9413   0.194   2.078  15.434  0.4985 -0.0526  0.1647
  636MPD2    C1 9414   0.277   2.115  15.540  0.6271 -0.4994  0.0171
  636MPD2    C2 9415   0.371   2.029  15.599 -0.7354 -0.9526 -0.3418
  636MPD2    C3 9416   0.396   1.908  15.539 -0.4731 -0.5767  0.2367
  636MPD2    C4 9417   0.307   1.869  15.443 -0.5156  0.4689  0.1286
  636MPD2    C5 9418   0.208   1.950  15.393 -0.4563 -0.1654  0.1388
  636MPD2     H 9419   0.433   2.057  15.684 -1.4846  1.9729 -0.7608
  636MPD2    H1 9420   0.304   1.768  15.404  2.9642  0.7334 -0.8240
  636MPD2    H2 9421   0.111   2.128  15.385  1.0467  1.1013  0.4196
  636MPD2    H3 9422   0.134   1.923  15.319  0.4324 -0.2901 -0.7137
  636MPD2     N 9423   0.504   1.829  15.584 -0.9195 -0.0594  0.1420
  636MPD2    H5 9424   0.562   1.875  15.654  0.3268  1.6400 -2.0154
  636MPD2    N1 9425   0.271   2.242  15.593 -0.5182 -0.1871  0.4575
  636MPD2    H7 9426   0.335   2.251  15.671 -0.2325  2.5654 -0.0863
  637TMC3    C1 9427   0.666   1.649  15.589 -0.7385  0.2760  0.9483
  637TMC3    C2 9428   0.650   1.603  15.724 -0.1984 -0.4603 -0.0475
  637TMC3    C3 9429   0.748   1.645  15.809 -0.4812  0.0888 -0.2193
  637TMC3    C4 9430   0.774   1.722  15.548  0.2426  0.8497 -0.3713
  637TMC3    C5 9431   0.876   1.741  15.629  0.3567 -0.2731 -0.4090
  637TMC3    C6 9432   0.859   1.712  15.762 -0.5684  0.2491 -0.9380
  637TMC3     C 9433   0.546   1.701  15.531 -0.6092  0.0958 -0.3402
  637TMC3     O 9434   0.491   1.635  15.446 -0.5647  0.0789 -0.0847
  637TMC3     H 9435   0.565   1.549  15.764  0.3386 -1.7776 -0.7014
  637TMC3    H1 9436   0.792   1.728  15.441 -0.2443  1.7942 -0.3984
  637TMC3    H2 9437   0.950   1.717  15.821 -0.5671  0.8057 -0.9895
  637TMC3    C7 9438   0.947   1.866  15.620 -0.7248 -0.5311 -0.0476
  637TMC3    C8 9439   0.693   1.710  15.925 -0.3056  0.0894  0.2062
  637TMC3    O1 9440   0.958   1.922  15.727 -0.0864 -0.4073  0.1244
  637TMC3    O2 9441   0.582   1.677  15.971 -0.0478 -0.0715  0.3080
  638MPD2     C 9442   4.476   1.864  14.901 -0.1485 -0.1061 -0.4346
  638MPD2    C1 9443   4.534   1.751  14.841  0.0564  0.4839 -0.2562
  638MPD2    C2 9444   4.536   1.628  14.906 -0.3234 -0.4016  0.3114
  638MPD2    C3 9445   4.469   1.620  15.027  0.3303  0.2333  0.0152
  638MPD2    C4 9446   4.400   1.726  15.080 -0.1719 -0.2371 -0.0218
  638MPD2    C5 9447   4.402   1.853  15.016  0.2958 -0.2700 -0.2876
  638MPD2     H 9448   4.583   1.540  14.863 -1.3253 -0.7255 -0.1398
  638MPD2    H1 9449   4.346   1.721  15.173 -0.2162 -0.6447 -0.0677
  638MPD2    H2 9450   4.480   1.962  14.855 -1.1869  0.3845  0.5176
  638MPD2    H3 9451   4.353   1.937  15.064  1.4592  0.2691 -0.0436
  638MPD2     N 9452   4.471   1.494  15.094  0.8183  0.5345  0.5957
  638MPD2    H5 9453   4.528   1.417  15.061 -1.1375 -0.9785  0.7574
  638MPD2    N1 9454   4.601   1.771  14.721  0.1870 -0.2368 -0.6893
  638MPD2    H7 9455   4.605   1.867  14.688  1.3842  0.3260  1.0944
  639TMC3    C1 9456   4.418   1.330  15.252  0.2590  0.1899  0.9960
  639TMC3    C2 9457   4.302   1.256  15.247 -0.0828 -0.4988 -0.4359
  639TMC3    C3 9458   4.318   1.124  15.256  0.3459  0.2584 -0.4849
  639TMC3    C4 9459   4.545   1.280  15.246  0.6400 -0.2971 -0.3494
  639TMC3    C5 9460   4.563   1.149  15.266 -0.2573  0.3407  0.2577
  639TMC3    C6 9461   4.449   1.066  15.278  0.4212  0.1157  0.0626
  639TMC3     C 9462   4.392   1.462  15.205  0.2880 -0.5554 -0.7324
  639TMC3     O 9463   4.297   1.517  15.255  0.6351 -0.3834  0.6302
  639TMC3     H 9464   4.211   1.308  15.221  0.7461  0.5859 -1.1727
  639TMC3    H1 9465   4.632   1.345  15.247  0.3277  0.0961  1.7431
  639TMC3    H2 9466   4.461   0.960  15.297 -1.0245  0.1201  0.9615
  639TMC3    C7 9467   4.686   1.092  15.244 -0.1579  0.1252 -0.3750
  639TMC3    C8 9468   4.225   1.053  15.175  1.0196 -0.0431  0.0373
  639TMC3    O1 9469   4.685   0.971  15.258 -0.1024 -0.2136  0.0333
  639TMC3    O2 9470   4.271   0.967  15.101 -0.7163  0.0597  0.6124
  640MPD2     C 9471   0.086   4.674  10.128  0.0615 -0.7677  0.1976
  640MPD2    C1 9472   4.708   4.688  10.037  0.0730  0.1039 -0.3455
  640MPD2    C2 9473   4.647   0.082  10.026  0.2412  0.5153  0.5436
  640MPD2    C3 9474   4.692   0.191  10.097 -0.6144 -0.0976 -0.3756
  640MPD2    C4 9475   0.069   0.172  10.190 -0.3760 -0.3159  0.8297
  640MPD2    C5 9476   0.124   0.047  10.213 -0.3177 -0.5509 -0.1983
  640MPD2     H 9477   4.574   0.092   9.946  1.3807 -2.6384 -0.8741
  640MPD2    H1 9478   0.101   0.257  10.248 -1.0381 -0.3713  1.2747
  640MPD2    H2 9479   0.131   4.576  10.144  2.9719  0.4683 -0.3533
  640MPD2    H3 9480   0.197   0.019  10.288  1.1103  0.3288 -1.2541
  640MPD2     N 9481   4.637   0.326  10.080 -0.2474 -0.7166 -0.3521
  640MPD2    H5 9482   4.673   0.397  10.143 -3.8136 -0.0646  0.9678
  640MPD2    N1 9483   4.665   4.575   9.966 -1.2336 -0.2467  0.3636
  640MPD2    H7 9484   4.714   4.494  10.002 -1.5986 -0.6192  0.0216
  641TMC3    C1 9485   4.570   4.432   9.812  0.0467 -0.2442  0.3418
  641TMC3    C2 9486   4.668   4.347   9.845 -0.2215  0.3411  0.7531
  641TMC3    C3 9487   4.643   4.215   9.804  0.1257 -0.3181 -0.0570
  641TMC3    C4 9488   4.455   4.403   9.734  0.2210  0.5668 -0.0549
  641TMC3    C5 9489   4.442   4.274   9.691  0.6643  0.3040  0.2709
  641TMC3    C6 9490   4.526   4.179   9.733 -0.1902 -0.2440  0.2062
  641TMC3     C 9491   4.558   4.557   9.876  0.0464 -0.2387 -0.2034
  641TMC3     O 9492   4.474   4.640   9.837 -0.3565  0.6058 -0.2801
  641TMC3     H 9493   0.041   4.374   9.886  0.1436 -0.6846  0.5743
  641TMC3    H1 9494   4.382   4.478   9.706 -0.3184  0.0619  0.0035
  641TMC3    H2 9495   4.501   4.076   9.711 -1.2535  0.0924 -0.1725
  641TMC3    C7 9496   4.326   4.231   9.619  0.2783 -0.3107 -0.9046
  641TMC3    C8 9497   0.026   4.115   9.794 -0.0975  0.6699  0.0367
  641TMC3    O1 9498   4.323   4.115   9.587  0.1848 -0.2783 -0.0743
  641TMC3    O2 9499   0.003   4.011   9.733 -0.3169 -0.1473 -0.3916
  642TMC3    C1 9500   1.369   1.419  12.486  0.0098 -0.1678 -0.4271
  642TMC3    C2 9501   1.391   1.409  12.623 -0.4736  0.0502  0.1603
  642TMC3    C3 9502   1.441   1.296  12.673 -0.1055 -0.1280 -0.0676
  642TMC3    C4 9503   1.387   1.311  12.405  0.1585  0.3622  0.1146
  642TMC3    C5 9504   1.431   1.193  12.466 -0.6968 -0.1135  0.3510
  642TMC3    C6 9505   1.454   1.190  12.598 -0.3175 -0.0017  0.2953
  642TMC3     C 9506   1.293   1.530  12.437 -0.0763 -0.3147 -0.8643
  642TMC3     O 9507   1.321   1.572  12.327 -0.1901 -0.9179 -0.2422
  642TMC3     H 9508   1.398   1.503  12.677  1.3415  0.5512 -0.9249
  642TMC3    H1 9509   1.357   1.319  12.301  0.3941  1.8003  0.1629
  642TMC3    H2 9510   1.502   1.104  12.643 -0.0318 -0.5450 -1.0291
  642TMC3    C7 9511   1.379   1.074  12.397 -0.0157  0.1401 -0.2878
  642TMC3    C8 9512   1.474   1.285  12.813 -0.4029  0.8113  0.1243
  642TMC3    O1 9513   1.361   1.077  12.274 -0.6153  0.1855  0.4532
  642TMC3    O2 9514   1.560   1.200  12.841 -0.1604  0.5351 -0.0133
  643TMC3    C1 9515   0.359   0.382  17.484 -0.4066  0.1530  0.4880
  643TMC3    C2 9516   0.262   0.443  17.408 -0.0856 -0.1284 -0.1487
  643TMC3    C3 9517   0.291   0.457  17.276  0.3545 -0.1766 -0.3514
  643TMC3    C4 9518   0.473   0.332  17.439  0.5784  0.5996  0.2591
  643TMC3    C5 9519   0.500   0.354  17.303 -0.2103 -0.2799 -0.4853
  643TMC3    C6 9520   0.405   0.408  17.219 -0.3073 -0.3068  0.4223
  643TMC3     C 9521   0.333   0.402  17.622  0.0149 -0.1964 -0.0705
  643TMC3     O 9522   0.226   0.447  17.658  0.3162 -0.4028  0.4240
  643TMC3     H 9523   0.176   0.487  17.457 -1.2091 -2.4052 -0.1126
  643TMC3    H1 9524   0.542   0.282  17.506  2.3953  0.0957 -1.9994
  643TMC3    H2 9525   0.425   0.425  17.114  0.7090 -0.5955  0.5736
  643TMC3    C7 9526   0.629   0.328  17.241 -0.7084 -0.1037 -0.6075
  643TMC3    C8 9527   0.229   0.567  17.207 -0.4365  0.0816 -0.0857
  643TMC3    O1 9528   0.628   0.341  17.116 -0.0165 -0.5396  0.1843
  643TMC3    O2 9529   0.260   0.570  17.087 -0.3123 -0.2965  0.3110
  644MPD2     C 9530   0.169   0.528   9.672 -0.5507 -0.2644 -0.0606
  644MPD2    C1 9531   0.075   0.432   9.691 -0.0414  0.1036 -0.0077
  644MPD2    C2 9532   4.664   0.468   9.694 -0.0121  0.2993 -0.1350
  644MPD2    C3 9533   4.626   0.601   9.693  0.0874  0.0397  0.2842
  644MPD2    C4 9534   0.005   0.701   9.666 -0.8685  0.5002  0.3097
  644MPD2    C5 9535   0.137   0.657   9.654 -0.3813 -0.6074  0.3832
  644MPD2     H 9536   4.586   0.393   9.696  0.7143 -0.4533 -0.1933
  644MPD2    H1 9537   4.708   0.808   9.668  0.1684  0.6926  1.2179
  644MPD2    H2 9538   0.272   0.499   9.657 -0.9339 -1.1852 -0.9146
  644MPD2    H3 9539   0.217   0.729   9.638 -1.1738  0.3761  0.8314
  644MPD2     N 9540   4.489   0.642   9.691 -0.0329  0.1280 -0.5854
  644MPD2    H5 9541   4.425   0.563   9.700  1.5107 -0.8949  1.3564
  644MPD2    N1 9542   0.120   0.298   9.707  0.1926 -0.0194 -0.1411
  644MPD2    H7 9543   0.219   0.277   9.697  0.1695  0.1927 -0.8196
  645TMC3    C1 9544   4.291   0.756   9.646 -0.4901 -0.5365  0.3469
  645TMC3    C2 9545   4.242   0.848   9.561 -0.3172 -0.2368 -0.4817
  645TMC3    C3 9546   4.107   0.832   9.527  0.6152 -0.0729  0.3826
  645TMC3    C4 9547   4.227   0.648   9.693 -0.3349  0.1691  0.5580
  645TMC3    C5 9548   4.102   0.623   9.648  0.1033  0.0945  0.0430
  645TMC3    C6 9549   4.036   0.719   9.571 -0.3420  0.1982 -0.2223
  645TMC3     C 9550   4.434   0.767   9.679  0.4134 -0.3579  0.6785
  645TMC3     O 9551   4.489   0.873   9.669 -0.3306 -0.4013  0.3396
  645TMC3     H 9552   4.294   0.941   9.541  0.2346 -0.4030  0.2068
  645TMC3    H1 9553   4.269   0.590   9.775  2.7603  0.8381 -0.5459
  645TMC3    H2 9554   3.935   0.693   9.541 -0.3344 -1.2128  0.9922
  645TMC3    C7 9555   4.015   0.521   9.705 -0.7811 -0.0022 -0.5827
  645TMC3    C8 9556   4.083   0.896   9.400  0.0965  0.4421  0.5692
  645TMC3    O1 9557   3.897   0.532   9.715 -0.3933  0.1035  0.3522
  645TMC3    O2 9558   4.174   0.954   9.347 -0.3997  0.0869  0.7905
  646MPD2     C 9559   4.678   0.465  14.560 -0.2166  0.2895  0.1526
  646MPD2    C1 9560   4.579   0.389  14.617 -0.5956  0.7490  0.1764
  646MPD2    C2 9561   4.455   0.446  14.629 -0.0945  0.2801 -0.3207
  646MPD2    C3 9562   4.424   0.568  14.561  0.1728 -0.6022 -0.1134
  646MPD2    C4 9563   4.522   0.635  14.490  0.5721 -0.0639 -0.4537
  646MPD2    C5 9564   4.656   0.590  14.496 -0.0962  0.8237 -0.8497
  646MPD2     H 9565   4.376   0.395  14.682 -0.5730 -0.5156 -1.7929
  646MPD2    H1 9566   4.500   0.719  14.425  2.0234  0.6189 -0.0644
  646MPD2    H2 9567   0.051   0.419  14.543 -1.5842 -2.9593  1.2043
  646MPD2    H3 9568   4.723   0.647  14.432 -0.5592 -0.2719 -2.2992
  646MPD2     N 9569   4.284   0.586  14.552 -0.3472  0.0902  0.6042
  646MPD2    H5 9570   4.233   0.545  14.629  1.5616 -0.2125  1.7029
  646MPD2    N1 9571   4.614   0.258  14.667 -0.0766  0.3707 -0.0358
  646MPD2    H7 9572   4.712   0.229  14.661  0.0541  0.6730  0.6269
  647TMC3    C1 9573   4.607   0.058  14.770 -0.3962  0.0595  0.1574
  647TMC3    C2 9574   4.529   4.671  14.798  0.0236  0.3713 -0.2527
  647TMC3    C3 9575   4.588   4.565  14.853 -0.1561 -0.0292  0.1153
  647TMC3    C4 9576   0.019   0.066  14.802 -0.4590  0.2754 -0.4723
  647TMC3    C5 9577   0.067   4.682  14.862  0.2135  0.3954 -0.1444
  647TMC3    C6 9578   4.719   4.567  14.879  0.1601  0.1176 -0.6032
  647TMC3     C 9579   4.535   0.176  14.738 -0.0459  0.6513  0.2129
  647TMC3     O 9580   4.414   0.175  14.742  0.8196  0.1854  0.3143
  647TMC3     H 9581   4.422   4.683  14.805  0.0005  0.1505 -0.2354
  647TMC3    H1 9582   0.077   0.156  14.783  1.8137 -1.1734 -0.3435
  647TMC3    H2 9583   0.039   4.484  14.932  1.2343 -0.7653 -2.8971
  647TMC3    C7 9584   0.202   4.662  14.901  0.0374 -0.4309 -0.1200
  647TMC3    C8 9585   4.503   4.456  14.895 -0.3531  0.2576  0.1540
  647TMC3    O1 9586   0.232   4.627  15.015 -0.2910 -0.0431 -0.0300
  647TMC3    O2 9587   4.557   4.370  14.968  0.4771  0.4211  0.2570
  648TMC3    C1 9588   3.736   2.481  15.985  0.2800 -0.1831 -0.5850
  648TMC3    C2 9589   3.760   2.362  15.926 -0.6867  0.1866 -0.1122
  648TMC3    C3 9590   3.696   2.344  15.801  0.0939  0.2768 -0.1585
  648TMC3    C4 9591   3.661   2.582  15.925 -0.2364 -0.5270  0.7277
  648TMC3    C5 9592   3.618   2.562  15.798  0.5340 -0.6688  0.0727
  648TMC3    C6 9593   3.628   2.443  15.733  0.3580 -0.0679 -0.2948
  648TMC3     C 9594   3.753   2.499  16.126  0.1822 -0.4963  0.5304
  648TMC3     O 9595   3.752   2.613  16.162  0.2611  0.6939  0.0506
  648TMC3     H 9596   3.814   2.284  15.978  1.4712  2.7793  1.5178
  648TMC3    H1 9597   3.639   2.672  15.982 -0.8022  0.8203 -1.6115
  648TMC3    H2 9598   3.601   2.441  15.628 -1.9083 -1.0028  0.2939
  648TMC3    C7 9599   3.558   2.670  15.720  0.4202 -0.2724 -0.1333
  648TMC3    C8 9600   3.683   2.215  15.746 -0.2848 -0.2460 -0.2697
  648TMC3    O1 9601   3.544   2.659  15.599 -0.3608  0.1077 -0.1638
  648TMC3    O2 9602   3.593   2.202  15.667  0.6169 -0.3185  0.7497
  649TMC3    C1 9603   2.563   3.212  12.865 -0.2119 -0.1257  0.4688
  649TMC3    C2 9604   2.671   3.133  12.855  0.0140 -0.5962  0.2969
  649TMC3    C3 9605   2.674   3.030  12.946 -0.1462  0.5813 -0.2028
  649TMC3    C4 9606   2.452   3.184  12.943 -0.4691  0.7283 -0.3943
  649TMC3    C5 9607   2.459   3.070  13.024 -0.2732  0.7823 -0.8954
  649TMC3    C6 9608   2.571   2.991  13.023  0.4418  0.2771  0.0616
  649TMC3     C 9609   2.547   3.333  12.793  0.1935  0.2424 -0.2070
  649TMC3     O 9610   2.433   3.375  12.789  0.2168 -0.3796  0.2314
  649TMC3     H 9611   2.756   3.148  12.789 -1.0094 -1.1863 -1.1510
  649TMC3    H1 9612   2.365   3.248  12.953 -1.6767 -0.5255 -2.6100
  649TMC3    H2 9613   2.584   2.916  13.100  2.1193 -0.5143 -0.9991
  649TMC3    C7 9614   2.387   3.075  13.149 -0.3919  0.5592  0.0912
  649TMC3    C8 9615   2.800   2.962  12.975  0.3080 -0.7569  0.5394
  649TMC3    O1 9616   2.345   3.185  13.184 -0.6293  0.4950 -0.0160
  649TMC3    O2 9617   2.796   2.840  13.014  0.1063 -0.5506  0.1271
  650TMC3    C1 9618   0.532   0.567  12.831 -0.2032  0.0280 -0.1238
  650TMC3    C2 9619   0.528   0.704  12.803  0.7102 -0.3018 -0.3697
  650TMC3    C3 9620   0.462   0.742  12.685 -0.3386  0.3139 -0.0497
  650TMC3    C4 9621   0.468   0.477  12.751 -0.0498  0.0959  0.5398
  650TMC3    C5 9622   0.394   0.518  12.644  1.0148 -0.6251  0.0374
  650TMC3    C6 9623   0.398   0.652  12.611 -0.1561 -0.7836  0.0700
  650TMC3     C 9624   0.579   0.533  12.965 -0.0288 -0.7192 -0.0479
  650TMC3     O 9625   0.614   0.625  13.036  0.2896  0.0433  0.3411
  650TMC3     H 9626   0.580   0.776  12.864 -1.2079 -0.4404  1.4377
  650TMC3    H1 9627   0.459   0.373  12.780  0.2595  0.5232  2.1470
  650TMC3    H2 9628   0.345   0.684  12.522 -0.5213  0.1975  0.6303
  650TMC3    C7 9629   0.314   0.424  12.567 -0.0782 -0.8409  0.1624
  650TMC3    C8 9630   0.429   0.884  12.669  0.3081  0.3446  0.1594
  650TMC3    O1 9631   0.342   0.307  12.580 -0.3018  0.1404 -0.8113
  650TMC3    O2 9632   0.528   0.958  12.694  0.0882 -0.4875 -0.2219
  651MPD2     C 9633   4.397   1.947  10.706  0.4524 -0.5811 -0.0451
  651MPD2    C1 9634   4.359   2.073  10.658 -1.3111 -0.6316  0.1357
  651MPD2    C2 9635   4.452   2.164  10.625 -0.5136  0.6204 -1.1014
  651MPD2    C3 9636   4.584   2.134  10.645  0.5205 -0.0277 -0.0591
  651MPD2    C4 9637   4.622   2.010  10.694 -0.2074 -0.1408 -0.0154
  651MPD2    C5 9638   4.529   1.919  10.717 -0.6873  0.5636  0.4939
  651MPD2     H 9639   4.421   2.265  10.599  0.0871  0.6640 -1.6545
  651MPD2    H1 9640   0.001   1.980  10.712 -1.2813 -1.5859  3.6099
  651MPD2    H2 9641   4.318   1.878  10.734 -1.0961  0.7889 -0.9838
  651MPD2    H3 9642   4.551   1.817  10.747 -2.4664  0.1720  0.4902
  651MPD2     N 9643   4.679   2.243  10.633  0.2454  0.4628  0.2468
  651MPD2    H5 9644   4.640   2.332  10.604  2.5227  2.1923  2.5068
  651MPD2    N1 9645   4.221   2.107  10.628 -0.2350  0.2348 -0.5303
  651MPD2    H7 9646   4.203   2.201  10.595  3.3387  0.5113 -1.6699
  652TMC3    C1 9647   0.366   2.441  10.684 -0.0343  0.4457 -0.1357
  652TMC3    C2 9648   0.302   2.334  10.628 -0.1684  0.3215 -0.1629
  652TMC3    C3 9649   0.165   2.352  10.637  0.2479  0.5693  0.0005
  652TMC3    C4 9650   0.313   2.555  10.737  0.7643 -0.0064 -0.2449
  652TMC3    C5 9651   0.177   2.567  10.725 -0.4628  0.7138  0.1221
  652TMC3    C6 9652   0.105   2.458  10.696  0.0891  0.0443 -0.3964
  652TMC3     C 9653   0.495   2.414  10.737  0.5853  0.1057  0.3528
  652TMC3     O 9654   0.500   2.448  10.857  0.3473  0.0244  0.0890
  652TMC3     H 9655   0.343   2.256  10.566  2.8558  0.8412  1.1274
  652TMC3    H1 9656   0.371   2.615  10.806  0.6535 -1.2834  0.9472
  652TMC3    H2 9657   4.723   2.457  10.716  0.2579 -0.4738  0.4691
  652TMC3    C7 9658   0.117   2.664  10.816 -0.5875 -0.1131  0.2333
  652TMC3    C8 9659   0.092   2.228  10.655 -0.0779 -0.0755  0.5781
  652TMC3    O1 9660   0.003   2.642  10.861 -0.1008 -0.7747  0.6094
  652TMC3    O2 9661   0.163   2.130  10.670 -0.3310 -0.1505 -0.5976
  653MPD2     C 9662   2.764   2.454  17.689  0.2090 -0.4879 -0.3903
  653MPD2    C1 9663   2.738   2.549  17.592  0.4446 -0.6672  0.1253
  653MPD2    C2 9664   2.708   2.516  17.460 -0.9302 -0.9308  0.4691
  653MPD2    C3 9665   2.688   2.381  17.427  0.3712 -0.4689 -0.4757
  653MPD2    C4 9666   2.718   2.285  17.524  0.0914 -0.2076  0.6002
  653MPD2    C5 9667   2.754   2.326  17.651  0.8624  0.6409 -0.5524
  653MPD2     H 9668   2.693   2.596  17.389  0.9664 -0.6733  0.3689
  653MPD2    H1 9669   2.701   2.180  17.505  1.1517 -0.0922 -1.0083
  653MPD2    H2 9670   2.800   2.471   0.091 -0.7079  2.0883 -0.5105
  653MPD2    H3 9671   2.754   2.249   0.029  1.0154  1.3461  0.1691
  653MPD2     N 9672   2.644   2.342  17.294  0.8322  0.0779  0.8091
  653MPD2    H5 9673   2.601   2.414  17.238  1.4935 -0.2461 -0.1319
  653MPD2    N1 9674   2.744   2.689  17.625 -0.1462 -0.4181 -0.7228
  653MPD2    H7 9675   2.718   2.750  17.548  1.3305  0.6604 -0.3595
  654TMC3    C1 9676   2.589   2.204  17.118  0.6380 -0.2446  0.3422
  654TMC3    C2 9677   2.479   2.278  17.085 -0.3369 -0.1292 -0.2402
  654TMC3    C3 9678   2.419   2.258  16.956  0.0653 -0.0777 -0.3744
  654TMC3    C4 9679   2.636   2.105  17.036  0.2460 -0.7343 -0.4617
  654TMC3    C5 9680   2.576   2.083  16.915 -0.1342  0.3422 -0.3992
  654TMC3    C6 9681   2.468   2.158  16.874 -0.7828  0.3279 -0.3120
  654TMC3     C 9682   2.646   2.211  17.247 -0.2804 -0.6033 -0.1192
  654TMC3     O 9683   2.681   2.110  17.303  0.6510  0.0169 -0.2271
  654TMC3     H 9684   2.445   2.362  17.143 -1.2577  0.1056 -1.1155
  654TMC3    H1 9685   2.728   2.055  17.064  0.1175 -0.0474  1.1712
  654TMC3    H2 9686   2.426   2.141  16.776  0.6103  1.9275 -1.1837
  654TMC3    C7 9687   2.625   1.997  16.822  0.3870  0.3334 -0.0745
  654TMC3    C8 9688   2.280   2.294  16.952 -0.1755  0.3312  0.1229
  654TMC3    O1 9689   2.615   2.045  16.709 -0.0915  0.7192  0.5860
  654TMC3    O2 9690   2.248   2.375  17.034 -0.4081  0.3190 -0.1180
  655MPD2     C 9691   3.916   2.705  15.696 -0.5980  0.3083  0.9109
  655MPD2    C1 9692   3.867   2.799  15.610  0.1625 -0.4328 -0.1715
  655MPD2    C2 9693   3.889   2.782  15.478  0.1883  0.1718  0.5827
  655MPD2    C3 9694   3.951   2.663  15.436  0.4815 -0.6335 -0.0260
  655MPD2    C4 9695   4.003   2.572  15.521  0.6847 -0.3616  0.6223
  655MPD2    C5 9696   3.977   2.591  15.651  0.0077 -0.0169 -0.3204
  655MPD2     H 9697   3.861   2.854  15.402  4.6372  1.7040  0.3978
  655MPD2    H1 9698   4.062   2.490  15.483  1.5945  0.8714 -0.6118
  655MPD2    H2 9699   3.896   2.716  15.802  0.1506 -2.0810  1.3034
  655MPD2    H3 9700   4.009   2.520  15.726  2.0260 -0.5784 -1.7053
  655MPD2     N 9701   3.967   2.643  15.297 -0.2644  0.7392  0.2232
  655MPD2    H5 9702   4.036   2.575  15.266  0.0877  0.4470  1.6374
  655MPD2    N1 9703   3.805   2.920  15.644 -0.5099  0.4014  0.1533
  655MPD2    H7 9704   3.757   2.968  15.569 -0.1220 -1.1995 -1.1330
  656TMC3    C1 9705   3.746   3.103  15.777  0.0266  0.0975  0.3000
  656TMC3    C2 9706   3.701   3.122  15.905  0.3108 -0.1132  0.2122
  656TMC3    C3 9707   3.625   3.237  15.917  0.1827 -0.2264 -0.3087
  656TMC3    C4 9708   3.706   3.182  15.665  0.1910  0.2291  0.1042
  656TMC3    C5 9709   3.624   3.293  15.685 -0.3636  0.0122  0.2090
  656TMC3    C6 9710   3.583   3.317  15.812  0.0922 -0.0806  0.0146
  656TMC3     C 9711   3.821   2.981  15.765  0.3066 -0.1491  0.2696
  656TMC3     O 9712   3.873   2.930  15.866  0.6193 -0.4664 -0.4300
  656TMC3     H 9713   3.742   3.057  15.982 -0.5059 -2.6829 -1.5201
  656TMC3    H1 9714   3.747   3.156  15.568 -1.9427 -1.0980 -0.4397
  656TMC3    H2 9715   3.502   3.381  15.845  0.2465  0.3385 -0.4093
  656TMC3    C7 9716   3.552   3.345  15.574 -0.0923 -0.4817 -0.7747
  656TMC3    C8 9717   3.554   3.240  16.042  1.0648  0.2370  0.2198
  656TMC3    O1 9718   3.586   3.319  15.464  0.1611  0.3718 -0.1866
  656TMC3    O2 9719   3.508   3.345  16.086  0.3301 -0.1788  0.1303
  657TMC3    C1 9720   3.125   1.991  15.060 -0.2321 -0.0428 -0.9158
  657TMC3    C2 9721   3.193   1.931  15.168 -0.4286 -0.5271 -0.1523
  657TMC3    C3 9722   3.183   1.996  15.287 -0.2660 -0.8949  0.1119
  657TMC3    C4 9723   3.052   2.109  15.076  0.0896  0.2075  0.6699
  657TMC3    C5 9724   3.055   2.176  15.199 -0.2064  0.2482 -0.2126
  657TMC3    C6 9725   3.113   2.111  15.306 -0.4078  0.1848 -0.0688
  657TMC3     C 9726   3.164   1.964  14.927 -0.1280  0.0236 -0.0747
  657TMC3     O 9727   3.110   2.017  14.829  0.4177 -0.1212 -0.7997
  657TMC3     H 9728   3.227   1.829  15.151 -0.5572 -0.8280  1.4166
  657TMC3    H1 9729   2.993   2.152  14.996  0.6641  0.5892  0.4554
  657TMC3    H2 9730   3.086   2.142  15.406  1.5699  0.8273  0.2541
  657TMC3    C7 9731   2.981   2.295  15.227 -1.1252  0.3344 -0.1856
  657TMC3    C8 9732   3.216   1.916  15.407 -0.4087 -0.5342 -0.2123
  657TMC3    O1 9733   2.999   2.344  15.335 -0.0764  0.2310  0.2521
  657TMC3    O2 9734   3.142   1.931  15.501 -0.1087 -0.4021  0.7617
  658MPD2     C 9735   4.460   2.608  14.782  0.3531  0.2181  0.6266
  658MPD2    C1 9736   4.333   2.647  14.747 -0.1057  0.6964 -0.2296
  658MPD2    C2 9737   4.326   2.731  14.635 -0.0175  0.5848  0.1936
  658MPD2    C3 9738   4.438   2.762  14.562 -0.5130  0.1108  0.3574
  658MPD2    C4 9739   4.560   2.729  14.607  0.2215 -0.3199  0.1780
  658MPD2    C5 9740   4.570   2.653  14.721  0.2091 -0.2174  0.0849
  658MPD2     H 9741   4.229   2.759  14.597 -0.4394 -2.9327 -1.3147
  658MPD2    H1 9742   4.653   2.755  14.558  0.7046  1.4499  1.9757
  658MPD2    H2 9743   4.488   2.538  14.859 -0.9842  0.2468  1.1465
  658MPD2    H3 9744   4.671   2.624  14.746  1.0644  0.2003 -2.8789
  658MPD2     N 9745   4.416   2.835  14.448  0.3426  0.3248  0.1591
  658MPD2    H5 9746   4.320   2.834  14.415  0.1842  0.4941  0.6148
  658MPD2    N1 9747   4.223   2.603  14.821 -0.0090 -0.6197 -0.5203
  658MPD2    H7 9748   4.248   2.555  14.907  1.7215  0.9494 -0.1297
  659TMC3    C1 9749   3.994   2.560  14.876 -0.7666  0.6131  0.1447
  659TMC3    C2 9750   3.997   2.608  15.004  0.7626 -0.6980  0.0141
  659TMC3    C3 9751   3.876   2.623  15.076  0.2256 -0.0438 -0.0226
  659TMC3    C4 9752   3.870   2.538  14.812  0.2209  0.5637  0.5800
  659TMC3    C5 9753   3.751   2.568  14.874 -0.2055 -0.1005  0.0365
  659TMC3    C6 9754   3.752   2.607  15.011 -0.5693 -0.1075 -0.2923
  659TMC3     C 9755   4.094   2.601  14.780 -0.2538 -0.2489 -1.1854
  659TMC3     O 9756   4.053   2.622  14.664 -0.0220 -0.3580  0.0472
  659TMC3     H 9757   4.081   2.666  15.040  1.5797 -1.7925 -0.1370
  659TMC3    H1 9758   3.881   2.489  14.716  4.2522  0.0370  1.3123
  659TMC3    H2 9759   3.666   2.624  15.074 -0.4005  0.0526 -0.1081
  659TMC3    C7 9760   3.626   2.560  14.807  0.1708  0.7818 -0.2263
  659TMC3    C8 9761   3.866   2.675  15.212 -0.4637 -0.3428  0.0858
  659TMC3    O1 9762   3.529   2.597  14.870  0.2970  0.1788 -0.0603
  659TMC3    O2 9763   3.759   2.728  15.236  0.1909  0.9086  0.0075
  660MPD2     C 9764   2.776   1.479  12.835  0.1702  0.1001  0.4796
  660MPD2    C1 9765   2.654   1.437  12.795 -0.3713  0.1306  0.2102
  660MPD2    C2 9766   2.591   1.340  12.868 -0.1564 -0.5127  0.7612
  660MPD2    C3 9767   2.655   1.278  12.980 -0.4902  0.2399 -0.0608
  660MPD2    C4 9768   2.784   1.322  13.018 -0.1558 -0.2778  0.4853
  660MPD2    C5 9769   2.834   1.431  12.951  0.1366  0.5041  0.5398
  660MPD2     H 9770   2.494   1.300  12.841 -0.8858  0.9531  1.2193
  660MPD2    H1 9771   2.838   1.273  13.099 -1.2672 -0.2038  1.2704
  660MPD2    H2 9772   2.827   1.555  12.777  0.2146 -0.3884 -0.1254
  660MPD2    H3 9773   2.933   1.465  12.979  0.7550 -2.1091  1.4428
  660MPD2     N 9774   2.600   1.171  13.059 -0.1256  0.5517 -0.2094
  660MPD2    H5 9775   2.661   1.134  13.131 -0.9685 -0.7498 -0.1572
  660MPD2    N1 9776   2.598   1.500  12.683  0.8088  0.2292  0.6240
  660MPD2    H7 9777   2.652   1.570  12.633  1.1934 -1.7829 -1.8079
  661TMC3    C1 9778   2.444   1.548  12.518 -0.7175  0.2818  0.3496
  661TMC3    C2 9779   2.523   1.519  12.411 -0.0538  0.1798  0.5935
  661TMC3    C3 9780   2.461   1.526  12.288  0.1499  0.4792  0.8516
  661TMC3    C4 9781   2.315   1.574  12.509  0.7743 -0.1068 -0.6775
  661TMC3    C5 9782   2.253   1.579  12.389  0.1403 -0.0321  0.4040
  661TMC3    C6 9783   2.325   1.560  12.275 -0.8529 -0.7076  0.4112
  661TMC3     C 9784   2.469   1.487  12.646  0.7481  1.0462  0.3254
  661TMC3     O 9785   2.379   1.424  12.694  0.2386  0.7297  0.1850
  661TMC3     H 9786   2.612   1.457  12.421  1.8919  3.0746  1.2507
  661TMC3    H1 9787   2.262   1.598  12.601  0.0464 -0.9994 -0.8670
  661TMC3    H2 9788   2.269   1.553  12.183 -1.0752 -1.7348  0.6252
  661TMC3    C7 9789   2.110   1.559  12.402 -0.0227  0.1774 -0.1778
  661TMC3    C8 9790   2.533   1.557  12.170 -0.0499 -0.0098  0.0242
  661TMC3    O1 9791   2.066   1.538  12.518  0.0091  0.2193  0.0344
  661TMC3    O2 9792   2.635   1.486  12.152 -0.2002  0.3312 -0.1825
  662MPD2     C 9793   3.104   0.641  17.296  0.4659  0.8345  0.3854
  662MPD2    C1 9794   2.998   0.593  17.369 -0.3554 -0.3018 -0.2092
  662MPD2    C2 9795   2.874   0.652  17.365  0.2516  0.1897  0.4732
  662MPD2    C3 9796   2.844   0.740  17.262  0.4562 -0.0351  0.1308
  662MPD2    C4 9797   2.948   0.794  17.191  0.5115 -0.2192 -0.3873
  662MPD2    C5 9798   3.077   0.745  17.212 -0.2570  0.0310  0.2787
  662MPD2     H 9799   2.799   0.623  17.437 -0.6746  2.4852  0.4559
  662MPD2    H1 9800   2.923   0.865  17.113  1.0135 -0.0347 -0.3782
  662MPD2    H2 9801   3.209   0.615  17.309  0.3570  0.1486 -0.1539
  662MPD2    H3 9802   3.164   0.786  17.162 -0.7403 -0.3856 -0.8940
  662MPD2     N 9803   2.712   0.800  17.240  0.9979 -0.1391 -0.4274
  662MPD2    H5 9804   2.707   0.874  17.170 -1.0823 -1.7344 -1.9476
  662MPD2    N1 9805   3.028   0.487  17.458 -0.0319  0.1488  0.7008
  662MPD2    H7 9806   2.950   0.456  17.516  0.3287 -1.4088  0.3345
  663TMC3    C1 9807   3.147   0.322  17.564  0.3339  0.3513  0.3150
  663TMC3    C2 9808   3.129   0.373  17.693  0.8492  0.5728  0.5690
  663TMC3    C3 9809   3.134   0.293   0.104 -0.5219  0.8597 -0.3402
  663TMC3    C4 9810   3.176   0.192  17.544 -0.3986 -0.0714 -0.6841
  663TMC3    C5 9811   3.173   0.111  17.651 -0.2901 -0.0458 -1.1989
  663TMC3    C6 9812   3.148   0.160   0.081 -0.0535  0.1048 -0.0033
  663TMC3     C 9813   3.136   0.409  17.454  0.1555 -0.1704 -1.2806
  663TMC3     O 9814   3.220   0.395  17.362 -0.1588  0.1096 -0.2554
  663TMC3     H 9815   3.081   0.469   0.001 -0.2088  0.0779  0.1072
  663TMC3    H1 9816   3.179   0.148  17.445  0.5113  0.2962 -0.8173
  663TMC3    H2 9817   3.156   0.102   0.172  0.1673  1.0904  0.6099
  663TMC3    C7 9818   3.131   4.701  17.633  0.6254  0.7475 -0.0232
  663TMC3    C8 9819   3.012   0.300   0.181 -0.3552 -0.0669  0.1263
  663TMC3    O1 9820   3.165   4.646  17.532 -0.1175  0.1216 -0.7273
  663TMC3    O2 9821   2.941   0.195   0.171  0.2388 -0.1695  0.0971
  664MPD2     C 9822   0.507   3.980  17.377  0.6378  0.1093  0.3274
  664MPD2    C1 9823   0.592   4.082  17.416  0.3974 -0.2323  0.8620
  664MPD2    C2 9824   0.619   4.117  17.544  0.4413 -0.2914 -0.0958
  664MPD2    C3 9825   0.561   4.043  17.642 -0.0086 -0.5872  0.2482
  664MPD2    C4 9826   0.479   3.934  17.610  1.4332  0.7146  0.1113
  664MPD2    C5 9827   0.452   3.914  17.474  0.1619  0.1665  0.1171
  664MPD2     H 9828   0.689   4.195  17.569 -2.0932  1.8112  0.3886
  664MPD2    H1 9829   0.434   3.865  17.681  1.1029 -0.3364 -1.1147
  664MPD2    H2 9830   0.487   3.960  17.272  0.9627 -1.1154  0.4976
  664MPD2    H3 9831   0.387   3.834  17.442 -0.4713  0.1352  1.4656
  664MPD2     N 9832   0.573   4.089   0.083 -0.0409  0.1561 -0.2975
  664MPD2    H5 9833   0.615   4.180   0.099 -0.1681 -0.1288  1.6608
  664MPD2    N1 9834   0.644   4.149  17.303 -0.1023 -0.1560  0.0634
  664MPD2    H7 9835   0.686   4.240  17.321  0.0994 -0.3191  0.4296
  665TMC3    C1 9836   0.541   4.080   0.327 -0.0255  0.2097  0.6468
  665TMC3    C2 9837   0.461   4.023   0.424 -0.1806  0.3516 -0.2613
  665TMC3    C3 9838   0.499   4.049   0.558  0.4191 -0.2608  0.1895
  665TMC3    C4 9839   0.653   4.150   0.351  0.7648 -0.3751  1.4589
  665TMC3    C5 9840   0.681   4.179   0.479  0.8273 -0.7930 -0.1558
  665TMC3    C6 9841   0.606   4.130   0.586  0.5194  0.6312  0.4186
  665TMC3     C 9842   0.522   4.018   0.194  0.8047  0.2759 -0.4609
  665TMC3     O 9843   0.487   3.899   0.197 -0.0582  0.2812 -0.0570
  665TMC3     H 9844   0.374   3.966   0.394 -1.4029  1.8919  0.3897
  665TMC3    H1 9845   0.723   4.176   0.273 -0.2006  0.7055  0.9591
  665TMC3    H2 9846   0.641   4.142   0.688 -0.1665  3.8252  0.2853
  665TMC3    C7 9847   0.795   4.255   0.509  0.2908  0.7659  0.1043
  665TMC3    C8 9848   0.403   4.030   0.668 -0.8122  0.0421  0.2349
  665TMC3    O1 9849   0.880   4.267   0.424  0.4130  0.5227 -0.0931
  665TMC3    O2 9850   0.431   4.088   0.767  0.4038 -0.1390 -0.7097
  666TMC3    C1 9851   4.683   3.640  10.123  0.4734 -0.3478 -0.0625
  666TMC3    C2 9852   0.091   3.625  10.144 -0.3132  0.3988  0.9880
  666TMC3    C3 9853   0.179   3.726  10.127 -0.0985  0.0300  0.2215
  666TMC3    C4 9854   4.641   3.764  10.097  0.9261 -0.4421  0.3575
  666TMC3    C5 9855   4.723   3.869  10.085  0.1502  0.0036  0.0855
  666TMC3    C6 9856   0.134   3.853  10.099 -0.2784 -0.3320  0.2461
  666TMC3     C 9857   4.598   3.529  10.082 -0.5743  0.3898  0.4040
  666TMC3     O 9858   4.484   3.568  10.058 -0.3059  0.2065  0.7827
  666TMC3     H 9859   0.137   3.528  10.162  1.2571  0.9360 -0.1357
  666TMC3    H1 9860   4.535   3.777  10.082  1.5144  2.1492 -1.4347
  666TMC3    H2 9861   0.188   3.947  10.113 -0.0002 -0.2415 -1.4798
  666TMC3    C7 9862   4.664   3.996  10.128  0.3584 -0.6105 -0.4820
  666TMC3    C8 9863   0.304   3.711  10.201 -0.6585 -0.5413  0.3877
  666TMC3    O1 9864   0.015   4.076  10.185  0.1771  0.1277 -0.2585
  666TMC3    O2 9865   0.323   3.604  10.260 -1.1183 -0.1675 -0.1090
  667MPD2     C 9866   1.693   3.728  15.109 -0.5633 -0.2546  0.1900
  667MPD2    C1 9867   1.583   3.759  15.183 -0.4234  1.0909 -0.2647
  667MPD2    C2 9868   1.475   3.679  15.170 -0.4684 -0.3528 -0.4412
  667MPD2    C3 9869   1.481   3.558  15.099 -0.8469  0.2562 -0.0742
  667MPD2    C4 9870   1.592   3.529  15.027  0.5133 -0.7306  0.6585
  667MPD2    C5 9871   1.700   3.613  15.035  0.4962 -0.0986 -0.1149
  667MPD2     H 9872   1.379   3.707  15.211 -0.8757 -0.3516 -1.4033
  667MPD2    H1 9873   1.589   3.445  14.959 -2.5099  0.9614 -1.3160
  667MPD2    H2 9874   1.781   3.789  15.118  0.3477 -1.7768  1.5939
  667MPD2    H3 9875   1.790   3.583  14.984  1.3040 -0.0373  1.2873
  667MPD2     N 9876   1.374   3.473  15.079  0.2884 -0.0087  0.0975
  667MPD2    H5 9877   1.403   3.379  15.051  2.3314  0.7030 -0.1568
  667MPD2    N1 9878   1.580   3.873  15.268 -0.1177 -0.5767  0.1089
  667MPD2    H7 9879   1.499   3.893  15.325 -0.0143 -2.3024  0.8739
  668TMC3    C1 9880   1.629   4.072  15.375 -0.3944 -0.3344 -0.6265
  668TMC3    C2 9881   1.688   4.193  15.368 -0.2958  0.4524 -0.5039
  668TMC3    C3 9882   1.649   4.287  15.460  0.2475 -0.3039 -0.2242
  668TMC3    C4 9883   1.551   4.034  15.484  0.2808  0.2148  0.0057
  668TMC3    C5 9884   1.518   4.133  15.583  0.4926  0.2251  0.6123
  668TMC3    C6 9885   1.563   4.264  15.566 -0.1088 -0.0468  0.1631
  668TMC3     C 9886   1.672   3.977  15.269 -0.4037  0.4299  0.1715
  668TMC3     O 9887   1.777   3.989  15.204  0.1262 -0.8582 -0.3091
  668TMC3     H 9888   1.763   4.212  15.292  1.4529  1.1696  1.3838
  668TMC3    H1 9889   1.518   3.933  15.501  3.6203 -0.6789  1.2138
  668TMC3    H2 9890   1.539   4.339  15.640 -2.9116  0.8190 -1.6422
  668TMC3    C7 9891   1.453   4.096  15.711 -0.1110 -0.4554  0.3506
  668TMC3    C8 9892   1.715   4.419  15.472  0.4875 -0.2122  0.0939
  668TMC3    O1 9893   1.444   4.186  15.798  0.4567  0.5115 -0.3255
  668TMC3    O2 9894   1.719   4.477  15.579  0.4193  0.1499  0.1387
  669TMC3    C1 9895   4.233   3.960  14.666  0.7662 -0.3526  0.5368
  669TMC3    C2 9896   4.107   3.979  14.620  0.7075  0.1643 -0.1178
  669TMC3    C3 9897   4.072   4.084  14.542 -0.0984 -0.2130 -0.7490
  669TMC3    C4 9898   4.321   4.064  14.644  0.3392  0.0964  0.1671
  669TMC3    C5 9899   4.284   4.167  14.562 -0.0314 -0.2709 -0.4832
  669TMC3    C6 9900   4.159   4.184  14.510  0.2049 -0.0813  0.2827
  669TMC3     C 9901   4.266   3.858  14.764 -0.5561  0.0196 -0.0348
  669TMC3     O 9902   4.170   3.781  14.791 -0.0501 -0.6115 -0.3872
  669TMC3     H 9903   4.034   3.901  14.639 -0.9337  1.8885  0.6386
  669TMC3    H1 9904   4.424   4.057  14.675  0.4003  0.0850 -0.0352
  669TMC3    H2 9905   4.128   4.266  14.445 -1.3650  0.6097  1.8980
  669TMC3    C7 9906   4.388   4.255  14.512  0.4984 -0.0021  0.5246
  669TMC3    C8 9907   3.971   4.051  14.437  0.4018  0.5420  0.8686
  669TMC3    O1 9908   4.491   4.260  14.574 -0.1299 -0.1234 -0.6630
  669TMC3    O2 9909   3.952   3.933  14.425  0.7182  0.1398  0.2276
  670MPD2     C 9910   2.465   1.633  13.312 -0.6288  0.5872 -0.2469
  670MPD2    C1 9911   2.536   1.701  13.412  0.5601  0.1653  0.2085
  670MPD2    C2 9912   2.501   1.680  13.548 -0.2043  0.0184 -0.4896
  670MPD2    C3 9913   2.380   1.621  13.576 -0.1975 -0.5748  0.3071
  670MPD2    C4 9914   2.301   1.570  13.480 -0.2498 -0.1658  0.0947
  670MPD2    C5 9915   2.338   1.582  13.348 -0.8039 -0.3513 -0.3460
  670MPD2     H 9916   2.569   1.717  13.623 -2.1458  1.8992  0.3474
  670MPD2    H1 9917   2.203   1.524  13.492 -0.5910  0.1273 -1.6267
  670MPD2    H2 9918   2.516   1.599  13.223 -0.1319  1.2631 -0.2238
  670MPD2    H3 9919   2.274   1.537  13.273  0.1888 -1.1717 -0.7029
  670MPD2     N 9920   2.343   1.610  13.708  0.1722 -0.2502  0.1392
  670MPD2    H5 9921   2.418   1.607  13.776 -0.3083  0.0068  0.6836
  670MPD2    N1 9922   2.661   1.770  13.391 -0.6512 -0.0445  0.2056
  670MPD2    H7 9923   2.713   1.796  13.474 -2.4213  1.3100  0.8766
  671TMC3    C1 9924   2.206   1.552  13.894 -0.0626  0.7166 -0.2907
  671TMC3    C2 9925   2.298   1.606  13.982 -0.5421  0.2291  0.4968
  671TMC3    C3 9926   2.295   1.567  14.113  0.7670 -0.1355 -0.0550
  671TMC3    C4 9927   2.130   1.445  13.926  0.2818  0.3703  0.0802
  671TMC3    C5 9928   2.140   1.396  14.057  0.3998  0.6642 -0.4960
  671TMC3    C6 9929   2.213   1.462  14.150  0.1637 -0.0244 -0.5796
  671TMC3     C 9930   2.219   1.585  13.748 -0.5480  0.0441  0.2132
  671TMC3     O 9931   2.113   1.594  13.686  0.0164 -0.2399 -0.3569
  671TMC3     H 9932   2.338   1.703  13.954  4.4313 -2.6198 -2.2059
  671TMC3    H1 9933   2.070   1.386  13.858  0.5233 -0.9158  0.9724
  671TMC3    H2 9934   2.205   1.431  14.253 -1.5491  0.7067 -0.4904
  671TMC3    C7 9935   2.056   1.285  14.098 -0.0602  0.2940 -0.2729
  671TMC3    C8 9936   2.419   1.564  14.185  0.3742 -0.0641 -0.7559
  671TMC3    O1 9937   2.047   1.199  14.013  0.2680 -0.7646  0.4598
  671TMC3    O2 9938   2.491   1.667  14.177  0.3757 -0.4473  0.4857
  672MPD2     C 9939   2.039   2.613   1.223  0.0925 -0.1082  0.3870
  672MPD2    C1 9940   2.111   2.533   1.308  0.4792 -0.1228 -0.1125
  672MPD2    C2 9941   2.170   2.591   1.424 -0.1431  0.0166 -0.0627
  672MPD2    C3 9942   2.163   2.727   1.448  0.1967  0.3121 -0.2125
  672MPD2    C4 9943   2.106   2.803   1.346  0.4952  0.2582 -0.5634
  672MPD2    C5 9944   2.030   2.746   1.243 -0.1158 -0.1873 -0.1132
  672MPD2     H 9945   2.226   2.529   1.493  0.3576  1.5666  0.9463
  672MPD2    H1 9946   2.110   2.911   1.351 -0.6576  0.3031 -0.5963
  672MPD2    H2 9947   1.996   2.569   1.134  1.6115  0.3483 -0.5719
  672MPD2    H3 9948   1.983   2.802   1.164  0.3625  1.0814  0.5118
  672MPD2     N 9949   2.231   2.787   1.554  0.3267 -0.0944 -0.0441
  672MPD2    H5 9950   2.236   2.888   1.554  2.7920 -0.1840  1.7833
  672MPD2    N1 9951   2.120   2.393   1.275 -0.0605 -0.2369 -0.1880
  672MPD2    H7 9952   2.080   2.364   1.186 -1.0804 -1.5724  0.6957
  673TMC3    C1 9953   2.197   2.173   1.293  0.5813 -0.1117  0.5084
  673TMC3    C2 9954   2.195   2.057   1.372 -0.0119  0.3398  0.6528
  673TMC3    C3 9955   2.241   1.946   1.308 -0.6112  1.1223 -0.1204
  673TMC3    C4 9956   2.237   2.179   1.163  0.3174  0.2961  0.5113
  673TMC3    C5 9957   2.287   2.063   1.107 -0.1817  0.0187  0.0104
  673TMC3    C6 9958   2.284   1.944   1.181  0.5631 -0.3860  0.2277
  673TMC3     C 9959   2.173   2.298   1.363  0.0734  0.0227 -0.6091
  673TMC3     O 9960   2.200   2.299   1.480 -0.0982 -0.4342  0.4487
  673TMC3     H 9961   2.148   2.052   1.469  1.8672  1.6101  1.6191
  673TMC3    H1 9962   2.275   2.275   1.131  0.6416  0.4514  1.3599
  673TMC3    H2 9963   2.322   1.852   1.138 -1.1876 -0.5231 -1.0137
  673TMC3    C7 9964   2.390   2.060   1.001 -0.3636  0.2678  0.5621
  673TMC3    C8 9965   2.257   1.823   1.393 -0.1871  0.2013 -0.0585
  673TMC3    O1 9966   2.453   1.954   0.992 -0.1310  0.7605  0.5025
  673TMC3    O2 9967   2.285   1.719   1.326  0.2988  0.2090 -0.1863
  674MPD2     C 9968   2.684   1.539   0.876  0.1800  0.4543  0.0282
  674MPD2    C1 9969   2.753   1.591   0.770 -0.2643 -0.2279  0.4092
  674MPD2    C2 9970   2.676   1.670   0.675  0.8082 -0.3046 -0.4169
  674MPD2    C3 9971   2.538   1.686   0.686  0.4820 -0.0968  0.2428
  674MPD2    C4 9972   2.472   1.626   0.791 -1.0340  0.3188  0.3677
  674MPD2    C5 9973   2.551   1.557   0.881 -0.8224  0.0507 -0.0202
  674MPD2     H 9974   2.721   1.688   0.578 -0.5988 -2.1080 -1.3975
  674MPD2    H1 9975   2.366   1.627   0.813 -1.1694  1.5031 -0.3168
  674MPD2    H2 9976   2.733   1.485   0.956 -0.9431 -0.7814 -0.1233
  674MPD2    H3 9977   2.500   1.515   0.967 -0.8986 -0.3980 -0.2877
  674MPD2     N 9978   2.476   1.764   0.589 -0.1907 -0.4022  0.0161
  674MPD2    H5 9979   2.538   1.802   0.517  0.8234 -0.4839  0.8554
  674MPD2    N1 9980   2.897   1.564   0.766 -0.1476  0.1764  0.2262
  674MPD2    H7 9981   2.944   1.502   0.830  0.9910 -0.3384 -1.0993
  675TMC3    C1 9982   3.120   1.591   0.677 -0.5298 -0.2770  0.7636
  675TMC3    C2 9983   3.133   1.457   0.682 -0.5597 -0.1158  0.3956
  675TMC3    C3 9984   3.225   1.397   0.604 -0.0510 -0.1935 -0.1763
  675TMC3    C4 9985   3.190   1.672   0.596 -0.0104  0.1327 -0.3921
  675TMC3    C5 9986   3.283   1.616   0.516  0.2751 -0.0483  0.0448
  675TMC3    C6 9987   3.296   1.477   0.522  0.0745  1.3261 -0.4071
  675TMC3     C 9988   2.981   1.633   0.680  0.2886 -0.0472  0.5152
  675TMC3     O 9989   2.962   1.715   0.588  0.6167  0.1299 -0.4740
  675TMC3     H 9990   3.070   1.399   0.748  1.4442 -0.4603  2.0101
  675TMC3    H1 9991   3.169   1.779   0.595  1.3420  0.3958  0.0326
  675TMC3    H2 9992   3.376   1.421   0.474  0.6264  1.4547  0.3717
  675TMC3    C7 9993   3.351   1.698   0.413 -0.2978  0.2388 -0.6055
  675TMC3    C8 9994   3.240   1.254   0.601  0.4701  0.5321  0.6284
  675TMC3    O1 9995   3.418   1.632   0.335  0.3959 -0.3822 -0.2097
  675TMC3    O2 9996   3.276   1.198   0.498  0.0912  0.3277 -0.2199
  676MPD2     C 9997   0.145   0.381  11.639 -0.4341  0.0651  0.2534
  676MPD2    C1 9998   0.170   0.258  11.704  0.6736 -1.1607 -0.1870
  676MPD2    C2 9999   0.147   0.140  11.628  0.2917  0.0925  0.1540
  676MPD2    C310000   0.111   0.148  11.489 -0.3163  0.9543 -0.6329
  676MPD2    C410001   0.089   0.270  11.435  0.0357 -0.0283 -0.3246
  676MPD2    C510002   0.099   0.383  11.509  0.2907  0.3061  0.4940
  676MPD2     H10003   0.159   0.041  11.670 -1.6128  0.0796  0.6652
  676MPD2    H110004   0.052   0.271  11.334 -0.3347  1.8017 -0.1764
  676MPD2    H210005   0.149   0.479  11.686  0.9452  0.1099  0.0343
  676MPD2    H310006   0.070   0.478  11.465  1.1066 -0.9445 -2.7435
  676MPD2     N10007   0.083   0.040  11.400  0.7822 -0.0442 -0.0003
  676MPD2    H510008   0.038   0.065  11.312 -1.3033 -2.4693  0.3660
  676MPD2    N110009   0.235   0.246  11.829  0.0468  0.3472  0.0047
  676MPD2    H710010   0.269   0.156  11.860  0.5803  0.3557 -0.5438
  677TMC3    C110011   0.330   0.309  12.041 -0.1317 -0.2652 -0.6880
  677TMC3    C210012   0.323   0.186  12.089 -0.3195 -0.1621 -0.5085
  677TMC3    C310013   0.404   0.153  12.189 -0.2216 -0.2012 -0.3354
  677TMC3    C410014   0.395   0.405  12.112  0.0632 -0.5577 -0.1308
  677TMC3    C510015   0.456   0.377  12.228 -0.1773  0.5253  0.3321
  677TMC3    C610016   0.456   0.249  12.280  0.5802 -0.2990 -0.9600
  677TMC3     C10017   0.256   0.350  11.922 -0.1005 -0.0559 -0.1625
  677TMC3     O10018   0.223   0.470  11.912  0.2533  0.1873  0.0870
  677TMC3     H10019   0.272   0.105  12.037 -0.3370 -0.1240 -0.5505
  677TMC3    H110020   0.399   0.504  12.068 -0.5722 -0.2188  0.5740
  677TMC3    H210021   0.516   0.223  12.366  2.2027  0.0859 -1.9689
  677TMC3    C710022   0.569   0.460  12.266 -0.3817  0.7462  0.0772
  677TMC3    C810023   0.463   0.026  12.182 -0.6747  0.4535  0.7323
  677TMC3    O110024   0.618   0.445  12.377  0.3711  0.4963  0.5374
  677TMC3    O210025   0.454   4.685  12.080  0.1220 -0.2163  0.2721
  678MPD2     C10026   1.978   0.772   1.705  0.3738 -0.5983 -0.5334
  678MPD2    C110027   2.015   0.677   1.602  0.4718  0.1598 -0.4823
  678MPD2    C210028   1.922   0.609   1.524  0.6048  0.4549  0.0688
  678MPD2    C310029   1.791   0.638   1.547  0.3381  0.6290  0.1012
  678MPD2    C410030   1.756   0.731   1.643  0.4645  0.0859 -0.3854
  678MPD2    C510031   1.840   0.794   1.723 -0.3888 -0.1932  0.3033
  678MPD2     H10032   1.949   0.529   1.456 -1.5334 -0.7985  0.6915
  678MPD2    H110033   1.650   0.751   1.655  0.8623  0.2071  2.9138
  678MPD2    H210034   2.050   0.830   1.762  0.1607 -1.0938  0.2527
  678MPD2    H310035   1.799   0.859   1.799 -2.4821 -1.6218  0.3795
  678MPD2     N10036   1.699   0.575   1.459 -0.1668  0.1239  0.0388
  678MPD2    H510037   1.742   0.519   1.386  0.2932 -0.8547  1.0735
  678MPD2    N110038   2.153   0.654   1.571  0.1681  0.6448 -0.8106
  678MPD2    H710039   2.169   0.568   1.518 -4.2899  0.4036 -1.8070
  679TMC3    C110040   2.532   0.484   1.568 -0.0106  0.1895 -0.5179
  679TMC3    C210041   2.408   0.532   1.592  0.6213  0.8528  0.4312
  679TMC3    C310042   2.384   0.666   1.557 -0.4147 -0.6038 -0.8101
  679TMC3    C410043   2.635   0.554   1.513  0.0545 -0.2139 -0.8483
  679TMC3    C510044   2.606   0.688   1.490  0.0090 -0.9893 -0.1940
  679TMC3    C610045   2.484   0.743   1.509  0.1519  0.3542  0.0036
  679TMC3     C10046   2.545   0.334   1.591 -0.6663  0.5825  1.1291
  679TMC3     O10047   2.448   0.273   1.638 -0.3721 -0.2569 -0.5617
  679TMC3     H10048   2.323   0.488   1.643  1.5405 -3.0033 -1.3852
  679TMC3    H110049   2.721   0.509   1.465  1.4391  0.4825  0.9685
  679TMC3    H210050   2.461   0.842   1.473 -0.0556 -0.1296 -1.2098
  679TMC3    C710051   2.676   0.747   1.383 -0.4166  0.2661 -0.2118
  679TMC3    C810052   2.261   0.730   1.603  0.5551  0.4752  0.3586
  679TMC3    O110053   2.679   0.685   1.276 -0.2421  0.4786 -0.2596
  679TMC3    O210054   2.271   0.843   1.652 -0.2434 -0.1572 -0.0005
  680MPD2     C10055   1.942   3.774  13.584 -0.0473  0.3688  0.1593
  680MPD2    C110056   2.029   3.691  13.651 -0.4399  0.6261  0.3113
  680MPD2    C210057   2.150   3.745  13.683 -0.0620 -0.2647  0.3307
  680MPD2    C310058   2.186   3.876  13.668  0.5837 -0.2718 -1.1072
  680MPD2    C410059   2.104   3.962  13.588  0.4400 -0.0565 -0.0196
  680MPD2    C510060   1.979   3.903  13.547 -0.2612 -0.3198 -0.4862
  680MPD2     H10061   2.217   3.672  13.727 -1.7069 -2.9228 -1.5891
  680MPD2    H110062   2.137   4.059  13.553 -0.3473 -0.5570 -2.1493
  680MPD2    H210063   1.845   3.733  13.556 -1.4063  3.5698  0.2008
  680MPD2    H310064   1.903   3.956  13.490  0.0914 -0.0646 -0.7189
  680MPD2     N10065   2.304   3.933  13.728 -0.1807 -0.7246 -0.0097
  680MPD2    H510066   2.339   4.023  13.697 -1.4912 -0.4673 -0.7595
  680MPD2    N110067   1.999   3.559  13.685  0.0276 -0.3294 -0.6856
  680MPD2    H710068   2.069   3.497  13.725 -0.4115 -0.9378 -0.8456
  681TMC3    C110069   1.892   3.377  13.758  0.5664 -0.8013  0.2037
  681TMC3    C210070   1.826   3.352  13.876  0.6346 -0.4609 -0.2425
  681TMC3    C310071   1.860   3.238  13.948 -0.2353  0.0090 -0.6127
  681TMC3    C410072   1.981   3.285  13.710  0.1335  0.7915  0.0261
  681TMC3    C510073   2.008   3.169  13.784  0.4236 -0.6992  0.6784
  681TMC3    C610074   1.942   3.141  13.899  0.2321 -0.3638 -0.2675
  681TMC3     C10075   1.875   3.507  13.697 -0.4020 -0.2794  0.3232
  681TMC3     O10076   1.767   3.558  13.701 -0.3735  0.4786 -0.1170
  681TMC3     H10077   1.778   3.436  13.926 -2.2126 -0.1791 -3.4556
  681TMC3    H110078   2.028   3.300  13.613 -1.8186  1.9138 -0.7516
  681TMC3    H210079   1.962   3.053  13.959 -1.6147 -0.6769 -0.1101
  681TMC3    C710080   2.065   3.056  13.724 -0.0442  0.8454  0.7126
  681TMC3    C810081   1.854   3.237  14.093  0.1412 -0.0424  0.9444
  681TMC3    O110082   2.048   2.952  13.787  0.1485  0.0266  0.0619
  681TMC3    O210083   1.912   3.155  14.163 -0.2553  0.7406 -0.2285
  682MPD2     C10084   4.398   0.418  10.761  0.5486  0.4998 -0.0766
  682MPD2    C110085   4.371   0.287  10.796 -0.2373  0.2391 -0.5957
  682MPD2    C210086   4.292   0.259  10.908 -0.4513 -0.1193  0.6059
  682MPD2    C310087   4.232   0.358  10.972  0.6581  0.6972 -0.6306
  682MPD2    C410088   4.264   0.486  10.946  0.3886  0.2562 -0.1780
  682MPD2    C510089   4.349   0.520  10.844 -0.1805 -0.0236 -0.2201
  682MPD2     H10090   4.272   0.157  10.938 -4.2812  0.6055  0.4079
  682MPD2    H110091   4.215   0.562  11.005  2.7484  0.7413  1.1727
  682MPD2    H210092   4.453   0.440  10.671 -0.1185  1.1587 -0.3221
  682MPD2    H310093   4.383   0.622  10.829 -1.6987  0.2344 -1.8818
  682MPD2     N10094   4.126   0.335  11.061  0.7094  0.6180  0.4341
  682MPD2    H510095   4.098   0.417  11.115  1.6003  0.5816  0.9560
  682MPD2    N110096   4.414   0.182  10.715  0.4031  0.3644  0.0150
  682MPD2    H710097   4.389   0.090  10.752 -2.7396  0.3742 -2.0981
  683TMC3    C110098   3.950   0.238  11.424 -0.1074 -0.6392  0.6650
  683TMC3    C210099   3.839   0.149  11.420 -0.5682  0.5230  0.7763
  683TMC3    C310100   3.809   0.100  11.288  0.4808 -0.1106  0.2168
  683TMC3    C410101   4.010   0.276  11.306  0.0335 -0.1762 -0.8429
  683TMC3    C510102   3.975   0.226  11.189  0.4335  0.4222 -0.4975
  683TMC3    C610103   3.877   0.134  11.176  0.1670 -0.9397  0.2547
  683TMC3     C10104   3.994   0.287  11.559  0.3193 -0.0651 -0.2985
  683TMC3     O10105   4.091   0.361  11.558 -0.0464  0.1149 -0.0340
  683TMC3     H10106   3.784   0.115  11.507 -2.6033 -0.7577 -1.0147
  683TMC3    H110107   4.101   0.334  11.313 -2.1689  3.3175 -1.4633
  683TMC3    H210108   3.857   0.085  11.081  0.1764 -2.1450  0.8831
  683TMC3    C710109   4.066   0.215  11.082 -0.3001  0.0712  0.2475
  683TMC3    C810110   3.710   0.002  11.265 -0.0957 -0.7310  0.1705
  683TMC3    O110111   4.058   0.130  10.999 -0.5198  0.0549  0.1756
  683TMC3    O210112   3.623   0.029  11.180  0.1810  0.5070  0.0095
  684MPD2     C10113   2.586   4.555  16.724  0.9263  0.2294  0.3441
  684MPD2    C110114   2.675   4.539  16.618  0.1154  0.6497  0.8397
  684MPD2    C210115   2.737   4.649  16.575  0.5912 -0.2174  0.6939
  684MPD2    C310116   2.732   0.049  16.636 -0.4358  0.5030  0.4940
  684MPD2    C410117   2.643   0.065  16.742 -0.6908 -0.7356  0.1166
  684MPD2    C510118   2.567   4.681  16.778 -0.5981 -0.4994 -0.2918
  684MPD2     H10119   2.813   4.631  16.500 -1.6208 -0.2676 -1.5183
  684MPD2    H110120   2.632   0.157  16.798  1.1436  0.7663 -2.0231
  684MPD2    H210121   2.527   4.474  16.765  0.9493 -0.5626 -1.1667
  684MPD2    H310122   2.483   4.694  16.845  0.2578 -0.8456  0.8451
  684MPD2     N10123   2.810   0.161  16.591 -0.0006  0.2876 -0.0114
  684MPD2    H510124   2.832   0.232  16.661  1.8728  1.8818 -2.2151
  684MPD2    N110125   2.698   4.414  16.553 -0.6680 -0.0878  0.4033
  684MPD2    H710126   2.778   4.404  16.490  1.6889 -1.0983  3.5555
  685TMC3    C110127   2.670   4.199  16.489 -0.1476  0.2830 -0.1821
  685TMC3    C210128   2.582   4.146  16.396 -0.2867  0.8663  0.5667
  685TMC3    C310129   2.636   4.090  16.288  0.0842 -0.1317  0.3236
  685TMC3    C410130   2.802   4.175  16.487  0.0912 -0.0664  0.2374
  685TMC3    C510131   2.856   4.111  16.371 -0.8020 -0.2184 -0.1335
  685TMC3    C610132   2.767   4.083  16.265  0.0140 -0.0073  0.3494
  685TMC3     C10133   2.619   4.305  16.556  0.1349 -0.6018 -0.3689
  685TMC3     O10134   2.507   4.302  16.598 -0.5997 -0.0117  0.4632
  685TMC3     H10135   2.475   4.142  16.417 -0.0389  0.5408  1.8049
  685TMC3    H110136   2.871   4.219  16.559 -0.8912  0.6275  0.7514
  685TMC3    H210137   2.810   4.042  16.175  0.1016 -0.4047  0.5716
  685TMC3    C710138   3.002   4.121  16.346  0.9788  0.1334  0.1353
  685TMC3    C810139   2.558   4.088  16.161  0.1095 -0.1375  0.1364
  685TMC3    O110140   3.036   4.120  16.228  0.1784 -0.7506  0.1743
  685TMC3    O210141   2.577   3.990  16.088 -0.1946  0.1837 -0.2013
  686MPD2     C10142   3.855   4.308  15.378 -0.1355 -0.3698 -0.5778
  686MPD2    C110143   3.888   4.267  15.510 -0.0211 -0.3268  0.9703
  686MPD2    C210144   4.014   4.224  15.537 -0.1531  0.4807  0.4787
  686MPD2    C310145   4.114   4.214  15.441 -0.1766  0.4308 -0.0886
  686MPD2    C410146   4.081   4.264  15.318 -0.2660  0.0980  0.8056
  686MPD2    C510147   3.953   4.294  15.282  0.6064  0.2025 -1.2161
  686MPD2     H10148   4.048   4.211  15.639 -2.7807  0.9598  1.4097
  686MPD2    H110149   4.154   4.257  15.238  0.2080 -0.8465  1.3228
  686MPD2    H210150   3.753   4.330  15.347 -0.0214 -1.9567 -2.0523
  686MPD2    H310151   3.928   4.312  15.178 -1.5964  1.3905 -0.4878
  686MPD2     N10152   4.244   4.158  15.464  0.2112 -0.3999 -0.3234
  686MPD2    H510153   4.317   4.176  15.396  1.6209 -1.8198  0.8201
  686MPD2    N110154   3.787   4.259  15.614 -0.4827 -0.3131 -0.5431
  686MPD2    H710155   3.816   4.254  15.712 -1.0708 -1.3819 -0.4247
  687TMC3    C110156   4.202   4.027  15.669 -0.3479 -0.1268 -0.2251
  687TMC3    C210157   4.099   3.960  15.618 -0.3685 -0.1304  0.2981
  687TMC3    C310158   4.020   3.882  15.698 -0.4126 -0.6651  0.0219
  687TMC3    C410159   4.239   4.008  15.798 -0.2064  0.2550  0.4927
  687TMC3    C510160   4.158   3.931  15.880 -0.2554 -0.0500 -0.1248
  687TMC3    C610161   4.050   3.866  15.832 -0.0217 -0.3635 -0.0896
  687TMC3     C10162   4.291   4.099  15.587 -0.1431 -0.9521  0.0511
  687TMC3     O10163   4.412   4.091  15.609  0.1314 -0.4139 -0.6657
  687TMC3     H10164   4.090   3.966  15.510  0.5416  0.9371  0.2837
  687TMC3    H110165   4.324   4.059  15.844 -0.3456  0.0100  1.0237
  687TMC3    H210166   3.982   3.817  15.901  0.1194  1.3005  1.2157
  687TMC3    C710167   4.171   3.919  16.019  0.6463  0.5236 -0.0533
  687TMC3    C810168   3.879   3.854  15.657  1.0983  0.3472  0.3029
  687TMC3    O110169   4.079   3.877  16.090 -0.7524  0.2242 -0.8583
  687TMC3    O210170   3.828   3.762  15.715  0.0555  0.9653 -0.1437
  688MPD2     C10171   3.041   3.262  17.267  0.3697  0.1449  0.5382
  688MPD2    C110172   3.077   3.130  17.309 -1.0647 -0.3010 -0.0112
  688MPD2    C210173   3.162   3.048  17.234  0.3027 -0.2892 -0.6478
  688MPD2    C310174   3.217   3.101  17.123 -0.2701 -1.0631 -0.5229
  688MPD2    C410175   3.179   3.224  17.081  0.0778 -0.7386  0.8787
  688MPD2    C510176   3.091   3.300  17.149 -0.4371  0.1273  0.1822
  688MPD2     H10177   3.191   2.948  17.265  1.3614  0.2016 -0.0450
  688MPD2    H110178   3.217   3.273  16.992 -0.1389 -1.8017  0.2010
  688MPD2    H210179   2.972   3.328  17.318  0.7817 -0.1748  1.5186
  688MPD2    H310180   3.084   3.397  17.102 -1.7561  0.4634  1.0754
  688MPD2     N10181   3.302   3.033  17.032 -0.0355  0.0564 -0.2180
  688MPD2    H510182   3.323   3.086  16.948  0.9282 -0.6002 -0.3931
  688MPD2    N110183   3.009   3.075  17.424 -0.1504 -0.4237  0.4161
  688MPD2    H710184   3.041   2.980  17.436 -1.3405 -0.8261  0.3087
  689TMC3    C110185   2.902   3.066  17.632  0.0982 -0.5181 -0.2575
  689TMC3    C210186   2.889   3.139   0.047  0.6438  0.1698 -0.1092
  689TMC3    C310187   2.821   3.092   0.158  0.1351 -0.2598  0.5856
  689TMC3    C410188   2.855   2.936  17.627  0.5890 -0.3511 -0.1970
  689TMC3    C510189   2.788   2.889   0.038 -0.0433  0.2895 -0.5958
  689TMC3    C610190   2.776   2.961   0.154  0.2840  0.0768  0.1490
  689TMC3     C10191   2.930   3.144  17.508 -0.2832 -0.5227 -0.3847
  689TMC3     O10192   2.896   3.259  17.504 -0.0034  0.1266 -0.2957
  689TMC3     H10193   2.916   3.243   0.040 -1.9063  0.9326  1.4858
  689TMC3    H110194   2.873   2.882  17.534  2.0435  1.0684 -0.7439
  689TMC3    H210195   2.727   2.913   0.239 -4.4607  0.3536 -2.3913
  689TMC3    C710196   2.765   2.742   0.049  0.3640 -0.0028  0.3772
  689TMC3    C810197   2.828   3.164   0.278 -1.0556 -0.0773  0.0445
  689TMC3    O110198   2.774   2.689   0.155  0.5937  0.3232  0.3204
  689TMC3    O210199   2.744   3.151   0.362  0.2463  0.4396 -0.2395
  690MPD2     C10200   0.729   0.118  15.809 -0.6746  0.2637  0.2722
  690MPD2    C110201   0.654   0.145  15.693 -0.8406  0.2686 -1.0473
  690MPD2    C210202   0.728   0.190  15.579  0.2615 -0.2718  0.6006
  690MPD2    C310203   0.867   0.203  15.575  0.9373  0.1916 -0.2879
  690MPD2    C410204   0.941   0.175  15.693 -0.0599 -0.1242 -0.4095
  690MPD2    C510205   0.866   0.128  15.799  0.2172 -0.3513 -0.2685
  690MPD2     H10206   0.677   0.201  15.484  0.2294  1.1918  0.7833
  690MPD2    H110207   1.047   0.196  15.703 -0.2363 -0.7798  2.9739
  690MPD2    H210208   0.673   0.089  15.897  0.3439 -1.7022  0.2885
  690MPD2    H310209   0.921   0.107  15.889 -0.0717  1.3467  0.3035
  690MPD2     N10210   0.916   0.235  15.451  0.0562 -0.2922 -0.2571
  690MPD2    H510211   0.855   0.270  15.377 -0.4173  0.4396  0.4783
  690MPD2    N110212   0.520   0.109  15.681 -0.4815 -0.9810 -1.3061
  690MPD2    H710213   0.476   0.098  15.590  2.3881  2.4841 -3.1013
  691TMC3    C110214   0.301   0.043  15.746  0.1945 -0.0997 -0.1708
  691TMC3    C210215   0.196   0.050  15.838  0.5891  0.1451  1.1636
  691TMC3    C310216   0.098   4.678  15.826  0.2078 -0.4430  0.1118
  691TMC3    C410217   0.284   4.687  15.641 -0.3260 -0.0060  0.1470
  691TMC3    C510218   0.182   4.596  15.628  0.2044 -0.4575  0.4906
  691TMC3    C610219   0.085   4.592  15.724  0.6469 -0.4676  0.1586
  691TMC3     C10220   0.432   0.091  15.785 -0.0149 -0.1502  0.5725
  691TMC3     O10221   0.444   0.110  15.905  0.0309 -0.2653  0.0320
  691TMC3     H10222   0.215   0.106  15.929  2.2379  0.4378  0.6304
  691TMC3    H110223   0.361   4.676  15.565 -0.2086 -1.6317  0.4865
  691TMC3    H210224   0.011   4.513  15.732  1.8384 -1.4086  1.9295
  691TMC3    C710225   0.204   4.491  15.530 -0.5091  0.0347 -0.7504
  691TMC3    C810226   4.711   4.690  15.915 -0.4662 -0.1142 -0.4617
  691TMC3    O110227   0.296   4.503  15.451 -0.4393  0.4026 -0.2535
  691TMC3    O210228   4.644   4.588  15.933  0.4719 -0.4063  0.5147
  692TMC3    C110229   2.649   1.239  16.193 -0.0054  0.4558 -0.0306
  692TMC3    C210230   2.750   1.252  16.284  0.0426 -0.0441  0.0745
  692TMC3    C310231   2.875   1.215  16.254  0.1802 -0.9069 -0.1334
  692TMC3    C410232   2.667   1.186  16.067 -0.3222 -0.0334  0.2386
  692TMC3    C510233   2.792   1.137  16.052 -0.7974 -0.0710  0.4864
  692TMC3    C610234   2.901   1.168  16.127 -0.5444  0.3568 -0.6825
  692TMC3     C10235   2.522   1.305  16.224  0.0270  0.5332 -0.2417
  692TMC3     O10236   2.422   1.279  16.151  0.3223  0.3351 -0.1521
  692TMC3     H10237   2.724   1.263  16.389  1.3166 -0.7792  0.4693
  692TMC3    H110238   2.587   1.145  16.006  0.1989  0.9702 -1.0960
  692TMC3    H210239   3.002   1.133  16.107 -1.1701 -0.7983 -1.7622
  692TMC3    C710240   2.811   1.010  15.974  0.1403  0.2182 -0.9669
  692TMC3    C810241   2.931   1.121  16.351 -0.1757 -0.1919 -0.7892
  692TMC3    O110242   2.720   0.994  15.892  0.0380 -0.5151  0.4177
  692TMC3    O210243   2.977   1.016  16.320  0.0114 -0.6211  0.3910
  693MPD2     C10244   1.426   4.137  10.545 -0.0056  0.3775  0.4339
  693MPD2    C110245   1.450   4.083  10.670 -0.0296 -0.0352 -0.2138
  693MPD2    C210246   1.574   4.100  10.730 -0.1453  0.5057  0.2374
  693MPD2    C310247   1.680   4.171  10.662 -0.3912  0.6421 -0.3476
  693MPD2    C410248   1.649   4.227  10.540 -0.5184 -0.5709  0.1254
  693MPD2    C510249   1.530   4.205  10.482 -0.1428  0.0020  0.2813
  693MPD2     H10250   1.592   4.060  10.829  1.9513 -0.6007 -0.5999
  693MPD2    H110251   1.721   4.287  10.486 -2.0105 -1.3808 -2.7445
  693MPD2    H210252   1.336   4.110  10.492 -0.9137 -0.1522  2.2282
  693MPD2    H310253   1.528   4.246  10.382  1.2657 -2.8706 -0.9252
  693MPD2     N10254   1.809   4.173  10.712 -0.2769  0.0897  0.5084
  693MPD2    H510255   1.883   4.194  10.646  0.4215 -1.4534  0.7900
  693MPD2    N110256   1.348   4.001  10.725  0.4083 -0.0490 -0.0767
  693MPD2    H710257   1.257   4.002  10.680 -0.7663 -4.1822  2.1781
  694TMC3    C110258   1.227   3.879  10.879  0.0772  0.5100 -0.2112
  694TMC3    C210259   1.135   3.854  10.789 -0.4738 -0.5690 -0.4791
  694TMC3    C310260   1.004   3.820  10.823 -0.2409 -0.2300  0.2931
  694TMC3    C410261   1.202   3.877  11.010 -0.1748  0.8240 -0.0188
  694TMC3    C510262   1.073   3.833  11.043 -0.2397 -0.0802 -0.3240
  694TMC3    C610263   0.974   3.802  10.955  0.1092  0.1693  0.7833
  694TMC3     C10264   1.358   3.933  10.840 -0.3640 -0.0057 -1.1365
  694TMC3     O10265   1.444   3.922  10.926 -0.7781 -0.2829  0.0920
  694TMC3     H10266   1.157   3.860  10.683  1.0043 -0.2652 -0.1440
  694TMC3    H110267   1.275   3.907  11.085  0.6444  0.7655 -0.7864
  694TMC3    H210268   0.875   3.774  10.989 -0.7445 -0.9949 -2.6115
  694TMC3    C710269   1.064   3.787  11.186 -0.8405  0.0143 -0.1010
  694TMC3    C810270   0.919   3.776  10.715 -0.0698  0.6088 -0.4998
  694TMC3    O110271   1.136   3.837  11.269  0.0921 -0.0483 -0.1227
  694TMC3    O210272   0.854   3.675  10.729 -0.6236 -0.2072  0.5290
  695MPD2     C10273   2.632   0.657  13.801 -0.0764 -0.9742  0.5880
  695MPD2    C110274   2.594   0.721  13.916  0.4770  0.1959 -0.1723
  695MPD2    C210275   2.470   0.788  13.922 -0.3183  0.2745  0.0811
  695MPD2    C310276   2.388   0.803  13.812 -0.3165 -0.0530 -0.2496
  695MPD2    C410277   2.423   0.728  13.702  0.5216  0.3024 -0.0110
  695MPD2    C510278   2.544   0.658  13.696  0.0345 -0.5922  0.5144
  695MPD2     H10279   2.433   0.837  14.011 -1.9279  0.3684 -0.6464
  695MPD2    H110280   2.356   0.729  13.617 -1.1288 -2.5757  1.2547
  695MPD2    H210281   2.718   0.592  13.790  0.2101 -0.1651 -1.9447
  695MPD2    H310282   2.568   0.605  13.605  1.9699  2.6747 -0.8702
  695MPD2     N10283   2.260   0.856  13.838 -0.3184  0.5980 -0.5297
  695MPD2    H510284   2.249   0.879  13.936 -0.8494 -2.6804  0.2068
  695MPD2    N110285   2.680   0.730  14.024  0.5653 -0.8224 -0.0900
  695MPD2    H710286   2.653   0.790  14.102  0.2789 -0.4386 -0.4870
  696TMC3    C110287   2.031   0.905  13.787  0.1708  0.1568 -0.9712
  696TMC3    C210288   1.989   0.853  13.905 -0.3160  0.2095 -0.1784
  696TMC3    C310289   1.876   0.903  13.962 -0.6920  0.2936  0.0939
  696TMC3    C410290   1.958   0.999  13.715  0.7145 -0.2848 -0.5458
  696TMC3    C510291   1.852   1.046  13.787 -0.2347 -0.1835  0.1790
  696TMC3    C610292   1.802   1.002  13.907  0.1249 -0.0095  0.4747
  696TMC3     C10293   2.159   0.865  13.736 -0.1903  0.1260  0.7450
  696TMC3     O10294   2.172   0.861  13.615 -0.4616  0.3414  0.4810
  696TMC3     H10295   2.042   0.773  13.954  0.6319  0.7395 -0.3311
  696TMC3    H110296   1.989   1.032  13.616  0.4406  0.0081 -0.5350
  696TMC3    H210297   1.708   1.028  13.954  0.3979  1.1646  0.3700
  696TMC3    C710298   1.800   1.167  13.740  0.8221 -0.4269 -0.0779
  696TMC3    C810299   1.824   0.822  14.071  0.2348 -0.0481 -0.0273
  696TMC3    O110300   1.789   1.186  13.618  0.3033 -0.0525 -0.4888
  696TMC3    O210301   1.833   0.704  14.049 -0.2822 -0.1312 -0.3998
  697MPD2     C10302   1.886   3.026  15.873  0.5424 -0.0409  0.1772
  697MPD2    C110303   1.979   2.986  15.771 -0.0232 -0.6045  0.0676
  697MPD2    C210304   2.034   3.075  15.686 -0.3440 -0.2879  0.2761
  697MPD2    C310305   1.991   3.211  15.694  0.4639  0.1070  0.4958
  697MPD2    C410306   1.889   3.247  15.788  0.1467  0.2060 -0.1122
  697MPD2    C510307   1.843   3.156  15.876 -0.0776 -0.0153 -0.5705
  697MPD2     H10308   2.099   3.042  15.606 -0.4536 -1.7561  0.7855
  697MPD2    H110309   1.856   3.350  15.791  0.9986  0.4997 -0.7476
  697MPD2    H210310   1.834   2.959  15.941  1.4569 -0.2160  0.7088
  697MPD2    H310311   1.760   3.191  15.937 -0.1119 -0.1084 -0.5644
  697MPD2     N10312   2.033   3.303  15.598 -0.8931 -0.2130  0.6395
  697MPD2    H510313   2.081   3.263  15.519 -0.5184  0.3054  0.6006
  697MPD2    N110314   2.013   2.850  15.752  0.4294  0.1539  0.1852
  697MPD2    H710315   2.065   2.824  15.669 -1.8439  0.1574 -1.2240
  698TMC3    C110316   2.110   3.499  15.498  0.4324  0.1203  0.1033
  698TMC3    C210317   2.144   3.635  15.515  0.3991 -0.6984 -0.6460
  698TMC3    C310318   2.205   3.698  15.408 -0.1274  0.1677 -0.6056
  698TMC3    C410319   2.123   3.438  15.377 -0.4079  0.1917  0.3841
  698TMC3    C510320   2.195   3.500  15.277 -0.2655  0.0020 -0.4309
  698TMC3    C610321   2.232   3.633  15.293  0.3649 -0.2901  0.5434
  698TMC3     C10322   2.035   3.436  15.607 -0.4761 -0.1633 -0.1855
  698TMC3     O10323   2.004   3.504  15.708  0.0188  0.3697  0.2901
  698TMC3     H10324   2.128   3.680  15.612  0.3081 -3.5030  0.6382
  698TMC3    H110325   2.081   3.340  15.355 -2.1044  1.1089 -0.4891
  698TMC3    H210326   2.277   3.686  15.210 -1.6021 -0.5921 -0.7108
  698TMC3    C710327   2.167   3.444  15.146  0.0293 -0.0574 -0.0308
  698TMC3    C810328   2.237   3.842  15.418 -0.5434 -0.4767  0.4375
  698TMC3    O110329   2.051   3.421  15.115 -0.2150  0.1191 -0.5693
  698TMC3    O210330   2.182   3.903  15.503 -0.0581 -0.4473  0.1960
  699TMC3    C110331   2.427   1.053  13.172  0.7222 -0.4350 -0.6006
  699TMC3    C210332   2.513   0.954  13.212  0.0226  0.5116  0.3334
  699TMC3    C310333   2.452   0.852  13.270  0.1492  0.4740  0.6674
  699TMC3    C410334   2.295   1.064  13.204 -0.4709  0.6176  0.2104
  699TMC3    C510335   2.241   0.956  13.265  0.5266  0.3180 -0.0254
  699TMC3    C610336   2.318   0.849  13.295 -0.4411 -0.7602 -0.0346
  699TMC3     C10337   2.467   1.145  13.067  0.2833  0.2825  0.5912
  699TMC3     O10338   2.376   1.203  13.008  0.2149  0.3896  0.4713
  699TMC3     H10339   2.618   0.952  13.185 -0.0775 -1.2182  0.1058
  699TMC3    H110340   2.240   1.152  13.171 -1.5591 -0.7120 -1.5569
  699TMC3    H210341   2.278   0.770  13.357  2.2323 -1.0808  1.2976
  699TMC3    C710342   2.094   0.952  13.289 -0.4938  0.0534  0.9298
  699TMC3    C810343   2.522   0.737  13.313 -0.5491  0.4010 -0.4455
  699TMC3    O110344   2.032   1.061  13.305  0.5485 -0.1810 -0.1432
  699TMC3    O210345   2.458   0.666  13.390 -0.8767  0.5246  0.0173
  700TMC3    C110346   1.118   3.341   0.153 -0.3990 -0.1975  0.0253
  700TMC3    C210347   1.119   3.214   0.108 -0.2274  0.3720 -0.1524
  700TMC3    C310348   1.238   3.156   0.057 -0.0575  0.7840  0.0137
  700TMC3    C410349   1.243   3.408   0.177  0.4196  0.8878  0.5182
  700TMC3    C510350   1.352   3.336   0.140  0.0526  0.4875  0.1334
  700TMC3    C610351   1.351   3.223   0.063 -0.2106 -0.9882 -1.0595
  700TMC3     C10352   1.019   3.432   0.098  0.5462  0.0773  0.6016
  700TMC3     O10353   0.905   3.385   0.087  0.5430  0.1323 -0.5462
  700TMC3     H10354   1.025   3.160   0.098 -0.8190  1.6103 -1.3658
  700TMC3    H110355   1.248   3.508   0.218  1.8316 -0.3851  3.4500
  700TMC3    H210356   1.440   3.163   0.045  2.9684  3.0510  0.9393
  700TMC3    C710357   1.458   3.424   0.099  0.2046 -0.0568 -0.7333
  700TMC3    C810358   1.242   3.037  17.668 -0.0325  0.3495  0.0249
  700TMC3    O110359   1.431   3.541   0.081 -0.4913  0.7620 -0.3385
  700TMC3    O210360   1.339   3.027  17.598 -0.2900  0.2008 -0.3262
  701TMC3    C110361   1.346   1.959  15.802 -0.0158 -0.8200 -0.3227
  701TMC3    C210362   1.318   1.907  15.681  0.1122 -0.0081  0.3158
  701TMC3    C310363   1.369   1.962  15.568 -0.6410  0.1841 -0.3848
  701TMC3    C410364   1.425   2.074  15.804 -0.8349 -0.4832  0.1489
  701TMC3    C510365   1.498   2.114  15.694  0.2184 -0.9088  0.4698
  701TMC3    C610366   1.462   2.067  15.570 -0.6461 -0.0919  0.7733
  701TMC3     C10367   1.263   1.931  15.921 -0.4278 -0.8169 -0.2256
  701TMC3     O10368   1.246   2.026  15.994 -0.4633  0.6158 -0.3719
  701TMC3     H10369   1.245   1.828  15.667  0.1513 -0.3404  1.9851
  701TMC3    H110370   1.430   2.132  15.895  0.6410  0.1846 -0.3609
  701TMC3    H210371   1.506   2.090  15.473 -0.1255  2.1591  1.5308
  701TMC3    C710372   1.576   2.229  15.683  0.0921  0.6629 -0.3303
  701TMC3    C810373   1.336   1.886  15.447  0.4236 -0.0037  0.3368
  701TMC3    O110374   1.636   2.255  15.577 -0.3833 -0.1879 -0.2657
  701TMC3    O210375   1.340   1.764  15.452 -0.3663 -0.0842 -0.2380
  702MPD2     C10376   0.139   4.528  10.683  0.1835  0.7427 -0.1045
  702MPD2    C110377   0.152   4.619  10.786  0.1284  0.1842 -0.1061
  702MPD2    C210378   0.223   0.007  10.757 -0.2345  0.5197  0.2693
  702MPD2    C310379   0.292   0.029  10.641  0.1586  0.6766  0.2275
  702MPD2    C410380   0.287   4.653  10.545  0.0836 -0.1113 -0.2090
  702MPD2    C510381   0.215   4.539  10.564  0.0101 -0.1770 -0.2153
  702MPD2     H10382   0.223   0.087  10.829 -3.4832  0.1288  0.6787
  702MPD2    H110383   0.345   4.670  10.455 -0.3308  2.0775 -0.0647
  702MPD2    H210384   0.077   4.440  10.692  0.2299  0.8713  1.5119
  702MPD2    H310385   0.213   4.462  10.488 -2.4122  0.0975 -0.4402
  702MPD2     N10386   0.356   0.160  10.624 -0.4367  0.1232 -0.1804
  702MPD2    H510387   0.349   0.225  10.701  0.1506 -0.9737  0.8048
  702MPD2    N110388   0.098   4.601  10.913  0.0881 -0.2258  0.7991
  702MPD2    H710389   0.114   4.681  10.974 -0.2155  0.8110 -0.4992
  703TMC3    C110390   0.485   0.332  10.519  0.0365  0.1767  0.4465
  703TMC3    C210391   0.387   0.431  10.526 -0.1271  0.0837 -0.2195
  703TMC3    C310392   0.433   0.562  10.505  0.6309  0.5777  0.0382
  703TMC3    C410393   0.603   0.350  10.456  0.1107 -0.4892  0.6746
  703TMC3    C510394   0.639   0.482  10.435  0.7770 -0.7802 -0.4140
  703TMC3    C610395   0.557   0.587  10.462 -0.2593 -0.1291 -0.1886
  703TMC3     C10396   0.438   0.194  10.515 -0.3007 -0.5769 -0.1296
  703TMC3     O10397   0.472   0.134  10.418 -0.2104 -0.4657 -0.2776
  703TMC3     H10398   0.285   0.400  10.541 -0.5177  2.1462  1.4442
  703TMC3    H110399   0.662   0.268  10.417 -0.7742 -0.0575 -1.5983
  703TMC3    H210400   0.595   0.687  10.445 -2.8541  0.5392 -2.0892
  703TMC3    C710401   0.780   0.501  10.393  0.0741 -0.3788 -0.4886
  703TMC3    C810402   0.340   0.667  10.552  0.1092 -0.5327  0.2060
  703TMC3    O110403   0.798   0.614  10.352  0.2991  0.0317 -0.4485
  703TMC3    O210404   0.365   0.783  10.513  0.3443 -0.1635 -0.0656
  704TMC3    C110405   3.117   2.806  11.969 -0.4993 -0.2969  0.0795
  704TMC3    C210406   3.250   2.824  11.965  0.5625  0.3653 -0.5617
  704TMC3    C310407   3.322   2.779  12.070  0.4477  0.3587  0.7203
  704TMC3    C410408   3.048   2.764  12.078  0.0689  0.1580 -0.2478
  704TMC3    C510409   3.122   2.737  12.190 -0.0785 -0.4758 -0.6082
  704TMC3    C610410   3.260   2.746  12.190  0.6240 -0.2239 -0.1081
  704TMC3     C10411   3.037   2.833  11.855 -1.0306  0.3078  0.5035
  704TMC3     O10412   2.935   2.897  11.881  1.1344 -0.2207 -0.1872
  704TMC3     H10413   3.294   2.853  11.870  0.5674  0.5706 -0.4959
  704TMC3    H110414   2.946   2.729  12.063 -0.7094  1.6096  1.7109
  704TMC3    H210415   3.319   2.713  12.274 -0.1071 -2.5243 -0.5087
  704TMC3    C710416   3.089   2.622  12.265  0.1973 -0.2091  0.3605
  704TMC3    C810417   3.459   2.741  12.046  0.5988 -0.0053  0.1912
  704TMC3    O110418   3.174   2.531  12.274  0.1812  0.2811  0.0544
  704TMC3    O210419   3.498   2.723  11.932 -0.2468 -0.4007 -0.4877
  705MPD2     C10420   3.258   0.637  16.800 -0.0855  0.7560 -0.1019
  705MPD2    C110421   3.188   0.645  16.680  0.4720  0.1042  0.2762
  705MPD2    C210422   3.052   0.613  16.683  0.3414 -0.2562  0.2025
  705MPD2    C310423   2.987   0.598  16.808  0.3052  0.1256 -0.4318
  705MPD2    C410424   3.066   0.588  16.924 -0.1934  0.9721  0.4416
  705MPD2    C510425   3.201   0.597  16.913 -0.1982  0.1531 -0.0836
  705MPD2     H10426   2.993   0.618  16.592  0.8259  0.4097 -0.0740
  705MPD2    H110427   3.023   0.571  17.022 -1.5056 -2.1418 -0.6917
  705MPD2    H210428   3.364   0.657  16.808  0.4091 -1.3925 -1.2724
  705MPD2    H310429   3.256   0.596  17.006  0.4574 -1.1439 -0.4973
  705MPD2     N10430   2.848   0.587  16.821  0.2828  0.7020 -0.0654
  705MPD2    H510431   2.804   0.578  16.912 -0.0897 -0.0190 -0.3143
  705MPD2    N110432   3.247   0.695  16.563 -0.0958 -0.0287  0.0839
  705MPD2    H710433   3.191   0.690  16.479 -0.1346 -0.6799  0.1545
  706TMC3    C110434   3.539   0.815  16.237 -0.0761  0.2172 -0.1912
  706TMC3    C210435   3.474   0.919  16.178 -0.4305  0.2407 -0.0653
  706TMC3    C310436   3.366   0.960  16.251  0.3750  0.2321  0.2332
  706TMC3    C410437   3.499   0.759  16.357  0.0372 -0.5611 -0.7048
  706TMC3    C510438   3.384   0.804  16.415  0.4528 -0.1634  0.0218
  706TMC3    C610439   3.315   0.908  16.365 -0.6037  0.6085  0.0848
  706TMC3     C10440   3.613   0.727  16.152  0.4274 -0.0680  0.5262
  706TMC3     O10441   3.687   0.647  16.212  0.1699  0.2304  0.3419
  706TMC3     H10442   3.498   0.967  16.084 -0.8008 -1.2854 -0.9485
  706TMC3    H110443   3.551   0.676  16.402  0.0596 -1.7427 -2.9108
  706TMC3    H210444   3.229   0.951  16.416 -0.2838 -0.7315  1.7715
  706TMC3    C710445   3.366   0.749  16.545  0.0315 -0.5017 -0.8404
  706TMC3    C810446   3.307   1.086  16.204 -0.1717 -0.6755  0.1395
  706TMC3    O110447   3.465   0.754  16.620 -0.0866 -0.4220 -0.1601
  706TMC3    O210448   3.291   1.086  16.084  0.1464 -0.4416  0.3049
  707TMC3    C110449   4.150   4.254   2.078  0.3970  0.0447  0.3281
  707TMC3    C210450   4.104   4.153   1.997  0.0213  0.0314 -0.7878
  707TMC3    C310451   3.984   4.176   1.934  1.0753  0.2344 -0.2341
  707TMC3    C410452   4.094   4.381   2.082 -0.5060 -0.5699  0.0706
  707TMC3    C510453   3.969   4.393   2.025 -0.7529 -0.3661  0.2685
  707TMC3    C610454   3.917   4.294   1.948 -0.0035  0.3415  0.1930
  707TMC3     C10455   4.293   4.259   2.084  0.3963  0.2067 -0.2480
  707TMC3     O10456   4.352   4.199   1.993 -0.2261 -0.2082 -0.2321
  707TMC3     H10457   4.145   4.053   1.988 -0.2095 -0.1281 -0.0401
  707TMC3    H110458   4.138   4.457   2.145 -2.0559 -1.6186  2.4104
  707TMC3    H210459   3.824   4.299   1.892 -1.4139 -0.6316  2.4332
  707TMC3    C710460   3.907   4.521   2.016  0.0286 -0.1729  0.3395
  707TMC3    C810461   3.975   4.140   1.795 -0.4117 -0.0659  0.0482
  707TMC3    O110462   3.788   4.525   2.007 -0.5448  0.3373  0.1760
  707TMC3    O210463   3.868   4.134   1.741 -0.3194 -0.3117 -0.4252
  708MPD2     C10464   0.926   3.797  14.346  0.3338  0.0983  0.0319
  708MPD2    C110465   0.817   3.874  14.404  0.2842  0.6694 -0.2425
  708MPD2    C210466   0.762   3.826  14.518  0.0142 -0.2775  0.1045
  708MPD2    C310467   0.822   3.723  14.592 -0.6256  0.1047  0.6107
  708MPD2    C410468   0.933   3.660  14.531 -0.3375  0.1335 -0.0086
  708MPD2    C510469   0.982   3.696  14.413  0.4168  0.4384  0.0210
  708MPD2     H10470   0.675   3.877  14.558 -2.5404 -2.4072 -2.7693
  708MPD2    H110471   0.971   3.571  14.581  0.7344  0.6983  0.1884
  708MPD2    H210472   0.977   3.825  14.255  0.3950 -1.1814 -0.3301
  708MPD2    H310473   1.064   3.635  14.376  0.8750  0.6063  0.7689
  708MPD2     N10474   0.791   3.701  14.725  0.0076 -0.2871 -0.3854
  708MPD2    H510475   0.732   3.774  14.763 -1.2666 -0.2755 -2.3814
  708MPD2    N110476   0.771   3.999  14.347 -0.0011  0.3362  0.0953
  708MPD2    H710477   0.803   4.015  14.253 -0.6484 -0.2757 -0.2315
  709TMC3    C110478   0.677   4.217  14.330 -0.3097 -0.3258 -0.0853
  709TMC3    C210479   0.631   4.193  14.212  0.4334  0.3095 -0.6990
  709TMC3    C310480   0.515   4.270  14.187 -0.7335 -0.2146 -0.4910
  709TMC3    C410481   0.649   4.320  14.416  0.2391 -0.4170 -0.2638
  709TMC3    C510482   0.529   4.382  14.399  0.2691 -0.2847 -0.3349
  709TMC3    C610483   0.462   4.368  14.275 -0.9837 -0.5876  0.0214
  709TMC3     C10484   0.700   4.098  14.410 -0.3156 -0.3335 -0.2395
  709TMC3     O10485   0.667   4.094  14.526  0.0689 -0.3909  0.2091
  709TMC3     H10486   0.657   4.116  14.141  1.5373  0.8434 -0.8761
  709TMC3    H110487   0.716   4.329  14.501  0.0340 -2.1316  0.0951
  709TMC3    H210488   0.371   4.415  14.240 -0.6394  0.8040  1.0183
  709TMC3    C710489   0.442   4.386  14.514 -0.3974 -0.0377 -0.2491
  709TMC3    C810490   0.489   4.270  14.046  0.1784 -0.2237 -0.3141
  709TMC3    O110491   0.350   4.466  14.512 -0.6209 -0.2483  0.2319
  709TMC3    O210492   0.479   4.376  13.982  0.5513 -0.5458 -0.0597
  710TMC3    C110493   2.812   1.211   0.529 -0.3082 -0.0918  0.2698
  710TMC3    C210494   2.854   1.091   0.471  0.1141  0.1690 -0.1168
  710TMC3    C310495   2.882   0.988   0.555 -0.2459  0.3432 -0.5454
  710TMC3    C410496   2.816   1.229   0.667  0.2495  0.1373 -0.2401
  710TMC3    C510497   2.850   1.116   0.743  0.5877 -0.4933  0.3355
  710TMC3    C610498   2.883   0.988   0.692  0.3027  1.0590  0.6389
  710TMC3     C10499   2.718   1.280   0.449  0.5819 -0.0393  0.4393
  710TMC3     O10500   2.738   1.287   0.329 -0.0156 -0.2672 -0.1977
  710TMC3     H10501   2.871   1.082   0.365 -1.5168  0.3458 -0.3808
  710TMC3    H110502   2.778   1.318   0.715  0.1125 -0.5968  1.0041
  710TMC3    H210503   2.918   0.911   0.760 -1.2365  0.3459  0.6333
  710TMC3    C710504   2.843   1.136   0.887  0.1535 -0.6284  0.3786
  710TMC3    C810505   2.922   0.865   0.493 -0.1291  0.2456 -0.4068
  710TMC3    O110506   2.854   1.255   0.915 -0.2622  0.1042  0.3676
  710TMC3    O210507   2.988   0.870   0.390  0.2807  0.1370  0.7596
  711TMC3    C110508   2.043   1.660  14.897 -0.9489  0.1184 -0.3736
  711TMC3    C210509   2.044   1.727  15.017  0.3968  0.1664  0.3910
  711TMC3    C310510   2.145   1.699  15.104 -0.7948  0.6026  0.4864
  711TMC3    C410511   2.132   1.550  14.875 -0.3543 -0.2701 -0.4396
  711TMC3    C510512   2.216   1.513  14.976  0.5613 -0.3267  0.1388
  711TMC3    C610513   2.217   1.581  15.094 -0.0031 -0.2575 -0.3499
  711TMC3     C10514   1.927   1.661  14.816  0.6215  0.2416 -0.3165
  711TMC3     O10515   1.913   1.561  14.744  0.3036 -0.1738 -0.1754
  711TMC3     H10516   1.978   1.811  15.039  1.1975  0.9376 -0.1647
  711TMC3    H110517   2.124   1.493  14.783 -0.6593  0.9071 -1.1472
  711TMC3    H210518   2.299   1.553  15.159  0.3557  2.1826  0.2478
  711TMC3    C710519   2.270   1.375  14.977  0.4610 -0.7523  0.5123
  711TMC3    C810520   2.136   1.757  15.239 -0.6573  0.1870 -0.2944
  711TMC3    O110521   2.318   1.343  15.087  0.0048  0.9059 -0.3880
  711TMC3    O210522   2.026   1.774  15.284  0.1578 -0.3816  0.1189
  712MPD2     C10523   3.382   2.691  13.292  0.1079  0.0730  0.4662
  712MPD2    C110524   3.242   2.672  13.296  0.8604  0.1831  0.1902
  712MPD2    C210525   3.170   2.743  13.389  0.0260 -0.0523  0.1496
  712MPD2    C310526   3.237   2.813  13.487 -0.7789 -0.2051 -0.2237
  712MPD2    C410527   3.373   2.836  13.474 -0.5344  0.7576 -0.3550
  712MPD2    C510528   3.444   2.779  13.372 -0.3350  0.1232 -0.3372
  712MPD2     H10529   3.062   2.742  13.383  0.1016 -1.8307 -0.9445
  712MPD2    H110530   3.427   2.893  13.548  0.1939 -0.4108  0.0166
  712MPD2    H210531   3.447   2.642  13.219 -2.1137 -1.5417 -0.4317
  712MPD2    H310532   3.549   2.800  13.357 -0.6029  0.0647 -2.4147
  712MPD2     N10533   3.174   2.886  13.589  0.1542  0.6693 -0.5577
  712MPD2    H510534   3.237   2.925  13.658  1.7207 -1.8752 -0.5259
  712MPD2    N110535   3.177   2.571  13.217  0.1010  0.3305  0.2892
  712MPD2    H710536   3.239   2.530  13.147  0.6619  1.4382  0.1430
  713TMC3    C110537   3.021   3.006  13.708  0.8989  0.7307 -0.1931
  713TMC3    C210538   3.098   2.976  13.811  0.9259 -0.3131 -0.4524
  713TMC3    C310539   3.138   3.087  13.890 -0.2740  0.3172  0.7360
  713TMC3    C410540   2.955   3.122  13.691 -0.1513 -1.0196  0.2079
  713TMC3    C510541   2.983   3.221  13.785  0.8594 -0.4327  0.1165
  713TMC3    C610542   3.085   3.208  13.875  0.6847 -0.2121  0.1126
  713TMC3     C10543   3.037   2.914  13.597 -0.2406 -0.3756  1.2422
  713TMC3     O10544   2.951   2.913  13.510  0.0517  0.5052  0.2907
  713TMC3     H10545   3.145   2.882  13.838 -0.2495 -0.0805  2.4873
  713TMC3    H110546   2.896   3.134  13.601 -1.0784 -0.9008  0.8234
  713TMC3    H210547   3.109   3.287  13.945 -0.8120  1.0207 -0.7672
  713TMC3    C710548   2.970   3.362  13.744  0.0667  0.9380 -0.3239
  713TMC3    C810549   3.284   3.082  13.899 -0.5574  0.5207  0.0164
  713TMC3    O110550   3.069   3.431  13.761  0.0991 -0.2879  0.9355
  713TMC3    O210551   3.340   3.009  13.815 -0.6820 -0.0361 -0.3943
  714MPD2     C10552   0.363   1.316   0.810  0.0526  0.2374 -0.1590
  714MPD2    C110553   0.272   1.282   0.905  0.8594  0.2349 -0.6104
  714MPD2    C210554   0.176   1.376   0.936 -0.1355  0.1640 -0.5109
  714MPD2    C310555   0.182   1.502   0.885  0.2061 -0.1333  0.3756
  714MPD2    C410556   0.288   1.541   0.805  0.5696 -0.3653  0.0821
  714MPD2    C510557   0.371   1.446   0.761  0.6776  0.3762 -0.0344
  714MPD2     H10558   0.086   1.356   0.993  2.2357  1.4047  3.6539
  714MPD2    H110559   0.299   1.639   0.759  2.9811 -1.0354 -0.8000
  714MPD2    H210560   0.445   1.250   0.784 -0.1088 -0.3513  0.8052
  714MPD2    H310561   0.451   1.468   0.692 -0.3009  0.3349 -1.1843
  714MPD2     N10562   0.075   1.587   0.923 -0.1370 -0.3910  0.8920
  714MPD2    H510563   0.021   1.544   0.997 -1.0675  1.1038  1.0925
  714MPD2    N110564   0.281   1.159   0.970 -0.2938  0.3797 -1.0820
  714MPD2    H710565   0.348   1.095   0.928  0.2061  0.7709 -0.8814
  715TMC3    C110566   0.280   1.003   1.136 -0.7477  0.2680 -0.5933
  715TMC3    C210567   0.372   0.937   1.062 -0.4137 -0.1226 -0.2360
  715TMC3    C310568   0.465   0.861   1.122  0.3043 -0.0771 -0.1411
  715TMC3    C410569   0.283   0.990   1.274  0.3281  0.4395 -0.2098
  715TMC3    C510570   0.385   0.918   1.332  0.0662  0.2249 -0.0218
  715TMC3    C610571   0.479   0.855   1.258 -0.8630  0.2515 -0.2225
  715TMC3     C10572   0.219   1.127   1.086  0.1079  0.6299  0.2313
  715TMC3     O10573   0.127   1.170   1.151 -0.1278 -0.1454  0.0571
  715TMC3     H10574   0.357   0.935   0.954 -0.8563 -0.7336 -0.1653
  715TMC3    H110575   0.220   1.046   1.342  0.4437 -1.0325  1.0965
  715TMC3    H210576   0.550   0.787   1.303 -0.6226  0.3443 -0.4642
  715TMC3    C710577   0.406   0.919   1.474 -1.2201  0.1360 -0.6952
  715TMC3    C810578   0.573   0.806   1.036  0.7286  0.4733  0.3523
  715TMC3    O110579   0.306   0.924   1.544  0.5473  0.0687  0.2617
  715TMC3    O210580   0.553   0.782   0.918 -0.2638  0.0914  0.2834
  716MPD2     C10581   0.353   4.100   9.962  0.0113  1.2751 -0.1128
  716MPD2    C110582   0.261   4.086   9.866 -0.1871 -0.0134 -0.7075
  716MPD2    C210583   0.284   3.995   9.765  0.5733  0.0037 -0.4159
  716MPD2    C310584   0.409   3.930   9.762 -0.0307 -0.1810  0.2374
  716MPD2    C410585   0.507   3.960   9.856 -0.6358  0.0547  0.4454
  716MPD2    C510586   0.473   4.043   9.958 -0.3688  0.3131 -0.2927
  716MPD2     H10587   0.217   3.983   9.681  1.0719 -0.9588 -0.6828
  716MPD2    H110588   0.612   3.933   9.854 -0.7409 -0.2531 -0.8198
  716MPD2    H210589   0.347   4.162  10.050 -0.6116 -1.5521  1.8408
  716MPD2    H310590   0.541   4.062  10.040  1.5469 -0.8043 -1.6028
  716MPD2     N10591   0.436   3.855   9.646  0.1531 -0.5778 -0.4542
  716MPD2    H510592   0.363   3.864   9.576  0.4822 -0.0086 -0.7174
  716MPD2    N110593   0.133   4.148   9.877 -0.2624 -0.6675 -0.0615
  716MPD2    H710594   0.120   4.219   9.949 -2.7227 -3.0507  1.8619
  717TMC3    C110595   0.540   3.689   9.499 -0.0031  0.3370  0.1278
  717TMC3    C210596   0.449   3.705   9.398  0.2692 -0.6557  0.3919
  717TMC3    C310597   0.460   3.622   9.289  0.1456 -0.5499  0.2111
  717TMC3    C410598   0.630   3.585   9.493 -0.6001  0.4536  0.6121
  717TMC3    C510599   0.639   3.507   9.378 -0.1040  0.3568 -0.3196
  717TMC3    C610600   0.551   3.518   9.278 -0.2913 -0.0262 -1.3105
  717TMC3     C10601   0.544   3.772   9.619 -0.2348 -0.2053 -0.1062
  717TMC3     O10602   0.645   3.770   9.684  0.6680 -0.4104  0.1748
  717TMC3     H10603   0.376   3.786   9.403  1.2300  0.2258  0.1719
  717TMC3    H110604   0.700   3.567   9.573  0.8653 -0.1653 -0.8021
  717TMC3    H210605   0.556   3.456   9.188 -1.8609 -0.0350 -1.3766
  717TMC3    C710606   0.726   3.393   9.368 -0.1926 -0.2908 -0.1111
  717TMC3    C810607   0.355   3.648   9.192  0.1530  1.1721  0.1976
  717TMC3    O110608   0.707   3.317   9.272  0.0863 -0.0497  0.3321
  717TMC3    O210609   0.277   3.739   9.212  0.2072 -0.5310  0.8413
  718MPD2     C10610   0.033   3.886  12.581 -0.4371  0.2855  0.5870
  718MPD2    C110611   4.723   3.854  12.456  0.1509 -1.0454 -0.6892
  718MPD2    C210612   4.638   3.746  12.438  0.7849 -0.2005 -0.3286
  718MPD2    C310613   4.589   3.669  12.542  0.1549  0.2728 -0.1048
  718MPD2    C410614   4.641   3.692  12.668 -0.0415 -0.5191 -0.4094
  718MPD2    C510615   0.002   3.802  12.684 -0.8010 -0.6870 -0.5322
  718MPD2     H10616   4.605   3.724  12.337 -0.3896  2.3071 -0.4959
  718MPD2    H110617   4.622   3.625  12.751  0.8847 -0.9569 -0.5497
  718MPD2    H210618   0.092   3.973  12.605 -2.1017  0.8304  2.7167
  718MPD2    H310619   0.043   3.819  12.783 -0.9244 -0.2630 -0.5534
  718MPD2     N10620   4.492   3.572  12.513 -0.0613 -0.4909  0.0243
  718MPD2    H510621   4.481   3.549  12.414 -0.9405  3.2096 -0.7468
  718MPD2    N110622   0.045   3.938  12.355  1.1279 -0.3904  0.3246
  718MPD2    H710623   0.122   4.000  12.377 -0.8319  1.1749  2.7476
  719TMC3    C110624   0.084   3.982  12.125  0.2827  0.8429  0.0159
  719TMC3    C210625   0.014   3.982  12.009  0.6181  0.1471  0.4147
  719TMC3    C310626   0.051   3.921  11.890 -0.0707 -0.2947  1.1281
  719TMC3    C410627   0.195   3.905  12.127  0.3966  0.1737  0.8113
  719TMC3    C510628   0.236   3.826  12.016 -0.7569 -0.0079 -0.7735
  719TMC3    C610629   0.167   3.851  11.899 -0.6686  0.3272  0.1483
  719TMC3     C10630   4.715   3.940  12.224 -0.2995  1.2072 -0.5484
  719TMC3     O10631   4.602   3.911  12.183  0.0779 -0.0640  0.6401
  719TMC3     H10632   4.651   4.046  12.011  0.6866  0.2119  1.2785
  719TMC3    H110633   0.241   3.884  12.223  1.8187  0.2561  0.1469
  719TMC3    H210634   0.190   3.794  11.809 -2.7780  0.1122 -0.2588
  719TMC3    C710635   0.262   3.682  12.042  0.3606  0.1314 -0.2413
  719TMC3    C810636   4.659   3.866  11.825  0.3118  0.1164 -0.1757
  719TMC3    O110637   0.315   3.610  11.961  0.0192  0.2975  0.1369
  719TMC3    O210638   4.670   3.842  11.704 -1.0136  0.2835 -0.3879
  720MPD2     C10639   3.434   0.133  13.895 -0.1073 -0.5748  0.5622
  720MPD2    C110640   3.552   0.148  13.823  0.2945 -0.3044 -0.3640
  720MPD2    C210641   3.676   0.106  13.877  0.5248 -0.2203  0.3793
  720MPD2    C310642   3.683   0.053  14.002 -0.0857  0.4706  0.1544
  720MPD2    C410643   3.566   0.050  14.076  0.5370 -0.4882 -0.3971
  720MPD2    C510644   3.445   0.082  14.021 -0.8885  0.1810 -0.2931
  720MPD2     H10645   3.769   0.105  13.820 -0.5015  0.2894 -1.2944
  720MPD2    H110646   3.555   4.722  14.171 -0.3417  0.6506  0.1321
  720MPD2    H210647   3.335   0.158  13.858  0.8515 -0.6516 -2.0379
  720MPD2    H310648   3.352   0.055  14.068 -0.8821 -1.2804 -1.1041
  720MPD2     N10649   3.805   0.004  14.041 -0.5565  0.1150  0.1108
  720MPD2    H510650   3.883   0.013  13.977 -2.1653  0.0004 -1.8722
  720MPD2    N110651   3.553   0.186  13.689  0.4410 -0.0579 -0.2532
  720MPD2    H710652   3.634   0.165  13.631  0.1109 -1.3022 -0.2653
  721TMC3    C110653   3.976   4.685  14.202  0.6256 -0.3154 -0.0210
  721TMC3    C210654   4.006   4.641  14.333  0.2782 -0.0585  0.3902
  721TMC3    C310655   4.125   4.668  14.387  1.1437  0.0520 -0.2873
  721TMC3    C410656   4.075   0.009  14.123  0.3328 -0.0041  0.3056
  721TMC3    C510657   4.207   0.011  14.177  0.2168 -0.6807 -0.3847
  721TMC3    C610658   4.233   4.704  14.309 -0.3332 -0.2942 -0.2989
  721TMC3     C10659   3.830   4.683  14.166  0.1831 -0.4093  0.6526
  721TMC3     O10660   3.758   4.652  14.260 -0.6856  0.3999 -0.2319
  721TMC3     H10661   3.925   4.596  14.389 -0.6415  1.0361 -0.0602
  721TMC3    H110662   4.059   0.049  14.024  0.6362 -1.9720 -0.5509
  721TMC3    H210663   4.333   4.707  14.349 -0.9032  0.5463  1.0626
  721TMC3    C710664   4.325   0.056  14.106  0.5357  0.0219 -0.0542
  721TMC3    C810665   4.148   4.659  14.535  0.2111 -0.2976  0.5939
  721TMC3    O110666   4.346   0.014  13.989 -0.1445 -0.5485  0.1038
  721TMC3    O210667   4.262   4.656  14.575 -0.3855  0.7130  0.2411
  722MPD2     C10668   1.883   3.213  13.402  0.0659  0.2986  0.2488
  722MPD2    C110669   1.839   3.335  13.364  0.0963 -0.4725  0.3897
  722MPD2    C210670   1.708   3.353  13.330  0.3628 -0.5719 -0.7897
  722MPD2    C310671   1.618   3.248  13.345  1.1652  0.2291 -0.2416
  722MPD2    C410672   1.665   3.131  13.401  0.7532 -0.5433  1.1807
  722MPD2    C510673   1.801   3.115  13.436  0.1018 -0.5012  0.4014
  722MPD2     H10674   1.672   3.446  13.287  1.0664  0.1709  0.2216
  722MPD2    H110675   1.605   3.043  13.424  0.7306 -0.8532 -0.0909
  722MPD2    H210676   1.990   3.197  13.415 -0.1425 -0.9605  0.4153
  722MPD2    H310677   1.835   3.020  13.477 -0.8426  0.0486  2.4442
  722MPD2     N10678   1.482   3.259  13.294 -0.2211 -0.2106  0.0850
  722MPD2    H510679   1.443   3.349  13.268  1.6292  0.2272 -1.1312
  722MPD2    N110680   1.918   3.453  13.352 -0.2122  0.1365 -0.2382
  722MPD2    H710681   1.869   3.533  13.314 -0.6900 -0.7496 -1.4924
  723TMC3    C110682   1.264   3.190  13.236 -0.0502  0.8499 -0.0050
  723TMC3    C210683   1.208   3.111  13.138  0.4825 -0.3076  0.1537
  723TMC3    C310684   1.091   3.158  13.082  0.3129  0.4547 -0.2542
  723TMC3    C410685   1.211   3.306  13.288  0.5389  0.4575  0.1843
  723TMC3    C510686   1.094   3.340  13.232  0.0697 -0.2025 -0.2626
  723TMC3    C610687   1.042   3.277  13.123  0.1076 -0.1647  0.6591
  723TMC3     C10688   1.401   3.151  13.275 -0.5548 -0.1988  0.4252
  723TMC3     O10689   1.414   3.029  13.275  0.1609  0.8510  0.3160
  723TMC3     H10690   1.257   3.020  13.107  1.1967 -0.1192  0.7242
  723TMC3    H110691   1.259   3.368  13.364 -0.0801  1.1258  0.0290
  723TMC3    H210692   0.946   3.314  13.088  1.2491  0.7870 -1.4250
  723TMC3    C710693   1.025   3.463  13.260 -0.0340 -0.7857  0.7463
  723TMC3    C810694   1.035   3.106  12.955  0.1214 -0.5695  0.1231
  723TMC3    O110695   0.903   3.463  13.257  0.2045 -0.0157  0.8786
  723TMC3    O210696   0.962   3.182  12.891  0.2504  0.1419  0.6217
  724TMC3    C110697   2.544   1.519  10.724 -0.1730  0.4680  0.3112
  724TMC3    C210698   2.506   1.452  10.613 -0.3258  0.2296 -0.1313
  724TMC3    C310699   2.519   1.515  10.495  0.6018 -0.2139  0.2205
  724TMC3    C410700   2.610   1.639  10.715  0.1324  0.5588 -0.0018
  724TMC3    C510701   2.616   1.691  10.588 -0.1733  0.2597 -0.0384
  724TMC3    C610702   2.577   1.632  10.473 -0.3740 -0.2411 -0.2777
  724TMC3     C10703   2.540   1.453  10.849 -0.5877 -0.3543 -0.4195
  724TMC3     O10704   2.525   1.332  10.844 -0.0445  0.6844 -0.3669
  724TMC3     H10705   2.445   1.362  10.614  0.2214 -0.1310  1.0481
  724TMC3    H110706   2.649   1.701  10.795 -2.7212  2.0298  0.2588
  724TMC3    H210707   2.578   1.696  10.386  3.1939  3.3665  2.4502
  724TMC3    C710708   2.689   1.811  10.567  0.0371  0.4673  0.0277
  724TMC3    C810709   2.466   1.445  10.380 -0.1159 -0.1106 -0.0692
  724TMC3    O110710   2.735   1.831  10.454 -0.2348 -0.1060 -0.3945
  724TMC3    O210711   2.372   1.364  10.397 -0.3118  0.2126 -0.1462
  725TMC3    C110712   4.040   0.354  13.130 -0.7914  0.0349 -0.7517
  725TMC3    C210713   3.931   0.395  13.058 -0.2543 -0.7994  0.7416
  725TMC3    C310714   3.902   0.323  12.943 -0.1669  0.1613 -0.0856
  725TMC3    C410715   4.111   0.242  13.100 -0.4836 -0.4328 -0.6114
  725TMC3    C510716   4.063   0.167  12.994  0.0513  0.3396 -0.1334
  725TMC3    C610717   3.969   0.210  12.906  0.0996 -0.1538  0.1602
  725TMC3     C10718   4.115   0.467  13.182  0.5572 -0.4749  0.2319
  725TMC3     O10719   4.068   0.581  13.161  0.3182  0.0234 -0.0231
  725TMC3     H10720   3.888   0.495  13.064  3.2139  0.7517  0.0394
  725TMC3    H110721   4.184   0.192  13.163  0.8346  3.0982  0.6370
  725TMC3    H210722   3.944   0.148  12.821  1.5177 -2.2228  1.2389
  725TMC3    C710723   4.139   0.052  12.949 -0.1948  0.5955  0.5255
  725TMC3    C810724   3.776   0.352  12.884 -0.8694 -0.0224  0.0247
  725TMC3    O110725   4.164   0.028  12.829 -0.1692  0.0796 -0.1447
  725TMC3    O210726   3.686   0.402  12.953  0.2397  0.8655  0.1403
  726MPD2     C10727   1.730   1.442  10.583 -0.5981 -0.3134 -0.4763
  726MPD2    C110728   1.780   1.566  10.626  0.2811  0.1761 -0.3794
  726MPD2    C210729   1.743   1.607  10.752 -0.3646 -0.0758 -0.4100
  726MPD2    C310730   1.664   1.538  10.833  0.1776 -0.4489  0.3912
  726MPD2    C410731   1.606   1.418  10.784 -0.4439 -0.2840 -0.0879
  726MPD2    C510732   1.643   1.375  10.662  0.6738  0.2186  0.3105
  726MPD2     H10733   1.795   1.697  10.784 -1.0654  0.6489 -1.3034
  726MPD2    H110734   1.547   1.351  10.846 -1.3533  1.3301  0.7920
  726MPD2    H210735   1.762   1.405  10.487 -2.1964 -3.4611  0.2069
  726MPD2    H310736   1.598   1.286  10.621 -1.8866  1.1291  1.1378
  726MPD2     N10737   1.619   1.579  10.960 -0.3362 -0.1987 -1.0696
  726MPD2    H510738   1.563   1.515  11.016 -0.6324  0.9796 -0.0198
  726MPD2    N110739   1.850   1.660  10.547  0.0924  0.3412 -0.1093
  726MPD2    H710740   1.864   1.747  10.598  1.1235  0.2129 -0.1752
  727TMC3    C110741   1.928   1.774  10.352 -1.0584  0.7966  0.2756
  727TMC3    C210742   1.987   1.865  10.436 -0.1929  0.2809 -0.0668
  727TMC3    C310743   1.989   1.991  10.390 -0.2801 -1.0546  0.0707
  727TMC3    C410744   1.842   1.814  10.250 -0.1566 -0.3286  0.5198
  727TMC3    C510745   1.841   1.942  10.215  0.0548 -0.1601  0.5911
  727TMC3    C610746   1.925   2.026  10.277  0.4972 -0.3295  0.7442
  727TMC3     C10747   1.869   1.653  10.407  0.2679  0.1175  0.0139
  727TMC3     O10748   1.852   1.560  10.330  0.4718 -0.2390  0.8724
  727TMC3     H10749   2.044   1.836  10.524 -0.2589 -0.7825 -0.3747
  727TMC3    H110750   1.769   1.746  10.207 -0.4633  0.2755  0.0831
  727TMC3    H210751   1.950   2.119  10.228  0.8752 -0.0382  1.4997
  727TMC3    C710752   1.756   1.972  10.100  0.5733 -0.5537  0.6780
  727TMC3    C810753   2.092   2.079  10.426  0.0679 -0.3968 -0.2149
  727TMC3    O110754   1.711   1.878  10.033  0.1432  0.1426 -0.0434
  727TMC3    O210755   2.142   2.145  10.334 -0.2961  0.1749  0.3377
  728TMC3    C110756   1.098   0.313  15.321 -0.5806  0.3041 -0.8326
  728TMC3    C210757   1.221   0.370  15.327  0.8427 -0.3514  0.3097
  728TMC3    C310758   1.261   0.461  15.230  0.7310 -0.3569 -0.0227
  728TMC3    C410759   1.014   0.350  15.212  0.2147  0.0685 -1.1095
  728TMC3    C510760   1.054   0.448  15.120 -0.3090  0.7204 -0.3331
  728TMC3    C610761   1.179   0.503  15.131  0.6549 -0.1199 -0.0721
  728TMC3     C10762   1.051   0.228  15.427 -0.6091  0.1237  0.1967
  728TMC3     O10763   1.133   0.184  15.500 -0.2965 -0.3359  0.5645
  728TMC3     H10764   1.299   0.338  15.394  1.0253 -3.2897 -1.3070
  728TMC3    H110765   0.913   0.314  15.197 -0.0652  0.5966 -0.4911
  728TMC3    H210766   1.198   0.598  15.083 -0.7272 -1.0614 -2.4899
  728TMC3    C710767   0.972   0.491  15.009 -0.1740  0.9155 -0.1086
  728TMC3    C810768   1.388   0.524  15.240 -0.1916  0.2258 -0.3906
  728TMC3    O110769   0.847   0.480  15.031  0.2906 -0.5945 -0.0635
  728TMC3    O210770   1.446   0.530  15.342  0.2766  0.2077  0.0179
  729MPD2     C10771   3.347   1.692  17.017  0.6214 -0.7370 -0.2447
  729MPD2    C110772   3.446   1.605  17.050 -0.1579 -0.0742 -0.3143
  729MPD2    C210773   3.477   1.577  17.179 -0.6498 -0.1858 -0.2232
  729MPD2    C310774   3.399   1.638  17.278  0.1919 -0.6412 -0.1715
  729MPD2    C410775   3.308   1.735  17.240  0.3598 -0.1502 -0.2378
  729MPD2    C510776   3.275   1.755  17.109  0.3246  1.0086  0.3251
  729MPD2     H10777   3.548   1.499  17.206 -1.0058 -1.4039 -2.8210
  729MPD2    H110778   3.248   1.789  17.312  0.2817 -0.9373  0.2897
  729MPD2    H210779   3.318   1.716  16.916  0.7398 -1.6418 -0.4915
  729MPD2    H310780   3.206   1.832  17.075 -0.2578  0.4657  0.2832
  729MPD2     N10781   3.402   1.626  17.421 -0.3376 -0.0793  0.5998
  729MPD2    H510782   3.359   1.708  17.465  0.0165 -0.3834  1.5136
  729MPD2    N110783   3.521   1.558  16.939 -0.0730  0.6296  0.6278
  729MPD2    H710784   3.497   1.594  16.847 -0.3756 -1.5633 -0.1523
  730TMC3    C110785   3.502   1.587  17.630 -0.3611  0.0772  0.4415
  730TMC3    C210786   3.631   1.557  17.652  0.3032  0.2238 -0.2806
  730TMC3    C310787   3.726   1.664  17.647  0.0351  0.2392 -0.2206
  730TMC3    C410788   3.455   1.716  17.637  0.7296  0.1387 -0.1055
  730TMC3    C510789   3.551   1.818  17.644 -0.1339  0.4809  0.6950
  730TMC3    C610790   3.686   1.798  17.649  0.3950 -0.4380  0.0855
  730TMC3     C10791   3.472   1.534  17.501  0.1374 -0.6623  0.2672
  730TMC3     O10792   3.532   1.436  17.468 -0.1121  0.2236 -0.3287
  730TMC3     H10793   3.669   1.457  17.666 -1.2824 -0.3187  0.1231
  730TMC3    H110794   3.348   1.730  17.646  0.8688  0.3061  1.2609
  730TMC3    H210795   3.754   1.882  17.643  0.0790 -0.2486 -0.9120
  730TMC3    C710796   3.514   1.935  17.566 -0.3106  0.3058  0.7114
  730TMC3    C810797   3.844   1.617  17.579 -0.2167 -0.0627 -0.3783
  730TMC3    O110798   3.597   1.995  17.501 -0.5885  0.5494 -0.4297
  730TMC3    O210799   3.874   1.499  17.598  0.0396 -0.1466  0.4212
  731MPD2     C10800   3.764   4.030  12.234  0.0791 -0.1935  0.4238
  731MPD2    C110801   3.663   4.114  12.202 -0.3196 -0.4070  0.1332
  731MPD2    C210802   3.537   4.091  12.263  0.6596 -0.1561  0.5181
  731MPD2    C310803   3.517   3.979  12.351  0.9990 -0.4916 -0.2769
  731MPD2    C410804   3.619   3.885  12.365 -0.0831  0.5080  0.7428
  731MPD2    C510805   3.742   3.924  12.314  0.1536 -0.4090 -0.3363
  731MPD2     H10806   3.451   4.153  12.242 -1.1051 -2.9714 -0.6333
  731MPD2    H110807   3.606   3.789  12.413  0.9801 -1.3950 -2.7918
  731MPD2    H210808   3.868   4.044  12.205  0.3411 -1.7993  0.6150
  731MPD2    H310809   3.828   3.860  12.332  0.8176  0.6248  0.1944
  731MPD2     N10810   3.391   3.965  12.415  0.0795 -0.0267  0.1509
  731MPD2    H510811   3.329   4.045  12.412 -0.4710 -0.4698 -0.2185
  731MPD2    N110812   3.682   4.219  12.106 -0.6468  0.0210 -0.5402
  731MPD2    H710813   3.781   4.237  12.088  0.3630 -2.3539  2.6046
  732TMC3    C110814   3.641   4.398  11.956 -0.4577 -0.5428  0.7090
  732TMC3    C210815   3.559   4.436  11.855 -0.2080  0.5834  1.0346
  732TMC3    C310816   3.617   4.502  11.747  0.3527 -0.0911 -0.2458
  732TMC3    C410817   3.774   4.425  11.959  0.2713  0.3289  0.5720
  732TMC3    C510818   3.820   4.492  11.845 -0.3676  0.2750 -0.1271
  732TMC3    C610819   3.744   4.529  11.741 -0.3479 -0.3770  0.2376
  732TMC3     C10820   3.587   4.290  12.039 -0.0254  0.1564 -0.5716
  732TMC3     O10821   3.470   4.262  12.028  0.2652  0.0584  0.1407
  732TMC3     H10822   3.462   4.390  11.849  0.3696 -0.4468 -0.4342
  732TMC3    H110823   3.827   4.422  12.054  1.5597 -0.0369 -0.1540
  732TMC3    H210824   3.790   4.575  11.655  1.6113 -1.3967  0.7321
  732TMC3    C710825   3.956   4.547  11.832 -0.1665 -1.2722 -0.7435
  732TMC3    C810826   3.536   4.595  11.668 -0.3340  1.1614  0.2883
  732TMC3    O110827   3.981   4.639  11.757  0.0640 -0.3988  0.3149
  732TMC3    O210828   3.585   4.711  11.661  0.1227 -0.0567  0.2986
  733TMC3    C110829   4.095   3.330  12.498 -0.1537  0.6486  0.2327
  733TMC3    C210830   4.191   3.387  12.583  0.1616 -0.3564  0.0300
  733TMC3    C310831   4.308   3.431  12.520 -0.1068 -0.7718 -0.1601
  733TMC3    C410832   4.110   3.323  12.359  0.4314 -0.2396  0.0581
  733TMC3    C510833   4.220   3.383  12.305 -0.3000  0.3726  0.0910
  733TMC3    C610834   4.324   3.422  12.382 -0.1638  0.0852  0.3515
  733TMC3     C10835   3.964   3.305  12.545  0.4612 -0.3543  0.4941
  733TMC3     O10836   3.875   3.343  12.473 -0.1539 -0.0566  0.3140
  733TMC3     H10837   4.171   3.398  12.689 -2.3694  0.4150 -0.5261
  733TMC3    H110838   4.028   3.296  12.293 -0.3651  4.2992 -0.7874
  733TMC3    H210839   4.419   3.426  12.329 -0.7949 -2.6766 -0.9480
  733TMC3    C710840   4.226   3.398  12.167  0.2346  0.2264  0.5151
  733TMC3    C810841   4.396   3.521  12.598  0.6142 -0.1990 -0.1482
  733TMC3    O110842   4.148   3.340  12.088  0.0645 -0.0932  0.0154
  733TMC3    O210843   4.383   3.532  12.718  0.0539  0.5181 -0.1241
  734MPD2     C10844   1.776   1.076  12.427  0.1815 -0.3247  0.2311
  734MPD2    C110845   1.711   0.957  12.389  0.5217 -0.2294 -0.2302
  734MPD2    C210846   1.704   0.931  12.253 -0.1863 -0.0385  0.1883
  734MPD2    C310847   1.740   1.023  12.160 -0.2668  0.2337  0.3559
  734MPD2    C410848   1.791   1.147  12.199 -0.0234  0.6032  0.8336
  734MPD2    C510849   1.806   1.168  12.333 -0.2433 -0.2666 -0.5734
  734MPD2     H10850   1.668   0.836  12.214  0.8032  0.1452 -1.1746
  734MPD2    H110851   1.820   1.212  12.117 -1.3416  1.8121  1.3215
  734MPD2    H210852   1.782   1.098  12.533 -1.5255  0.3014  0.2007
  734MPD2    H310853   1.857   1.258  12.366  0.3399  0.0282 -2.2625
  734MPD2     N10854   1.745   0.975  12.031 -0.4150 -0.5542 -0.3445
  734MPD2    H510855   1.707   0.881  12.024 -1.1661 -0.1963 -1.0858
  734MPD2    N110856   1.663   0.864  12.480  0.5252  0.3896 -0.0848
  734MPD2    H710857   1.673   0.889  12.578  2.5266  1.1815 -0.4750
  735TMC3    C110858   1.583   0.648  12.544  0.1629 -0.6847 -0.0384
  735TMC3    C210859   1.474   0.574  12.515  0.5312  0.1302  0.5544
  735TMC3    C310860   1.489   0.433  12.512 -0.1722  0.3805  0.0816
  735TMC3    C410861   1.697   0.591  12.576 -0.2704 -0.4940 -0.1902
  735TMC3    C510862   1.715   0.454  12.586 -0.0200 -0.2153  0.7791
  735TMC3    C610863   1.611   0.381  12.552  0.1443  0.2239  0.2958
  735TMC3     C10864   1.597   0.750  12.443  0.0154 -0.2790  0.2471
  735TMC3     O10865   1.536   0.727  12.339 -0.1487 -0.6316  0.4839
  735TMC3     H10866   1.377   0.611  12.483 -1.4527 -1.9380  4.1581
  735TMC3    H110867   1.785   0.655  12.577 -0.5072 -0.1329 -2.2022
  735TMC3    H210868   1.627   0.275  12.539 -0.4600  0.3569 -1.4545
  735TMC3    C710869   1.830   0.422  12.516  0.9004 -0.1485  0.2696
  735TMC3    C810870   1.445   0.364  12.392  0.4350  0.1169  0.7390
  735TMC3    O110871   1.863   0.497  12.424  0.2468  0.7607 -0.0579
  735TMC3    O210872   1.447   0.240  12.389  0.3226 -0.2046  0.5083
  736MPD2     C10873   2.025   0.119  12.562  0.6351  0.1518 -0.8834
  736MPD2    C110874   1.994   0.236  12.504 -0.1198 -1.1428  0.4761
  736MPD2    C210875   2.066   0.283  12.397 -0.5801 -0.8945 -0.0501
  736MPD2    C310876   2.163   0.203  12.337 -0.5112  0.1403  0.2562
  736MPD2    C410877   2.190   0.080  12.395 -0.0230 -0.2654  0.1509
  736MPD2    C510878   2.131   0.040  12.511  0.0106 -0.7884  0.4027
  736MPD2     H10879   2.046   0.385  12.365  1.2136  0.4391  3.0315
  736MPD2    H110880   2.257   0.019  12.335 -2.5480  0.3468 -3.2796
  736MPD2    H210881   1.968   0.081  12.646 -0.9575 -0.6769 -2.3556
  736MPD2    H310882   2.151   4.668  12.556 -0.2597 -0.3280  1.5055
  736MPD2     N10883   2.222   0.231  12.210  0.8142  0.4110 -1.1831
  736MPD2    H510884   2.270   0.150  12.173  0.0772  0.0670 -1.3997
  736MPD2    N110885   1.889   0.306  12.556  0.1033 -0.1691  0.1917
  736MPD2    H710886   1.849   0.262  12.638  0.0831 -1.1845 -0.3656
  737TMC3    C110887   2.260   0.333  11.990 -0.1251 -0.1896 -0.0589
  737TMC3    C210888   2.258   0.447  11.919 -0.1294 -0.1148 -1.1698
  737TMC3    C310889   2.263   0.428  11.787 -0.9568  0.5528 -0.5443
  737TMC3    C410890   2.266   0.208  11.935 -0.5183  0.6015 -0.2698
  737TMC3    C510891   2.264   0.192  11.798  0.0065 -0.5267  0.3403
  737TMC3    C610892   2.265   0.308  11.720  0.3210  0.5273  0.1010
  737TMC3     C10893   2.205   0.342  12.123  0.4065  0.0214  0.6126
  737TMC3     O10894   2.128   0.438  12.149  0.2211 -0.7455 -0.0039
  737TMC3     H10895   2.264   0.541  11.972  0.4108  0.0088 -1.4482
  737TMC3    H110896   2.251   0.115  11.989 -0.5568  1.0110  0.4236
  737TMC3    H210897   2.253   0.299  11.613 -0.8080 -0.8521  0.3389
  737TMC3    C710898   2.329   0.070  11.751  0.4871 -0.1107  0.9255
  737TMC3    C810899   2.279   0.553  11.704 -0.5773 -0.0085  0.5036
  737TMC3    O110900   2.342   4.702  11.828 -0.4731  0.0846 -0.3261
  737TMC3    O210901   2.290   0.660  11.759 -0.6798 -0.0579 -0.0781
  738MPD2     C10902   2.390   4.085  15.461  0.3818  0.6261  0.1170
  738MPD2    C110903   2.393   4.016  15.336  0.0270 -0.7068  0.1970
  738MPD2    C210904   2.467   4.056  15.226 -0.0419 -0.0460 -0.2498
  738MPD2    C310905   2.556   4.153  15.248 -0.3155  0.0339 -0.1128
  738MPD2    C410906   2.562   4.219  15.373 -0.6156  0.2044 -0.0712
  738MPD2    C510907   2.476   4.191  15.476 -0.2555  1.0949  0.7579
  738MPD2     H10908   2.468   3.991  15.140 -1.3264  0.9032 -0.9804
  738MPD2    H110909   2.637   4.294  15.394  1.1836 -1.4267 -0.7154
  738MPD2    H210910   2.319   4.075  15.542 -1.0427  0.2101 -1.1859
  738MPD2    H310911   2.480   4.255  15.563 -3.0504  0.4622  1.3455
  738MPD2     N10912   2.666   4.177  15.162 -1.1071  0.1895 -0.0774
  738MPD2    H510913   2.754   4.218  15.193 -0.4904 -1.8365  0.8956
  738MPD2    N110914   2.325   3.887  15.324 -0.0393 -0.1734 -0.4485
  738MPD2    H710915   2.355   3.827  15.247  0.5997  0.8472 -1.0018
  739TMC3    C110916   2.796   4.143  14.961 -0.2597  0.1441 -0.7644
  739TMC3    C210917   2.788   4.130  14.829  0.0989  0.1940 -0.1091
  739TMC3    C310918   2.873   4.206  14.744  0.2209 -0.1342 -0.0418
  739TMC3    C410919   2.898   4.212  15.011 -0.4058  0.1968  0.0453
  739TMC3    C510920   2.974   4.291  14.929 -0.0416 -0.3461 -0.1253
  739TMC3    C610921   2.953   4.300  14.794 -0.2091  0.6269  0.3804
  739TMC3     C10922   2.671   4.124  15.032 -0.5255 -1.1143 -0.6177
  739TMC3     O10923   2.577   4.091  14.960 -0.5031 -0.3973  0.5144
  739TMC3     H10924   2.719   4.057  14.788  0.9080  0.5819 -2.1656
  739TMC3    H110925   2.900   4.231  15.118  2.6395 -3.6978  0.6766
  739TMC3    H210926   3.025   4.355  14.735 -1.0376  2.0761  0.7044
  739TMC3    C710927   3.049   4.396  14.997 -0.5676  0.3027  0.6306
  739TMC3    C810928   2.867   4.179  14.601  0.1092  0.3351 -0.5384
  739TMC3    O110929   3.019   4.413  15.113  0.5377 -0.1507 -0.0958
  739TMC3    O210930   2.785   4.090  14.576 -0.4229  0.4730  0.4661
  740TMC3    C110931   3.364   0.407  14.058 -0.6164 -1.3629 -0.3024
  740TMC3    C210932   3.430   0.368  14.177 -1.0038  0.0120 -0.1049
  740TMC3    C310933   3.565   0.380  14.171 -0.1913  0.3400 -0.9825
  740TMC3    C410934   3.422   0.458  13.946  0.7732 -0.4823  0.2456
  740TMC3    C510935   3.561   0.469  13.945  0.0422 -0.7270  0.2795
  740TMC3    C610936   3.626   0.427  14.057 -0.4759 -0.2949  1.1073
  740TMC3     C10937   3.221   0.382  14.044 -0.4183  0.0433 -0.5108
  740TMC3     O10938   3.182   0.399  13.931  0.0566  0.4166  0.1234
  740TMC3     H10939   3.386   0.331  14.269 -0.4293 -1.5696 -0.4707
  740TMC3    H110940   3.370   0.492  13.858 -0.0695  0.0777  0.9582
  740TMC3    H210941   3.728   0.462  14.062 -0.9601  1.4577 -0.8742
  740TMC3    C710942   3.644   0.490  13.827  0.5380  0.5770 -0.7411
  740TMC3    C810943   3.643   0.349  14.290 -1.0031  0.1455  0.0724
  740TMC3    O110944   3.757   0.439  13.825 -0.2137 -0.0111  0.2276
  740TMC3    O210945   3.580   0.346  14.391  0.3763 -0.2104 -0.0219
  741TMC3    C110946   2.610   4.379  14.263  0.1783 -0.3150  0.5747
  741TMC3    C210947   2.545   4.267  14.304  0.2543 -0.1497  0.0568
  741TMC3    C310948   2.513   4.254  14.437  1.0213 -0.4351  0.4766
  741TMC3    C410949   2.653   4.467  14.361  0.1436  0.0709 -0.8980
  741TMC3    C510950   2.629   4.449  14.491  0.0435  0.0129 -0.2258
  741TMC3    C610951   2.554   4.343  14.534 -0.2206 -1.0460  0.0728
  741TMC3     C10952   2.639   4.405  14.124 -0.0553  0.5580 -0.3308
  741TMC3     O10953   2.711   4.498  14.097 -0.2667 -0.0986 -0.1321
  741TMC3     H10954   2.498   4.199  14.233 -0.2443  0.6248 -0.3547
  741TMC3    H110955   2.709   4.557  14.335  1.2668 -0.5444 -0.6031
  741TMC3    H210956   2.527   4.321  14.636 -1.2989  1.6191  0.3644
  741TMC3    C710957   2.691   4.538  14.582 -0.2752 -0.5837 -0.2385
  741TMC3    C810958   2.384   4.199  14.456 -0.0080  0.0911 -1.1111
  741TMC3    O110959   2.764   4.619  14.527 -0.1122  0.5757  0.6870
  741TMC3    O210960   2.286   4.229  14.388  0.6190  0.0394  0.1251
  742TMC3    C110961   2.419   3.117  15.309  0.7818 -0.0360 -0.3278
  742TMC3    C210962   2.311   3.065  15.230 -0.2691 -0.1917  0.3388
  742TMC3    C310963   2.339   3.028  15.097  0.7324  0.3736 -0.7409
  742TMC3    C410964   2.548   3.127  15.262  0.1656  0.4460  1.0125
  742TMC3    C510965   2.564   3.095  15.131  0.1245 -0.4234 -0.2388
  742TMC3    C610966   2.467   3.037  15.047  0.3278  0.0125  0.5764
  742TMC3     C10967   2.378   3.163  15.441  0.4698 -0.3923 -0.0773
  742TMC3     O10968   2.262   3.191  15.455 -0.1269 -0.5629 -0.1136
  742TMC3     H10969   2.227   3.023  15.284 -2.1497  0.9505 -1.6970
  742TMC3    H110970   2.620   3.184  15.320  1.9528  1.7023 -2.4200
  742TMC3    H210971   2.486   3.031  14.941  1.3124  0.8716  0.7006
  742TMC3    C710972   2.700   3.053  15.082 -0.5144  0.1875  0.0215
  742TMC3    C810973   2.244   2.950  15.007  0.4601 -0.0619  0.0072
  742TMC3    O110974   2.703   2.965  14.992 -0.0314  0.5194 -0.3492
  742TMC3    O210975   2.291   2.891  14.914 -0.4052 -0.4557 -0.3072
  743MPD2     C10976   0.243   4.161   1.971  0.0330  0.0965 -0.8622
  743MPD2    C110977   0.319   4.156   1.857 -0.7036 -0.1457 -0.3879
  743MPD2    C210978   0.449   4.193   1.858 -0.1835 -0.8247  1.0153
  743MPD2    C310979   0.506   4.245   1.976 -0.1828 -0.1664  0.2608
  743MPD2    C410980   0.424   4.260   2.083  0.9508  0.3084 -0.3096
  743MPD2    C510981   0.298   4.220   2.080 -0.2041  0.0669  0.2397
  743MPD2     H10982   0.514   4.189   1.771 -0.1039  1.3484  0.9885
  743MPD2    H110983   0.463   4.308   2.172 -2.2926  3.7975 -0.7599
  743MPD2    H210984   0.137   4.137   1.975  0.4109 -1.1108  1.8226
  743MPD2    H310985   0.237   4.242   2.167  2.0243  3.4831  0.9198
  743MPD2     N10986   0.641   4.279   1.967  0.0800  0.0628 -0.2583
  743MPD2    H510987   0.684   4.267   1.876 -1.1525 -0.2262 -0.8081
  743MPD2    N110988   0.249   4.102   1.745  0.8747 -0.3097  0.1000
  743MPD2    H710989   0.155   4.065   1.758 -0.3496  2.3167 -1.1448
  744TMC3    C110990   0.196   4.056   1.516  0.0478 -0.4729  0.2410
  744TMC3    C210991   0.065   4.069   1.556 -0.3490 -0.6462  0.8893
  744TMC3    C310992   4.693   4.040   1.465 -0.2565 -0.5746  0.0987
  744TMC3    C410993   0.219   4.035   1.382 -0.3407 -0.2965  0.5593
  744TMC3    C510994   0.118   4.000   1.294 -0.2140  0.1172 -0.0004
  744TMC3    C610995   4.710   3.998   1.335 -0.2333  0.1586 -0.4583
  744TMC3     C10996   0.297   4.108   1.615  0.0101  0.0126 -0.3367
  744TMC3     O10997   0.404   4.141   1.569 -0.1120 -0.2726 -0.0460
  744TMC3     H10998   0.028   4.110   1.650  1.1431  2.4533  0.1144
  744TMC3    H110999   0.321   4.034   1.348 -1.3288 -0.6139 -2.3876
  744TMC3    H211000   4.629   3.985   1.265 -1.4961 -1.4785  1.3433
  744TMC3    C711001   0.153   3.993   1.152 -0.5376  0.5757 -0.2136
  744TMC3    C811002   4.556   4.073   1.506 -0.0365 -0.1745  0.2387
  744TMC3    O111003   0.264   4.038   1.117 -0.0827  0.0455 -0.2574
  744TMC3    O211004   4.549   4.163   1.589  0.2787  0.0174 -0.2435
  745TMC3    C111005   3.034   2.418  13.139 -0.0706  0.2946 -0.0475
  745TMC3    C211006   2.983   2.305  13.195  0.2309 -0.0799  0.4436
  745TMC3    C311007   2.856   2.259  13.157 -0.1258 -0.1072  0.3169
  745TMC3    C411008   2.979   2.481  13.038  0.5323  0.1625 -0.4250
  745TMC3    C511009   2.852   2.433  12.999  0.0585 -0.8395  0.0081
  745TMC3    C611010   2.787   2.328  13.058  0.5198  0.0154 -0.0866
  745TMC3     C11011   3.059   2.508  13.240 -0.3239  1.0634 -0.1896
  745TMC3     O11012   2.989   2.521  13.338 -0.2349  0.1658  0.0529
  745TMC3     H11013   3.034   2.274  13.285 -1.9003 -0.6702  1.4527
  745TMC3    H111014   3.018   2.577  13.005  1.5622  0.0280  0.3994
  745TMC3    H211015   2.685   2.301  13.033  0.7659 -0.1454 -0.9314
  745TMC3    C711016   2.774   2.512  12.904  0.5568  0.4377  0.3404
  745TMC3    C811017   2.779   2.226  13.274 -0.3856 -0.3579  0.0806
  745TMC3    O111018   2.654   2.492  12.897  0.1003 -0.1985 -0.1619
  745TMC3    O211019   2.681   2.160  13.255  0.3227  0.3321 -0.4358
  746TMC3    C111020   0.050   4.539  11.326  0.2260  0.1003  0.5947
  746TMC3    C211021   0.051   4.582  11.198  0.1552 -0.4045 -0.3512
  746TMC3    C311022   4.706   4.496  11.107  0.9698 -0.2629 -0.4753
  746TMC3    C411023   4.691   4.435  11.367 -0.1511  0.3500  0.0661
  746TMC3    C511024   4.618   4.359  11.276 -0.3133 -0.4655 -0.7260
  746TMC3    C611025   4.626   4.395  11.144 -0.1255 -0.5722 -0.6016
  746TMC3     C11026   0.099   4.632  11.433  0.2997  0.1801 -0.9617
  746TMC3     O11027   0.130   4.574  11.534 -0.3761 -0.3728  0.2595
  746TMC3     H11028   0.112   4.668  11.172  2.2638 -1.9558 -0.4989
  746TMC3    H111029   4.701   4.420  11.474 -2.3169 -0.5772  0.1507
  746TMC3    H211030   4.568   4.342  11.069 -1.7601 -1.6844  1.4844
  746TMC3    C711031   4.513   4.274  11.313 -0.9178 -0.2527 -0.5679
  746TMC3    C811032   0.023   4.489  10.968 -0.7325 -0.8312  0.3389
  746TMC3    O111033   4.422   4.263  11.231 -0.0256 -0.4416 -0.3405
  746TMC3    O211034   0.000   4.378  10.919 -0.1991 -0.5126  0.3360
  747TMC3    C111035   2.789   0.099  10.844  0.1755  0.2947  0.5771
  747TMC3    C211036   2.762   4.715  10.928 -0.0474  0.2188  0.0383
  747TMC3    C311037   2.807   0.001  11.061 -0.5340 -0.1857  0.2508
  747TMC3    C411038   2.873   0.199  10.876  0.2869  0.0003  0.7113
  747TMC3    C511039   2.915   0.205  11.010 -0.1296 -0.6071  0.2329
  747TMC3    C611040   2.881   0.115  11.101 -0.0014 -0.1810  0.1989
  747TMC3     C11041   2.755   0.071  10.708 -0.9560 -0.4658  0.3061
  747TMC3     O11042   2.731   4.681  10.678 -0.4870  0.4634  0.3471
  747TMC3     H11043   2.707   4.629  10.892  1.0625 -0.3792 -0.2374
  747TMC3    H111044   2.900   0.274  10.803  0.4385 -0.4212  0.3322
  747TMC3    H211045   2.928   0.122  11.198  1.3688  1.2102 -0.5749
  747TMC3    C711046   3.024   0.293  11.035 -1.1622  0.1195 -0.7652
  747TMC3    C811047   2.735   4.650  11.161 -0.4191 -0.4159 -0.3509
  747TMC3    O111048   3.057   0.311  11.149 -0.2434 -0.2072  0.1294
  747TMC3    O211049   2.717   4.532  11.129 -0.4011  0.4000 -0.4911
  748MPD2     C11050   4.124   0.497   2.273  0.0861 -0.7691 -0.7679
  748MPD2    C111051   4.178   0.369   2.249  0.1976 -0.0640 -0.4876
  748MPD2    C211052   4.276   0.349   2.151  0.0531  0.7518  0.1874
  748MPD2    C311053   4.313   0.448   2.067  0.2662  0.5239  0.0291
  748MPD2    C411054   4.249   0.573   2.083 -0.2341 -0.1726 -0.6799
  748MPD2    C511055   4.162   0.595   2.190 -0.2168  0.0314  0.1916
  748MPD2     H11056   4.324   0.252   2.138 -1.0689  0.3579 -1.0833
  748MPD2    H111057   4.251   0.660   2.019 -0.1271 -0.3350 -0.8946
  748MPD2    H211058   4.045   0.505   2.346  0.5120  0.5352 -0.4599
  748MPD2    H311059   4.108   0.686   2.213 -2.0103 -1.2351  0.9567
  748MPD2     N11060   4.390   0.413   1.954  0.6345 -0.2815 -0.0063
  748MPD2    H511061   4.438   0.323   1.958 -0.6616 -0.9828 -0.3603
  748MPD2    N111062   4.128   0.266   2.326  0.0531  1.2568 -0.0276
  748MPD2    H711063   4.048   0.287   2.385  1.4798  3.3789  1.1823
  749TMC3    C111064   4.518   0.423   1.757 -0.1254  0.5488  0.7897
  749TMC3    C211065   4.628   0.375   1.821 -0.4758 -0.1368 -0.6518
  749TMC3    C311066   0.010   0.359   1.741  0.2259 -0.2009  0.0744
  749TMC3    C411067   4.509   0.466   1.620 -0.8474  0.5159 -0.0160
  749TMC3    C511068   4.624   0.447   1.544 -0.8567 -0.5595 -0.2147
  749TMC3    C611069   0.014   0.395   1.602  0.1629 -0.1926  0.0811
  749TMC3     C11070   4.411   0.485   1.840  0.1948 -0.1721 -0.8588
  749TMC3     O11071   4.355   0.583   1.794  0.2905 -0.1802  0.2633
  749TMC3     H11072   4.627   0.340   1.924  1.9335  0.5989 -0.3874
  749TMC3    H111073   4.418   0.512   1.584 -0.5315  1.7450  0.7080
  749TMC3    H211074   0.106   0.406   1.545  0.9637 -2.3486  0.9483
  749TMC3    C711075   4.639   0.529   1.420 -0.5465 -0.6896 -0.6683
  749TMC3    C811076   0.143   0.336   1.802 -0.3168 -0.1259 -0.5155
  749TMC3    O111077   4.549   0.605   1.387 -0.4541 -0.3901  0.9018
  749TMC3    O211078   0.144   0.368   1.919 -0.2168  0.3724  0.1707
  750MPD2     C11079   0.855   1.575  11.822  0.3598 -0.2262  0.1832
  750MPD2    C111080   0.744   1.518  11.882 -0.2647 -0.3950  0.9509
  750MPD2    C211081   0.650   1.455  11.802  0.0515  0.3885  0.5276
  750MPD2    C311082   0.666   1.462  11.662 -0.0653 -0.8330  0.0797
  750MPD2    C411083   0.782   1.517  11.605  0.7914 -0.0993 -0.1537
  750MPD2    C511084   0.876   1.574  11.683 -0.0579 -0.4487 -0.2508
  750MPD2     H11085   0.563   1.405  11.843  1.2224 -2.7067 -0.8091
  750MPD2    H111086   0.811   1.496  11.502  3.3601  2.6391  0.0225
  750MPD2    H211087   0.928   1.632  11.879 -0.3732 -0.2233  1.1166
  750MPD2    H311088   0.970   1.619  11.652  0.1719 -3.0645 -3.3336
  750MPD2     N11089   0.574   1.399  11.568  0.1615  0.0271  0.8027
  750MPD2    H511090   0.596   1.407  11.469 -0.9618 -1.1140  0.4611
  750MPD2    N111091   0.728   1.535  12.018  0.0787 -0.6783  0.5240
  750MPD2    H711092   0.792   1.592  12.072  0.9289 -2.1520  1.0620
  751TMC3    C111093   0.400   1.283  11.483  0.3887 -0.0607  0.6082
  751TMC3    C211094   0.267   1.259  11.490 -0.5787 -0.0389 -0.7557
  751TMC3    C311095   0.194   1.248  11.370 -0.0265  0.2315  0.0968
  751TMC3    C411096   0.467   1.275  11.365 -0.4205  0.0749 -0.1879
  751TMC3    C511097   0.395   1.257  11.251  0.7509  0.7469 -0.1536
  751TMC3    C611098   0.260   1.244  11.251  0.3355 -0.6357 -0.3417
  751TMC3     C11099   0.455   1.338  11.601  0.1789 -0.8904  0.1148
  751TMC3     O11100   0.400   1.316  11.709  0.3798  0.2800  0.1295
  751TMC3     H11101   0.219   1.237  11.584 -1.1291 -2.2527 -1.5585
  751TMC3    H111102   0.575   1.283  11.364 -0.4293  0.3581  0.9550
  751TMC3    H211103   0.210   1.215  11.159 -0.2907  6.1849 -2.1497
  751TMC3    C711104   0.475   1.257  11.132 -0.4824 -0.3220 -0.4724
  751TMC3    C811105   0.063   1.196  11.363  0.0609 -0.5041 -0.1438
  751TMC3    O111106   0.598   1.260  11.145  0.3094  0.1279  0.0949
  751TMC3    O211107   0.018   1.184  11.248 -0.3561 -0.1637  0.1662
  752TMC3    C111108   4.103   0.616  17.170 -0.4324  0.0189  0.2750
  752TMC3    C211109   4.164   0.499  17.211 -0.4499 -0.3396  0.3230
  752TMC3    C311110   4.165   0.465  17.347 -0.3361 -0.7221 -0.2917
  752TMC3    C411111   4.034   0.696  17.261  0.1289  0.4335 -0.6259
  752TMC3    C511112   4.027   0.652  17.391 -0.5273  0.2168 -0.0237
  752TMC3    C611113   4.086   0.534  17.434 -0.3817  0.4068  0.7875
  752TMC3     C11114   4.154   0.665  17.046  0.5614 -0.5393 -0.1073
  752TMC3     O11115   4.258   0.616  16.997 -0.7524 -0.2921 -0.3114
  752TMC3     H11116   4.220   0.440  17.139 -3.1720 -0.5518 -1.6388
  752TMC3    H111117   4.018   0.799  17.231 -2.1077  0.7880  1.7844
  752TMC3    H211118   4.067   0.496  17.534 -0.9102  0.1325  0.5774
  752TMC3    C711119   3.922   0.706  17.471  0.0957  0.5580  0.1468
  752TMC3    C811120   4.225   0.341  17.383  0.2841 -0.6405  0.4500
  752TMC3    O111121   3.890   0.656  17.578  0.2971 -0.5373 -0.6653
  752TMC3    O211122   4.234   0.267  17.284  0.1522  0.4222  0.0338
  753TMC3    C111123   1.254   2.889  13.699  0.2065  0.3515 -0.5754
  753TMC3    C211124   1.371   2.838  13.750  0.4893 -0.0005  0.2980
  753TMC3    C311125   1.408   2.711  13.723 -0.3057 -0.3077 -0.7101
  753TMC3    C411126   1.171   2.816  13.622  0.1877  0.3560 -0.0597
  753TMC3    C511127   1.223   2.698  13.582  0.2167 -0.9017  0.0088
  753TMC3    C611128   1.343   2.638  13.629  0.0637 -0.2832  0.2914
  753TMC3     C11129   1.238   3.035  13.690  0.0201  0.7779  0.3378
  753TMC3     O11130   1.125   3.074  13.662 -0.2672  0.2228  0.7079
  753TMC3     H11131   1.439   2.902  13.805 -0.1631  0.4892  0.5316
  753TMC3    H111132   1.069   2.850  13.606  0.8012  1.9242 -0.5643
  753TMC3    H211133   1.363   2.533  13.610 -1.7458 -0.8976  1.7407
  753TMC3    C711134   1.142   2.619  13.488 -0.2924 -0.3093  0.4387
  753TMC3    C811135   1.543   2.671  13.750  0.4936  0.4173  0.2894
  753TMC3    O111136   1.158   2.500  13.484 -0.3688 -0.3927 -0.3698
  753TMC3    O211137   1.596   2.579  13.684  0.0321 -0.5992 -0.5251
  754MPD2     C11138   0.437   1.458  13.110 -0.1684 -0.1740 -0.3113
  754MPD2    C111139   0.419   1.331  13.064  0.3958  0.3563 -0.0231
  754MPD2    C211140   0.302   1.295  13.013  0.2221 -0.4949 -0.8003
  754MPD2    C311141   0.196   1.384  13.011  0.3527 -0.5778  0.3925
  754MPD2    C411142   0.216   1.518  13.048 -0.7031 -0.1107  0.4071
  754MPD2    C511143   0.338   1.548  13.099  0.1326  0.7959 -0.5294
  754MPD2     H11144   0.285   1.193  12.981 -1.0986 -1.0763  1.7356
  754MPD2    H111145   0.132   1.587  13.049 -0.0850  0.6323  1.0117
  754MPD2    H211146   0.516   1.506  13.166  1.3152 -0.5513 -2.0763
  754MPD2    H311147   0.350   1.649  13.137 -2.0748  1.0947 -0.6439
  754MPD2     N11148   0.061   1.357  12.978  0.5968  0.1350 -0.3120
  754MPD2    H511149   4.724   1.437  12.985 -1.2254 -1.5432  2.6331
  754MPD2    N111150   0.520   1.243  13.094 -0.1407 -1.0309 -0.1966
  754MPD2    H711151   0.606   1.290  13.121  0.2306 -0.6332 -2.0152
  755MPD2     C11152   4.105   1.879  12.931 -0.4897  0.0507  0.9372
  755MPD2    C111153   4.101   1.809  13.050 -0.1792  0.0793  0.0993
  755MPD2    C211154   4.176   1.691  13.054 -1.0812  0.4346 -0.4259
  755MPD2    C311155   4.246   1.633  12.951 -0.1605 -0.8631 -0.4521
  755MPD2    C411156   4.264   1.711  12.841 -0.0982  0.0910  0.1541
  755MPD2    C511157   4.190   1.835  12.830  0.0330 -0.7348 -0.5010
  755MPD2     H11158   4.185   1.652  13.155  0.8330  1.1518 -0.3281
  755MPD2    H111159   4.320   1.683  12.753  0.6530 -0.5365  0.8320
  755MPD2    H211160   4.052   1.974  12.929 -0.9592 -0.2102  0.8945
  755MPD2    H311161   4.195   1.884  12.734 -0.6427 -0.0833 -0.2003
  755MPD2     N11162   4.309   1.507  12.951  0.3481 -0.1845  0.4773
  755MPD2    H511163   4.382   1.492  12.883  0.1329 -2.1661  0.6995
  755MPD2    N111164   4.043   1.858  13.167  0.1163  0.0899 -0.3938
  755MPD2    H711165   4.056   1.800  13.249  1.9687 -0.5223 -1.1222
  756MPD2     C11166   0.204   1.776   9.327 -0.2258 -0.0373 -0.3117
  756MPD2    C111167   0.149   1.739   9.443 -0.3125  0.1423 -0.1240
  756MPD2    C211168   0.024   1.676   9.447 -0.2899  0.3918  0.4541
  756MPD2    C311169   4.671   1.650   9.344  0.2041 -1.0550  0.1209
  756MPD2    C411170   0.001   1.680   9.219  0.0557 -0.2558  0.3065
  756MPD2    C511171   0.132   1.734   9.216  0.0073  0.8668  0.5088
  756MPD2     H11172   4.702   1.662   9.545 -0.8721  2.1368  0.4285
  756MPD2    H111173   4.675   1.669   9.124  0.5079 -1.2228  0.1821
  756MPD2    H211174   0.291   1.839   9.316 -0.5906  0.5145 -0.0081
  756MPD2    H311175   0.172   1.752   9.117 -1.1710 -2.1730 -0.5284
  756MPD2     N11176   4.545   1.587   9.371  0.3227 -0.3522  0.2030
  756MPD2    H511177   4.517   1.578   9.469  0.6090 -1.6885  0.1648
  756MPD2    N111178   0.206   1.775   9.570  0.1040  0.0643  0.2923
  756MPD2    H711179   0.150   1.746   9.650 -1.5766  0.3389 -0.7765
  757MPD2     C11180   3.972   0.968   9.913 -0.1592 -0.0933  0.9296
  757MPD2    C111181   3.889   0.960   9.801  0.3597 -0.3930 -0.0967
  757MPD2    C211182   3.925   1.039   9.691 -0.4751  0.0001 -0.2271
  757MPD2    C311183   4.046   1.109   9.695 -0.1981 -0.3419  0.1707
  757MPD2    C411184   4.128   1.091   9.803  0.1205 -0.2632  0.6692
  757MPD2    C511185   4.098   1.021   9.915  0.4252  0.0501 -0.0456
  757MPD2     H11186   3.856   1.060   9.610  1.1179  0.7458 -1.3788
  757MPD2    H111187   4.222   1.146   9.813  0.4549 -0.7237  0.0060
  757MPD2    H211188   3.950   0.906   9.998  2.0347 -0.8190  0.9712
  757MPD2    H311189   4.152   1.014  10.009 -0.0413  0.0264  0.2214
  757MPD2     N11190   4.085   1.200   9.592 -1.2230 -0.4043 -0.2174
  757MPD2    H511191   4.025   1.202   9.510  1.0806  2.3324 -1.8130
  757MPD2    N111192   3.768   0.894   9.813  0.1373 -0.0106  0.4804
  757MPD2    H711193   3.763   0.854   9.906  2.0539 -0.9806  0.1676
  758MPD2     C11194   0.407   0.529  15.468  0.1928 -0.1889  0.4756
  758MPD2    C111195   0.518   0.573  15.545  0.0407 -0.1177  0.7236
  758MPD2    C211196   0.488   0.645  15.659 -0.0927  0.2310  0.2004
  758MPD2    C311197   0.365   0.652  15.712 -0.3664 -0.6577 -0.2163
  758MPD2    C411198   0.257   0.598  15.636 -0.0041 -0.1158 -0.4794
  758MPD2    C511199   0.279   0.542  15.515 -0.2523 -0.0239  1.0029
  758MPD2     H11200   0.570   0.693  15.712 -0.2390  1.6007 -0.7935
  758MPD2    H111201   0.152   0.605  15.664  0.3298  1.2053  0.4182
  758MPD2    H211202   0.416   0.487  15.368  3.5955 -0.3668  0.8646
  758MPD2    H311203   0.197   0.503  15.455 -0.1652 -1.7856  2.0264
  758MPD2     N11204   0.344   0.723  15.835  0.0384  0.1952 -0.2417
  758MPD2    H511205   0.431   0.742  15.883  0.1424 -0.7915 -0.0482
  758MPD2    N111206   0.651   0.553  15.504 -1.0267 -0.7111  0.5493
  758MPD2    H711207   0.673   0.533  15.407  1.1921 -0.5648  1.0181
  759MPD2     C11208   4.336   2.742  10.181 -0.7163 -0.1272  0.9365
  759MPD2    C111209   4.222   2.654  10.170 -0.4467  0.2066 -0.2412
  759MPD2    C211210   4.127   2.698  10.081 -0.0488  0.5120  0.5380
  759MPD2    C311211   4.133   2.815  10.016  0.7457  0.4747  0.5488
  759MPD2    C411212   4.239   2.900  10.034 -0.1398  0.2614 -0.4835
  759MPD2    C511213   4.340   2.859  10.121 -0.1554 -0.1517 -0.0479
  759MPD2     H11214   4.037   2.645  10.054  0.1049  0.6799 -0.3112
  759MPD2    H111215   4.248   2.993   9.977  1.4521  0.5576  0.2641
  759MPD2    H211216   4.426   2.716  10.236 -1.6332 -0.1808  2.4204
  759MPD2    H311217   4.419   2.930  10.141 -1.7618  1.6351 -0.1546
  759MPD2     N11218   4.029   2.841   9.930  0.0621 -0.0734 -0.2669
  759MPD2    H511219   3.967   2.764   9.909 -1.0942  1.1006 -1.1711
  759MPD2    N111220   4.220   2.519  10.207 -0.3210 -0.3511  0.1949
  759MPD2    H711221   4.134   2.472  10.183 -0.7912  1.0426 -0.8436
  760MPD2     C11222   3.877   1.244  12.311 -0.0821 -0.3465 -0.3122
  760MPD2    C111223   3.878   1.230  12.176 -0.2718  0.2231  0.4459
  760MPD2    C211224   3.885   1.103  12.122  0.1098 -0.4421  0.2273
  760MPD2    C311225   3.889   0.989  12.203 -0.0111 -0.5084 -0.4313
  760MPD2    C411226   3.898   1.006  12.343 -0.3257  0.6683  0.2273
  760MPD2    C511227   3.885   1.130  12.393 -0.1864 -0.3884 -0.5114
  760MPD2     H11228   3.883   1.093  12.014 -0.2584 -0.1031  0.2013
  760MPD2    H111229   3.900   0.919  12.408  0.1664 -3.2771 -4.9569
  760MPD2    H211230   3.891   1.343  12.353  3.4861 -0.9060 -0.2008
  760MPD2    H311231   3.905   1.139  12.499  2.5909  1.9602 -1.2600
  760MPD2     N11232   3.864   0.859  12.142  0.2960 -0.5157 -0.5199
  760MPD2    H511233   3.850   0.786  12.211 -0.3181  0.9413  0.9046
  760MPD2    N111234   3.887   1.343  12.089  0.1753  0.0508  0.0169
  760MPD2    H711235   3.906   1.317  11.993 -0.3010  2.7447 -0.7970
  761MPD2     C11236   4.381   0.962  11.553 -0.5863  0.3639  0.3669
  761MPD2    C111237   4.454   0.939  11.438  0.3670  0.0348 -1.1359
  761MPD2    C211238   4.555   1.026  11.409  0.3604 -0.0554  0.3465
  761MPD2    C311239   4.596   1.127  11.497  0.1177  0.4462 -0.3469
  761MPD2    C411240   4.522   1.141  11.612 -0.6598 -0.0578  0.2054
  761MPD2    C511241   4.419   1.056  11.641 -0.6487 -0.4143  0.1671
  761MPD2     H11242   4.615   1.001  11.323  0.1000 -1.4662  0.5643
  761MPD2    H111243   4.555   1.209  11.690 -2.3751  0.4935  0.4509
  761MPD2    H211244   4.292   0.903  11.575  0.3601 -1.1603  0.1360
  761MPD2    H311245   4.364   1.067  11.734  2.8625 -1.8999  2.4238
  761MPD2     N11246   4.717   1.195  11.481 -0.2317 -0.1777 -0.2796
  761MPD2    H511247   0.018   1.245  11.566 -0.9591  0.0296 -0.1940
  761MPD2    N111248   4.440   0.824  11.363  0.4964  0.8265 -0.2840
  761MPD2    H711249   4.484   0.826  11.272 -3.1141  0.4015 -1.9995
  762MPD2     C11250   4.676   0.831  10.826 -0.6169 -0.0732 -1.0599
  762MPD2    C111251   4.707   0.705  10.879 -0.3475  0.6259 -0.9426
  762MPD2    C211252   0.084   0.631  10.810  0.0997  0.4977 -0.0879
  762MPD2    C311253   0.157   0.694  10.713  0.1871 -0.3582  0.1914
  762MPD2    C411254   0.130   0.825  10.677  0.3028  0.8766 -0.0603
  762MPD2    C511255   0.018   0.888  10.728  0.3655 -0.2651 -0.1144
  762MPD2     H11256   0.112   0.529  10.832  1.0782  1.2564  2.1605
  762MPD2    H111257   0.189   0.884  10.607 -1.3235  3.3505  0.6283
  762MPD2    H211258   4.598   0.884  10.879  1.2199 -0.0634  1.6055
  762MPD2    H311259   4.710   0.989  10.707 -0.0327  0.1326  2.4015
  762MPD2     N11260   0.256   0.618  10.646  0.0568 -0.4082  0.2398
  762MPD2    H511261   0.270   0.523  10.678 -1.0786 -0.3617  0.8705
  762MPD2    N111262   4.643   0.662  10.998  0.5756 -0.5537  0.3152
  762MPD2    H711263   4.583   0.730  11.044  1.0886  0.4094 -0.4308
  763MPD2     C11264   2.744   0.704  16.287  0.0092  0.0232 -0.5049
  763MPD2    C111265   2.638   0.783  16.256  0.4535 -0.0367  0.4534
  763MPD2    C211266   2.602   0.886  16.344  0.0284 -0.0949 -0.3844
  763MPD2    C311267   2.672   0.915  16.461 -0.6872 -1.0133  0.3466
  763MPD2    C411268   2.785   0.835  16.479 -0.7979  0.2919  0.4463
  763MPD2    C511269   2.823   0.741  16.387 -0.6633  0.0855  0.0003
  763MPD2     H11270   2.513   0.946  16.329  0.1611  0.2801  0.3658
  763MPD2    H111271   2.839   0.854  16.572  1.3648  0.9664 -0.9464
  763MPD2    H211272   2.771   0.616  16.228 -2.0558 -0.8207 -0.1917
  763MPD2    H311273   2.922   0.699  16.396 -1.5469 -1.7662  0.9003
  763MPD2     N11274   2.649   1.027  16.542  0.6475 -0.0510 -0.2371
  763MPD2    H511275   2.715   1.034  16.619 -2.9686 -0.2837  2.8624
  763MPD2    N111276   2.557   0.762  16.135  1.1265 -0.2016  0.0125
  763MPD2    H711277   2.491   0.838  16.123 -0.5711 -1.1877  3.4331
  764MPD2     C11278   0.585   2.855  17.610  0.3437  0.5058 -0.3249
  764MPD2    C111279   0.534   2.744  17.557  0.1539 -0.1026 -0.6880
  764MPD2    C211280   0.428   2.676  17.627  0.1087 -0.2756 -0.4241
  764MPD2    C311281   0.389   2.727   0.052 -0.5987 -0.3207 -0.6974
  764MPD2    C411282   0.448   2.842   0.106  0.6799 -0.4991 -0.1112
  764MPD2    C511283   0.540   2.905   0.029  0.4116 -0.0969 -0.2535
  764MPD2     H11284   0.383   2.592  17.576  0.9119 -0.2012 -1.2585
  764MPD2    H111285   0.420   2.887   0.201  1.3180  0.9213 -0.5894
  764MPD2    H211286   0.663   2.912  17.561 -0.2378 -0.8293 -2.7476
  764MPD2    H311287   0.582   2.996   0.070  2.2964 -0.7838 -0.6648
  764MPD2     N11288   0.272   2.673   0.111 -0.2951 -0.0253 -0.1640
  764MPD2    H511289   0.220   2.608   0.053  0.2258  0.1646 -0.8520
  764MPD2    N111290   0.594   2.690  17.440  0.9947  0.0204 -0.1725
  764MPD2    H711291   0.650   2.745  17.376  1.5326 -0.3336 -0.0071
  765MPD2     C11292   4.339   0.267  16.141 -0.3448  0.3448  0.2414
  765MPD2    C111293   4.427   0.344  16.071 -0.5021 -0.6363  0.2320
  765MPD2    C211294   4.537   0.280  16.013 -0.3671  0.4323  0.0046
  765MPD2    C311295   4.555   0.142  16.007  0.2671  0.2584 -0.4661
  765MPD2    C411296   4.458   0.067  16.067  0.0865 -0.3129 -1.0014
  765MPD2    C511297   4.358   0.136  16.131 -0.3639 -0.4902 -0.2531
  765MPD2     H11298   4.616   0.339  15.968  2.3599 -1.6934  1.9615
  765MPD2    H111299   4.469   4.684  16.077  2.4107  0.1124  1.1229
  765MPD2    H211300   4.245   0.307  16.178  0.2865  2.7161 -0.6705
  765MPD2    H311301   4.272   0.087  16.175  0.0489  0.9221  2.0936
  765MPD2     N11302   4.677   0.095  15.949  0.4866  0.0945 -0.2550
  765MPD2    H511303   0.025   0.160  15.917  0.6342 -0.7436 -1.6141
  765MPD2    N111304   4.391   0.478  16.048  0.2228  0.2287  0.1134
  765MPD2    H711305   4.304   0.508  16.091  0.1382 -0.6646  0.5646
  766MPD2     C11306   3.949   0.825  15.415 -0.7033 -0.1975 -0.3391
  766MPD2    C111307   4.077   0.783  15.459 -0.0669 -0.3842 -0.6682
  766MPD2    C211308   4.163   0.720  15.371 -0.1417  0.0382 -0.3494
  766MPD2    C311309   4.123   0.695  15.235 -0.4024 -0.9202 -0.2271
  766MPD2    C411310   3.992   0.726  15.197 -0.6988  0.8080 -0.1229
  766MPD2    C511311   3.913   0.792  15.284 -0.1252 -0.1299 -0.8236
  766MPD2     H11312   4.266   0.703  15.399  0.2160  0.3848 -1.4706
  766MPD2    H111313   3.956   0.710  15.096 -2.7933 -0.4957  0.8336
  766MPD2    H211314   3.865   0.863  15.473 -0.2095  0.1350  0.1510
  766MPD2    H311315   3.811   0.814  15.255 -0.1061 -1.3130 -1.7872
  766MPD2     N11316   4.208   0.661  15.135 -0.1501 -0.0420 -0.6124
  766MPD2    H511317   4.170   0.673  15.041  0.8591 -0.1159 -1.0268
  766MPD2    N111318   4.100   0.783  15.597 -0.5095  0.2402 -0.2390
  766MPD2    H711319   4.034   0.828  15.660 -1.1282  1.1172 -1.5022
  767MPD2     C11320   3.853   1.121  15.115  0.4304 -0.1028 -0.5365
  767MPD2    C111321   3.978   1.063  15.091  0.0088 -0.8541  0.0032
  767MPD2    C211322   3.999   0.991  14.970 -0.1156  0.6204  0.6353
  767MPD2    C311323   3.890   0.953  14.893 -0.3369  0.5278  0.0048
  767MPD2    C411324   3.767   1.000  14.917 -0.0920 -0.8023 -0.2016
  767MPD2    C511325   3.751   1.090  15.022 -0.2390  0.6640 -0.1441
  767MPD2     H11326   4.091   0.948  14.931 -0.3202  0.2233  0.5921
  767MPD2    H111327   3.679   0.979  14.858 -0.8433  1.9860 -0.0985
  767MPD2    H211328   3.839   1.193  15.196 -0.7302  0.8082 -1.5454
  767MPD2    H311329   3.655   1.139  15.036  0.0639  0.4699  2.6042
  767MPD2     N11330   3.923   0.867  14.782 -0.1459 -0.1074  0.0100
  767MPD2    H511331   4.022   0.851  14.762 -0.0963 -1.6733  1.5431
  767MPD2    N111332   4.090   1.107  15.172  0.0378  0.0671  0.1398
  767MPD2    H711333   4.075   1.168  15.251 -0.5849  1.8976 -1.3741
  768MPD2     C11334   4.444   3.533  10.949  0.1625  0.6475 -0.2667
  768MPD2    C111335   4.444   3.623  11.055 -0.7739 -0.8484  1.1311
  768MPD2    C211336   4.557   3.648  11.119 -0.3992 -0.6307  0.3173
  768MPD2    C311337   4.673   3.576  11.095  0.9316 -0.6093  0.0950
  768MPD2    C411338   4.674   3.483  10.995 -0.0323  0.1791 -0.2408
  768MPD2    C511339   4.560   3.460  10.927 -0.2183 -0.0212  0.1333
  768MPD2     H11340   4.548   3.724  11.195  0.5270 -0.1749 -0.0403
  768MPD2    H111341   0.037   3.422  10.977 -0.1999 -0.2790  0.4790
  768MPD2    H211342   4.351   3.507  10.899 -0.6290  0.4897  1.3056
  768MPD2    H311343   4.553   3.392  10.843 -1.4470  0.0675  0.1661
  768MPD2     N11344   0.068   3.588  11.169  0.2844  0.2525 -0.0961
  768MPD2    H511345   0.138   3.514  11.167  0.8205  0.7304  0.6951
  768MPD2    N111346   4.336   3.707  11.091  0.2285  0.3380  0.7708
  768MPD2    H711347   4.358   3.774  11.163  1.1008 -0.5114  1.3023
  769MPD2     C11348   1.155   1.894  14.976  0.8192 -0.2270 -0.8259
  769MPD2    C111349   1.151   2.022  15.022  0.5812  0.6632  0.1501
  769MPD2    C211350   1.188   2.047  15.153 -0.2091 -0.2224 -0.7795
  769MPD2    C311351   1.238   1.943  15.230 -0.4670  0.8977  0.4201
  769MPD2    C411352   1.232   1.812  15.186 -0.0897  0.0959  0.0821
  769MPD2    C511353   1.202   1.793  15.053 -0.2154 -0.6996  0.0631
  769MPD2     H11354   1.202   2.145  15.197  1.1102 -0.3070 -1.0277
  769MPD2    H111355   1.256   1.725  15.245  2.4770  0.8183  0.1162
  769MPD2    H211356   1.132   1.863  14.875 -1.9391 -1.2180  0.1034
  769MPD2    H311357   1.215   1.698  15.003 -2.4810  0.7848 -3.3808
  769MPD2     N11358   1.289   1.977  15.355 -0.2403 -0.5768  0.4549
  769MPD2    H511359   1.282   2.077  15.373  1.9943 -0.1728 -1.0350
  769MPD2    N111360   1.094   2.121  14.936 -0.2994 -0.2481  0.2911
  769MPD2    H711361   1.065   2.095  14.842 -0.2529 -0.8840  0.4535
  770MPD2     C11362   0.516   1.800  15.140 -0.1061  0.2193 -0.2868
  770MPD2    C111363   0.638   1.785  15.077 -0.5218  0.1367 -0.3781
  770MPD2    C211364   0.709   1.902  15.033 -0.0900 -0.0379 -0.2333
  770MPD2    C311365   0.659   2.026  15.052  1.0302  0.3975  0.7602
  770MPD2    C411366   0.532   2.041  15.108 -0.2808  0.8285 -0.2210
  770MPD2    C511367   0.469   1.930  15.153 -0.4225 -0.0562  0.3356
  770MPD2     H11368   0.799   1.890  14.974  1.0277  1.2739  1.1922
  770MPD2    H111369   0.491   2.142  15.110  1.5011  1.5673 -0.3799
  770MPD2    H211370   0.460   1.711  15.166  0.6195  0.6017  2.5596
  770MPD2    H311371   0.368   1.941  15.191 -0.0863  1.7068  0.7392
  770MPD2     N11372   0.724   2.139  14.995 -0.7397  0.2001 -0.2704
  770MPD2    H511373   0.807   2.118  14.940 -0.5228  1.5131 -0.4564
  770MPD2    N111374   0.687   1.655  15.053 -0.7258 -0.0269  1.0070
  770MPD2    H711375   0.632   1.575  15.082 -1.8231  0.5636  0.5358
  771MPD2     C11376   2.169   4.269  13.363 -0.3015  0.6499  0.1235
  771MPD2    C111377   2.125   4.382  13.430 -0.5842 -0.7232 -0.3830
  771MPD2    C211378   1.993   4.380  13.463 -0.1251  0.0103  0.7877
  771MPD2    C311379   1.906   4.282  13.418  1.4948  0.2310  0.2980
  771MPD2    C411380   1.955   4.173  13.337  0.3139  0.0014  0.0816
  771MPD2    C511381   2.092   4.169  13.319 -0.2936  1.3908 -0.5454
  771MPD2     H11382   1.941   4.462  13.513 -2.9423 -0.7271 -0.9175
  771MPD2    H111383   1.900   4.089  13.296 -1.3087  1.8179 -1.4633
  771MPD2    H211384   2.269   4.246  13.328 -0.4095 -0.3394  0.4852
  771MPD2    H311385   2.140   4.083  13.274 -0.3510 -0.8690  3.6598
  771MPD2     N11386   1.768   4.299  13.441  0.3983 -0.0161 -1.1606
  771MPD2    H511387   1.740   4.383  13.491  1.7148 -1.2117  1.6315
  771MPD2    N111388   2.213   4.489  13.473  0.0621 -0.8155  0.0841
  771MPD2    H711389   2.175   4.577  13.507  1.8171  0.2886 -0.7922
  772MPD2     C11390   2.111   0.351  13.842  0.6977 -0.5423 -0.0135
  772MPD2    C111391   2.082   0.228  13.785  0.7276  0.0862 -0.2094
  772MPD2    C211392   1.955   0.176  13.807  0.0936  0.6236 -0.2013
  772MPD2    C311393   1.859   0.247  13.878 -0.3828 -1.0001 -0.4549
  772MPD2    C411394   1.889   0.372  13.923  0.3901  0.4219  0.2320
  772MPD2    C511395   2.013   0.421  13.903  0.0022  0.0571 -0.6417
  772MPD2     H11396   1.930   0.075  13.779  3.2442 -0.0244 -0.6936
  772MPD2    H111397   1.804   0.427  13.962 -1.9464 -2.8970 -0.1585
  772MPD2    H211398   2.200   0.408  13.815  1.1915 -0.0173  2.7677
  772MPD2    H311399   2.031   0.528  13.902 -0.2078  0.1018  0.7931
  772MPD2     N11400   1.728   0.199  13.903 -0.0335 -1.1002  0.1661
  772MPD2    H511401   1.662   0.264  13.944  0.4344 -1.0356  0.8035
  772MPD2    N111402   2.176   0.151  13.715  0.1018  0.5803 -0.3394
  772MPD2    H711403   2.142   0.062  13.680 -1.2618  1.1525 -0.4344
  773MPD2     C11404   4.657   1.006   0.382  0.2750  0.1836  0.3599
  773MPD2    C111405   0.015   1.020   0.268  0.5699  0.0569 -0.1230
  773MPD2    C211406   0.139   0.958   0.260 -0.3862 -0.1696 -0.3247
  773MPD2    C311407   0.182   0.885   0.370  0.1241 -0.4488 -0.1838
  773MPD2    C411408   0.093   0.868   0.475  0.9644  0.0887 -0.3564
  773MPD2    C511409   4.696   0.922   0.477 -0.4742  0.0518 -0.2147
  773MPD2     H11410   0.198   0.978   0.172  1.4979  1.1293  1.2369
  773MPD2    H111411   0.113   0.812   0.566 -0.3633  0.9724  0.4855
  773MPD2    H211412   4.558   1.050   0.393  0.4105  0.1514  1.6623
  773MPD2    H311413   4.639   0.908   0.568  0.7236  1.7237  0.7880
  773MPD2     N11414   0.314   0.833   0.369 -0.3804 -0.0468 -0.0260
  773MPD2    H511415   0.368   0.854   0.286 -1.1094 -3.6006 -1.3965
  773MPD2    N111416   4.710   1.106   0.164  0.4427  0.2223  0.5610
  773MPD2    H711417   0.050   1.105   0.085  1.8835  0.6399  1.7327
  774MPD2     C11418   0.271   0.182  13.134  0.1184  0.5225  0.0954
  774MPD2    C111419   0.264   0.238  13.260 -0.1492 -0.0653  0.4700
  774MPD2    C211420   0.254   0.378  13.265  0.4449  1.0218  0.1620
  774MPD2    C311421   0.243   0.455  13.154  0.6207 -0.2170 -0.2622
  774MPD2    C411422   0.249   0.402  13.021  0.4314  0.8334  0.5359
  774MPD2    C511423   0.262   0.260  13.018 -0.2429 -0.2533 -0.2992
  774MPD2     H11424   0.268   0.431  13.358 -1.4169  1.3829  0.2323
  774MPD2    H111425   0.238   0.448  12.924 -0.4696 -0.5705 -0.0347
  774MPD2    H211426   0.269   0.075  13.119 -1.9101  0.8813 -2.1214
  774MPD2    H311427   0.259   0.202  12.927 -1.1200  0.1277 -0.5176
  774MPD2     N11428   0.236   0.593  13.181 -0.2531 -0.4069 -0.3459
  774MPD2    H511429   0.237   0.617  13.279  0.9494  0.2836 -0.5253
  774MPD2    N111430   0.283   0.154  13.375 -0.7631 -0.0535  0.8235
  774MPD2    H711431   0.307   0.057  13.361  0.4692  0.3413  0.1492
  775MPD2     C11432   1.725   1.853  15.907  0.4133  0.1909  0.3749
  775MPD2    C111433   1.707   1.968  15.979 -0.0891 -0.1765  0.8582
  775MPD2    C211434   1.793   2.075  15.964  0.1602  0.2565  0.0463
  775MPD2    C311435   1.893   2.067  15.876  0.0113 -0.2578 -0.1332
  775MPD2    C411436   1.903   1.959  15.801  0.0341 -0.5678  0.0503
  775MPD2    C511437   1.833   1.842  15.820  0.5150  0.4933  0.1492
  775MPD2     H11438   1.787   2.157  16.035 -0.5484  0.7838 -0.6199
  775MPD2    H111439   1.974   1.943  15.721  1.5759 -3.1797  1.9236
  775MPD2    H211440   1.651   1.774  15.913 -0.2274  0.8121  0.6212
  775MPD2    H311441   1.847   1.755  15.757 -1.1706  0.2229  0.1451
  775MPD2     N11442   1.988   2.169  15.849  0.0977 -0.0547 -0.6605
  775MPD2    H511443   2.055   2.138  15.780 -0.6741 -0.3452 -1.2736
  775MPD2    N111444   1.605   1.963  16.075  0.2585  0.3104  0.5028
  775MPD2    H711445   1.559   1.873  16.080  1.0695 -0.2605 -2.3550
  776MPD2     C11446   0.801   2.155  12.228  0.1132  0.5675 -0.0842
  776MPD2    C111447   0.721   2.102  12.128 -0.2371  0.3276 -0.1314
  776MPD2    C211448   0.721   2.167  12.006  0.5281 -0.1149 -0.8405
  776MPD2    C311449   0.798   2.281  11.980  0.1661 -0.4582 -0.6171
  776MPD2    C411450   0.877   2.332  12.084  0.0683 -0.5997  0.4380
  776MPD2    C511451   0.874   2.269  12.205  0.5362 -0.0799 -0.4927
  776MPD2     H11452   0.662   2.122  11.927  1.8414 -0.3194 -1.6901
  776MPD2    H111453   0.936   2.422  12.069  1.1614 -1.7510 -2.0951
  776MPD2    H211454   0.797   2.109  12.327 -1.4869 -0.2783 -0.5394
  776MPD2    H311455   0.928   2.300  12.295  1.0287 -0.8441 -0.5243
  776MPD2     N11456   0.809   2.343  11.850 -0.4109  0.4799 -0.2172
  776MPD2    H511457   0.884   2.411  11.836  2.2354 -2.1825  0.8672
  776MPD2    N111458   0.645   1.992  12.151  0.2086  0.2550 -0.2847
  776MPD2    H711459   0.605   1.950  12.067  1.2661 -1.1870 -0.0787
  777MPD2     C11460   1.075   4.592   0.772 -0.4975 -0.3792 -0.1703
  777MPD2    C111461   0.963   4.565   0.849  0.0770  0.3436 -0.8392
  777MPD2    C211462   0.877   4.467   0.801  0.5522 -0.7982  0.1809
  777MPD2    C311463   0.898   4.408   0.677 -0.1038 -0.6372 -0.1023
  777MPD2    C411464   1.018   4.429   0.610  0.4848 -0.2622  0.7446
  777MPD2    C511465   1.106   4.520   0.663  0.4944 -0.2042 -0.0176
  777MPD2     H11466   0.790   4.449   0.864 -0.2170 -1.5750 -1.1000
  777MPD2    H111467   1.040   4.396   0.509 -0.2047  0.3776  0.3799
  777MPD2    H211468   1.145   4.672   0.796 -1.7057 -0.1510  2.6064
  777MPD2    H311469   1.200   4.546   0.615 -0.1222  2.0293  0.0006
  777MPD2     N11470   0.794   4.317   0.634  0.1431 -0.1572 -0.5906
  777MPD2    H511471   0.710   4.314   0.690  2.0853  3.0533  2.4913
  777MPD2    N111472   0.944   4.642   0.970 -0.1860  0.0903 -0.2960
  777MPD2    H711473   1.009   4.718   0.989 -0.3460  0.2540 -0.4084
  778MPD2     C11474   1.890   4.662  15.427  0.3073  0.4798 -0.3707
  778MPD2    C111475   1.837   4.581  15.329 -0.3235  0.7489  1.2205
  778MPD2    C211476   1.867   4.610  15.196  0.1401 -0.1555 -0.9076
  778MPD2    C311477   1.950   4.715  15.159 -0.6943  0.2489  0.4031
  778MPD2    C411478   2.004   0.068  15.261 -0.3436  0.2186 -0.0286
  778MPD2    C511479   1.972   0.041  15.397 -0.3203  0.7659  0.6362
  778MPD2     H11480   1.827   4.536  15.129 -1.2088  0.4723 -0.8075
  778MPD2    H111481   2.077   0.145  15.242 -0.2804  0.6905  2.1434
  778MPD2    H211482   1.874   4.649  15.534 -0.1038  1.2007 -0.3434
  778MPD2    H311483   2.019   0.108  15.469  1.3248  2.5978 -2.1371
  778MPD2     N11484   1.967   0.026  15.018  0.6666  0.1876 -0.5094
  778MPD2    H511485   1.899   4.703  14.958  1.0382  0.8142 -1.4105
  778MPD2    N111486   1.761   4.462  15.351  0.4554  0.1144 -0.6327
  778MPD2    H711487   1.749   4.400  15.272  1.5482 -0.0866 -0.6439
  779MPD2     C11488   1.367   3.373  14.722  0.1174  0.0380  0.4854
  779MPD2    C111489   1.500   3.398  14.702  0.5661  0.1508 -0.2173
  779MPD2    C211490   1.544   3.529  14.686 -0.1566  0.1630  0.0857
  779MPD2    C311491   1.457   3.629  14.677 -0.3551 -0.9109  0.3723
  779MPD2    C411492   1.319   3.608  14.701 -0.1170  0.5837 -0.3756
  779MPD2    C511493   1.280   3.480  14.728 -0.8053 -0.7050 -0.2149
  779MPD2     H11494   1.648   3.556  14.667 -0.2342  0.3252 -0.1051
  779MPD2    H111495   1.254   3.694  14.702 -1.2080 -0.2389  0.0815
  779MPD2    H211496   1.343   3.268  14.718  1.5643 -0.1598 -3.0495
  779MPD2    H311497   1.173   3.480  14.745 -0.5737  2.3078  1.2358
  779MPD2     N11498   1.502   3.761  14.652  0.1089  0.2231 -0.4655
  779MPD2    H511499   1.600   3.778  14.675 -0.2510  3.3331 -1.2261
  779MPD2    N111500   1.597   3.301  14.689  0.2842  0.5101 -0.0206
  779MPD2    H711501   1.691   3.336  14.677  1.6087 -2.5695  1.5776
  780MPD2     C11502   0.663   3.458   1.112  0.1690 -0.8726 -0.9581
  780MPD2    C111503   0.797   3.449   1.126 -0.2866  0.0013 -0.2228
  780MPD2    C211504   0.877   3.412   1.017 -0.0182 -1.1114  0.0990
  780MPD2    C311505   0.816   3.369   0.901  0.1353  0.0936 -0.5907
  780MPD2    C411506   0.681   3.381   0.885  0.3158  0.1638 -0.2796
  780MPD2    C511507   0.605   3.422   0.986  0.0783 -0.0347 -0.1379
  780MPD2     H11508   0.984   3.403   1.028  0.1118 -1.6627 -1.6770
  780MPD2    H111509   0.644   3.354   0.787  0.9982  0.1249 -0.5254
  780MPD2    H211510   0.597   3.493   1.190  0.9634 -0.1209 -0.6242
  780MPD2    H311511   0.499   3.439   0.972 -0.4285 -1.8732  1.3948
  780MPD2     N11512   0.897   3.320   0.802  0.7979 -0.2798 -0.5015
  780MPD2    H511513   0.997   3.340   0.806  0.6167  0.1795  1.5721
  780MPD2    N111514   0.855   3.483   1.247 -0.3036  0.0659 -0.6064
  780MPD2    H711515   0.789   3.501   1.322 -1.6548 -0.0876 -1.7575
  781MPD2     C11516   2.885   0.599  11.795  0.8355 -0.1907  0.2515
  781MPD2    C111517   2.969   0.700  11.844 -0.6983  1.0150 -0.2387
  781MPD2    C211518   3.085   0.723  11.769  1.2970 -0.0096 -0.0624
  781MPD2    C311519   3.117   0.639  11.659  0.5653  0.0548 -0.2171
  781MPD2    C411520   3.032   0.544  11.616  0.4022  0.3421 -0.3100
  781MPD2    C511521   2.914   0.529  11.688 -0.1857  0.4291 -0.1170
  781MPD2     H11522   3.160   0.794  11.803  3.0984 -2.3448  0.8103
  781MPD2    H111523   3.049   0.488  11.525 -2.2191 -1.0811  0.0909
  781MPD2    H211524   2.795   0.582  11.852  0.6375  2.4734  0.7329
  781MPD2    H311525   2.842   0.458  11.649 -1.1331  1.1157  0.4039
  781MPD2     N11526   3.235   0.654  11.582  0.5179 -0.3931  0.5437
  781MPD2    H511527   3.240   0.591  11.503  0.0674 -0.6481  0.7144
  781MPD2    N111528   2.948   0.766  11.967 -0.4396  0.3371  0.4142
  781MPD2    H711529   3.008   0.846  11.986  1.0099 -0.9461  1.2393
  782MPD2     C11530   0.974   1.803  10.851  0.3123  0.5627  0.2700
  782MPD2    C111531   1.077   1.712  10.842 -0.3089 -0.5046 -0.1350
  782MPD2    C211532   1.185   1.724  10.931  1.1760  0.6791  1.0084
  782MPD2    C311533   1.173   1.816  11.035 -0.5224  1.0590 -0.5225
  782MPD2    C411534   1.070   1.909  11.041 -0.0146 -0.1551  0.0576
  782MPD2    C511535   0.969   1.907  10.948  0.7370 -1.0067  0.4056
  782MPD2     H11536   1.268   1.655  10.927  1.8131  1.6031 -1.3199
  782MPD2    H111537   1.071   1.984  11.119 -0.2213 -0.0744 -0.0180
  782MPD2    H211538   0.880   1.791  10.798 -0.8479  0.7115  2.2841
  782MPD2    H311539   0.901   1.991  10.943 -0.7899 -2.1867  1.6800
  782MPD2     N11540   1.279   1.804  11.123 -0.1386 -0.1988 -0.9086
  782MPD2    H511541   1.348   1.734  11.101 -2.0054 -2.7089  1.1752
  782MPD2    N111542   1.061   1.603  10.758 -0.5307  0.1072 -0.0401
  782MPD2    H711543   0.973   1.589  10.708 -0.7749 -1.3327  0.7992
  783MPD2     C11544   0.349   1.216  10.785  0.3253  0.4968  0.0751
  783MPD2    C111545   0.447   1.243  10.886 -0.9107  0.1464  0.1272
  783MPD2    C211546   0.585   1.243  10.849 -0.1906 -0.5475  0.3453
  783MPD2    C311547   0.625   1.210  10.724  0.3193 -0.0150  0.7044
  783MPD2    C411548   0.527   1.180  10.632 -0.3566  0.3174 -0.0408
  783MPD2    C511549   0.393   1.188  10.656 -0.4822  0.0814  0.2768
  783MPD2     H11550   0.650   1.255  10.935 -0.6026 -0.9828  0.7217
  783MPD2    H111551   0.559   1.153  10.533 -1.6446  3.0819 -1.2130
  783MPD2    H211552   0.242   1.221  10.797  0.1254 -1.1433 -0.8761
  783MPD2    H311553   0.321   1.165  10.578  0.9129  0.8468 -1.2515
  783MPD2     N11554   0.770   1.209  10.699  0.1428  0.4721  0.3656
  783MPD2    H511555   0.833   1.239  10.772  1.7435 -0.2166 -0.7247
  783MPD2    N111556   0.399   1.247  11.017 -0.2119  0.6192 -0.2730
  783MPD2    H711557   0.299   1.255  11.035 -0.0046 -0.7832  1.4890
  784MPD2     C11558   2.415   1.581   1.809  0.1288  0.2189 -0.7584
  784MPD2    C111559   2.431   1.713   1.826  0.5443  0.5078 -0.1660
  784MPD2    C211560   2.395   1.810   1.733  0.1827  0.2526 -0.5173
  784MPD2    C311561   2.337   1.763   1.618  0.4063 -0.1892  0.0744
  784MPD2    C411562   2.322   1.627   1.597 -0.6130  0.4282 -0.4317
  784MPD2    C511563   2.364   1.533   1.692 -0.9403 -0.2570  0.2931
  784MPD2     H11564   2.417   1.915   1.746  0.3705  0.1233  0.2285
  784MPD2    H111565   2.261   1.589   1.516 -0.3424 -2.2307  0.6377
  784MPD2    H211566   2.443   1.505   1.882 -1.9542  2.2016  2.1437
  784MPD2    H311567   2.357   1.429   1.665 -0.5328 -0.0873 -0.4698
  784MPD2     N11568   2.297   1.861   1.516  0.0898  0.0425  0.1484
  784MPD2    H511569   2.303   1.959   1.542 -1.1876  0.0936  0.2698
  784MPD2    N111570   2.493   1.762   1.946  0.3764 -0.0139 -0.5791
  784MPD2    H711571   2.504   1.863   1.946 -1.4866  0.1782  1.2893
  785MPD2     C11572   4.019   4.447  10.607  0.4864 -0.2903 -1.3459
  785MPD2    C111573   3.949   4.372  10.694  0.2030 -0.6348  0.6829
  785MPD2    C211574   3.954   4.238  10.683 -0.1690 -0.0482 -0.8019
  785MPD2    C311575   4.029   4.183  10.584  0.2862  0.4394 -0.7016
  785MPD2    C411576   4.102   4.262  10.496 -0.1956  0.9407 -0.3137
  785MPD2    C511577   4.105   4.395  10.512 -0.3720 -0.3321  0.0579
  785MPD2     H11578   3.886   4.174  10.739  0.7944 -1.1383 -0.8900
  785MPD2    H111579   4.148   4.218  10.409 -0.1328 -0.1650  0.2757
  785MPD2    H211580   4.006   4.554  10.614 -3.7901 -0.7303 -2.4712
  785MPD2    H311581   4.167   4.462  10.454  2.3320 -2.5498  0.4030
  785MPD2     N11582   4.026   4.041  10.572  0.2348  1.1168  0.7108
  785MPD2    H511583   3.977   3.994  10.646  1.1126  0.2336  0.7236
  785MPD2    N111584   3.862   4.424  10.789  0.7991  0.4522  0.6874
  785MPD2    H711585   3.821   4.356  10.852  1.1632  0.5018  0.9767
  786MPD2     C11586   1.782   2.828  14.808  1.1131  0.9008  0.3107
  786MPD2    C111587   1.899   2.776  14.791  0.5960 -0.4671 -0.1624
  786MPD2    C211588   2.003   2.818  14.870 -0.3625  0.0921  1.4469
  786MPD2    C311589   1.998   2.921  14.963  0.2594 -0.9150 -0.5826
  786MPD2    C411590   1.875   2.979  14.972 -0.3422 -0.3770  0.0380
  786MPD2    C511591   1.774   2.931  14.901  0.5279 -0.7390  0.5754
  786MPD2     H11592   2.099   2.777  14.843 -0.6970 -0.2723  0.8103
  786MPD2    H111593   1.864   3.061  15.041 -4.1897 -0.4092 -0.5279
  786MPD2    H211594   1.692   2.810  14.750  1.0171  2.6994 -0.0968
  786MPD2    H311595   1.673   2.972  14.898  0.3315 -1.2863 -0.5763
  786MPD2     N11596   2.107   2.975  15.032 -0.4798  0.0460  0.2264
  786MPD2    H511597   2.079   3.028  15.114  0.6206  1.6670 -0.4551
  786MPD2    N111598   1.922   2.662  14.719  0.1592 -0.4162 -0.0782
  786MPD2    H711599   2.013   2.619  14.711 -0.0554 -0.7203 -0.8899
  787MPD2     C11600   2.356   2.372  14.993 -0.3024  0.1536  0.5004
  787MPD2    C111601   2.330   2.289  14.884 -0.8093 -0.4713  0.0177
  787MPD2    C211602   2.409   2.182  14.850 -0.7133 -0.4465  0.0929
  787MPD2    C311603   2.523   2.153  14.921 -0.2576 -0.2929  0.4522
  787MPD2    C411604   2.556   2.242  15.021 -0.8115  0.3318 -0.0161
  787MPD2    C511605   2.466   2.342  15.061 -0.0705  0.1705 -0.5876
  787MPD2     H11606   2.396   2.115  14.766  1.0651 -0.2907 -0.3111
  787MPD2    H111607   2.643   2.227  15.084 -1.3126 -0.0373  0.5884
  787MPD2    H211608   2.303   2.464  15.017  2.0077  1.6820 -0.2339
  787MPD2    H311609   2.499   2.403  15.145  0.9595 -0.1734 -0.7483
  787MPD2     N11610   2.604   2.055  14.875 -0.1473 -0.4740  0.4893
  787MPD2    H511611   2.584   2.021  14.781 -1.7742  0.4348  0.5027
  787MPD2    N111612   2.216   2.322  14.810  0.4161 -0.2855  0.9714
  787MPD2    H711613   2.171   2.405  14.847 -0.2489 -1.0811  1.9498
  788MPD2     C11614   3.712   0.518   1.349  0.8277  0.0434  0.0924
  788MPD2    C111615   3.701   0.471   1.219  1.4751 -0.1629  0.4639
  788MPD2    C211616   3.756   0.550   1.116  0.2769  0.3720 -0.4621
  788MPD2    C311617   3.838   0.660   1.142  0.6339 -0.0381  0.7204
  788MPD2    C411618   3.857   0.692   1.279  0.5790  0.1589  0.2063
  788MPD2    C511619   3.793   0.623   1.376 -0.4650  0.0102 -0.3345
  788MPD2     H11620   3.722   0.530   1.016  1.1166 -2.3720 -0.1959
  788MPD2    H111621   3.913   0.778   1.313  0.5809 -0.1149  0.9120
  788MPD2    H211622   3.652   0.479   1.430  1.5182 -0.7360  0.2309
  788MPD2    H311623   3.806   0.644   1.481 -0.0722  2.8108 -0.9376
  788MPD2     N11624   3.902   0.729   1.041 -0.6411  0.1470  0.4177
  788MPD2    H511625   3.959   0.806   1.076 -0.3782 -0.3796  1.1479
  788MPD2    N111626   3.640   0.353   1.186 -0.6507 -0.2225  0.3453
  788MPD2    H711627   3.651   0.317   1.092  2.1553  1.5362  0.0176
  789MPD2     C11628   4.566   0.685  16.284 -0.1467 -0.0673  1.0360
  789MPD2    C111629   4.525   0.574  16.362 -0.3612 -0.3298 -0.1886
  789MPD2    C211630   4.409   0.576  16.436  0.5855  0.1302  0.5852
  789MPD2    C311631   4.335   0.693  16.420 -0.1492  1.1544 -0.9258
  789MPD2    C411632   4.379   0.810  16.364 -0.2888 -0.0679  0.1295
  789MPD2    C511633   4.499   0.806  16.298 -0.3359 -0.7666 -0.3648
  789MPD2     H11634   4.378   0.486  16.487  0.1224  0.4417  0.8461
  789MPD2    H111635   4.308   0.892  16.360 -0.7897 -0.5285 -0.4383
  789MPD2    H211636   4.654   0.681  16.221 -0.2503 -1.4701  0.9820
  789MPD2    H311637   4.544   0.891  16.246  1.5861 -0.9604  0.9629
  789MPD2     N11638   4.207   0.714  16.474  0.4534  0.4275 -0.0607
  789MPD2    H511639   4.163   0.805  16.464 -1.9006 -0.8061 -0.8842
  789MPD2    N111640   4.604   0.464  16.365  0.6241  0.9959 -0.6114
  789MPD2    H711641   4.558   0.388  16.414  0.2263 -1.2638 -4.4907
  790MPD2     C11642   0.808   2.778  13.702  0.2905  0.4863 -0.1088
  790MPD2    C111643   0.801   2.641  13.668  0.9335  0.2941 -0.9511
  790MPD2    C211644   0.713   2.604  13.563  0.6866  0.3826  0.2615
  790MPD2    C311645   0.658   2.698  13.481  0.3200  0.2400 -0.2421
  790MPD2    C411646   0.673   2.828  13.503 -0.5606  0.7902 -0.2369
  790MPD2    C511647   0.746   2.868  13.616  0.6480  0.0770  0.1663
  790MPD2     H11648   0.702   2.497  13.552  0.8871  0.6867 -2.7502
  790MPD2    H111649   0.624   2.909  13.451 -1.0634  1.1038  0.7185
  790MPD2    H211650   0.866   2.810  13.787 -2.3579  0.9619  1.5372
  790MPD2    H311651   0.740   2.974  13.640  2.0725  0.0702  0.5775
  790MPD2     N11652   0.583   2.639  13.379  0.6341 -0.5146  0.0743
  790MPD2    H511653   0.586   2.538  13.368  1.3780 -0.7034  2.0379
  790MPD2    N111654   0.862   2.543  13.746  0.0252 -0.8359 -0.5814
  790MPD2    H711655   0.834   2.446  13.734  1.4575 -1.4849  1.3364
  791MPD2     C11656   4.639   2.671  13.008 -0.4702 -0.0107 -0.3054
  791MPD2    C111657   4.719   2.580  12.951  0.1819 -0.5862 -0.8214
  791MPD2    C211658   4.675   2.500  12.847  0.7069  0.4258 -0.5325
  791MPD2    C311659   4.540   2.515  12.808  0.2101  0.1872 -0.9016
  791MPD2    C411660   4.465   2.617  12.864  0.1974 -0.0743  0.1995
  791MPD2    C511661   4.518   2.693  12.967  0.5302  0.3820  0.0933
  791MPD2     H11662   0.003   2.419  12.797  1.8157  0.8882 -0.1321
  791MPD2    H111663   4.361   2.636  12.842 -0.0542 -0.6031  0.9513
  791MPD2    H211664   4.669   2.731  13.093  1.1497  0.2569 -1.0503
  791MPD2    H311665   4.464   2.775  13.012  2.2298  1.5190  0.0798
  791MPD2     N11666   4.486   2.420  12.722  0.2162 -0.1418 -0.0291
  791MPD2    H511667   4.541   2.340  12.694  2.4072  0.8641  1.4001
  791MPD2    N111668   0.124   2.564  12.998 -0.3388 -0.1023  0.6383
  791MPD2    H711669   0.149   2.637  13.064  2.1525 -0.5692  0.2120
  792MPD2     C11670   1.052   1.689  11.393 -0.0033 -0.8581 -0.3020
  792MPD2    C111671   0.957   1.783  11.349 -0.2727  0.1742 -0.1137
  792MPD2    C211672   0.865   1.747  11.253  0.7514 -0.0110 -0.3270
  792MPD2    C311673   0.857   1.620  11.206  0.0732 -0.7540 -0.1702
  792MPD2    C411674   0.962   1.532  11.237 -0.8156  0.1620  0.2255
  792MPD2    C511675   1.054   1.562  11.338 -0.5737 -0.0368 -0.6882
  792MPD2     H11676   0.802   1.822  11.207  2.9255  0.5046 -2.4574
  792MPD2    H111677   0.976   1.433  11.196  2.4693  0.2449  1.1453
  792MPD2    H211678   1.109   1.709  11.483 -0.1601 -1.1516 -0.1381
  792MPD2    H311679   1.121   1.484  11.372  0.6424  1.0406 -0.6068
  792MPD2     N11680   0.752   1.581  11.115 -0.1772  1.2564  0.2523
  792MPD2    H511681   0.755   1.494  11.063 -0.3716  0.9112  0.8240
  792MPD2    N111682   0.983   1.917  11.391 -0.2286 -0.0120  0.4914
  792MPD2    H711683   1.078   1.947  11.409 -0.3528  0.2930  0.6473
  793MPD2     C11684   0.071   1.813  10.321  0.0254  0.3966  0.1288
  793MPD2    C111685   0.204   1.835  10.301 -0.0218 -0.1854  1.0097
  793MPD2    C211686   0.277   1.832  10.413  0.6581  0.0532  0.1251
  793MPD2    C311687   0.232   1.805  10.540  0.3539 -0.0364 -0.1750
  793MPD2    C411688   0.093   1.794  10.558  0.5295 -0.3530 -0.7748
  793MPD2    C511689   0.015   1.790  10.447 -0.4495  0.4773 -0.7555
  793MPD2     H11690   0.384   1.842  10.403  0.1525  2.4420 -2.8460
  793MPD2    H111691   0.051   1.772  10.656  1.7531 -2.7729 -0.8119
  793MPD2    H211692   0.003   1.820  10.236  2.0683 -0.5715 -1.5940
  793MPD2    H311693   4.632   1.778  10.457  0.0096 -1.1190  2.0739
  793MPD2     N11694   0.330   1.782  10.639 -0.1044 -0.6124  0.2037
  793MPD2    H511695   0.427   1.796  10.614 -0.3824  0.0053 -0.5104
  793MPD2    N111696   0.266   1.872  10.173  0.0314 -0.1426  0.9765
  793MPD2    H711697   0.367   1.875  10.172 -0.0067  1.0669  0.8461
  794MPD2     C11698   4.406   1.800  17.498 -0.0132 -0.8770 -0.3416
  794MPD2    C111699   4.448   1.687  17.437  0.5606 -0.1561 -0.1435
  794MPD2    C211700   4.515   1.697  17.313  0.6765  0.2614  0.7370
  794MPD2    C311701   4.549   1.816  17.253 -0.3832 -0.3130 -0.2428
  794MPD2    C411702   4.526   1.927  17.335  0.4034 -0.1556 -0.0045
  794MPD2    C511703   4.451   1.916  17.445  0.4208  0.1904  0.0511
  794MPD2     H11704   4.544   1.604  17.264 -0.1412 -0.0482  0.8387
  794MPD2    H111705   4.551   2.028  17.302 -1.2718 -0.1825 -1.3749
  794MPD2    H211706   4.352   1.793  17.592  1.6882  1.9605  0.8517
  794MPD2    H311707   4.417   1.997  17.508 -0.8525 -0.6154  0.4057
  794MPD2     N11708   4.608   1.830  17.123  0.8760  0.0799 -0.3430
  794MPD2    H511709   4.662   1.914  17.108  2.1747 -1.0410 -1.9674
  794MPD2    N111710   4.434   1.560  17.485  0.0422  0.7163  0.1365
  794MPD2    H711711   4.473   1.487  17.426  1.6268  1.3085  0.4531
  795MPD2     C11712   2.734   3.707  13.452  0.9773 -0.4195 -0.8157
  795MPD2    C111713   2.647   3.600  13.473  0.0050 -0.1085  0.6651
  795MPD2    C211714   2.698   3.488  13.537  0.3266 -0.1022  0.2204
  795MPD2    C311715   2.826   3.487  13.591  0.1715 -0.1240 -0.5439
  795MPD2    C411716   2.904   3.598  13.571  0.1272 -0.4743  0.0589
  795MPD2    C511717   2.862   3.699  13.488 -0.1512 -0.0084  0.2588
  795MPD2     H11718   2.628   3.409  13.562 -1.4658  0.6263 -2.4634
  795MPD2    H111719   3.006   3.597  13.608  0.3033  0.0815 -0.4056
  795MPD2    H211720   2.708   3.792  13.390 -0.5993 -1.7524 -1.9774
  795MPD2    H311721   2.928   3.780  13.460  0.1657 -0.3047  0.1641
  795MPD2     N11722   2.859   3.373  13.660  0.3659 -0.7726  0.3665
  795MPD2    H511723   2.783   3.306  13.651  0.5514 -0.8217 -0.8808
  795MPD2    N111724   2.513   3.602  13.430  0.8892  0.2004  0.4144
  795MPD2    H711725   2.460   3.516  13.416  0.9645  0.3662 -0.8637
  796MPD2     C11726   2.994   0.546  15.910 -0.3308 -0.2220  0.7818
  796MPD2    C111727   3.025   0.591  16.041 -0.1566  0.6407  0.6071
  796MPD2    C211728   2.998   0.716  16.074 -0.0751  0.1664 -0.0567
  796MPD2    C311729   2.930   0.798  15.987 -0.0849  1.0334  0.0127
  796MPD2    C411730   2.908   0.766  15.854  0.4093  0.5149  0.2444
  796MPD2    C511731   2.939   0.635  15.819 -0.3500  0.1428  0.1685
  796MPD2     H11732   2.997   0.738  16.180 -1.6226 -1.5549  0.2831
  796MPD2    H111733   2.867   0.834  15.781 -2.3414  2.0474  3.1789
  796MPD2    H211734   3.016   0.444  15.879 -2.8759 -1.3963  2.8421
  796MPD2    H311735   2.912   0.603  15.720 -3.8427  0.5237  0.9777
  796MPD2     N11736   2.900   0.923  16.040  0.0008 -0.0203  0.4655
  796MPD2    H511737   2.925   0.945  16.136 -0.3150 -0.0353  0.5537
  796MPD2    N111738   3.079   0.489  16.133 -0.2404  0.1173 -0.0415
  796MPD2    H711739   3.068   0.395  16.098 -0.6335  0.0246  0.3362
  797MPD2     C11740   3.664   4.385   0.107  0.7376  0.1084 -0.4265
  797MPD2    C111741   3.750   4.494   0.118 -1.0432  0.1003  0.3537
  797MPD2    C211742   3.731   4.598   0.045 -0.5377  0.2865 -0.9591
  797MPD2    C311743   3.617   4.616  17.664  0.4221 -0.2983 -0.3210
  797MPD2    C411744   3.528   4.516  17.662 -0.5901  0.9536  0.6358
  797MPD2    C511745   3.554   4.402   0.024  0.8527  0.1733  0.4872
  797MPD2     H11746   3.809   4.672   0.049  0.5283 -0.8741 -0.2727
  797MPD2    H111747   3.432   4.531  17.614 -0.6896 -0.6416  0.3297
  797MPD2    H211748   3.676   4.290   0.159  1.7217 -0.4714 -1.7022
  797MPD2    H311749   3.481   4.323   0.019  1.5438 -0.5013  0.9961
  797MPD2     N11750   3.612   0.023  17.600  0.8457  0.0451  0.2787
  797MPD2    H511751   3.692   0.085  17.611 -0.3512  2.0223 -2.1150
  797MPD2    N111752   3.870   4.492   0.201 -0.4671  0.5886 -0.0008
  797MPD2    H711753   3.935   4.570   0.192  0.6484 -0.4497 -0.9168
  798MPD2     C11754   4.003   0.510   0.179 -0.9987 -0.6654  0.7939
  798MPD2    C111755   3.973   0.402   0.099  0.3895  0.2420  0.2151
  798MPD2    C211756   4.014   0.275   0.140 -0.1052 -0.1274  0.8876
  798MPD2    C311757   4.087   0.256   0.255 -0.2530 -0.4097 -0.0892
  798MPD2    C411758   4.098   0.358   0.343  0.4052 -0.0962  0.1507
  798MPD2    C511759   4.059   0.484   0.302 -0.5452 -0.1083 -0.2258
  798MPD2     H11760   4.002   0.190   0.074  1.7828 -0.3353  0.8237
  798MPD2    H111761   4.120   0.348   0.449  2.3661  0.6266 -0.1908
  798MPD2    H211762   3.982   0.613   0.150  0.8285 -0.9332 -1.5362
  798MPD2    H311763   4.083   0.568   0.366 -1.1942 -1.3315  1.6139
  798MPD2     N11764   4.107   0.123   0.301 -0.0298  0.5273  0.4298
  798MPD2    H511765   4.085   0.053   0.230  1.3313 -0.5751  1.0949
  798MPD2    N111766   3.888   0.422  17.690 -0.4155 -0.1958 -0.5255
  798MPD2    H711767   3.846   0.513  17.672  1.5035  0.6228 -0.8777
  799MPD2     C11768   2.575   1.522  14.828  0.4638  0.0239  0.0836
  799MPD2    C111769   2.518   1.445  14.721 -0.2530 -0.0588  0.0617
  799MPD2    C211770   2.408   1.497  14.647  0.2792  0.6743  0.2718
  799MPD2    C311771   2.364   1.629  14.679  0.0980  0.8698 -0.1417
  799MPD2    C411772   2.414   1.702  14.792  0.2106  0.1142 -0.7678
  799MPD2    C511773   2.516   1.641  14.866 -0.5404  0.5646  0.2860
  799MPD2     H11774   2.381   1.438  14.561  1.2576  1.9846 -0.9399
  799MPD2    H111775   2.384   1.804  14.811 -1.7488 -0.7091  0.7046
  799MPD2    H211776   2.665   1.492  14.880  0.0248  0.4023  1.0631
  799MPD2    H311777   2.559   1.690  14.953 -1.0836  0.9673  0.3295
  799MPD2     N11778   2.258   1.696  14.606  0.5286 -0.1705  0.3425
  799MPD2    H511779   2.248   1.789  14.645 -1.8356  0.7601 -2.5368
  799MPD2    N111780   2.566   1.313  14.692  0.3530 -0.2597 -0.6570
  799MPD2    H711781   2.534   1.273  14.605  0.1987 -2.5503  0.4540
  800MPD2     C11782   2.662   2.341  13.752 -0.7391  0.0457 -0.5344
  800MPD2    C111783   2.731   2.455  13.708  0.3468  0.2874 -0.2972
  800MPD2    C211784   2.770   2.445  13.578  0.0497 -0.1190 -0.1646
  800MPD2    C311785   2.744   2.332  13.500 -0.7340 -0.3325 -0.6684
  800MPD2    C411786   2.661   2.225  13.545 -0.1248 -0.2905 -0.0875
  800MPD2    C511787   2.609   2.238  13.671 -0.2923  0.6222 -0.1837
  800MPD2     H11788   2.834   2.524  13.540  0.6783 -0.0836  0.9683
  800MPD2    H111789   2.637   2.140  13.483 -0.4519 -1.1856  1.2590
  800MPD2    H211790   2.633   2.341  13.857  0.6992  0.4731 -0.1387
  800MPD2    H311791   2.556   2.157  13.719 -0.5461 -0.3976 -2.1501
  800MPD2     N11792   2.802   2.321  13.372 -0.3922  0.3765  0.1584
  800MPD2    H511793   2.867   2.396  13.353  0.5854 -0.1909  1.2544
  800MPD2    N111794   2.752   2.563  13.800 -0.2025  0.0769  0.1803
  800MPD2    H711795   2.749   2.548  13.901  3.0932  0.2858  0.3127
  801MPD2     C11796   2.602   3.403  13.964 -0.0106 -0.0383  1.1558
  801MPD2    C111797   2.602   3.316  14.073  0.0465  0.8156 -0.3555
  801MPD2    C211798   2.577   3.363  14.202 -0.3726 -0.2479 -0.2202
  801MPD2    C311799   2.572   3.496  14.224 -0.0018  1.4332 -0.4180
  801MPD2    C411800   2.571   3.581  14.114 -0.3900 -0.0614  0.2439
  801MPD2    C511801   2.587   3.539  13.987  0.5460 -0.0705 -0.0152
  801MPD2     H11802   2.574   3.293  14.285 -0.1037 -1.3728 -1.1685
  801MPD2    H111803   2.533   3.682  14.124 -0.2669  0.2191 -2.1869
  801MPD2    H211804   2.631   3.369  13.865 -0.7289  2.5669  0.0643
  801MPD2    H311805   2.582   3.608  13.904 -0.1921 -2.0943 -1.6436
  801MPD2     N11806   2.532   3.551  14.351 -0.4036  0.5287 -0.1579
  801MPD2    H511807   2.517   3.652  14.355 -0.7342  0.4825 -0.2312
  801MPD2    N111808   2.622   3.173  14.062  0.8274  0.5103  0.5001
  801MPD2    H711809   2.639   3.118  14.145 -0.5332 -0.4189  0.1560
  802MPD2     C11810   2.120   2.933  17.376 -0.1725 -0.2118 -0.5348
  802MPD2    C111811   2.165   3.064  17.411 -0.1493 -0.0431  0.5796
  802MPD2    C211812   2.233   3.140  17.312 -0.4496 -0.1539 -0.2604
  802MPD2    C311813   2.235   3.101  17.181 -1.1994  0.5029 -0.4050
  802MPD2    C411814   2.169   2.986  17.144  0.6759  0.5053  0.0107
  802MPD2    C511815   2.115   2.905  17.240  0.1044  0.7419  0.3141
  802MPD2     H11816   2.254   3.247  17.319  0.5068 -0.3291 -0.3774
  802MPD2    H111817   2.182   2.956  17.040  0.6186  0.8708 -0.1021
  802MPD2    H211818   2.072   2.861  17.441  1.3512 -1.4646 -0.7982
  802MPD2    H311819   2.070   2.815  17.199 -0.3959 -0.5740  3.6740
  802MPD2     N11820   2.291   3.201  17.098  0.3273 -0.0489 -0.0338
  802MPD2    H511821   2.327   3.286  17.140  1.3410  0.3532 -1.6914
  802MPD2    N111822   2.162   3.119  17.541 -0.4530  0.4311  0.8208
  802MPD2    H711823   2.210   3.207  17.555  1.9454 -0.6588 -0.5456
  803MPD2     C11824   3.620   1.989  11.626  0.5611 -0.4898  0.1494
  803MPD2    C111825   3.666   2.052  11.739 -0.6439  0.2770 -0.0379
  803MPD2    C211826   3.579   2.038  11.850  0.6738  0.4550 -0.3227
  803MPD2    C311827   3.465   1.966  11.850 -0.6001 -0.1318  0.3359
  803MPD2    C411828   3.420   1.913  11.730 -0.2410 -0.3818  0.3572
  803MPD2    C511829   3.498   1.935  11.619 -0.3914  0.2361  0.1005
  803MPD2     H11830   3.604   2.087  11.943 -1.5246  1.3266 -0.1822
  803MPD2    H111831   3.336   1.844  11.723  0.3069 -0.8586 -1.5071
  803MPD2    H211832   3.681   1.984  11.537 -0.9287 -2.8896 -0.7365
  803MPD2    H311833   3.467   1.882  11.530  0.4042 -0.7214  0.3827
  803MPD2     N11834   3.394   1.940  11.968  0.6127 -0.1457  0.5938
  803MPD2    H511835   3.300   1.904  11.954  1.3096 -1.1602 -1.5068
  803MPD2    N111836   3.789   2.114  11.752 -0.3958 -0.5593  0.2454
  803MPD2    H711837   3.801   2.156  11.844  0.0985  0.9644 -0.5117
  804MPD2     C11838   2.695   3.385  16.917  0.0251 -0.4378 -0.0955
  804MPD2    C111839   2.715   3.338  17.048 -0.3647 -0.5822 -0.6743
  804MPD2    C211840   2.759   3.426  17.143 -0.4800 -0.4945  0.4604
  804MPD2    C311841   2.805   3.548  17.097  0.0450  0.4229  0.0395
  804MPD2    C411842   2.788   3.597  16.966  0.3692 -1.3076  0.6065
  804MPD2    C511843   2.737   3.509  16.877 -0.2684 -0.0429  0.9273
  804MPD2     H11844   2.781   3.380  17.238 -0.0946 -0.4204  0.4070
  804MPD2    H111845   2.834   3.689  16.931 -1.1134 -0.1611  1.6787
  804MPD2    H211846   2.664   3.328  16.830  1.1487  0.8549 -1.3350
  804MPD2    H311847   2.720   3.549  16.777  4.4890 -3.0981 -1.1285
  804MPD2     N11848   2.886   3.627  17.177  0.4935 -0.3826 -0.1068
  804MPD2    H511849   2.947   3.697  17.138 -0.9743 -0.7114 -3.0158
  804MPD2    N111850   2.683   3.205  17.085 -0.1207 -0.0649  0.8182
  804MPD2    H711851   2.668   3.188  17.184 -0.6781 -2.0854  0.3962
  805MPD2     C11852   2.190   1.719  15.542 -0.8036 -0.2423 -0.6184
  805MPD2    C111853   2.285   1.727  15.441  1.1836  0.2315 -0.7106
  805MPD2    C211854   2.415   1.720  15.483  0.3243  0.2635 -0.0481
  805MPD2    C311855   2.448   1.693  15.613 -0.2345  0.3948 -0.6793
  805MPD2    C411856   2.354   1.698  15.714  0.1102 -0.2947 -0.8997
  805MPD2    C511857   2.225   1.709  15.670  0.7106 -0.1546 -0.1882
  805MPD2     H11858   2.491   1.719  15.406  1.1976  0.1201  0.8076
  805MPD2    H111859   2.375   1.684  15.820 -3.0664 -0.7393 -0.3358
  805MPD2    H211860   2.082   1.731  15.537 -0.6537  0.1615 -2.9419
  805MPD2    H311861   2.150   1.722  15.747 -1.8304 -0.4417 -2.6002
  805MPD2     N11862   2.584   1.675  15.640 -0.4739  0.1021 -0.5297
  805MPD2    H511863   2.643   1.692  15.559  0.1115  1.5341  0.2100
  805MPD2    N111864   2.260   1.744  15.299  0.4194  0.0378  0.4704
  805MPD2    H711865   2.333   1.753  15.229  0.1027  0.5438  0.2047
  806MPD2     C11866   3.212   0.798   0.846  0.2337  0.3514  0.4704
  806MPD2    C111867   3.184   0.900   0.932 -0.7788 -0.0096 -0.0585
  806MPD2    C211868   3.177   1.026   0.882  1.0290 -0.0903 -0.2277
  806MPD2    C311869   3.198   1.061   0.754  0.5046  0.4785  0.8762
  806MPD2    C411870   3.224   0.962   0.662 -0.3101 -0.4804  0.1822
  806MPD2    C511871   3.213   0.831   0.708 -0.5512  0.2586  0.0652
  806MPD2     H11872   3.151   1.111   0.944  0.2071 -2.0849  2.1542
  806MPD2    H111873   3.223   0.979   0.555 -0.2035  2.9469  0.7233
  806MPD2    H211874   3.233   0.695   0.872 -0.9462 -0.1262 -0.4479
  806MPD2    H311875   3.207   0.750   0.637  1.1629  0.7262 -0.6199
  806MPD2     N11876   3.202   1.203   0.720  0.1135  0.0673  0.2313
  806MPD2    H511877   3.197   1.265   0.800  0.9521  0.2458  0.1476
  806MPD2    N111878   3.186   0.873   1.072 -0.2106 -0.0589 -0.0647
  806MPD2    H711879   3.195   0.776   1.099 -0.6861  0.2875  1.3182
  807MPD2     C11880   3.215   1.309   1.796 -0.3399 -0.6521  0.1568
  807MPD2    C111881   3.136   1.207   1.750  0.3455 -0.8094  0.1711
  807MPD2    C211882   3.010   1.191   1.807  0.1057 -0.5416  0.3522
  807MPD2    C311883   2.969   1.263   1.922  0.1458  0.0337 -0.1742
  807MPD2    C411884   3.053   1.361   1.968  0.3916  0.8032 -0.2064
  807MPD2    C511885   3.167   1.389   1.902  0.1533  0.0930  0.0331
  807MPD2     H11886   2.949   1.108   1.772 -0.1146 -0.7502  1.2311
  807MPD2    H111887   3.029   1.428   2.050 -0.5674  1.1530 -0.7740
  807MPD2    H211888   3.318   1.314   1.760 -0.2747 -0.7038  0.3368
  807MPD2    H311889   3.232   1.468   1.937 -0.6117  0.4769  0.5677
  807MPD2     N11890   2.847   1.228   1.988  0.0125  0.1072 -0.1650
  807MPD2    H511891   2.784   1.162   1.942 -0.0534  0.1805 -0.1792
  807MPD2    N111892   3.163   1.125   1.636  0.0259  0.7178  1.0408
  807MPD2    H711893   3.092   1.057   1.611  1.9990 -0.6480 -0.8075
  808MPD2     C11894   3.048   2.240   9.428 -0.3207 -0.5172  0.3050
  808MPD2    C111895   3.113   2.119   9.441  0.0911  0.8691  0.0295
  808MPD2    C211896   3.246   2.111   9.398 -0.2370  0.6431 -0.0795
  808MPD2    C311897   3.301   2.227   9.346 -0.3808  0.5104 -0.0204
  808MPD2    C411898   3.229   2.343   9.333  0.3887 -0.3235  0.7009
  808MPD2    C511899   3.103   2.354   9.378 -0.4365  0.2650  0.1477
  808MPD2     H11900   3.298   2.019   9.421 -0.2272  0.0021 -2.6566
  808MPD2    H111901   3.277   2.427   9.285 -3.1171  0.3825 -1.5790
  808MPD2    H211902   2.942   2.238   9.450 -0.3260  0.0501  0.3341
  808MPD2    H311903   3.041   2.440   9.359  0.4350  1.1795  1.4320
  808MPD2     N11904   3.436   2.241   9.308 -0.5422  0.0270 -0.0961
  808MPD2    H511905   3.477   2.328   9.276  0.8193 -0.0045  1.5888
  808MPD2    N111906   3.054   1.999   9.493  0.6066  0.0604 -0.1182
  808MPD2    H711907   3.105   1.915   9.467  0.9041 -0.1269  1.0533
  809MPD2     C11908   3.876   2.723   8.724 -0.1709  0.1907  0.2420
  809MPD2    C111909   3.974   2.687   8.806 -0.9226 -0.1876  0.1882
  809MPD2    C211910   3.933   2.622   8.923  0.0081 -0.0693 -0.2596
  809MPD2    C311911   3.800   2.586   8.951  0.3027 -0.2472  0.2286
  809MPD2    C411912   3.705   2.621   8.861  0.0626 -0.0671  0.6797
  809MPD2    C511913   3.744   2.686   8.748 -0.1150  0.2626  0.3847
  809MPD2     H11914   4.012   2.586   8.989 -0.3602  1.1714  0.8600
  809MPD2    H111915   3.600   2.594   8.863  0.3580 -1.2361  0.3574
  809MPD2    H211916   3.889   2.778   8.631 -0.8023 -0.0627  0.0065
  809MPD2    H311917   3.679   2.707   8.663  0.3511  0.5587  0.1044
  809MPD2     N11918   3.758   2.514   9.063  0.6030 -0.0663 -0.1739
  809MPD2    H511919   3.660   2.489   9.070 -0.0964  2.2947 -1.6892
  809MPD2    N111920   4.106   2.712   8.775  0.6108 -0.2094  0.5083
  809MPD2    H711921   4.162   2.707   8.860  1.1019 -0.4167  0.1697
  810MPD2     C11922   2.629   2.335   9.711  0.5563 -0.2517  0.3166
  810MPD2    C111923   2.623   2.253   9.823  0.2812 -0.1163 -0.3044
  810MPD2    C211924   2.697   2.292   9.934 -0.3942 -0.1075  0.4919
  810MPD2    C311925   2.792   2.392   9.933  0.3015  0.1786 -0.0737
  810MPD2    C411926   2.796   2.474   9.819  0.0012 -0.1241 -0.3528
  810MPD2    C511927   2.712   2.444   9.712  0.0652 -0.5333 -0.3201
  810MPD2     H11928   2.703   2.225  10.019 -2.9987  0.0811  0.8104
  810MPD2    H111929   2.871   2.552   9.812 -0.9465  0.7695 -0.5543
  810MPD2    H211930   2.562   2.325   9.627  1.7017  0.4382 -0.6872
  810MPD2    H311931   2.719   2.494   9.616  1.7482  0.2882  0.2340
  810MPD2     N11932   2.860   2.431  10.046 -0.1340  0.4989  0.1115
  810MPD2    H511933   2.898   2.526  10.047 -0.7223  0.7347 -0.1582
  810MPD2    N111934   2.533   2.142   9.837 -0.2771  0.2242 -0.0058
  810MPD2    H711935   2.499   2.106   9.748  0.6916 -1.9941  0.5414
  811MPD2     C11936   1.753   2.014   9.643  0.1143 -0.5328  0.5014
  811MPD2    C111937   1.842   2.076   9.724 -0.1811 -0.1853 -0.4587
  811MPD2    C211938   1.825   2.207   9.747 -0.3772  0.4362 -0.1920
  811MPD2    C311939   1.724   2.283   9.686  0.1213  0.2743 -0.1892
  811MPD2    C411940   1.634   2.215   9.613 -0.5020  0.2600  0.4542
  811MPD2    C511941   1.644   2.080   9.601  0.1517 -0.9413  0.2707
  811MPD2     H11942   1.894   2.254   9.817  2.7071 -3.3608 -0.6724
  811MPD2    H111943   1.542   2.258   9.576 -2.3067 -2.2494  2.0971
  811MPD2    H211944   1.752   1.906   9.632  0.4637 -0.4574 -0.2837
  811MPD2    H311945   1.568   2.019   9.554  0.8616 -0.4239 -1.5473
  811MPD2     N11946   1.725   2.426   9.692  0.5201 -0.1457 -0.4153
  811MPD2    H511947   1.795   2.460   9.757  0.9688  0.0027 -0.9800
  811MPD2    N111948   1.951   1.998   9.765  0.0012 -0.0873 -0.1031
  811MPD2    H711949   1.966   1.904   9.731  1.0585 -0.4754  1.4303
  812MPD2     C11950   1.489   2.190  12.256  0.5996  0.2054 -0.0410
  812MPD2    C111951   1.380   2.259  12.315 -0.0923 -0.5082  0.5040
  812MPD2    C211952   1.313   2.190  12.420  0.5355 -0.2238 -0.6074
  812MPD2    C311953   1.350   2.068  12.470  0.7810  0.6195  0.9183
  812MPD2    C411954   1.456   2.004  12.405 -0.4792  0.0203  0.4465
  812MPD2    C511955   1.531   2.066  12.301  0.2849  0.4561 -0.5603
  812MPD2     H11956   1.227   2.230  12.472  2.2710  2.0213  0.5581
  812MPD2    H111957   1.494   1.906  12.435 -2.3013 -0.9329 -0.3265
  812MPD2    H211958   1.538   2.233  12.170  2.0924 -1.0185  0.2140
  812MPD2    H311959   1.606   2.010  12.247 -1.5858  0.1791 -2.8914
  812MPD2     N11960   1.283   2.013  12.574 -0.0100  0.0641 -0.3222
  812MPD2    H511961   1.192   2.055  12.593  0.9806  3.0304 -2.1918
  812MPD2    N111962   1.333   2.383  12.263  0.1389  0.0139  0.2280
  812MPD2    H711963   1.379   2.401  12.175  0.9471 -1.4920  0.3416
  813MPD2     C11964   0.509   3.836  13.097 -0.2434 -0.1552  0.3813
  813MPD2    C111965   0.514   3.972  13.114 -0.3662 -0.8071 -0.1294
  813MPD2    C211966   0.404   4.031  13.177  0.2020  0.1468 -0.2079
  813MPD2    C311967   0.300   3.947  13.226 -0.2958  0.6873  0.1720
  813MPD2    C411968   0.296   3.815  13.201 -0.5946 -0.5811  0.2256
  813MPD2    C511969   0.395   3.762  13.129  0.6232  0.3924  0.2008
  813MPD2     H11970   0.400   4.139  13.189 -2.1477  0.2379 -1.8956
  813MPD2    H111971   0.208   3.753  13.213 -0.7599 -0.4277 -0.2083
  813MPD2    H211972   0.594   3.784  13.056 -1.8468 -1.0412 -1.8011
  813MPD2    H311973   0.393   3.659  13.097 -1.7294  0.3792  0.3778
  813MPD2     N11974   0.194   4.010  13.305 -0.2119  0.0657  0.2219
  813MPD2    H511975   0.183   4.110  13.293  1.0858  0.2575  0.7075
  813MPD2    N111976   0.634   4.034  13.069  0.0379  0.2424 -0.6581
  813MPD2    H711977   0.704   3.973  13.029  0.2665  1.6257 -2.4017
  814MPD2     C11978   1.115   0.643  12.495  0.4597 -0.4149 -0.5484
  814MPD2    C111979   1.150   0.688  12.374  0.2175 -0.2401  0.4284
  814MPD2    C211980   1.212   0.812  12.368  0.2592 -0.5893 -0.4403
  814MPD2    C311981   1.246   0.876  12.488 -0.1992 -0.0334  0.2217
  814MPD2    C411982   1.208   0.832  12.608  0.4812  0.1207 -0.8984
  814MPD2    C511983   1.138   0.716  12.608  0.7064  0.2988 -0.3484
  814MPD2     H11984   1.257   0.841  12.274  1.0563 -2.0787 -0.5218
  814MPD2    H111985   1.242   0.881  12.698  2.4475  0.0951 -1.6321
  814MPD2    H211986   1.074   0.546  12.518 -0.9112  0.4854  0.8573
  814MPD2    H311987   1.091   0.683  12.700 -0.3593  1.7216 -0.3835
  814MPD2     N11988   1.333   0.992  12.496 -0.0697  0.1261 -0.0173
  814MPD2    H511989   1.337   1.031  12.590  1.9038  0.9602 -0.4547
  814MPD2    N111990   1.130   0.603  12.263 -0.3741  0.0923 -0.3800
  814MPD2    H711991   1.145   0.648  12.173 -2.7605 -0.5371 -1.1145
  815MPD2     C11992   1.409   3.127  12.148 -0.1866 -0.4795  0.4049
  815MPD2    C111993   1.343   3.196  12.052  0.8874 -0.2766 -0.3852
  815MPD2    C211994   1.203   3.197  12.053 -0.3278 -1.0007 -0.0194
  815MPD2    C311995   1.125   3.128  12.140 -0.1839 -0.3973  0.1388
  815MPD2    C411996   1.189   3.053  12.242 -0.5252 -0.4887  0.5216
  815MPD2    C511997   1.330   3.056  12.242 -0.1418  0.1908  0.6217
  815MPD2     H11998   1.141   3.249  11.981 -0.6073 -0.4996  0.5776
  815MPD2    H111999   1.140   2.986  12.312  0.1278 -0.8927  0.5969
  815MPD2    H212000   1.518   3.127  12.142 -0.2485  0.1649 -0.7393
  815MPD2    H312001   1.375   2.988  12.314 -1.7173  0.0890  1.5059
  815MPD2     N12002   0.985   3.114  12.117  0.2351 -0.8484 -0.3063
  815MPD2    H512003   0.950   3.146  12.027  0.2801  2.0065  0.7115
  815MPD2    N112004   1.420   3.252  11.952  0.0869  0.0710 -0.0747
  815MPD2    H712005   1.518   3.228  11.957 -0.3881 -1.2003  3.0246
  816MPD2     C12006   0.981   2.794  17.579 -0.3576  0.0231 -0.4694
  816MPD2    C112007   1.110   2.843  17.585  0.4700  0.5032 -0.3440
  816MPD2    C212008   1.196   2.806  17.485 -0.0675  0.0951  0.6377
  816MPD2    C312009   1.165   2.708  17.388 -0.1889 -0.2245  0.1426
  816MPD2    C412010   1.040   2.647  17.400 -0.5599 -0.3765  0.3547
  816MPD2    C512011   0.951   2.689  17.492  0.7922  0.3232 -0.4238
  816MPD2     H12012   1.298   2.843  17.491 -0.2428  0.4293  1.4588
  816MPD2    H112013   0.995   2.574  17.334  2.0451 -2.5125  0.9244
  816MPD2    H212014   0.904   2.815  17.652 -0.4721  0.8733 -0.8373
  816MPD2    H312015   0.853   2.642  17.500  0.4817  0.8615 -1.0672
  816MPD2     N12016   1.263   2.682  17.289  0.0785 -0.1622  0.5218
  816MPD2    H512017   1.345   2.742  17.291 -1.3220  1.6898  2.0604
  816MPD2    N112018   1.134   2.952  17.676 -0.4075 -0.1649  0.0083
  816MPD2    H712019   1.059   2.970   0.043  0.8196  0.1019  1.3437
  817MPD2     C12020   0.763   4.360  10.110  0.1409 -0.3476 -0.0775
  817MPD2    C112021   0.742   4.318   9.978 -0.3028 -0.3281  0.5658
  817MPD2    C212022   0.648   4.378   9.906 -0.9744  0.6354 -0.2737
  817MPD2    C312023   0.566   4.483   9.951  0.5151 -0.7664 -0.3286
  817MPD2    C412024   0.579   4.517  10.082 -0.2596 -0.3361 -0.4967
  817MPD2    C512025   0.675   4.460  10.159  0.0902  0.3419  0.1622
  817MPD2     H12026   0.634   4.342   9.805 -2.3954 -0.9403  0.4933
  817MPD2    H112027   0.516   4.595  10.125  0.7375 -0.2049  0.7171
  817MPD2    H212028   0.838   4.315  10.174  0.8748  0.8260 -0.1144
  817MPD2    H312029   0.681   4.488  10.263 -0.6253 -0.5833  0.4489
  817MPD2     N12030   0.476   4.539   9.859 -0.0101  0.3439  0.3423
  817MPD2    H512031   0.463   4.491   9.770 -0.4636  0.6918  0.2197
  817MPD2    N112032   0.809   4.199   9.932 -0.1240 -0.3199 -0.3465
  817MPD2    H712033   0.771   4.155   9.848  1.1519  0.4631 -1.3382
  818MPD2     C12034   4.323   4.362  10.128  0.1435 -0.0339 -0.7239
  818MPD2    C112035   4.438   4.341  10.194  0.6808 -0.3788  1.1014
  818MPD2    C212036   4.501   4.223  10.192  0.2132 -0.2281 -0.2108
  818MPD2    C312037   4.466   4.133  10.098  0.3095 -0.1196 -0.6294
  818MPD2    C412038   4.345   4.147  10.024 -0.1355  0.3320 -0.9617
  818MPD2    C512039   4.267   4.261  10.048  0.3492  0.6907  0.4425
  818MPD2     H12040   4.588   4.210  10.255 -0.3953 -2.1023  0.2279
  818MPD2    H112041   4.308   4.077   9.950 -0.8084 -1.0575  0.7083
  818MPD2    H212042   4.269   4.455  10.142  1.2985  0.4368  0.5207
  818MPD2    H312043   4.171   4.280  10.002  0.2290 -2.4793 -0.6237
  818MPD2     N12044   4.544   4.023  10.068  0.0432  0.3850 -0.2250
  818MPD2    H512045   4.504   3.953  10.006 -1.4432  2.0527 -1.1139
  818MPD2    N112046   4.483   4.431  10.291 -0.2789  0.7768  0.3948
  818MPD2    H712047   4.547   4.392  10.358 -1.1038  0.5717  1.0611
  819MPD2     C12048   2.761   1.152  15.631  0.4326 -0.6303  0.1995
  819MPD2    C112049   2.836   1.047  15.591  0.0024 -0.1247 -0.7117
  819MPD2    C212050   2.972   1.054  15.616  0.3860  0.2464  0.1142
  819MPD2    C312051   3.029   1.164  15.689  0.4351 -0.1185  0.0398
  819MPD2    C412052   2.948   1.259  15.739 -0.0310 -0.1498  0.5230
  819MPD2    C512053   2.817   1.253  15.707 -0.6456 -0.6279  0.3533
  819MPD2     H12054   3.039   0.979  15.576 -3.3882 -2.4467 -1.1606
  819MPD2    H112055   2.983   1.347  15.791 -0.9436 -0.3459  1.4788
  819MPD2    H212056   2.655   1.163  15.608 -0.1613 -2.0837  2.2412
  819MPD2    H312057   2.747   1.334  15.720  0.9881  1.4652 -3.6691
  819MPD2     N12058   3.172   1.158  15.720  0.0725  0.2635 -0.3481
  819MPD2    H512059   3.223   1.078  15.683 -1.9134 -0.3140 -1.8253
  819MPD2    N112060   2.772   0.953  15.509  0.1318  0.2919 -0.0611
  819MPD2    H712061   2.674   0.970  15.489  0.2240 -0.8246 -1.4381
  820MPD2     C12062   2.170   1.083  14.784  0.2669  0.0585 -0.2726
  820MPD2    C112063   2.254   1.155  14.861  0.1545 -0.6721  0.1515
  820MPD2    C212064   2.350   1.095  14.933 -0.0404 -0.2105  0.1343
  820MPD2    C312065   2.370   0.957  14.920  0.1094 -0.3072 -0.0458
  820MPD2    C412066   2.281   0.888  14.841 -0.0097  0.5905  0.3185
  820MPD2    C512067   2.181   0.944  14.770  0.7481  0.1021  0.1512
  820MPD2     H12068   2.409   1.155  15.000  1.6773  0.5376 -2.0543
  820MPD2    H112069   2.286   0.783  14.817 -0.5401  0.7911 -0.6391
  820MPD2    H212070   2.084   1.135  14.744 -0.4636  0.1405  1.4238
  820MPD2    H312071   2.120   0.885  14.703  1.6014 -0.2037 -0.3604
  820MPD2     N12072   2.461   0.884  14.998 -0.1022  0.0807 -0.4436
  820MPD2    H512073   2.452   0.783  14.987 -1.2791  0.2179 -0.6437
  820MPD2    N112074   2.218   1.291  14.880 -0.8533  0.4319  0.0733
  820MPD2    H712075   2.141   1.323  14.823  0.4958  3.3745 -0.1029
  821MPD2     C12076   2.673   2.736  12.732  0.5513 -0.3727  0.0439
  821MPD2    C112077   2.810   2.707  12.747 -0.2832 -0.0911 -0.1809
  821MPD2    C212078   2.901   2.791  12.686 -0.1355 -0.0372  0.0714
  821MPD2    C312079   2.861   2.904  12.616  0.2068 -0.0444 -0.1549
  821MPD2    C412080   2.729   2.927  12.595 -0.3269 -0.2310 -0.7622
  821MPD2    C512081   2.633   2.844  12.661  0.6592  0.1425 -0.2891
  821MPD2     H12082   3.005   2.762  12.701 -0.8870 -2.5827  0.3961
  821MPD2    H112083   2.696   3.013  12.537 -0.0800 -0.2917 -0.9932
  821MPD2    H212084   2.606   2.674  12.790  1.7313 -2.3357 -0.6816
  821MPD2    H312085   2.530   2.877  12.653  0.9341  0.8926 -0.7271
  821MPD2     N12086   2.949   2.997  12.564 -0.1054  0.1927 -0.0717
  821MPD2    H512087   2.908   3.082  12.527  0.5212  1.5407  2.3330
  821MPD2    N112088   2.851   2.592  12.818  0.0642  0.1514 -0.2095
  821MPD2    H712089   2.951   2.579  12.830 -0.4571 -1.7552  2.0462
  822MPD2     C12090   3.436   2.939  15.660  0.5032 -0.2403 -0.5162
  822MPD2    C112091   3.417   2.867  15.781  0.4200  0.5866  0.1571
  822MPD2    C212092   3.340   2.930  15.880 -0.1139  0.0087 -0.1981
  822MPD2    C312093   3.280   3.051  15.863  0.0074  0.2599  0.2418
  822MPD2    C412094   3.298   3.116  15.747 -0.7727  0.2624  1.1171
  822MPD2    C512095   3.374   3.065  15.646  0.4516 -0.0763 -0.1754
  822MPD2     H12096   3.318   2.875  15.970 -0.3496 -0.8782 -0.7976
  822MPD2    H112097   3.264   3.218  15.735  0.1445  0.2250 -1.7220
  822MPD2    H212098   3.498   2.895  15.583  1.4021  0.1763 -0.0241
  822MPD2    H312099   3.390   3.116  15.552 -3.4215  1.6327  0.0852
  822MPD2     N12100   3.207   3.098  15.971 -0.4833 -0.6363 -0.4205
  822MPD2    H512101   3.187   3.037  16.050 -0.2392  0.8384  0.7659
  822MPD2    N112102   3.480   2.739  15.809 -0.6188 -0.1399 -0.0290
  822MPD2    H712103   3.472   2.716  15.908  0.8642  0.9444  0.3519
  823MPD2     C12104   2.962   3.070  16.770  0.0659  0.3578  0.0085
  823MPD2    C112105   3.028   3.014  16.664 -0.2861 -0.9490  0.4725
  823MPD2    C212106   3.096   2.893  16.678  0.2834 -0.5285  0.5198
  823MPD2    C312107   3.084   2.826  16.798  0.3340 -0.5691  0.3118
  823MPD2    C412108   3.015   2.893  16.906  0.2746  0.4600 -0.1159
  823MPD2    C512109   2.958   3.014  16.891  0.1981  0.1724 -0.4806
  823MPD2     H12110   3.153   2.845  16.599 -1.2731 -1.4685 -0.0279
  823MPD2    H112111   3.017   2.836  16.998 -0.7840  0.5811 -0.0244
  823MPD2    H212112   2.912   3.165  16.755 -1.5582 -0.8172 -1.9610
  823MPD2    H312113   2.906   3.047  16.980  1.0120 -0.0245  0.0716
  823MPD2     N12114   3.156   2.704  16.826  0.1309 -0.3107  0.8394
  823MPD2    H512115   3.146   2.664  16.919  1.9963  0.2476  1.2660
  823MPD2    N112116   3.024   3.091  16.547 -0.7747 -0.1123  0.1933
  823MPD2    H712117   2.981   3.183  16.554 -0.7419 -0.1051  0.3015
  824MPD2     C12118   3.746   1.959  15.613 -0.0656 -0.4673  0.2687
  824MPD2    C112119   3.834   2.032  15.687 -0.0178 -1.0569  0.7063
  824MPD2    C212120   3.963   1.991  15.701 -0.4869  0.3637  0.2760
  824MPD2    C312121   4.006   1.877  15.627  0.2620  0.8134 -0.0539
  824MPD2    C412122   3.916   1.806  15.552 -0.1708 -0.7288 -0.4832
  824MPD2    C512123   3.783   1.846  15.544 -0.2347 -0.2618  0.2108
  824MPD2     H12124   4.038   2.046  15.757  1.0519 -1.1669 -0.2834
  824MPD2    H112125   3.946   1.718  15.496 -0.4563 -0.6379 -0.7773
  824MPD2    H212126   3.643   1.983  15.588 -0.2561  0.6819  2.1153
  824MPD2    H312127   3.715   1.779  15.494  1.9826 -1.6959 -0.8659
  824MPD2     N12128   4.142   1.856  15.620  0.2511  0.3760  0.8005
  824MPD2    H512129   4.208   1.919  15.664  1.8417 -0.2229 -0.7138
  824MPD2    N112130   3.798   2.147  15.759  0.1620  0.5568 -0.5732
  824MPD2    H712131   3.874   2.194  15.808  0.8122  0.0967 -1.1355
  825MPD2     C12132   0.033   2.051  15.077 -0.3552  0.6251 -0.2849
  825MPD2    C112133   4.672   2.093  15.177 -0.1207 -0.3461  0.1002
  825MPD2    C212134   4.650   2.224  15.199 -0.4614 -0.0299  0.6760
  825MPD2    C312135   4.711   2.322  15.118  0.0781  0.1024  0.5305
  825MPD2    C412136   0.069   2.276  15.015  0.2316  0.6085  0.6172
  825MPD2    C512137   0.088   2.141  14.997 -0.1886 -0.1770  0.3798
  825MPD2     H12138   4.584   2.263  15.276 -1.0301  0.0528  0.1480
  825MPD2    H112139   0.108   2.347  14.942  0.8535 -1.0289 -0.6576
  825MPD2    H212140   0.051   1.946  15.057 -0.6097  0.3223  1.0358
  825MPD2    H312141   0.159   2.103  14.925 -0.3965 -1.3412  0.7969
  825MPD2     N12142   4.695   2.459  15.137 -0.6356 -0.8728 -0.7396
  825MPD2    H512143   0.043   2.519  15.098 -0.4244 -0.4992  0.2428
  825MPD2    N112144   4.614   1.987  15.261 -0.2330 -0.0044  0.2292
  825MPD2    H712145   4.649   1.893  15.249 -0.5717 -0.0744 -0.2114
  826MPD2     C12146   4.372   2.146  13.533  0.5061  0.5005 -0.5401
  826MPD2    C112147   4.306   2.153  13.413  0.1920 -0.1508 -0.3346
  826MPD2    C212148   4.194   2.225  13.411 -1.0798 -0.4325 -0.1393
  826MPD2    C312149   4.151   2.298  13.518 -0.3743  0.4542 -0.2469
  826MPD2    C412150   4.219   2.295  13.634  0.4207  0.1130  0.5850
  826MPD2    C512151   4.326   2.211  13.643  0.4626 -0.6932 -0.4432
  826MPD2     H12152   4.134   2.221  13.321 -0.9250 -0.6633 -0.2327
  826MPD2    H112153   4.165   2.339  13.717 -0.2568 -0.0736  0.2415
  826MPD2    H212154   4.457   2.080  13.541  2.1398  2.3595 -2.4550
  826MPD2    H312155   4.367   2.202  13.743  0.4548  1.8123 -0.2145
  826MPD2     N12156   4.033   2.377  13.524 -0.2127  0.2735  0.2044
  826MPD2    H512157   4.013   2.427  13.610  2.0953  0.9341  0.3366
  826MPD2    N112158   4.356   2.072  13.308 -0.0636 -0.3081  0.3734
  826MPD2    H712159   4.434   2.018  13.344  0.0419  0.9179  1.9860
  827MPD2     C12160   0.266   3.613   9.808 -0.6694 -0.0384 -0.0147
  827MPD2    C112161   0.274   3.482   9.838 -1.3518  0.5045 -0.3369
  827MPD2    C212162   0.174   3.400   9.791 -0.3612  0.3997 -1.0694
  827MPD2    C312163   0.076   3.452   9.713  0.2832 -0.5719  0.0568
  827MPD2    C412164   0.063   3.590   9.685  0.4280 -0.0228 -0.0134
  827MPD2    C512165   0.165   3.666   9.736  0.5040  0.9320  0.1330
  827MPD2     H12166   0.179   3.294   9.810  0.5700  1.0724  2.4295
  827MPD2    H112167   4.712   3.627   9.616 -0.0819 -4.0213 -1.5879
  827MPD2    H212168   0.344   3.673   9.855 -1.3277  0.0753  0.9399
  827MPD2    H312169   0.173   3.772   9.714 -3.2407  0.8756 -1.4531
  827MPD2     N12170   4.715   3.359   9.654  0.2704 -0.4085 -0.3485
  827MPD2    H512171   0.023   3.263   9.647  1.5099  0.0296 -0.5932
  827MPD2    N112172   0.369   3.441   9.934 -0.2859  0.1605  0.2284
  827MPD2    H712173   0.424   3.520   9.965 -1.7678  1.7642 -1.2193
  828MPD2     C12174   3.583   3.125  12.304  0.2220 -0.6431 -0.0227
  828MPD2    C112175   3.559   3.106  12.168  0.3667 -0.6089  0.6209
  828MPD2    C212176   3.665   3.065  12.090  0.7862 -0.7610  0.2485
  828MPD2    C312177   3.788   3.036  12.140 -0.0924  0.0103  0.0812
  828MPD2    C412178   3.804   3.054  12.279  0.1883  0.0404 -0.3428
  828MPD2    C512179   3.704   3.095  12.357 -0.0131  0.2713  0.0188
  828MPD2     H12180   3.641   3.064  11.984  1.0834  4.2477  0.1103
  828MPD2    H112181   3.903   3.043  12.323  2.0825  0.8427 -4.3976
  828MPD2    H212182   3.513   3.169  12.374 -0.7935 -0.7577 -0.9696
  828MPD2    H312183   3.723   3.108  12.463  4.1599  0.9639 -0.8128
  828MPD2     N12184   3.905   2.981  12.071 -0.4514  0.7843 -0.4358
  828MPD2    H512185   3.988   2.964  12.126 -1.9998 -1.6044  1.1775
  828MPD2    N112186   3.429   3.111  12.116 -0.0987 -0.0538 -0.0572
  828MPD2    H712187   3.422   3.115  12.015  0.7628 -0.2452 -0.1269
  829MPD2     C12188   3.290   3.078  11.332 -1.4564 -0.0080  0.0719
  829MPD2    C112189   3.167   3.130  11.350 -0.0768  0.0433  0.0279
  829MPD2    C212190   3.140   3.166  11.486  0.2603  0.0741  0.5722
  829MPD2    C312191   3.226   3.136  11.597 -0.5022  0.0615  0.1584
  829MPD2    C412192   3.344   3.081  11.567  0.7659 -0.6747  0.3845
  829MPD2    C512193   3.381   3.050  11.439 -0.0967  0.0145 -0.4068
  829MPD2     H12194   3.045   3.218  11.496  0.7857  0.9510  1.0374
  829MPD2    H112195   3.407   3.039  11.645  1.9480  1.4989  0.6032
  829MPD2    H212196   3.310   3.048  11.229  0.9049  0.3561  0.4329
  829MPD2    H312197   3.480   3.009  11.422 -0.5492 -0.8658 -0.9159
  829MPD2     N12198   3.199   3.164  11.731  0.3991 -0.4682 -0.2215
  829MPD2    H512199   3.285   3.168  11.786 -0.0777  1.5388  0.3658
  829MPD2    N112200   3.080   3.169  11.244 -0.0324 -0.0748  0.7398
  829MPD2    H712201   3.107   3.148  11.148  2.6542 -0.1393  1.4913
  830MPD2     C12202   4.025   1.158  15.647 -0.0513  0.7229 -0.1230
  830MPD2    C112203   3.912   1.184  15.573  0.5623 -0.3342 -0.0932
  830MPD2    C212204   3.904   1.279  15.471 -0.9717  0.1991  0.8319
  830MPD2    C312205   4.014   1.357  15.447  0.1324  0.0227  0.2055
  830MPD2    C412206   4.124   1.342  15.527  0.4874  0.1804 -0.2066
  830MPD2    C512207   4.135   1.242  15.623 -0.1608  0.1350 -0.0295
  830MPD2     H12208   3.822   1.284  15.400  1.5957  1.3265 -1.9956
  830MPD2    H112209   4.213   1.403  15.516 -0.8867  2.2315  0.0262
  830MPD2    H212210   4.026   1.092  15.733  3.7878  0.2059 -0.5732
  830MPD2    H312211   4.231   1.233  15.673 -1.5979 -0.3822  2.6241
  830MPD2     N12212   4.023   1.457  15.343 -0.3125 -0.5245 -0.1623
  830MPD2    H512213   4.113   1.502  15.337  0.6803 -2.2366  1.8948
  830MPD2    N112214   3.793   1.109  15.606 -0.0436  0.5575  0.4367
  830MPD2    H712215   3.812   1.043  15.680 -0.4119  0.0211  0.0474
  831MPD2     C12216   3.454   3.135  16.311 -0.1299  0.4029 -0.1088
  831MPD2    C112217   3.492   3.064  16.208  0.6994 -0.3554 -0.1875
  831MPD2    C212218   3.479   2.927  16.210 -0.6694 -0.2569  0.3865
  831MPD2    C312219   3.433   2.862  16.320  0.4251 -0.8460 -0.9481
  831MPD2    C412220   3.411   2.936  16.433  0.0642  0.7843 -0.2341
  831MPD2    C512221   3.414   3.073  16.428 -0.3781  1.0325 -0.4755
  831MPD2     H12222   3.499   2.882  16.113  2.5971  1.3977  0.3025
  831MPD2    H112223   3.366   2.892  16.521  1.8752  2.4104  1.5054
  831MPD2    H212224   3.456   3.243  16.298 -0.9644  0.1172 -2.6472
  831MPD2    H312225   3.379   3.128  16.515 -0.5586  0.7787 -0.3892
  831MPD2     N12226   3.386   2.729  16.322  0.0009  0.6484 -0.1150
  831MPD2    H512227   3.364   2.699  16.417 -2.4750 -1.3699 -1.3324
  831MPD2    N112228   3.539   3.115  16.087 -0.2576  0.3214 -0.1166
  831MPD2    H712229   3.561   3.046  16.015  1.1604  3.1102 -2.3407
  832MPD2     C12230   2.153   4.084  17.650  0.1736  0.0966  0.4074
  832MPD2    C112231   2.082   4.198  17.682 -0.0462 -0.0423 -0.0289
  832MPD2    C212232   1.956   4.215  17.624  0.0104 -0.2430 -0.3193
  832MPD2    C312233   1.895   4.116  17.552 -0.5818  0.3881  0.0492
  832MPD2    C412234   1.960   3.994  17.533 -0.3513  0.1452  0.2550
  832MPD2    C512235   2.092   3.991  17.575  0.0922  0.1834  0.1871
  832MPD2     H12236   1.913   4.314  17.629 -1.7342 -1.0944  1.5827
  832MPD2    H112237   1.909   3.914  17.481 -0.0335  0.2028 -0.1406
  832MPD2    H212238   2.247   4.053  17.693  1.3889  2.1649 -0.7599
  832MPD2    H312239   2.145   3.902  17.545 -0.1510 -0.2339  1.0016
  832MPD2     N12240   1.767   4.137  17.495 -0.0826  0.6915 -0.1010
  832MPD2    H512241   1.731   4.058  17.442  0.9600 -1.4171  2.3653
  832MPD2    N112242   2.150   4.293   0.065  0.5720 -0.6476  0.4084
  832MPD2    H712243   2.247   4.276   0.089  0.7627 -0.2950 -0.1272
  833MPD2     C12244   3.976   1.001  12.907 -0.0262 -0.2703  0.4712
  833MPD2    C112245   4.038   1.069  12.809  0.0583  0.3880 -0.0569
  833MPD2    C212246   4.085   0.998  12.702  0.5107  0.0685  0.5187
  833MPD2    C312247   4.083   0.862  12.696 -0.4126 -0.5352 -0.4215
  833MPD2    C412248   4.020   0.794  12.802  0.4697  0.5599  0.5369
  833MPD2    C512249   3.974   0.865  12.909 -0.2359  0.2547  0.3865
  833MPD2     H12250   4.121   1.058  12.620  2.1579  0.2435  1.3749
  833MPD2    H112251   4.015   0.686  12.801 -0.9862  0.6391 -1.0019
  833MPD2    H212252   3.928   1.052  12.990  1.0036 -0.9500  1.4889
  833MPD2    H312253   3.935   0.817  12.999 -1.8233  0.5064 -0.1625
  833MPD2     N12254   4.136   0.783  12.589  0.2353 -0.1948 -0.3169
  833MPD2    H512255   4.121   0.682  12.589 -1.1877  0.0286 -3.0137
  833MPD2    N112256   4.043   1.207  12.806 -0.5073 -0.0639 -0.2448
  833MPD2    H712257   3.989   1.255  12.877  1.5650 -0.6169  1.7045
  834MPD2     C12258   3.827   0.183  11.868 -0.1555  0.6407  1.0247
  834MPD2    C112259   3.927   0.256  11.798  0.5462  0.0705  0.8163
  834MPD2    C212260   4.007   0.345  11.863  0.3939 -0.2122  0.2813
  834MPD2    C312261   3.992   0.370  11.999 -0.0737 -0.1062  0.5158
  834MPD2    C412262   3.891   0.296  12.060  0.0219  0.3994  0.0173
  834MPD2    C512263   3.813   0.201  12.000  0.2730  0.0680  0.1543
  834MPD2     H12264   4.088   0.390  11.807 -0.1404  0.8777  0.3718
  834MPD2    H112265   3.875   0.299  12.167 -0.6765  0.3322 -0.0903
  834MPD2    H212266   3.768   0.104  11.823 -0.3769 -0.0808  2.5771
  834MPD2    H312267   3.743   0.146  12.062 -0.9202 -1.1511 -2.2881
  834MPD2     N12268   4.058   0.482  12.052 -0.2983  0.0453  0.1663
  834MPD2    H512269   4.134   0.510  11.992 -1.1785  0.8869 -0.5525
  834MPD2    N112270   3.926   0.231  11.664 -0.0387 -0.3208  0.4744
  834MPD2    H712271   3.869   0.152  11.637  0.1286 -0.2917  0.0179
  835MPD2     C12272   4.429   3.118  10.686 -0.3317 -0.3820  0.3627
  835MPD2    C112273   4.296   3.110  10.665  0.0398 -0.5378  0.3696
  835MPD2    C212274   4.215   3.082  10.770 -0.1979 -0.4674 -0.1618
  835MPD2    C312275   4.274   3.064  10.899 -0.1071 -0.0320 -0.0253
  835MPD2    C412276   4.408   3.074  10.911 -0.6829 -0.2637 -0.7307
  835MPD2    C512277   4.486   3.104  10.809 -0.2598  0.1104  0.5775
  835MPD2     H12278   4.109   3.084  10.751 -0.5935 -1.7183  1.9236
  835MPD2    H112279   4.449   3.055  11.010 -1.2890  3.6691  0.2612
  835MPD2    H212280   4.503   3.142  10.611 -1.1582 -0.6716 -0.5538
  835MPD2    H312281   4.592   3.117  10.822 -0.5567  2.8939  0.2257
  835MPD2     N12282   4.197   3.062  11.013 -0.3150 -0.3824 -0.3784
  835MPD2    H512283   4.237   3.067  11.106  0.3372 -2.1718 -0.5777
  835MPD2    N112284   4.241   3.117  10.537  0.3436 -0.6534  0.5151
  835MPD2    H712285   4.139   3.116  10.534  0.3361  1.8695 -0.0117
  836MPD2     C12286   3.494   3.297  10.964 -0.1679 -0.3284  0.3970
  836MPD2    C112287   3.510   3.270  11.097  0.1460  0.3960 -0.7036
  836MPD2    C212288   3.442   3.345  11.195  0.8120 -0.0556  0.1932
  836MPD2    C312289   3.335   3.421  11.154 -0.6706 -0.5999  0.5358
  836MPD2    C412290   3.324   3.456  11.018  0.5685  0.1480  0.2101
  836MPD2    C512291   3.404   3.390  10.928 -0.4688 -0.1470  0.5567
  836MPD2     H12292   3.444   3.314  11.299  2.1150 -2.3174 -0.5202
  836MPD2    H112293   3.246   3.523  10.984 -0.6561 -1.9979 -1.2575
  836MPD2    H212294   3.555   3.248  10.888 -3.1707 -2.2359 -0.8023
  836MPD2    H312295   3.391   3.409  10.822 -2.1969 -1.5520  0.5147
  836MPD2     N12296   3.259   3.493  11.246  0.4531 -0.6427 -0.3786
  836MPD2    H512297   3.181   3.539  11.200  0.8037  1.2382  0.9109
  836MPD2    N112298   3.626   3.197  11.132  0.7024 -0.3968 -0.0608
  836MPD2    H712299   3.667   3.142  11.057  0.3270 -1.3595  0.4424
  837MPD2     C12300   1.786   2.993  10.225 -0.3511 -0.0223 -0.1224
  837MPD2    C112301   1.787   3.042  10.092  1.1233 -0.4933 -0.5066
  837MPD2    C212302   1.801   3.177  10.062  0.2257 -0.0589  0.0501
  837MPD2    C312303   1.796   3.275  10.153  0.8510  0.3339 -0.8893
  837MPD2    C412304   1.783   3.231  10.286  0.5766  0.1990  0.2463
  837MPD2    C512305   1.780   3.091  10.320  0.1435 -0.5861 -0.6301
  837MPD2     H12306   1.804   3.204   9.957  2.5351 -0.2185  0.0904
  837MPD2    H112307   1.787   3.303  10.367  3.0878 -0.9450  1.1373
  837MPD2    H212308   1.773   2.891  10.260  0.1866 -0.0918 -0.1128
  837MPD2    H312309   1.777   3.065  10.425  0.9804 -1.1713 -0.7485
  837MPD2     N12310   1.791   3.413  10.114 -0.0825  0.0426 -0.2916
  837MPD2    H512311   1.795   3.424  10.013  0.7009 -0.4979 -0.3210
  837MPD2    N112312   1.774   2.953   9.976 -0.1243  0.2753  0.1881
  837MPD2    H712313   1.795   2.994   9.886 -2.0286 -3.0687 -1.7563
  838MPD2     C12314   0.372   0.841  11.313  0.9492  0.5736 -0.0216
  838MPD2    C112315   0.414   0.901  11.431  0.0274  0.5611  0.2344
  838MPD2    C212316   0.321   0.907  11.530  0.4613 -0.4659 -0.3647
  838MPD2    C312317   0.199   0.847  11.529  0.0867  0.1870 -0.5025
  838MPD2    C412318   0.161   0.779  11.416  0.2479  1.0499 -0.7890
  838MPD2    C512319   0.249   0.788  11.312  0.0695  0.3703  0.3984
  838MPD2     H12320   0.342   0.957  11.624 -0.2180  0.3648 -0.6558
  838MPD2    H112321   0.070   0.721  11.403  0.1182  1.2414 -0.7386
  838MPD2    H212322   0.439   0.824  11.229 -0.2886 -1.0618 -0.6729
  838MPD2    H312323   0.214   0.745  11.219  2.2704  1.1498 -0.7952
  838MPD2     N12324   0.129   0.848  11.654 -0.3715  0.4413 -0.5418
  838MPD2    H512325   0.176   0.906  11.722  0.4091 -0.5867 -0.1971
  838MPD2    N112326   0.548   0.942  11.450  0.0530  0.0805  0.1902
  838MPD2    H712327   0.581   0.974  11.541  0.9107 -0.4816  0.0802
  839MPD2     C12328   0.767   0.676  12.265  0.2521  0.1927  0.8694
  839MPD2    C112329   0.718   0.615  12.149  0.0825  0.2729  0.1807
  839MPD2    C212330   0.753   0.666  12.023  0.0991  0.0214 -0.3663
  839MPD2    C312331   0.836   0.773  12.010  0.0949 -0.3861 -0.1421
  839MPD2    C412332   0.882   0.832  12.128 -0.3513 -0.3055  0.0801
  839MPD2    C512333   0.843   0.787  12.250  0.1785  0.0016 -0.8688
  839MPD2     H12334   0.693   0.632  11.939 -0.9304  0.3794  0.2186
  839MPD2    H112335   0.937   0.925  12.130 -1.6269  0.3994  2.3433
  839MPD2    H212336   0.752   0.634  12.364 -1.0772 -1.3418  0.0035
  839MPD2    H312337   0.884   0.839  12.336 -2.1135 -0.1140  0.2730
  839MPD2     N12338   0.854   0.835  11.890  0.3638  0.9208  0.0562
  839MPD2    H512339   0.890   0.930  11.889 -0.2588  1.1403 -1.9775
  839MPD2    N112340   0.623   0.506  12.155 -0.2033 -0.0803  0.1500
  839MPD2    H712341   0.574   0.478  12.071 -0.4369  1.9488 -0.3875
  840MPD2     C12342   0.793   3.832  10.212  0.1870 -0.3886 -0.3515
  840MPD2    C112343   0.789   3.716  10.289 -0.9675 -0.2779 -0.3882
  840MPD2    C212344   0.828   3.727  10.426 -0.5253 -0.5103 -0.4872
  840MPD2    C312345   0.884   3.841  10.473  0.3384  0.0566 -0.0080
  840MPD2    C412346   0.889   3.953  10.389 -0.8658  0.0666 -0.2015
  840MPD2    C512347   0.833   3.954  10.264  0.0639 -0.4079 -0.1507
  840MPD2     H12348   0.820   3.645  10.497  1.5269 -0.3725 -0.1059
  840MPD2    H112349   0.916   4.050  10.428 -1.2281  0.1950 -0.2669
  840MPD2    H212350   0.768   3.822  10.107 -0.1041  0.6718 -0.3768
  840MPD2    H312351   0.840   4.041  10.200 -2.2443 -0.6251 -0.6900
  840MPD2     N12352   0.932   3.859  10.606  0.2272  0.0422  0.5573
  840MPD2    H512353   0.972   3.950  10.624  0.6827  0.3104 -1.8132
  840MPD2    N112354   0.732   3.597  10.234  0.2611 -0.0823  0.5359
  840MPD2    H712355   0.689   3.593  10.142  0.1231  1.1605  0.5467
  841MPD2     C12356   0.875   2.696  14.736  0.0070 -0.5182  0.4825
  841MPD2    C112357   0.786   2.782  14.787  0.6050 -0.2361  0.0344
  841MPD2    C212358   0.829   2.877  14.869  0.7505  0.1834 -1.0475
  841MPD2    C312359   0.964   2.889  14.912 -0.1402 -0.0931  0.3050
  841MPD2    C412360   1.050   2.789  14.866  0.4016 -0.7471  0.2133
  841MPD2    C512361   1.005   2.703  14.769 -0.0044  0.1426 -0.2236
  841MPD2     H12362   0.759   2.955  14.899  0.6864 -0.4113  0.3800
  841MPD2    H112363   1.154   2.785  14.898  0.3930 -0.1383  0.3099
  841MPD2    H212364   0.846   2.624  14.661 -1.3197 -0.7864  1.2639
  841MPD2    H312365   1.075   2.628  14.734 -0.9111 -0.2504 -1.1809
  841MPD2     N12366   1.002   2.994  15.000  0.3424  0.2830  0.3129
  841MPD2    H512367   0.925   3.049  15.038 -1.6692 -1.9831 -0.4692
  841MPD2    N112368   0.641   2.783  14.752  0.5751  0.5606  0.2563
  841MPD2    H712369   0.588   2.862  14.787  1.6771  0.8873  1.1977
  842MPD2     C12370   1.476   4.340  16.694  0.8797  0.1049  0.3207
  842MPD2    C112371   1.372   4.254  16.664  0.5969 -0.3155 -0.8941
  842MPD2    C212372   1.273   4.238  16.756  0.3805  0.5246  0.4666
  842MPD2    C312373   1.288   4.296  16.886  0.7846 -0.2974  0.5817
  842MPD2    C412374   1.400   4.376  16.915  0.0419 -0.9898 -0.3548
  842MPD2    C512375   1.495   4.400  16.820 -0.3411  0.0692  0.3609
  842MPD2     H12376   1.183   4.178  16.748  0.7073 -0.1282  1.6855
  842MPD2    H112377   1.412   4.413  17.016  0.4629 -0.3300 -0.6438
  842MPD2    H212378   1.539   4.363  16.609 -0.5668  0.8430 -0.5454
  842MPD2    H312379   1.587   4.450  16.846  0.5874 -2.1025  1.2503
  842MPD2     N12380   1.194   4.286  16.989  0.4866 -0.1551  0.1389
  842MPD2    H512381   1.206   4.346  17.070 -2.8853  0.4363  0.1802
  842MPD2    N112382   1.371   4.218  16.528  0.5620  0.0010  0.0279
  842MPD2    H712383   1.435   4.262  16.462  0.0530  1.8066  0.7393
  843MPD2     C12384   3.093   4.121   0.271 -0.4524  0.6480  0.8105
  843MPD2    C112385   3.040   4.242   0.302  0.2179 -0.1503 -0.3854
  843MPD2    C212386   3.121   4.356   0.299 -0.5863 -0.1884  0.2958
  843MPD2    C312387   3.255   4.350   0.299  0.0650  0.9350  0.3619
  843MPD2    C412388   3.312   4.227   0.263  0.6175  0.3989  0.1038
  843MPD2    C512389   3.229   4.119   0.251  0.2401  0.3844  0.2974
  843MPD2     H12390   3.076   4.455   0.305 -1.1489 -0.6275  3.2582
  843MPD2    H112391   3.419   4.219   0.246  0.3920  0.0341 -1.1217
  843MPD2    H212392   3.025   4.037   0.276  0.6057 -0.1928  0.9267
  843MPD2    H312393   3.277   4.026   0.223  0.3807  0.8721 -1.0660
  843MPD2     N12394   3.345   4.461   0.303 -0.2054 -0.3731  0.8756
  843MPD2    H512395   3.444   4.442   0.299 -0.0987 -0.0935  2.4600
  843MPD2    N112396   2.900   4.254   0.306  0.2747 -0.4318 -0.3804
  843MPD2    H712397   2.853   4.166   0.290  0.7258 -0.8615  0.6902
  844MPD2     C12398   1.436   3.950  16.984 -0.3607  0.3004  0.7650
  844MPD2    C112399   1.538   3.962  16.896 -0.1908 -0.7176 -0.0443
  844MPD2    C212400   1.625   4.068  16.909 -0.4546  0.2655  0.2388
  844MPD2    C312401   1.605   4.160  17.019  0.2783  0.5156 -0.6490
  844MPD2    C412402   1.503   4.138  17.105  0.6189 -0.2836 -0.7057
  844MPD2    C512403   1.417   4.039  17.084 -0.7564 -0.0460  0.0245
  844MPD2     H12404   1.705   4.089  16.838 -0.7216 -2.7327 -0.9896
  844MPD2    H112405   1.495   4.193  17.199  1.0196 -3.7787  1.3878
  844MPD2    H212406   1.360   3.875  16.965 -0.3760  0.1616  1.3599
  844MPD2    H312407   1.335   4.025  17.153 -2.0442 -2.3086 -1.9665
  844MPD2     N12408   1.722   4.232  17.053 -0.4797 -0.4543 -0.9100
  844MPD2    H512409   1.807   4.211  17.002 -0.2947 -1.3843 -0.2010
  844MPD2    N112410   1.556   3.867  16.796  0.1359  0.3457  0.6501
  844MPD2    H712411   1.627   3.893  16.728  1.6588 -0.8275  1.7807
  845MPD2     C12412   2.429   0.107  17.613  0.2122 -0.2617  0.2245
  845MPD2    C112413   2.293   0.112  17.630 -0.3749 -0.4450  0.2059
  845MPD2    C212414   2.215   0.003  17.585 -0.1696 -0.2916  0.1393
  845MPD2    C312415   2.278   4.613  17.547 -0.1317  0.2742 -0.0729
  845MPD2    C412416   2.416   4.604  17.549 -0.0562  0.4558 -0.0996
  845MPD2    C512417   2.492   4.715  17.578 -0.2746 -0.1937 -0.2271
  845MPD2     H12418   2.108   0.017  17.591 -0.1291  0.2702 -0.3899
  845MPD2    H112419   2.470   4.518  17.512  1.4757  1.8002 -0.9670
  845MPD2    H212420   2.490   0.188  17.649  0.8839 -0.8703  0.4559
  845MPD2    H312421   2.599   4.718  17.561 -0.0314 -0.2429  1.2769
  845MPD2     N12422   2.207   4.512  17.477  0.5924  0.3336  0.7839
  845MPD2    H512423   2.261   4.426  17.469  0.0980 -0.1713  2.7238
  845MPD2    N112424   2.243   0.233  17.690 -0.5507 -0.2458  0.5715
  845MPD2    H712425   2.307   0.309   0.012  1.2202 -0.9652 -2.2088
  846MPD2     C12426   3.712   0.603  13.321 -0.1777  0.0530 -0.5846
  846MPD2    C112427   3.609   0.682  13.367  0.1494  1.0312 -0.1811
  846MPD2    C212428   3.573   0.665  13.501 -0.2231  0.4862  0.0163
  846MPD2    C312429   3.630   0.575  13.595  0.1770  0.7370 -0.1224
  846MPD2    C412430   3.731   0.495  13.539  0.4974 -0.6069  0.1742
  846MPD2    C512431   3.766   0.507  13.407  0.0188 -0.1522 -0.0392
  846MPD2     H12432   3.494   0.726  13.543 -0.4807  0.0638  0.1573
  846MPD2    H112433   3.793   0.425  13.594  1.0564 -0.8046 -0.7004
  846MPD2    H212434   3.752   0.619  13.222  1.1932  0.9831  0.1127
  846MPD2    H312435   3.848   0.445  13.374 -1.8764 -3.3233  1.1622
  846MPD2     N12436   3.586   0.562  13.727 -0.2167  0.4168  0.0860
  846MPD2    H512437   3.509   0.620  13.758 -0.0999 -0.1968  1.5033
  846MPD2    N112438   3.543   0.772  13.283  0.1959  0.1579 -0.2773
  846MPD2    H712439   3.469   0.826  13.326  1.0374  0.6833  0.5086
  847MPD2     C12440   3.540   1.306  13.912  0.0306 -0.0250 -0.0708
  847MPD2    C112441   3.633   1.394  13.963  0.2015 -1.1647  0.4849
  847MPD2    C212442   3.756   1.339  13.998  0.0909 -0.0860 -0.6684
  847MPD2    C312443   3.791   1.203  13.980 -0.4109  0.0384  0.1562
  847MPD2    C412444   3.694   1.119  13.924 -0.7204 -0.0620 -0.2874
  847MPD2    C512445   3.573   1.176  13.884 -0.0488 -0.1437 -0.6462
  847MPD2     H12446   3.832   1.401  14.043  0.6779 -0.7438 -0.7604
  847MPD2    H112447   3.715   1.014  13.911 -1.5887 -0.3560  0.6844
  847MPD2    H212448   3.439   1.340  13.892 -0.2714 -1.8065 -1.6273
  847MPD2    H312449   3.498   1.116  13.834 -3.1738  0.9829  2.6606
  847MPD2     N12450   3.910   1.144  14.029  0.0129  0.8911  1.2423
  847MPD2    H512451   3.915   1.043  14.032  0.9310  0.9196  0.6251
  847MPD2    N112452   3.621   1.529  13.973  0.1007 -0.1773 -0.2101
  847MPD2    H712453   3.693   1.571  14.031 -1.0702  1.3640  0.1273
  848MPD2     C12454   1.193   4.645  17.154 -0.4924  0.3549 -0.0751
  848MPD2    C112455   1.322   4.590  17.167  0.3066  0.3404  0.0778
  848MPD2    C212456   1.422   4.643  17.094 -0.6400 -0.5523 -0.8420
  848MPD2    C312457   1.389   0.028  17.009 -0.2681 -0.4613 -0.3149
  848MPD2    C412458   1.264   0.073  16.989 -0.1962  0.3674 -0.3185
  848MPD2    C512459   1.168   0.027  17.072 -0.5177  0.0291  0.2109
  848MPD2     H12460   1.524   4.608  17.106  0.1908  1.9397 -0.7795
  848MPD2    H112461   1.239   0.159  16.927 -0.6723  0.9172  0.6404
  848MPD2    H212462   1.117   4.607  17.222 -0.9021  0.2226 -0.6057
  848MPD2    H312463   1.070   0.072  17.069 -1.3049 -1.7108 -0.5569
  848MPD2     N12464   1.487   0.081  16.928 -0.2869  0.1205  1.2199
  848MPD2    H512465   1.456   0.148  16.859 -1.1877 -2.2653 -0.6856
  848MPD2    N112466   1.360   4.485  17.250 -0.1119 -0.1920 -0.1356
  848MPD2    H712467   1.457   4.456  17.236  0.2820  1.1495 -0.1894
  849MPD2     C12468   0.341   4.336  14.795 -0.6858  0.3288  0.2861
  849MPD2    C112469   0.439   4.266  14.731 -0.6185  0.1114 -0.2959
  849MPD2    C212470   0.505   4.163  14.801  0.0719  0.6427 -1.0384
  849MPD2    C312471   0.474   4.125  14.930  0.4241  0.4094  0.6338
  849MPD2    C412472   0.390   4.211  15.001  0.6476  0.4106 -0.3758
  849MPD2    C512473   0.332   4.315  14.931  0.4784  0.5554 -0.4862
  849MPD2     H12474   0.569   4.097  14.743  0.2235 -0.5152  0.4660
  849MPD2    H112475   0.354   4.189  15.101  1.5190 -1.7398 -0.5372
  849MPD2    H212476   0.291   4.422  14.752  0.7952  0.6821 -0.7247
  849MPD2    H312477   0.255   4.369  14.986 -1.6128 -0.6481 -2.2336
  849MPD2     N12478   0.519   4.007  14.993 -0.5555  0.5860 -0.1797
  849MPD2    H512479   0.522   3.999  15.095  1.5905  2.2612 -0.1140
  849MPD2    N112480   0.481   4.291  14.600 -0.4391 -0.0746  0.0419
  849MPD2    H712481   0.554   4.230  14.564  0.2688  1.8208 -1.7124
  850MPD2     C12482   3.345   2.218  14.538 -0.2661  0.5204  0.2581
  850MPD2    C112483   3.309   2.301  14.638  0.5713  0.2678  0.0877
  850MPD2    C212484   3.405   2.395  14.684 -0.8771  0.1538  0.5639
  850MPD2    C312485   3.533   2.398  14.632  0.0325  0.4327 -0.1296
  850MPD2    C412486   3.573   2.312  14.530 -0.3242 -0.3464 -0.7600
  850MPD2    C512487   3.474   2.228  14.482  0.4202 -0.4293 -0.0108
  850MPD2     H12488   3.386   2.472  14.758  1.5885 -0.0774  1.4314
  850MPD2    H112489   3.663   2.320  14.471  0.3039 -0.4696  0.1853
  850MPD2    H212490   3.280   2.134  14.517 -1.0135  0.9113  0.9991
  850MPD2    H312491   3.498   2.176  14.389 -2.4160 -2.7821  0.5484
  850MPD2     N12492   3.632   2.478  14.689  0.0668 -0.3460 -0.6083
  850MPD2    H512493   3.726   2.462  14.654  1.3512  1.3000  2.0874
  850MPD2    N112494   3.177   2.281  14.696  0.2756  0.0314 -0.0013
  850MPD2    H712495   3.118   2.220  14.641 -0.3140  2.7377 -2.4128
  851MPD2     C12496   3.750   2.317  15.381  0.4556  0.2393 -0.4967
  851MPD2    C112497   3.692   2.271  15.272 -0.3339  0.2518 -0.1512
  851MPD2    C212498   3.758   2.162  15.210  0.1497 -0.3099 -0.5520
  851MPD2    C312499   3.875   2.110  15.258  0.1202  0.6555  0.1523
  851MPD2    C412500   3.933   2.160  15.372  0.1352 -0.0867 -0.3536
  851MPD2    C512501   3.868   2.269  15.431  0.3790 -0.2579  0.0276
  851MPD2     H12502   3.726   2.122  15.115 -1.1088 -0.6449  0.0170
  851MPD2    H112503   4.018   2.120  15.424 -1.0197 -1.8754  0.1478
  851MPD2    H212504   3.705   2.400  15.435 -0.4111 -1.2840  1.1298
  851MPD2    H312505   3.914   2.326  15.511  1.9723 -1.7230  0.1508
  851MPD2     N12506   3.924   1.989  15.200 -0.8503 -0.3603 -0.1295
  851MPD2    H512507   3.872   1.940  15.128  0.8893  0.2657 -1.8210
  851MPD2    N112508   3.587   2.341  15.210  0.1315  0.1580 -0.0719
  851MPD2    H712509   3.576   2.432  15.252 -1.0642  0.2542 -0.6186
  852MPD2     C12510   3.579   3.732  10.052  0.3771 -0.2912  0.7187
  852MPD2    C112511   3.641   3.834  10.126 -0.6733 -0.6258  0.1438
  852MPD2    C212512   3.603   3.965  10.092 -0.6890  0.0711  0.5258
  852MPD2    C312513   3.512   3.993   9.992  0.3506  0.4896 -1.2263
  852MPD2    C412514   3.449   3.887   9.927  0.0139  0.5333  0.2342
  852MPD2    C512515   3.484   3.754   9.951 -0.5188 -0.1690 -0.1375
  852MPD2     H12516   3.651   4.046  10.147 -0.3177  0.0390  0.2492
  852MPD2    H112517   3.378   3.912   9.849  0.1747  0.1446 -0.0392
  852MPD2    H212518   3.608   3.629  10.071  1.2276 -0.0717  0.6193
  852MPD2    H312519   3.425   3.678   9.902 -2.6243  0.7939  0.8635
  852MPD2     N12520   3.465   4.126   9.988 -0.1885  0.4497  0.1205
  852MPD2    H512521   3.515   4.198  10.040 -0.2488  1.6823 -1.5250
  852MPD2    N112522   3.735   3.815  10.233 -0.8061 -0.1691  0.4115
  852MPD2    H712523   3.797   3.894  10.251 -2.7488  1.8048 -1.4579
  853MPD2     C12524   0.061   4.384  12.747 -0.5941  0.6538 -0.7408
  853MPD2    C112525   4.722   4.487  12.698  0.0053  0.2620  0.6478
  853MPD2    C212526   0.014   4.529  12.563 -0.2230  0.5688  0.8624
  853MPD2    C312527   0.101   4.460  12.480  0.2577 -0.4874 -0.0526
  853MPD2    C412528   0.180   4.373  12.541 -0.2849 -0.1707  0.3349
  853MPD2    C512529   0.162   4.333  12.673  0.9532  0.5524 -0.0670
  853MPD2     H12530   4.673   4.609  12.528  1.2627  0.0751 -3.0670
  853MPD2    H112531   0.259   4.332  12.480 -0.3828 -2.1646  1.5279
  853MPD2    H212532   0.054   4.358  12.852  2.1329 -1.0573 -0.9874
  853MPD2    H312533   0.226   4.255  12.713  1.9489  1.1112 -0.5623
  853MPD2     N12534   0.117   4.485  12.343 -0.1488  0.4811  0.3021
  853MPD2    H512535   0.196   4.443  12.295 -2.0629 -1.9811 -0.6761
  853MPD2    N112536   4.654   4.562  12.799 -0.3557 -0.2986 -0.4029
  853MPD2    H712537   4.642   4.518  12.890  2.2676 -1.3209 -0.5585
  854MPD2     C12538   1.884   0.006  13.153  0.4239 -0.6318  0.6213
  854MPD2    C112539   1.950   0.059  13.046  0.6519 -0.0092  0.2171
  854MPD2    C212540   2.039   4.703  12.977 -0.4679  0.4775  0.3990
  854MPD2    C312541   2.045   4.566  13.002 -0.4043 -0.7265  0.1210
  854MPD2    C412542   1.973   4.518  13.110  0.4208  0.3089 -0.2672
  854MPD2    C512543   1.889   4.597  13.182  0.0870 -1.1711 -0.0670
  854MPD2     H12544   2.089   0.025  12.892 -0.7099  2.3557  1.2635
  854MPD2    H112545   1.984   4.413  13.135 -0.5544  0.3835  0.4568
  854MPD2    H212546   1.821   0.070  13.214 -0.0914  0.2139 -0.7984
  854MPD2    H312547   1.833   4.552  13.263 -1.0763 -0.2528 -0.3571
  854MPD2     N12548   2.135   4.471  12.950  0.0469 -0.0565  0.4068
  854MPD2    H512549   2.142   4.381  12.996  1.5899 -0.6330 -0.9733
  854MPD2    N112550   1.943   0.200  13.026 -0.7990  0.4120  0.4147
  854MPD2    H712551   1.885   0.256  13.088 -2.9169  0.1422 -1.3264
  855MPD2     C12552   2.904   4.052  13.329  0.2993 -0.0353  0.1016
  855MPD2    C112553   2.773   4.050  13.370  0.5050  0.0092  0.4900
  855MPD2    C212554   2.681   4.065  13.273  0.2640 -0.8495  0.7881
  855MPD2    C312555   2.720   4.085  13.140 -0.4348 -0.4711  0.3745
  855MPD2    C412556   2.850   4.077  13.102  0.3753 -0.0860 -0.0902
  855MPD2    C512557   2.941   4.061  13.203  0.7141  0.3237  0.3466
  855MPD2     H12558   2.575   4.059  13.296 -0.1397  0.7102 -0.5606
  855MPD2    H112559   2.887   4.099  13.002 -1.4085 -1.9862 -1.1598
  855MPD2    H212560   2.989   4.038  13.395  0.5047  0.3852 -0.0721
  855MPD2    H312561   3.046   4.054  13.179  0.6951  0.6922  0.1589
  855MPD2     N12562   2.634   4.125  13.036 -0.3357 -0.3968  0.1086
  855MPD2    H512563   2.667   4.141  12.941  0.5798 -1.0630  0.3113
  855MPD2    N112564   2.722   4.026  13.493  0.3800 -0.0387  0.0667
  855MPD2    H712565   2.621   4.026  13.493  0.3770 -0.4588 -0.1840
  856MPD2     C12566   4.304   0.778  13.958  0.0165 -0.0296  0.3722
  856MPD2    C112567   4.405   0.869  13.958 -0.3361 -0.4225 -0.1010
  856MPD2    C212568   4.391   0.996  13.915  0.7582 -0.1378 -0.0005
  856MPD2    C312569   4.272   1.039  13.861 -0.3966  0.0276  0.5566
  856MPD2    C412570   4.174   0.949  13.854 -0.3722 -0.2432 -0.0349
  856MPD2    C512571   4.185   0.820  13.908 -0.3020 -0.0915  0.6858
  856MPD2     H12572   4.481   1.055  13.913  0.5560  0.0694 -2.4959
  856MPD2    H112573   4.081   0.985  13.812 -0.1588  0.6057  0.2262
  856MPD2    H212574   4.318   0.677  13.995  2.3411 -0.6071 -2.1177
  856MPD2    H312575   4.094   0.761  13.913 -0.7491  0.6847  1.7710
  856MPD2     N12576   4.260   1.167  13.808  0.2798  0.6810  0.7888
  856MPD2    H512577   4.170   1.187  13.767 -1.2178 -0.3252  3.6010
  856MPD2    N112578   4.533   0.840  13.997  0.3380  0.4596 -0.2202
  856MPD2    H712579   4.601   0.915  13.996 -0.4376  1.1890  1.9564
  857MPD2     C12580   1.000   2.749  12.603  0.0411 -0.2205  0.0592
  857MPD2    C112581   1.109   2.727  12.678 -0.5128  0.0735 -0.6954
  857MPD2    C212582   1.139   2.809  12.779 -0.2535  0.1759 -0.0422
  857MPD2    C312583   1.069   2.923  12.801  0.2366  0.0180  0.5831
  857MPD2    C412584   0.962   2.947  12.722 -0.3511 -0.1147 -0.4818
  857MPD2    C512585   0.924   2.859  12.628 -0.0775  0.2236 -0.4630
  857MPD2     H12586   1.218   2.778  12.847 -0.1680 -1.7546 -1.0149
  857MPD2    H112587   0.897   3.034  12.721 -2.6256 -1.7826  1.8995
  857MPD2    H212588   0.982   2.688  12.514  1.5642 -3.1658  1.7705
  857MPD2    H312589   0.839   2.888  12.568 -0.3854  0.7351  0.2347
  857MPD2     N12590   1.102   2.992  12.914  0.1794 -0.2023  0.0543
  857MPD2    H512591   1.173   2.951  12.975  0.4375  0.9051  0.4977
  857MPD2    N112592   1.182   2.613  12.659 -0.1274 -0.2953  0.1613
  857MPD2    H712593   1.144   2.546  12.594 -1.0889 -0.7231  1.1682
  858MPD2     C12594   2.038   1.480  16.845  1.1907  0.7909 -0.2298
  858MPD2    C112595   2.172   1.510  16.863 -0.0856 -0.1479  0.3349
  858MPD2    C212596   2.198   1.602  16.959 -0.4236  0.2955  0.0537
  858MPD2    C312597   2.090   1.673  17.020 -0.3122 -1.0026  0.5071
  858MPD2    C412598   1.961   1.629  17.003  0.4115 -0.4402  0.6505
  858MPD2    C512599   1.939   1.524  16.922 -0.0811 -0.2481  0.1213
  858MPD2     H12600   2.302   1.608  16.990 -0.1347 -3.3795 -0.2779
  858MPD2    H112601   1.874   1.681  17.043 -1.3056 -2.6209 -0.2858
  858MPD2    H212602   2.010   1.407  16.770  1.0840 -0.2400  0.8105
  858MPD2    H312603   1.839   1.490  16.896 -0.0650  0.8075 -1.3512
  858MPD2     N12604   2.119   1.797  17.092  0.0114 -0.1425  0.1855
  858MPD2    H512605   2.036   1.839  17.133  0.5156 -0.9873  2.0204
  858MPD2    N112606   2.276   1.454  16.786  0.0146  0.4538  0.1766
  858MPD2    H712607   2.269   1.358  16.752 -0.8990  0.4266  0.4495
  859MPD2     C12608   0.493   4.322  15.603 -0.5119  0.1078  0.2685
  859MPD2    C112609   0.540   4.212  15.533 -0.2532 -0.3078  0.2221
  859MPD2    C212610   0.498   4.082  15.573 -0.0945 -0.1096 -0.5743
  859MPD2    C312611   0.429   4.067  15.688  0.2201 -0.1411 -0.8192
  859MPD2    C412612   0.393   4.175  15.766 -0.4145 -0.8464  0.5668
  859MPD2    C512613   0.421   4.305  15.721  0.5621 -0.9844 -1.0007
  859MPD2     H12614   0.542   4.000  15.517  0.0296  1.9951 -3.6117
  859MPD2    H112615   0.345   4.160  15.862 -0.8928  1.9708  0.7647
  859MPD2    H212616   0.528   4.423  15.583  0.0921 -0.3139 -0.8343
  859MPD2    H312617   0.383   4.391  15.775  1.8235  0.7407 -2.8704
  859MPD2     N12618   0.390   3.942  15.738  0.6870 -0.1169  0.4871
  859MPD2    H512619   0.322   3.941  15.814 -1.6697  2.6574 -1.6394
  859MPD2    N112620   0.625   4.239  15.425  0.4101  0.0749  0.1258
  859MPD2    H712621   0.653   4.335  15.412  2.2765 -0.4191  0.4138
  860MPD2     C12622   3.333   0.026  11.529  0.2487 -0.1376  0.3875
  860MPD2    C112623   3.301   4.636  11.599  0.4635  0.6390  0.0506
  860MPD2    C212624   3.172   4.599  11.613 -0.1314 -0.0408 -0.4160
  860MPD2    C312625   3.077   4.683  11.564 -0.5826  1.1672  0.4473
  860MPD2    C412626   3.103   0.065  11.478  0.0587 -0.1198  0.6927
  860MPD2    C512627   3.234   0.104  11.473  0.3756  0.4087  0.3246
  860MPD2     H12628   3.137   4.518  11.677  0.0154 -0.5585 -0.9942
  860MPD2    H112629   3.030   0.131  11.433  0.0413 -0.8070 -0.3122
  860MPD2    H212630   3.433   0.065  11.520 -0.1705  0.7587 -0.3328
  860MPD2    H312631   3.255   0.189  11.408  2.5077 -1.2427 -1.1239
  860MPD2     N12632   2.955   4.660  11.630  0.4348  0.3484 -0.1012
  860MPD2    H512633   2.961   4.595  11.707  1.5207 -2.1524 -2.2944
  860MPD2    N112634   3.406   4.557  11.656 -0.3817  0.2966  0.3468
  860MPD2    H712635   3.373   4.465  11.682  0.2533  0.3476  1.3365
  861MPD2     C12636   1.686   2.281  11.182 -0.6251 -0.0233  0.0221
  861MPD2    C112637   1.687   2.410  11.219 -0.2199 -0.5544 -0.3904
  861MPD2    C212638   1.586   2.499  11.181 -0.9456  0.5073  0.9174
  861MPD2    C312639   1.483   2.444  11.105  0.2867 -0.8769 -0.0372
  861MPD2    C412640   1.497   2.316  11.055  0.3846  0.4312 -0.2499
  861MPD2    C512641   1.594   2.232  11.099  0.5349  0.1673  0.3573
  861MPD2     H12642   1.593   2.603  11.212 -3.4420  0.7418  0.6414
  861MPD2    H112643   1.416   2.266  11.002 -1.9043  1.3756  2.3483
  861MPD2    H212644   1.744   2.196  11.217  1.0169  1.5871  1.1932
  861MPD2    H312645   1.583   2.128  11.072 -0.9836  0.2512  0.6050
  861MPD2     N12646   1.372   2.527  11.064  0.2248 -0.1447 -0.4152
  861MPD2    H512647   1.294   2.478  11.023 -0.7417 -1.4753  2.9873
  861MPD2    N112648   1.789   2.466  11.308 -0.4563 -0.2706  0.4334
  861MPD2    H712649   1.779   2.567  11.322 -2.2361 -0.5478  1.1306
  862MPD2     C12650   0.965   2.653  10.487 -0.5465  0.0198  0.2523
  862MPD2    C112651   1.093   2.634  10.537  0.1799  0.1364  0.5140
  862MPD2    C212652   1.174   2.543  10.468  1.1568 -0.0813  0.1161
  862MPD2    C312653   1.133   2.470  10.365  0.6413 -0.1404 -0.1557
  862MPD2    C412654   1.006   2.488  10.324 -0.8753  0.0585  0.4803
  862MPD2    C512655   0.924   2.576  10.387 -0.0105  0.3073  0.3616
  862MPD2     H12656   1.275   2.525  10.504  1.6896  1.2999 -0.6798
  862MPD2    H112657   0.975   2.436  10.235  0.8096 -1.2207  0.6399
  862MPD2    H212658   0.896   2.711  10.547  1.3020  1.4353  1.0083
  862MPD2    H312659   0.821   2.573  10.352  0.8924 -0.8277 -2.1838
  862MPD2     N12660   1.212   2.371  10.301 -0.6943  1.3342 -0.0260
  862MPD2    H512661   1.164   2.319  10.228  0.6845  1.0285 -0.7032
  862MPD2    N112662   1.133   2.691  10.662  0.0412  0.9226  0.3734
  862MPD2    H712663   1.210   2.645  10.709  2.2359  1.4945 -2.7422
  863MPD2     C12664   0.859   0.699  16.091 -0.2876  0.4617 -0.4557
  863MPD2    C112665   0.778   0.704  16.200 -0.1750 -0.3814 -0.1725
  863MPD2    C212666   0.836   0.683  16.325 -0.0487 -1.1297 -0.1133
  863MPD2    C312667   0.968   0.656  16.341 -0.3949 -0.4816  0.3804
  863MPD2    C412668   1.051   0.647  16.231  0.1255  0.4776 -0.1480
  863MPD2    C512669   0.996   0.672  16.108  0.0364 -1.0081  0.2689
  863MPD2     H12670   0.786   0.711  16.417  1.5057 -0.5511  0.5700
  863MPD2    H112671   1.159   0.636  16.240  0.0158  1.2959  2.3037
  863MPD2    H212672   0.818   0.716  15.992  1.2235 -0.6487 -1.2738
  863MPD2    H312673   1.061   0.668  16.022 -0.8566  0.2703 -0.4762
  863MPD2     N12674   1.024   0.652  16.467 -0.3818 -0.5051  0.1147
  863MPD2    H512675   0.959   0.644  16.545 -0.0536 -1.3822  0.2970
  863MPD2    N112676   0.649   0.744  16.176  0.3389  0.0323  1.5614
  863MPD2    H712677   0.633   0.770  16.080  1.7966 -1.5588  0.8979
  864MPD2     C12678   0.872   2.024  17.391  0.1145 -0.2362  0.2908
  864MPD2    C112679   0.910   1.961  17.273  0.3835 -0.5905 -0.2514
  864MPD2    C212680   0.991   2.038  17.185  0.1641 -0.3997 -0.1354
  864MPD2    C312681   1.006   2.172  17.195  0.4832 -0.2073 -0.5997
  864MPD2    C412682   0.969   2.227  17.316  0.3207  1.1492 -0.0494
  864MPD2    C512683   0.912   2.152  17.415 -0.9118  0.0475  0.1332
  864MPD2     H12684   1.019   2.000  17.087  1.8685  0.6989 -0.0669
  864MPD2    H112685   0.993   2.329  17.343  0.7961  1.5669 -2.0384
  864MPD2    H212686   0.798   1.977  17.455 -0.4338 -0.8889 -0.8230
  864MPD2    H312687   0.891   2.209  17.504  0.2553 -1.7709  1.5589
  864MPD2     N12688   1.086   2.245  17.106 -0.6955 -0.0738  0.1127
  864MPD2    H512689   1.107   2.338  17.142  0.4939 -0.2049 -0.2494
  864MPD2    N112690   0.877   1.823  17.249 -0.1686 -0.3601  0.0179
  864MPD2    H712691   0.803   1.780  17.302 -0.6521  3.4045  2.4366
  865MPD2     C12692   1.139   2.541  16.309 -0.5679 -0.1070 -0.2460
  865MPD2    C112693   1.146   2.450  16.414 -0.4393  0.8923  0.2555
  865MPD2    C212694   1.123   2.491  16.547 -0.0588 -0.2387 -0.9646
  865MPD2    C312695   1.108   2.629  16.572 -0.1909  0.0435 -0.4352
  865MPD2    C412696   1.113   2.710  16.462 -0.1343  0.0909  0.0911
  865MPD2    C512697   1.125   2.673  16.335 -0.9038 -0.0705 -0.2301
  865MPD2     H12698   1.141   2.427  16.633 -0.4772  0.6038 -0.2496
  865MPD2    H112699   1.112   2.818  16.470  1.0268  0.1533 -0.5144
  865MPD2    H212700   1.161   2.510  16.207  1.3476  1.6570 -0.3596
  865MPD2    H312701   1.117   2.750  16.259 -0.8475  1.4330  1.2845
  865MPD2     N12702   1.112   2.698  16.698  0.5625 -0.0099 -0.1149
  865MPD2    H512703   1.092   2.798  16.700  1.5796  0.1936  0.0931
  865MPD2    N112704   1.215   2.329  16.381  0.0814 -0.0237  0.0718
  865MPD2    H712705   1.243   2.321  16.284 -0.6015  2.3278 -0.3268
  866MPD2     C12706   2.218   3.373  10.886  0.5924  0.4461  0.5011
  866MPD2    C112707   2.216   3.280  10.980  0.4037  0.4738  0.1397
  866MPD2    C212708   2.101   3.254  11.058 -0.3888 -1.0998 -0.6194
  866MPD2    C312709   1.992   3.333  11.026  0.7901 -0.9190 -0.0165
  866MPD2    C412710   1.983   3.417  10.914  0.1123 -0.1222 -0.1385
  866MPD2    C512711   2.099   3.441  10.848 -0.2092  0.2289 -0.2421
  866MPD2     H12712   2.111   3.197  11.149 -0.1631  0.0894  0.0971
  866MPD2    H112713   1.893   3.465  10.877  0.3304 -0.2707 -0.8666
  866MPD2    H212714   2.303   3.385  10.820  0.6467 -2.3669  0.0680
  866MPD2    H312715   2.094   3.497  10.756  2.2878  1.4345  0.3402
  866MPD2     N12716   1.868   3.333  11.097 -0.3281 -0.3109 -0.0853
  866MPD2    H512717   1.803   3.404  11.067  1.5928  0.8076 -1.5584
  866MPD2    N112718   2.341   3.214  10.996  0.0048 -0.1951  0.0520
  866MPD2    H712719   2.415   3.236  10.930  0.1528  0.2513  0.3703
  867MPD2     C12720   0.675   1.784  16.824 -0.3482 -0.0906  0.4556
  867MPD2    C112721   0.572   1.839  16.889 -0.3951  0.4812  0.3611
  867MPD2    C212722   0.597   1.963  16.951 -0.3778 -0.7741 -0.7491
  867MPD2    C312723   0.722   2.026  16.944 -0.2306  0.4944  0.0659
  867MPD2    C412724   0.822   1.963  16.871 -0.5006 -0.6198 -0.3505
  867MPD2    C512725   0.798   1.841  16.813  0.7677  0.6666  0.5901
  867MPD2     H12726   0.516   2.017  16.999 -0.7412 -2.4094  0.4757
  867MPD2    H112727   0.924   1.999  16.859 -0.7328 -0.1081 -0.7340
  867MPD2    H212728   0.674   1.688  16.773  0.6984  0.3347 -0.3740
  867MPD2    H312729   0.880   1.782  16.773 -0.2339  0.1122 -0.6206
  867MPD2     N12730   0.750   2.149  17.007  0.7057  0.2085 -0.2293
  867MPD2    H512731   0.840   2.192  16.984 -0.5140  1.7767 -2.1034
  867MPD2    N112732   0.449   1.770  16.887  0.2908  0.1214 -0.3596
  867MPD2    H712733   0.448   1.708  16.807 -0.0918  0.0366 -0.2911
  868MPD2     C12734   1.877   0.662  13.307 -0.3217  0.1016 -0.5958
  868MPD2    C112735   1.908   0.792  13.317 -0.4191 -0.6720  0.8881
  868MPD2    C212736   1.806   0.889  13.334 -0.6825 -0.6611 -0.1018
  868MPD2    C312737   1.676   0.850  13.347 -0.0664  0.0413 -0.4525
  868MPD2    C412738   1.651   0.715  13.339 -0.5518  0.3336  0.4046
  868MPD2    C512739   1.749   0.624  13.305  0.0386  0.7490 -0.4953
  868MPD2     H12740   1.819   0.994  13.359 -1.1316 -0.8830  1.0345
  868MPD2    H112741   1.548   0.681  13.343 -0.5328  0.4924  2.2930
  868MPD2    H212742   1.947   0.581  13.292 -2.2287 -1.7450  0.5887
  868MPD2    H312743   1.721   0.521  13.290  2.7093 -0.0102 -0.2647
  868MPD2     N12744   1.582   0.952  13.383  0.1496 -0.2351 -0.2227
  868MPD2    H512745   1.619   1.047  13.384 -0.1429 -0.1364  1.7135
  868MPD2    N112746   2.043   0.830  13.300  0.1063 -0.2230 -0.4890
  868MPD2    H712747   2.112   0.758  13.280 -0.2198 -0.4787 -0.6743
  869MPD2     C12748   2.592   3.825   2.035 -0.2567  0.4731 -0.0110
  869MPD2    C112749   2.470   3.814   1.983 -0.2471 -0.1945 -0.0235
  869MPD2    C212750   2.434   3.886   1.866 -0.1755  0.1515  0.7593
  869MPD2    C312751   2.522   3.978   1.800  0.5664  0.0934  0.2028
  869MPD2    C412752   2.649   3.984   1.856 -0.1745  0.0509  0.2457
  869MPD2    C512753   2.679   3.912   1.973  0.3984  0.4400 -0.6314
  869MPD2     H12754   2.332   3.894   1.832 -0.2626  1.5605  1.3588
  869MPD2    H112755   2.726   4.032   1.797 -1.1427  0.3778 -0.7331
  869MPD2    H212756   2.626   3.765   2.119  0.2676 -0.1266 -0.6497
  869MPD2    H312757   2.777   3.917   2.020 -1.1276  3.1108  2.2969
  869MPD2     N12758   2.494   4.074   1.704 -0.4047  0.2090 -0.1512
  869MPD2    H512759   2.567   4.136   1.671 -0.7283  0.1419 -0.9851
  869MPD2    N112760   2.389   3.711   2.034 -0.0859  0.1802  0.5390
  869MPD2    H712761   2.431   3.667   2.116 -1.5981 -1.0849  0.6330
  870MPD2     C12762   1.449   3.132   1.280  0.0391 -0.5742  0.0092
  870MPD2    C112763   1.590   3.125   1.283  0.3437 -0.4632  0.0863
  870MPD2    C212764   1.655   3.208   1.196 -0.2767 -0.1643 -0.1363
  870MPD2    C312765   1.590   3.301   1.111 -0.3892 -0.3387 -0.4873
  870MPD2    C412766   1.451   3.303   1.101 -0.2655  1.2397 -0.3049
  870MPD2    C512767   1.380   3.215   1.187  0.0358 -0.0426  0.0200
  870MPD2     H12768   1.763   3.201   1.192 -0.3116 -0.2534 -0.8301
  870MPD2    H112769   1.398   3.370   1.035 -1.3320  1.3874  0.6925
  870MPD2    H212770   1.387   3.076   1.348 -2.3310 -0.7714 -2.3363
  870MPD2    H312771   1.272   3.211   1.186  0.0238 -0.3533  1.8158
  870MPD2     N12772   1.669   3.378   1.019 -0.1941 -0.3184  0.5003
  870MPD2    H512773   1.769   3.380   1.037 -0.5141 -0.9647  2.3603
  870MPD2    N112774   1.633   3.039   1.386 -0.3283 -0.1392 -0.1610
  870MPD2    H712775   1.570   2.979   1.438 -0.1870 -1.5477 -1.5882
  871MPD2     C12776   3.516   2.113  16.421 -1.0526 -0.4986 -0.4034
  871MPD2    C112777   3.511   2.088  16.556  0.7784 -0.0187  0.3197
  871MPD2    C212778   3.574   1.975  16.601 -0.2047 -0.9414  0.2784
  871MPD2    C312779   3.639   1.890  16.518  0.2373 -0.3879  0.2394
  871MPD2    C412780   3.638   1.912  16.383  0.0975 -0.0336  0.1273
  871MPD2    C512781   3.584   2.024  16.337  0.1103  0.1105 -0.3945
  871MPD2     H12782   3.587   1.957  16.707 -1.5761  0.4875  0.6918
  871MPD2    H112783   3.697   1.841  16.327  0.3158 -1.1451  1.7580
  871MPD2    H212784   3.474   2.204  16.380  0.7596  1.2463  1.6398
  871MPD2    H312785   3.584   2.045  16.231  0.2698 -0.1244 -0.4382
  871MPD2     N12786   3.699   1.776  16.584 -0.5317 -0.1785 -0.1344
  871MPD2    H512787   3.679   1.776  16.684  0.9899  0.6011  0.1658
  871MPD2    N112788   3.439   2.184  16.636 -0.1316  0.0682 -0.3407
  871MPD2    H712789   3.411   2.270  16.589  1.8599  1.2956  0.7249
  872MPD2     C12790   0.062   0.266  14.144  0.3047  0.7308 -0.0677
  872MPD2    C112791   0.015   0.178  14.054 -0.7950  0.2839 -0.1650
  872MPD2    C212792   4.612   0.131  14.061  0.2886 -0.4895  0.5589
  872MPD2    C312793   4.528   0.171  14.162  0.0910 -0.0659 -0.1183
  872MPD2    C412794   4.585   0.257  14.259  0.0428  0.5310 -0.0674
  872MPD2    C512795   4.706   0.306  14.244 -0.5157 -0.7261  0.8897
  872MPD2     H12796   4.580   0.054  13.992 -0.0971 -1.3187  1.6655
  872MPD2    H112797   4.522   0.280  14.344  0.2775  1.7514 -0.2109
  872MPD2    H212798   0.160   0.310  14.129  0.0953  0.5170 -2.1334
  872MPD2    H312799   0.031   0.360  14.324 -0.4119  1.9103 -0.9572
  872MPD2     N12800   4.397   0.141  14.183 -0.0995 -0.6049  0.4178
  872MPD2    H512801   4.346   0.173  14.265  0.9863 -1.5145  1.4608
  872MPD2    N112802   0.103   0.117  13.957 -0.2923 -0.2942  0.2346
  872MPD2    H712803   0.064   0.060  13.882 -1.0184 -1.1935  1.2929
  873MPD2     C12804   1.949   0.112   1.221 -0.3406  0.7101 -0.3499
  873MPD2    C112805   1.813   0.078   1.223 -0.7967  0.3155  0.2507
  873MPD2    C212806   1.774   4.666   1.236 -0.2663 -0.4409  0.4754
  873MPD2    C312807   1.874   4.570   1.242  0.1078  0.1955  0.0160
  873MPD2    C412808   2.006   4.602   1.259  0.1362  0.2741 -0.3318
  873MPD2    C512809   2.039   0.008   1.245  0.0165 -0.8901  0.6342
  873MPD2     H12810   1.668   4.645   1.239 -0.0728 -1.8619 -1.7890
  873MPD2    H112811   2.080   4.522   1.264 -2.0576 -1.8881 -2.3363
  873MPD2    H212812   1.983   0.215   1.213 -0.6219  0.9477  1.6767
  873MPD2    H312813   2.146   0.026   1.249 -0.3661  1.0433  2.1496
  873MPD2     N12814   1.843   4.435   1.233 -0.8908 -0.3240 -0.0306
  873MPD2    H512815   1.924   4.376   1.246 -1.1542 -0.8633 -0.8232
  873MPD2    N112816   1.715   0.185   1.201 -0.2911 -0.7075  1.0080
  873MPD2    H712817   1.748   0.278   1.227  0.0636 -0.2412 -1.0583
  874MPD2     C12818   1.532   0.034  16.058  0.0258 -0.1875  0.0475
  874MPD2    C112819   1.499   4.679  16.171 -0.1548 -0.1038 -0.5479
  874MPD2    C212820   1.548   4.710  16.297  0.4804  0.3608 -0.0696
  874MPD2    C312821   1.632   0.090  16.320  0.5462  0.3949 -0.3100
  874MPD2    C412822   1.664   0.168  16.215  0.3989  0.5191  1.1797
  874MPD2    C512823   1.611   0.140  16.093 -0.9237 -0.5386  0.1581
  874MPD2     H12824   1.524   4.657  16.388  0.0559 -0.4480 -0.6568
  874MPD2    H112825   1.728   0.255  16.224  0.4289  0.5511  0.6258
  874MPD2    H212826   1.482   0.015  15.963  1.3661 -1.1160 -0.4695
  874MPD2    H312827   1.637   0.211  16.015 -2.3170  1.3188  1.3899
  874MPD2     N12828   1.677   0.106  16.453  0.0390  0.2844  0.4266
  874MPD2    H512829   1.637   0.046  16.524  0.1312  1.6091  1.5812
  874MPD2    N112830   1.422   4.561  16.153  0.2562 -0.0512  0.3608
  874MPD2    H712831   1.379   4.542  16.062  0.5495  1.1579 -0.0254
  875MPD2     C12832   2.309   3.232  14.709  0.1230 -0.1625  0.3362
  875MPD2    C112833   2.183   3.262  14.763 -0.6452  0.1150 -0.1534
  875MPD2    C212834   2.180   3.330  14.882 -0.3170  0.1547  0.1810
  875MPD2    C312835   2.290   3.361  14.955  0.1782  0.5066  0.6587
  875MPD2    C412836   2.413   3.319  14.903  0.8747 -0.1199  0.2174
  875MPD2    C512837   2.419   3.283  14.772  0.0599  0.7390 -0.1701
  875MPD2     H12838   2.078   3.359  14.905 -0.4284  0.2683 -0.4463
  875MPD2    H112839   2.510   3.337  14.947  0.1120 -0.9215  2.2165
  875MPD2    H212840   2.330   3.180  14.616  0.5454 -2.5141  1.7705
  875MPD2    H312841   2.513   3.231  14.754  0.2374  1.4814 -1.4112
  875MPD2     N12842   2.280   3.424  15.077  0.3895 -0.5897  0.6110
  875MPD2    H512843   2.369   3.435  15.124 -0.6508  0.7538  2.2571
  875MPD2    N112844   2.061   3.225  14.697  0.6347  0.2541 -0.7273
  875MPD2    H712845   1.973   3.257  14.736  1.3489  2.1069 -0.6332
  876MPD2     C12846   0.610   4.108  15.991 -0.2441  0.3301  0.4424
  876MPD2    C112847   0.724   4.078  15.917 -0.3243 -0.0688  0.3068
  876MPD2    C212848   0.769   3.945  15.916 -0.8615 -0.5785  0.8127
  876MPD2    C312849   0.703   3.843  15.978 -0.3749 -0.2927 -0.4239
  876MPD2    C412850   0.588   3.876  16.053 -0.0497  0.3331  0.4851
  876MPD2    C512851   0.548   4.005  16.054  1.4149 -0.0055 -0.1673
  876MPD2     H12852   0.853   3.915  15.855 -0.5065  0.8481  0.6077
  876MPD2    H112853   0.527   3.800  16.099 -1.1549  2.8136  3.1344
  876MPD2    H212854   0.575   4.205  16.025 -1.1459  0.1714 -0.0386
  876MPD2    H312855   0.462   4.026  16.115 -0.0012  0.9778 -2.5162
  876MPD2     N12856   0.751   3.704  15.974 -0.4131  0.0888  0.4764
  876MPD2    H512857   0.826   3.678  15.911 -0.0205  0.7135  0.6873
  876MPD2    N112858   0.801   4.185  15.869  0.4702 -0.3575 -0.6583
  876MPD2    H712859   0.758   4.273  15.894  1.9030  0.0869  0.2285
  877MPD2     C12860   0.736   4.696  15.272 -0.1217  0.4999 -0.2115
  877MPD2    C112861   0.874   4.678  15.296  0.0909 -0.9797 -0.7554
  877MPD2    C212862   0.961   4.714  15.196 -0.0972  0.0800 -0.2932
  877MPD2    C312863   0.919   0.046  15.080  0.6304  0.1980 -0.4634
  877MPD2    C412864   0.781   0.077  15.066  0.0853 -0.5138  0.6403
  877MPD2    C512865   0.687   0.032  15.157 -0.0079  0.8414 -0.1978
  877MPD2     H12866   1.065   4.689  15.214  0.1605  0.2450 -1.5125
  877MPD2    H112867   0.742   0.120  14.974  1.5166  2.7039  1.5606
  877MPD2    H212868   0.660   4.654  15.337  0.4703 -0.2261  0.0178
  877MPD2    H312869   0.580   0.028  15.141  0.1715 -0.2346 -1.1306
  877MPD2     N12870   1.006   0.071  14.973 -0.0319  0.1336  0.1955
  877MPD2    H512871   0.964   0.087  14.881  0.5647 -2.0621 -0.4447
  877MPD2    N112872   0.927   4.613  15.415  0.1608 -0.3062  0.1743
  877MPD2    H712873   1.026   4.624  15.434  0.8021  0.1446 -3.2680
  878MPD2     C12874   0.396   3.976  13.640  0.2950 -0.1009  0.1020
  878MPD2    C112875   0.421   4.109  13.648 -0.1550 -0.6352 -0.1159
  878MPD2    C212876   0.428   4.167  13.775  0.3368 -0.0932  0.4004
  878MPD2    C312877   0.410   4.090  13.888 -0.4340 -0.1124 -0.0807
  878MPD2    C412878   0.393   3.955  13.875 -0.1704  0.2377 -0.3765
  878MPD2    C512879   0.375   3.900  13.751 -0.2419  0.2112 -0.4127
  878MPD2     H12880   0.452   4.273  13.780 -0.4621  0.1277 -0.5398
  878MPD2    H112881   0.361   3.894  13.959 -0.6450 -0.3033 -0.9530
  878MPD2    H212882   0.398   3.930  13.542 -0.3855  0.3218 -0.1083
  878MPD2    H312883   0.350   3.795  13.742  2.0888 -0.6062  2.8558
  878MPD2     N12884   0.433   4.150  14.012 -0.1624 -0.0263 -0.2624
  878MPD2    H512885   0.441   4.079  14.085 -0.6215 -1.9066 -2.0506
  878MPD2    N112886   0.465   4.177  13.524 -0.2482 -0.4855  0.1940
  878MPD2    H712887   0.477   4.112  13.447  0.0419 -0.1059 -0.0806
  879MPD2     C12888   1.698   0.671  16.915 -0.6117  0.1361  0.1659
  879MPD2    C112889   1.593   0.589  16.951  0.6076 -0.9469 -0.4077
  879MPD2    C212890   1.535   0.509  16.859  0.2957 -0.4780  0.5734
  879MPD2    C312891   1.561   0.517  16.724 -0.1373 -0.8137  0.7548
  879MPD2    C412892   1.669   0.600  16.689 -0.2004 -0.3637  0.1178
  879MPD2    C512893   1.737   0.670  16.784  0.2381  0.0271 -0.6614
  879MPD2     H12894   1.457   0.442  16.894  1.4282 -1.3150  1.4742
  879MPD2    H112895   1.691   0.612  16.583 -0.1474 -0.0649  0.1636
  879MPD2    H212896   1.758   0.732  16.981  2.2560 -0.9362 -1.4688
  879MPD2    H312897   1.822   0.728  16.750 -0.9325  1.3405 -1.3351
  879MPD2     N12898   1.499   0.438  16.624  0.2538 -0.3815 -0.1630
  879MPD2    H512899   1.520   0.465  16.529  0.2363 -0.4720 -0.1930
  879MPD2    N112900   1.554   0.596  17.088 -0.1752  0.2416 -0.5930
  879MPD2    H712901   1.596   0.671  17.142  0.6174 -1.4661  1.1505
  880MPD2     C12902   2.655   2.281   0.616  0.7399  0.1026  0.0288
  880MPD2    C112903   2.548   2.358   0.650 -0.4593 -0.2331 -0.7805
  880MPD2    C212904   2.464   2.318   0.750 -0.4954 -0.2794 -0.0806
  880MPD2    C312905   2.488   2.200   0.819  0.9049  0.2141  0.8438
  880MPD2    C412906   2.581   2.112   0.777  0.9713  0.5830  0.0926
  880MPD2    C512907   2.665   2.157   0.675 -0.1286 -0.0487 -0.0024
  880MPD2     H12908   2.385   2.379   0.793 -0.4687  0.0841 -0.5525
  880MPD2    H112909   2.611   2.021   0.828 -2.2531  0.4337  1.6803
  880MPD2    H212910   2.725   2.304   0.538  0.1956 -1.2031 -0.8449
  880MPD2    H312911   2.740   2.082   0.651  0.6680  0.2075  1.6670
  880MPD2     N12912   2.400   2.178   0.931  0.4844 -0.1937  0.1555
  880MPD2    H512913   2.332   2.249   0.956  0.9750  0.2798  0.1711
  880MPD2    N112914   2.541   2.482   0.579 -0.2908  0.1008 -0.5583
  880MPD2    H712915   2.613   2.509   0.513  0.9602 -0.1043  0.7358
  881MPD2     C12916   2.226   2.569  17.464 -0.8250 -0.2181  0.3116
  881MPD2    C112917   2.308   2.678  17.469 -0.0424 -1.0241 -0.2737
  881MPD2    C212918   2.366   2.696  17.596  0.2896  0.5033  0.3952
  881MPD2    C312919   2.323   2.630   0.010 -0.2246 -0.0643 -0.3194
  881MPD2    C412920   2.234   2.532  17.694  0.6118  0.9864 -0.5799
  881MPD2    C512921   2.184   2.499  17.576  0.1977  0.1805 -0.5800
  881MPD2     H12922   2.439   2.775  17.606  0.6957  0.0120  1.2643
  881MPD2    H112923   2.199   2.475   0.081  1.3932  0.9797 -0.2563
  881MPD2    H212924   2.198   2.521  17.372  1.1886 -1.8994  0.5584
  881MPD2    H312925   2.119   2.412  17.563  1.9206 -1.0933 -0.6800
  881MPD2     N12926   2.369   2.666   0.139  0.4175 -0.2961  0.2370
  881MPD2    H512927   2.330   2.625   0.223  0.4884 -1.8264 -0.4760
  881MPD2    N112928   2.371   2.730  17.350  0.0227  0.2951  0.0614
  881MPD2    H712929   2.330   2.702  17.262 -1.3036 -0.5821  0.9534
  882MPD2     C12930   0.998   4.429  14.257  0.0811  0.4579  0.2513
  882MPD2    C112931   0.968   4.528  14.352  0.1032  0.1157  0.1053
  882MPD2    C212932   0.852   4.600  14.339 -0.4214 -0.0966  0.3484
  882MPD2    C312933   0.775   4.586  14.223 -0.1463 -0.0309 -0.8998
  882MPD2    C412934   0.817   4.500  14.122 -0.8119  0.3545 -0.4484
  882MPD2    C512935   0.932   4.423  14.139  0.0244  0.3348  0.7763
  882MPD2     H12936   0.831   4.676  14.413 -2.2116  0.7991 -1.0642
  882MPD2    H112937   0.753   4.480  14.037 -0.9799  0.0522 -0.2508
  882MPD2    H212938   1.088   4.370  14.264 -1.7096 -2.2081  0.6272
  882MPD2    H312939   0.946   4.336  14.075 -0.8043  0.1754  0.8042
  882MPD2     N12940   0.651   4.654  14.204 -0.1790 -0.0574  0.8668
  882MPD2    H512941   0.589   4.630  14.127  0.4272 -1.2320  0.7469
  882MPD2    N112942   1.044   4.535  14.471 -0.1005 -0.3058  0.8386
  882MPD2    H712943   1.095   4.453  14.503  0.2256 -0.9299 -1.2314
  883MPD2     C12944   3.112   4.513  16.664  0.3059  0.1544  0.2594
  883MPD2    C112945   3.192   4.556  16.560 -0.3028  0.6060 -0.0885
  883MPD2    C212946   3.324   4.590  16.593 -0.1543  0.3086  0.0063
  883MPD2    C312947   3.369   4.586  16.722 -0.6891  0.0114  0.7872
  883MPD2    C412948   3.286   4.548  16.829  0.2101 -0.3731 -0.0970
  883MPD2    C512949   3.160   4.504  16.795 -0.9093  0.3993 -0.4740
  883MPD2     H12950   3.391   4.624  16.515  0.1734 -0.8789 -0.2302
  883MPD2    H112951   3.319   4.535  16.931  3.4945  0.0439 -1.1180
  883MPD2    H212952   3.011   4.474  16.666 -0.5601  2.4931  2.1400
  883MPD2    H312953   3.093   4.463  16.871  0.7526 -0.3006  0.6321
  883MPD2     N12954   3.504   4.619  16.735  0.1577  0.6590 -0.3929
  883MPD2    H512955   3.556   4.645  16.652  2.8022  1.9403  1.6416
  883MPD2    N112956   3.144   4.557  16.423  0.2344  0.6690 -0.4661
  883MPD2    H712957   3.206   4.583  16.347  0.4669  1.4629 -0.0010
  884MPD2     C12958   0.470   1.039  15.180  0.4552 -0.2486 -0.4944
  884MPD2    C112959   0.426   1.142  15.099  0.0281  0.2627 -0.9074
  884MPD2    C212960   0.297   1.194  15.107 -0.1368  0.1486  0.5996
  884MPD2    C312961   0.204   1.129  15.188  0.2774 -0.0442 -0.3518
  884MPD2    C412962   0.244   1.027  15.263 -0.2242  0.1301  0.5098
  884MPD2    C512963   0.375   0.978  15.265  0.3580  0.4597 -0.1428
  884MPD2     H12964   0.268   1.284  15.054  1.0169 -1.4236 -2.7195
  884MPD2    H112965   0.174   0.978  15.329 -0.0803  2.0618  2.0922
  884MPD2    H212966   0.572   1.003  15.175 -0.0854 -1.7964 -0.4155
  884MPD2    H312967   0.403   0.905  15.340 -2.0555 -1.0044 -0.6598
  884MPD2     N12968   0.062   1.164  15.188 -0.1289 -0.0031  0.0834
  884MPD2    H512969   0.034   1.246  15.133  1.0000  0.4867  0.2417
  884MPD2    N112970   0.513   1.217  15.016 -0.0977 -0.0345  0.2962
  884MPD2    H712971   0.477   1.303  14.975  0.5090 -0.2492 -0.6892
  885MPD2     C12972   3.260   1.357   0.168  0.3962  0.1370 -0.5592
  885MPD2    C112973   3.272   1.233   0.113  0.1618 -0.1485  0.6669
  885MPD2    C212974   3.269   1.221  17.672  0.1095  0.6428 -0.1991
  885MPD2    C312975   3.218   1.320  17.594 -0.0043 -0.3067 -0.0246
  885MPD2    C412976   3.192   1.442  17.650 -0.6522 -0.2037  0.3635
  885MPD2    C512977   3.210   1.466   0.087 -0.1817  1.2004 -0.0312
  885MPD2     H12978   3.300   1.133  17.616  2.0034  0.7500  0.7026
  885MPD2    H112979   3.155   1.528  17.594 -0.5317  1.8992  3.4762
  885MPD2    H212980   3.292   1.383   0.268 -0.1571  0.7505 -0.5367
  885MPD2    H312981   3.211   1.568   0.124  1.7021  1.3097 -0.3639
  885MPD2     N12982   3.214   1.294  17.457 -0.3050  0.7143 -0.3519
  885MPD2    H512983   3.261   1.211  17.423  0.3148  0.3906  1.3058
  885MPD2    N112984   3.323   1.127   0.194 -0.1476  0.2156 -0.5895
  885MPD2    H712985   3.360   1.147   0.286  0.0222 -2.0704 -0.1551
  886MPD2     C12986   4.084   4.147  14.944 -0.2769  0.1615  0.5363
  886MPD2    C112987   4.208   4.143  15.012 -0.3455 -0.4654  0.0592
  886MPD2    C212988   4.298   4.241  14.975 -1.0055  0.0195  0.6236
  886MPD2    C312989   4.271   4.339  14.878  0.7212  0.0362 -0.5271
  886MPD2    C412990   4.146   4.346  14.820 -0.0456 -0.0601 -0.7828
  886MPD2    C512991   4.058   4.247  14.848  0.0469 -0.3928 -0.4259
  886MPD2     H12992   4.397   4.216  15.011  0.3105  1.7046 -1.8219
  886MPD2    H112993   4.105   4.414  14.746  0.3727 -0.3221 -1.2522
  886MPD2    H212994   4.011   4.067  14.950 -0.2918  0.1418  0.0560
  886MPD2    H312995   3.958   4.246  14.805 -0.2118  0.0232  0.1625
  886MPD2     N12996   4.375   4.437  14.841  0.0787 -0.2592 -0.4480
  886MPD2    H512997   4.355   4.501  14.765 -1.9240  0.8546  1.0354
  886MPD2    N112998   4.241   4.045  15.101 -0.2897  0.8968  0.6427
  886MPD2    H712999   4.334   4.053  15.140 -0.3262  1.1473  0.6813
  887MPD2     C13000   0.115   4.008  15.359 -0.2886  0.6291 -0.4121
  887MPD2    C113001   0.006   4.060  15.420  0.9448 -0.5911  0.3348
  887MPD2    C213002   0.005   4.186  15.472 -0.0446  0.5701 -0.4944
  887MPD2    C313003   0.111   4.275  15.470  0.6543  0.0025 -0.5475
  887MPD2    C413004   0.221   4.221  15.400  0.7296  0.0195 -0.2456
  887MPD2    C513005   0.219   4.091  15.356  0.0732  0.0866  0.3636
  887MPD2     H13006   4.634   4.218  15.513  1.7508  2.3059  2.2851
  887MPD2    H113007   0.309   4.285  15.403 -0.4001  1.6061 -1.0043
  887MPD2    H213008   0.114   3.908  15.316 -0.2005  0.3694  0.1933
  887MPD2    H313009   0.307   4.043  15.315  0.4452  2.7267 -1.9177
  887MPD2     N13010   0.105   4.396  15.538  0.6388 -0.0482  0.4699
  887MPD2    H513011   0.025   4.415  15.598 -0.3559  0.3268 -0.9650
  887MPD2    N113012   4.605   3.986  15.426 -0.0711 -0.5301  0.3088
  887MPD2    H713013   4.526   4.039  15.461 -0.8381 -1.3032 -0.2482
  888MPD2     C13014   2.121   4.352  14.886 -0.3513 -0.0802 -0.7843
  888MPD2    C113015   2.181   4.417  14.990  0.4346 -0.5558 -0.0375
  888MPD2    C213016   2.261   4.527  14.957 -0.1414 -0.0765 -0.0908
  888MPD2    C313017   2.273   4.576  14.829 -0.1513 -0.1517  0.0466
  888MPD2    C413018   2.209   4.508  14.729  0.1252  0.4315  0.0278
  888MPD2    C513019   2.130   4.402  14.760 -0.0193  0.2089 -0.4427
  888MPD2     H13020   2.311   4.575  15.041  2.5498  1.6303 -2.6974
  888MPD2    H113021   2.203   4.549  14.629  0.2486  1.5209  0.4665
  888MPD2    H213022   2.056   4.266  14.899 -1.2632  0.6981 -0.1921
  888MPD2    H313023   2.073   4.355  14.680  0.7751  0.5707 -1.2194
  888MPD2     N13024   2.351   4.691  14.812 -0.4500  0.0252  0.7190
  888MPD2    H513025   2.398   0.005  14.894  1.6342 -0.9991 -0.0086
  888MPD2    N113026   2.158   4.377  15.125  0.4677 -0.3350 -0.0424
  888MPD2    H713027   2.202   4.438  15.192 -1.0186  1.2648 -0.5039
  889MPD2     C13028   0.944   3.745  13.231 -0.2351  0.5070  0.5179
  889MPD2    C113029   1.065   3.703  13.273  0.5800 -0.0392 -0.3548
  889MPD2    C213030   1.158   3.804  13.290  0.5738  0.1909 -0.1016
  889MPD2    C313031   1.114   3.932  13.312 -0.4818  0.1816  0.2386
  889MPD2    C413032   0.985   3.966  13.286  0.1114 -0.2513  0.6048
  889MPD2    C513033   0.897   3.874  13.243  0.0007  0.1541  0.1890
  889MPD2     H13034   1.252   3.774  13.334 -0.2306  0.2114  1.6605
  889MPD2    H113035   0.952   4.069  13.288  0.7785 -0.0318  0.3903
  889MPD2    H213036   0.864   3.676  13.205  0.1762  0.5839 -0.9485
  889MPD2    H313037   0.791   3.888  13.232  0.3863  2.3833 -0.7730
  889MPD2     N13038   1.205   4.028  13.362  0.0870  0.3275  0.0728
  889MPD2    H513039   1.288   3.980  13.398 -1.4083 -2.8411 -0.6891
  889MPD2    N113040   1.109   3.570  13.261  0.1537 -0.0179 -0.1156
  889MPD2    H713041   1.209   3.555  13.267 -0.3752 -2.5758  2.6368
  890MPD2     C13042   0.920   0.853  14.653 -0.2372  0.2149  0.1680
  890MPD2    C113043   1.051   0.841  14.692 -1.0448 -0.6074  0.1199
  890MPD2    C213044   1.091   0.745  14.774 -0.1096  0.3281  0.0332
  890MPD2    C313045   0.994   0.655  14.822  0.1147 -0.2169  0.0911
  890MPD2    C413046   0.857   0.670  14.791 -0.4527  0.2645  0.5653
  890MPD2    C513047   0.824   0.763  14.697  0.7289 -0.6281  0.1409
  890MPD2     H13048   1.197   0.735  14.792 -0.2367  1.6267  1.4832
  890MPD2    H113049   0.780   0.602  14.826 -0.9985  1.0354  0.8642
  890MPD2    H213050   0.900   0.925  14.574  1.5265  0.6603  0.1417
  890MPD2    H313051   0.723   0.778  14.660  1.2937  1.5824 -0.4928
  890MPD2     N13052   1.046   0.555  14.916  0.5759  0.0422  0.2229
  890MPD2    H513053   1.146   0.541  14.918  0.3985 -0.9132  2.7143
  890MPD2    N113054   1.135   0.937  14.633 -0.1496 -0.3571  0.0046
  890MPD2    H713055   1.081   1.011  14.589 -0.9263 -0.5896  0.5564
  891MPD2     C13056   4.121   3.846  16.960 -0.6154 -0.6669  0.0268
  891MPD2    C113057   3.996   3.806  16.991  0.3132 -0.7340 -0.0356
  891MPD2    C213058   3.958   3.672  17.006  0.0784  0.3193  0.2088
  891MPD2    C313059   4.054   3.577  16.979  0.0087 -0.0407 -0.5716
  891MPD2    C413060   4.177   3.619  16.941  0.2460 -0.4164 -0.1094
  891MPD2    C513061   4.212   3.748  16.931 -0.1262  0.4137  0.1310
  891MPD2     H13062   3.866   3.645  17.055  1.3764 -1.2389  1.8048
  891MPD2    H113063   4.255   3.547  16.918 -0.3702 -1.5354  1.2975
  891MPD2    H213064   4.139   3.953  16.961 -0.1148 -0.7469 -0.4986
  891MPD2    H313065   4.313   3.776  16.901  0.6811 -0.0715  2.4338
  891MPD2     N13066   4.018   3.440  16.986 -0.6193 -0.0354 -0.2501
  891MPD2    H513067   3.918   3.422  16.992 -0.2188 -1.3316  2.1556
  891MPD2    N113068   3.897   3.906  16.998 -0.5874  0.0802 -0.2026
  891MPD2    H713069   3.926   3.991  16.949  0.3912  0.6665  1.4066
  892MPD2     C13070   0.337   0.693  14.761  1.0096 -0.4160  0.0056
  892MPD2    C113071   0.232   0.604  14.765 -0.2682 -0.1464 -0.4432
  892MPD2    C213072   0.247   0.485  14.697 -0.4512  0.0326  0.2309
  892MPD2    C313073   0.356   0.470  14.603 -0.2144 -0.5513  0.1584
  892MPD2    C413074   0.456   0.564  14.598 -0.1816  1.0831  0.1249
  892MPD2    C513075   0.442   0.669  14.684 -0.9690 -0.2535 -0.5815
  892MPD2     H13076   0.172   0.407  14.705 -0.8693  0.1325 -2.8857
  892MPD2    H113077   0.546   0.566  14.538 -1.2818  0.8283 -1.5306
  892MPD2    H213078   0.330   0.784  14.819 -0.0484  0.1290 -0.9832
  892MPD2    H313079   0.518   0.747  14.684 -1.5545  0.3220  1.7113
  892MPD2     N13080   0.362   0.367  14.507 -0.2574 -0.4456 -0.5107
  892MPD2    H513081   0.440   0.374  14.442 -0.3753  0.6698 -0.5168
  892MPD2    N113082   0.118   0.635  14.843  0.6051 -0.6044  0.5233
  892MPD2    H713083   0.111   0.730  14.876  0.1326 -0.1431 -0.9338
  893MPD2     C13084   1.103   3.854   1.073 -0.2073  0.3104  0.2996
  893MPD2    C113085   1.154   3.806   1.191 -0.6926 -0.0446 -0.3522
  893MPD2    C213086   1.081   3.826   1.310  0.4864 -0.0851  0.1585
  893MPD2    C313087   0.954   3.883   1.299 -0.2467  0.1512 -0.0348
  893MPD2    C413088   0.902   3.921   1.175  0.3318 -0.4054 -0.1448
  893MPD2    C513089   0.975   3.902   1.061  0.0163  0.3491 -0.5164
  893MPD2     H13090   1.113   3.789   1.407 -0.3615  3.1071  1.6531
  893MPD2    H113091   0.807   3.973   1.168  0.3527 -0.3284  0.1456
  893MPD2    H213092   1.162   3.848   0.982  1.0334 -1.0489  1.1923
  893MPD2    H313093   0.930   3.936   0.968  0.9492  2.1880 -0.2871
  893MPD2     N13094   0.871   3.908   1.412  0.3725 -0.5628 -0.3518
  893MPD2    H513095   0.778   3.947   1.401  1.1189  1.4062  0.2472
  893MPD2    N113096   1.282   3.745   1.189  0.6465  0.4178 -0.2058
  893MPD2    H713097   1.327   3.756   1.098  0.5727 -1.7057 -0.5009
  894MPD2     C13098   4.298   1.660   1.641  0.1891 -0.5832  0.1670
  894MPD2    C113099   4.222   1.745   1.566  0.4002  0.2962  0.5523
  894MPD2    C213100   4.284   1.809   1.459  0.2707 -0.4933  0.1257
  894MPD2    C313101   4.412   1.777   1.425  0.1089  0.2630 -0.3238
  894MPD2    C413102   4.489   1.692   1.501 -0.1984 -0.5138  0.2335
  894MPD2    C513103   4.424   1.626   1.605 -1.0115  0.0799 -0.3080
  894MPD2     H13104   4.231   1.880   1.397 -3.7296 -2.0026  1.8330
  894MPD2    H113105   4.590   1.655   1.486  0.3409  0.6214  1.0079
  894MPD2    H213106   4.258   1.598   1.720 -0.3370 -0.0452  0.3153
  894MPD2    H313107   4.481   1.569   1.678 -0.8852  0.6019  0.0029
  894MPD2     N13108   4.461   1.830   1.306 -0.2131 -0.0411 -0.1277
  894MPD2    H513109   4.393   1.882   1.252 -1.1131 -2.8415 -1.6599
  894MPD2    N113110   4.086   1.774   1.596  0.6267 -0.2830 -0.4799
  894MPD2    H713111   4.037   1.845   1.542 -0.5952 -2.7065 -2.5218
  895MPD2     C13112   3.914   3.988  13.746 -0.5306  0.5644  0.1248
  895MPD2    C113113   3.834   3.911  13.664 -0.5655  0.3484  0.0267
  895MPD2    C213114   3.866   3.781  13.633 -0.1396  0.3179 -0.6374
  895MPD2    C313115   3.980   3.723  13.687 -0.2827 -0.8564 -0.5067
  895MPD2    C413116   4.060   3.802  13.768 -0.2455 -0.2644  0.3023
  895MPD2    C513117   4.027   3.932  13.802 -0.2617 -0.3977  0.9951
  895MPD2     H13118   3.794   3.726  13.574  0.0080  0.0234 -0.5397
  895MPD2    H113119   4.155   3.760  13.800 -1.0599 -2.5878 -0.2808
  895MPD2    H213120   3.895   4.090  13.778 -1.2414  0.1827  0.8972
  895MPD2    H313121   4.095   3.980  13.871  0.3409  2.5584 -1.6543
  895MPD2     N13122   4.002   3.582  13.656 -0.0551 -0.5883 -0.2082
  895MPD2    H513123   3.926   3.544  13.601 -2.9251  3.5255  0.9147
  895MPD2    N113124   3.717   3.965  13.596 -0.4781 -0.3328  0.6848
  895MPD2    H713125   3.654   3.900  13.550  0.9388  0.0300 -1.7014
  896MPD2     C13126   0.874   1.904   1.169 -0.2230  0.0524 -0.3827
  896MPD2    C113127   0.929   1.933   1.045 -0.4608  0.6450 -0.1710
  896MPD2    C213128   0.844   1.967   0.940 -0.8713  1.2386 -0.2244
  896MPD2    C313129   0.710   1.966   0.966 -0.3275  0.7980 -0.2082
  896MPD2    C413130   0.657   1.935   1.094 -0.5229  0.1788  0.3958
  896MPD2    C513131   0.739   1.905   1.195  0.0761  0.4188 -0.3468
  896MPD2     H13132   0.876   1.989   0.839  3.0924  0.6394  0.8909
  896MPD2    H113133   0.553   1.944   1.123 -0.3888 -0.5561  1.0966
  896MPD2    H213134   0.941   1.901   1.254 -2.7300  2.5933  1.6695
  896MPD2    H313135   0.701   1.900   1.296  0.5289  0.8485 -0.1536
  896MPD2     N13136   0.628   1.999   0.860 -0.3848  0.5460 -0.7875
  896MPD2    H513137   0.671   2.008   0.768  0.5078 -1.1986 -0.5329
  896MPD2    N113138   1.071   1.943   1.039  0.2029  0.8966  0.4126
  896MPD2    H713139   1.117   1.922   1.127 -1.1949  1.5664  1.3162
  897MPD2     C13140   2.405   3.868  10.166  0.0334 -0.0877  0.1339
  897MPD2    C113141   2.412   3.990  10.225 -0.1141 -0.0708  0.0123
  897MPD2    C213142   2.337   4.010  10.340 -0.3547  0.6552 -0.6560
  897MPD2    C313143   2.281   3.906  10.403  0.4900 -0.5228  0.3757
  897MPD2    C413144   2.270   3.786  10.343  0.5669  0.2804  0.4936
  897MPD2    C513145   2.336   3.764  10.223  0.3821 -0.2585 -0.4130
  897MPD2     H13146   2.349   4.099  10.401 -0.1903  0.2708 -0.1297
  897MPD2    H113147   2.230   3.693  10.382  0.9875  0.2251  0.8014
  897MPD2    H213148   2.451   3.851  10.070 -0.5620 -0.7603 -0.0365
  897MPD2    H313149   2.339   3.667  10.174 -1.4350 -0.5862  0.1214
  897MPD2     N13150   2.208   3.933  10.527 -0.5910  0.2420  0.0615
  897MPD2    H513151   2.193   4.029  10.557 -0.1717  0.4881 -0.5196
  897MPD2    N113152   2.467   4.101  10.153  0.0991 -0.3592  0.2121
  897MPD2    H713153   2.508   4.087  10.061  1.0380 -1.4663  0.8065
  898MPD2     C13154   0.119   4.021   0.146 -0.4397  0.2483  0.0465
  898MPD2    C113155   0.181   4.144   0.140 -0.2417  0.3353 -0.5593
  898MPD2    C213156   0.199   4.202   0.017 -0.9233  0.8120 -0.2806
  898MPD2    C313157   0.150   4.137  17.601  0.0652 -0.1660  0.2039
  898MPD2    C413158   0.093   4.018  17.612 -0.3722 -1.1385  0.4811
  898MPD2    C513159   0.081   3.958   0.035 -0.0098  0.1082 -0.3006
  898MPD2     H13160   0.249   4.298   0.010 -0.6467  0.6727 -0.2225
  898MPD2    H113161   0.061   3.959  17.527 -3.3055  0.5372  0.4274
  898MPD2    H213162   0.103   3.971   0.241 -0.4185 -0.3898 -0.2793
  898MPD2    H313163   0.043   3.856   0.041  0.8366 -0.1632  0.3638
  898MPD2     N13164   0.153   4.206  17.473  0.2931  0.5018  0.2624
  898MPD2    H513165   0.174   4.304  17.489  0.1134  0.2855  1.8703
  898MPD2    N113166   0.208   4.230   0.248  0.5026 -0.2843  0.5268
  898MPD2    H713167   0.253   4.319   0.228 -0.9945  0.1302 -1.0305
  899MPD2     C13168   1.136   0.288  17.263  0.2134  0.1573  0.2361
  899MPD2    C113169   1.055   0.339  17.163  0.0239 -0.2480  0.1781
  899MPD2    C213170   0.916   0.330  17.173  0.0422 -0.0180  0.6332
  899MPD2    C313171   0.862   0.289  17.294 -0.3283  0.1168 -0.2595
  899MPD2    C413172   0.946   0.251  17.393  0.0050 -0.2841  0.1895
  899MPD2    C513173   1.078   0.247  17.379  0.0864  0.8888 -0.0989
  899MPD2     H13174   0.851   0.362  17.092  0.4759  0.6103  0.5279
  899MPD2    H113175   0.911   0.205  17.485 -2.0101  0.7121 -0.0857
  899MPD2    H213176   1.244   0.297  17.260  0.1039  1.5123  0.4008
  899MPD2    H313177   1.145   0.209  17.455  0.5226 -1.3255 -1.5533
  899MPD2     N13178   0.729   0.298  17.329 -0.3806  0.5301  0.5898
  899MPD2    H513179   0.714   0.296  17.429 -0.1794  2.8676  0.6799
  899MPD2    N113180   1.117   0.405  17.053  0.4948  0.3098  0.2138
  899MPD2    H713181   1.214   0.432  17.068  0.8729  0.2090 -2.0927
  900MPD2     C13182   0.383   2.318  12.642 -0.6365  0.2423 -0.3702
  900MPD2    C113183   0.317   2.211  12.587 -0.1886 -0.2741  0.5422
  900MPD2    C213184   0.209   2.240  12.506  0.7873 -0.5829 -0.8234
  900MPD2    C313185   0.158   2.364  12.493 -0.2257 -0.0147  0.6560
  900MPD2    C413186   0.243   2.465  12.529 -0.2516  0.5737 -0.1787
  900MPD2    C513187   0.352   2.446  12.612  0.4576  0.4707  0.1077
  900MPD2     H13188   0.159   2.159  12.455 -0.6460 -0.9176  1.1117
  900MPD2    H113189   0.218   2.567  12.503 -0.0558  0.4129 -1.0124
  900MPD2    H213190   0.471   2.301  12.702  0.4268  1.0776 -1.6991
  900MPD2    H313191   0.412   2.531  12.642  0.2006  0.0254  1.9270
  900MPD2     N13192   0.042   2.383  12.418  0.3676 -0.0291 -0.1508
  900MPD2    H513193   0.004   2.300  12.375  1.1929 -0.7862  0.5850
  900MPD2    N113194   0.358   2.081  12.632 -0.2682 -0.1331  0.3686
  900MPD2    H713195   0.443   2.071  12.686  0.6669  1.6214 -0.8135
  901MPD2     C13196   0.103   1.039  12.606 -0.1027  0.2701  0.3569
  901MPD2    C113197   0.235   1.034  12.635 -0.3025  0.1559  0.7178
  901MPD2    C213198   0.299   1.157  12.659  0.5239  0.4202 -0.2851
  901MPD2    C313199   0.222   1.278  12.658 -0.6207 -0.1053 -0.1619
  901MPD2    C413200   0.083   1.267  12.643  0.0504 -0.4964  0.8671
  901MPD2    C513201   0.028   1.147  12.614 -0.6697 -0.2383  0.2924
  901MPD2     H13202   0.404   1.166  12.683  0.3794  0.8744  0.1819
  901MPD2    H113203   0.019   1.353  12.633 -0.6715 -1.2570 -1.0610
  901MPD2    H213204   0.053   0.945  12.589 -1.5114  0.8918  1.0225
  901MPD2    H313205   4.644   1.137  12.603 -0.6361  0.1266 -0.3335
  901MPD2     N13206   0.294   1.396  12.686 -0.4028 -0.3680 -0.2302
  901MPD2    H513207   0.395   1.387  12.687 -0.4666 -0.9770  0.6096
  901MPD2    N113208   0.297   0.907  12.636  0.1060  0.2015 -0.2249
  901MPD2    H713209   0.236   0.827  12.626  1.5772 -0.8202 -1.0125
  902MPD2     C13210   4.155   4.471  13.130 -0.3180  0.5066 -0.6658
  902MPD2    C113211   4.181   4.553  13.026 -0.1475  0.6791 -0.8503
  902MPD2    C213212   4.251   4.499  12.919 -0.0311  0.4361  0.6997
  902MPD2    C313213   4.287   4.366  12.922 -0.1470 -0.1054 -0.1155
  902MPD2    C413214   4.256   4.283  13.022  0.4579 -0.5316  0.2101
  902MPD2    C513215   4.190   4.334  13.130 -0.5747  0.5454 -0.1425
  902MPD2     H13216   4.288   4.559  12.837  0.7291 -1.6549 -0.5127
  902MPD2    H113217   4.277   4.177  13.012 -0.4882 -0.5651 -1.4156
  902MPD2    H213218   4.106   4.516  13.216  0.7998 -1.1310  0.8429
  902MPD2    H313219   4.166   4.263  13.208 -0.5462  0.5882 -0.0953
  902MPD2     N13220   4.364   4.311  12.817 -0.3469 -0.5134  0.0585
  902MPD2    H513221   4.396   4.216  12.828 -0.2082 -0.3661  0.9186
  902MPD2    N113222   4.145   4.684  13.047 -0.3478 -0.4105  0.3060
  902MPD2    H713223   4.096   4.709  13.133  3.0461  1.5208  1.6687
  903MPD2     C13224   4.376   4.667  12.101 -0.0110  0.1711  0.1485
  903MPD2    C113225   4.346   4.535  12.124 -0.4062  0.1784  0.7853
  903MPD2    C213226   4.233   4.481  12.066 -0.2844 -0.4802  0.2034
  903MPD2    C313227   4.152   4.564  11.990 -0.5126 -0.2297  0.0470
  903MPD2    C413228   4.184   4.697  11.966  0.1877 -0.0741  0.7536
  903MPD2    C513229   4.293   0.023  12.027 -0.0677 -0.1410 -0.2557
  903MPD2     H13230   4.197   4.382  12.092 -1.8882 -0.1281 -0.6995
  903MPD2    H113231   4.122   0.048  11.918  2.5728  0.8754 -0.8333
  903MPD2    H213232   4.462   4.705  12.154  0.2986  0.2751 -0.4347
  903MPD2    H313233   4.317   0.129  12.019 -1.0860  0.1343  0.1852
  903MPD2     N13234   4.039   4.500  11.932  1.1034 -0.0479  0.1664
  903MPD2    H513235   4.021   4.410  11.976 -1.2048  0.3047 -0.0404
  903MPD2    N113236   4.428   4.462  12.213 -0.3424  0.6811  0.1648
  903MPD2    H713237   4.496   4.512  12.269 -0.7463  0.4231  0.8912
  904MPD2     C13238   3.704   3.508  14.022  0.7078 -0.5588  0.1165
  904MPD2    C113239   3.676   3.504  14.156  0.2592  0.1844  0.7656
  904MPD2    C213240   3.780   3.528  14.246 -0.3618 -0.1279 -0.6664
  904MPD2    C313241   3.901   3.583  14.206 -0.0595 -0.1563  0.2187
  904MPD2    C413242   3.915   3.615  14.071  0.5021 -0.0179 -0.2553
  904MPD2    C513243   3.821   3.562  13.985  1.0995 -0.2390  0.4280
  904MPD2     H13244   3.758   3.507  14.350  0.8974  0.0520 -0.3597
  904MPD2    H113245   3.996   3.677  14.034  1.3860 -1.7050 -1.1903
  904MPD2    H213246   3.635   3.472  13.947  0.3368 -1.7737  1.0506
  904MPD2    H313247   3.842   3.562  13.879  0.3174 -1.0045  0.2705
  904MPD2     N13248   4.004   3.617  14.297 -0.1583  0.1932  0.1903
  904MPD2    H513249   3.999   3.585  14.393 -0.3943 -0.5321 -0.0659
  904MPD2    N113250   3.544   3.479  14.196  0.1717 -0.0398 -0.1885
  904MPD2    H713251   3.540   3.435  14.287 -0.5505 -0.8600 -0.6160
  905MPD2     C13252   3.282   3.280  13.557  0.0196 -0.0473 -0.0545
  905MPD2    C113253   3.366   3.383  13.588  0.4589 -0.2431  0.3083
  905MPD2    C213254   3.501   3.373  13.567 -0.3673  0.5355 -1.1372
  905MPD2    C313255   3.550   3.252  13.514  0.0983 -0.3170  0.2589
  905MPD2    C413256   3.456   3.153  13.479  0.0826  0.8329 -0.2445
  905MPD2    C513257   3.322   3.169  13.486  0.1403 -0.1124  0.4207
  905MPD2     H13258   3.571   3.447  13.603  0.1359 -0.0472 -0.9149
  905MPD2    H113259   3.489   3.069  13.419  1.4488  1.0921  0.1384
  905MPD2    H213260   3.179   3.286  13.590  0.5133 -0.4981  1.5370
  905MPD2    H313261   3.257   3.088  13.454  0.5196 -0.1471 -0.2485
  905MPD2     N13262   3.691   3.222  13.503 -0.0271 -0.0634  0.2630
  905MPD2    H513263   3.722   3.127  13.485  0.9912  0.7219 -2.1855
  905MPD2    N113264   3.312   3.492  13.658 -0.0935  0.0665  0.8421
  905MPD2    H713265   3.223   3.473  13.704 -1.5033 -2.2279 -2.8607
  906MPD2     C13266   1.013   3.638  11.434 -0.1031 -0.1988  0.4480
  906MPD2    C113267   0.966   3.605  11.310 -0.6206  0.8559 -1.1960
  906MPD2    C213268   0.888   3.488  11.302  0.3059 -0.0222 -0.3770
  906MPD2    C313269   0.858   3.414  11.418 -0.1558  0.3410  0.0277
  906MPD2    C413270   0.918   3.446  11.538  0.2122  0.8320  0.1814
  906MPD2    C513271   0.986   3.564  11.545 -0.5401 -0.0249  0.2463
  906MPD2     H13272   0.860   3.459  11.201 -0.9274 -1.9733  0.5281
  906MPD2    H113273   0.887   3.393  11.627 -3.9978 -0.7978 -2.2419
  906MPD2    H213274   1.090   3.714  11.441  1.0611 -1.3620  0.1742
  906MPD2    H313275   1.041   3.584  11.636  1.3077  1.9467 -1.2961
  906MPD2     N13276   0.767   3.309  11.412 -0.0383 -0.2044  0.0251
  906MPD2    H513277   0.774   3.226  11.469  0.4435 -0.0405  0.1977
  906MPD2    N113278   0.992   3.672  11.190  0.5206 -0.0091  0.3978
  906MPD2    H713279   0.970   3.626  11.102 -1.8406 -1.4334  1.7582
  907MPD2     C13280   0.227   2.949  15.654  0.7085 -0.8398 -0.1044
  907MPD2    C113281   0.247   2.830  15.585  1.3979 -0.3805  0.2964
  907MPD2    C213282   0.350   2.747  15.620 -0.1928 -0.7148  0.7318
  907MPD2    C313283   0.438   2.782  15.725  0.0530 -0.6920  0.3864
  907MPD2    C413284   0.416   2.899  15.798  0.0605 -0.5818 -0.0898
  907MPD2    C513285   0.306   2.976  15.763  0.6076  0.4882 -0.0960
  907MPD2     H13286   0.363   2.653  15.568 -1.5311  0.4370 -1.6774
  907MPD2    H113287   0.472   2.943  15.879 -3.8880  0.1770  2.2153
  907MPD2    H213288   0.159   3.021  15.608 -0.9716 -2.6987 -0.5344
  907MPD2    H313289   0.281   3.061  15.825  1.4248  0.4654  0.2685
  907MPD2     N13290   0.552   2.702  15.761 -0.3528  0.5214 -0.0045
  907MPD2    H513291   0.569   2.616  15.711  0.2625  0.3828  0.4385
  907MPD2    N113292   0.178   2.795  15.466  0.5571  0.6118  0.0415
  907MPD2    H713293   0.213   2.711  15.421  2.7668  1.1668  0.7358
  908MPD2     C13294   2.215   4.025   9.413  0.1866  0.0872 -0.4521
  908MPD2    C113295   2.224   3.967   9.539  0.1249  1.2821 -0.7486
  908MPD2    C213296   2.240   4.050   9.650 -0.0474  0.1593  0.1601
  908MPD2    C313297   2.276   4.182   9.633 -0.1668  0.5845 -0.2473
  908MPD2    C413298   2.289   4.228   9.508 -0.2778  0.2302  0.1835
  908MPD2    C513299   2.263   4.150   9.397  0.6277 -0.2496  0.7625
  908MPD2     H13300   2.225   4.010   9.749 -0.7996  0.2666  0.0883
  908MPD2    H113301   2.315   4.331   9.484 -2.1264  0.6083 -0.2193
  908MPD2    H213302   2.209   3.962   9.324 -2.7702 -0.6447  0.2740
  908MPD2    H313303   2.273   4.197   9.300 -0.6632 -1.7231 -0.0765
  908MPD2     N13304   2.305   4.255   9.753  0.0660  0.6943 -0.4102
  908MPD2    H513305   2.271   4.212   9.839 -2.7751 -2.2772 -3.0661
  908MPD2    N113306   2.207   3.826   9.561  0.1380  0.6129  0.0972
  908MPD2    H713307   2.210   3.794   9.658  1.1424 -3.0401 -1.1627
  909MPD2     C13308   3.100   1.664  11.912  0.0659  0.9051  0.2301
  909MPD2    C113309   3.025   1.750  11.842 -0.0359  0.0837  0.1725
  909MPD2    C213310   2.934   1.820  11.911  0.0945  0.4280 -0.5882
  909MPD2    C313311   2.911   1.812  12.044  0.3162 -0.0269  0.0751
  909MPD2    C413312   2.994   1.727  12.119  0.5502 -0.4642 -0.0467
  909MPD2    C513313   3.083   1.653  12.048 -0.2321 -0.1166 -0.2871
  909MPD2     H13314   2.880   1.890  11.848 -1.7138  0.7218  1.2752
  909MPD2    H113315   2.974   1.701  12.222  2.8985  0.2380  0.5832
  909MPD2    H213316   3.166   1.589  11.871  0.7174  2.4322 -1.5125
  909MPD2    H313317   3.125   1.571  12.105 -1.9333  0.0774  1.2551
  909MPD2     N13318   2.810   1.896  12.100 -0.7026  0.6437 -0.0959
  909MPD2    H513319   2.774   1.977  12.051 -1.2887  0.5266  0.1379
  909MPD2    N113320   3.042   1.765  11.700 -0.6599 -0.6699 -0.0107
  909MPD2    H713321   2.988   1.846  11.672  1.3957  0.2443 -1.2756
  910MPD2     C13322   4.373   2.734  15.755 -0.3833 -0.2805 -0.0669
  910MPD2    C113323   4.479   2.775  15.674 -0.0573 -1.0089 -0.2676
  910MPD2    C213324   4.454   2.859  15.566  0.5291  0.5604 -0.1192
  910MPD2    C313325   4.324   2.910  15.554  0.0333  0.3570  0.2377
  910MPD2    C413326   4.224   2.879  15.648 -0.6615  0.2166  0.0439
  910MPD2    C513327   4.245   2.786  15.747 -0.1900 -0.0013  0.0298
  910MPD2     H13328   4.534   2.882  15.496  0.4327  0.2520 -0.3278
  910MPD2    H113329   4.118   2.895  15.631 -0.5839  0.5005 -0.1768
  910MPD2    H213330   4.386   2.653  15.826 -2.1768  0.5103  1.1731
  910MPD2    H313331   4.161   2.754  15.807 -1.5688 -0.2568 -2.0106
  910MPD2     N13332   4.284   3.004  15.460  0.1750  0.5190 -0.2415
  910MPD2    H513333   4.189   3.038  15.468 -0.3306 -0.5980 -1.5546
  910MPD2    N113334   4.607   2.720  15.689  0.3526 -0.7566 -0.1819
  910MPD2    H713335   4.676   2.743  15.618 -1.8018  1.2589 -1.5996
  911MPD2     C13336   2.237   4.498  17.055 -0.0348 -0.4009 -0.7070
  911MPD2    C113337   2.249   4.401  16.952 -0.8490  0.0426  0.4521
  911MPD2    C213338   2.170   4.413  16.835 -0.6156  0.5574  0.8130
  911MPD2    C313339   2.091   4.524  16.814 -0.1932  0.0119 -0.2516
  911MPD2    C413340   2.067   4.605  16.925  0.2801 -0.3996  0.4060
  911MPD2    C513341   2.130   4.584  17.043  0.0150  0.3109 -0.6307
  911MPD2     H13342   2.183   4.351  16.747  0.2639 -0.6993  1.8192
  911MPD2    H113343   2.008   4.693  16.904  0.8740 -0.0677  0.1391
  911MPD2    H213344   2.289   4.503  17.149  0.5441 -1.3858 -0.9767
  911MPD2    H313345   2.108   4.654  17.124  1.6950  2.5922 -2.1403
  911MPD2     N13346   2.028   4.533  16.686  0.2169 -0.5172 -0.5491
  911MPD2    H513347   2.018   4.450  16.629 -1.0263 -0.4182 -0.4860
  911MPD2    N113348   2.335   4.292  16.970  0.4089  0.3885 -0.7476
  911MPD2    H713349   2.395   4.300  17.052 -1.0422  0.8663  0.2625
  912MPD2     C13350   1.710   4.159  16.040  0.0002 -0.4433  0.2080
  912MPD2    C113351   1.733   4.181  16.171 -0.3249 -0.2838  0.4274
  912MPD2    C213352   1.720   4.083  16.267  0.2885  0.5164  0.8942
  912MPD2    C313353   1.676   3.959  16.219  1.0625  0.8727  0.1957
  912MPD2    C413354   1.652   3.938  16.083  0.2386 -0.1095  0.3056
  912MPD2    C513355   1.680   4.035  15.992 -0.4755 -0.8671 -0.4496
  912MPD2     H13356   1.746   4.102  16.370 -2.3761  1.0010  1.4782
  912MPD2    H113357   1.624   3.842  16.042 -2.2849  0.9892 -0.4945
  912MPD2    H213358   1.735   4.236  15.969 -1.8897  0.1975  0.2419
  912MPD2    H313359   1.671   4.029  15.884 -1.0139  0.9771 -0.5205
  912MPD2     N13360   1.645   3.867  16.327 -0.3340  0.5576  0.5226
  912MPD2    H513361   1.666   3.899  16.421  2.7935  1.3529 -0.4415
  912MPD2    N113362   1.763   4.317  16.207 -0.1484 -0.3504  1.0833
  912MPD2    H713363   1.799   4.380  16.136  1.1444 -2.3505 -0.0441
  913MPD2     C13364   2.588   0.286  11.117 -0.2505 -0.1375 -0.0124
  913MPD2    C113365   2.644   0.409  11.085  0.4953  0.4544 -0.1585
  913MPD2    C213366   2.619   0.459  10.956 -0.3082 -0.6462  0.1442
  913MPD2    C313367   2.539   0.385  10.870 -0.4052 -0.3210 -0.0001
  913MPD2    C413368   2.482   0.262  10.908 -0.4093 -0.8507 -0.1509
  913MPD2    C513369   2.518   0.207  11.028 -0.0878  0.3442  0.2179
  913MPD2     H13370   2.650   0.560  10.931  0.2397 -0.8951 -0.2011
  913MPD2    H113371   2.424   0.204  10.837 -0.2887 -0.8350 -0.2642
  913MPD2    H213372   2.606   0.259  11.221  1.3274 -0.4555 -0.3618
  913MPD2    H313373   2.481   0.113  11.066 -0.6364  0.2762 -0.4731
  913MPD2     N13374   2.495   0.426  10.740 -0.7189  0.2010  0.0398
  913MPD2    H513375   2.458   0.352  10.681 -2.8804  1.6273 -0.3502
  913MPD2    N113376   2.719   0.491  11.180 -0.3588 -0.5174 -0.3559
  913MPD2    H713377   2.719   0.463  11.277  0.1313  0.8239  0.0249
  914MPD2     C13378   4.710   0.299  12.181 -0.2627 -0.1008  0.5765
  914MPD2    C113379   4.712   0.436  12.200 -0.2370  0.1033 -0.2149
  914MPD2    C213380   0.055   0.488  12.309 -0.9532  0.4362 -0.4467
  914MPD2    C313381   0.132   0.408  12.394 -0.3602  0.5888  0.1356
  914MPD2    C413382   0.133   0.275  12.375 -0.0215  0.0410  0.8088
  914MPD2    C513383   0.055   0.224  12.271 -0.5464  0.4879  0.6265
  914MPD2     H13384   0.059   0.594  12.331 -2.1054  0.0219  1.7524
  914MPD2    H113385   0.196   0.215  12.439  2.1832  0.0586 -1.3558
  914MPD2    H213386   4.656   0.242  12.106 -0.0846  0.6315 -0.1049
  914MPD2    H313387   0.068   0.119  12.248  3.0684  1.1118 -0.2126
  914MPD2     N13388   0.207   0.476  12.498 -0.5430 -0.0395 -0.0190
  914MPD2    H513389   0.189   0.576  12.507  0.2041  0.0096  0.8180
  914MPD2    N113390   4.650   0.526  12.108 -0.8584  0.5998  0.3305
  914MPD2    H713391   4.626   0.486  12.018  0.1728  0.5873  0.0603
  915MPD2     C13392   3.832   0.564  15.711 -0.0814 -0.0355  0.0672
  915MPD2    C113393   3.718   0.636  15.676  0.9967  0.0579 -0.1252
  915MPD2    C213394   3.644   0.701  15.786  0.1394 -0.1375  0.0098
  915MPD2    C313395   3.690   0.690  15.914  1.0567  0.0595  0.4040
  915MPD2    C413396   3.807   0.630  15.944 -0.3109 -0.4249  0.0868
  915MPD2    C513397   3.879   0.569  15.843  0.6890  0.0110  0.6447
  915MPD2     H13398   3.547   0.747  15.772  1.5043  3.1465  1.5266
  915MPD2    H113399   3.846   0.623  16.045  0.4433 -0.5333 -0.2079
  915MPD2    H213400   3.896   0.511  15.642  1.2108 -2.2073  2.9156
  915MPD2    H313401   3.969   0.521  15.880  0.2328 -0.0799  1.6343
  915MPD2     N13402   3.612   0.749  16.018 -0.0569 -0.1824  0.3653
  915MPD2    H513403   3.533   0.804  15.984  1.0242  0.4279 -1.1399
  915MPD2    N113404   3.673   0.629  15.540  0.1685  0.4613  0.0929
  915MPD2    H713405   3.727   0.567  15.480 -0.8673  1.7407 -2.1484
  916MPD2     C13406   1.133   3.559  15.540 -0.0280 -0.0512 -0.3099
  916MPD2    C113407   1.146   3.457  15.633 -0.0779 -0.1457 -0.3823
  916MPD2    C213408   1.264   3.384  15.643 -0.4160 -0.9744 -0.0195
  916MPD2    C313409   1.366   3.412  15.560  0.7414 -0.3191 -0.1874
  916MPD2    C413410   1.364   3.527  15.485 -0.1682  0.3827 -0.4728
  916MPD2    C513411   1.242   3.580  15.459  0.2217  0.9088 -1.0007
  916MPD2     H13412   1.286   3.310  15.718 -1.0662  0.9347  2.0647
  916MPD2    H113413   1.450   3.539  15.420  0.4186 -0.1926  0.1810
  916MPD2    H213414   1.037   3.606  15.519  0.2739  0.4001 -0.6877
  916MPD2    H313415   1.235   3.648  15.375 -0.0120  0.2021 -1.5553
  916MPD2     N13416   1.475   3.317  15.558 -0.3246  0.4999  0.2482
  916MPD2    H513417   1.468   3.253  15.637 -0.2124  0.2678  0.0679
  916MPD2    N113418   1.037   3.429  15.711  0.6601  0.3590 -0.3669
  916MPD2    H713419   0.958   3.493  15.704  0.3077 -0.0810 -0.4330
  917MPD2     C13420   1.684   1.202  11.139  0.1589 -0.0848 -0.5505
  917MPD2    C113421   1.744   1.266  11.249  0.5045 -0.0488  0.6774
  917MPD2    C213422   1.852   1.344  11.222 -0.1095  0.2661 -0.5293
  917MPD2    C313423   1.901   1.360  11.091 -0.1939  0.5197 -0.1891
  917MPD2    C413424   1.845   1.291  10.986  0.3157 -0.1827 -0.4074
  917MPD2    C513425   1.733   1.214  11.007 -0.4932  0.0576  0.1247
  917MPD2     H13426   1.902   1.390  11.307 -0.4487 -0.7497  0.2358
  917MPD2    H113427   1.885   1.302  10.886  0.6302 -1.3120 -0.4029
  917MPD2    H213428   1.603   1.135  11.162 -0.9167  0.9448 -1.3290
  917MPD2    H313429   1.689   1.160  10.924 -0.3911 -0.8952  0.6885
  917MPD2     N13430   2.000   1.458  11.056  0.1287 -0.9604 -0.6925
  917MPD2    H513431   2.028   1.454  10.959  1.8416 -0.3620 -0.2306
  917MPD2    N113432   1.681   1.244  11.375 -0.3941 -0.0373  0.2087
  917MPD2    H713433   1.612   1.170  11.371  2.5885 -2.8671  1.3508
  918MPD2     C13434   1.818   1.524  12.379 -0.0153 -0.7097  0.0907
  918MPD2    C113435   1.906   1.538  12.269 -0.5484 -0.0123  0.6282
  918MPD2    C213436   1.859   1.509  12.142 -1.0060  0.4770 -0.3114
  918MPD2    C313437   1.728   1.487  12.116 -0.3207 -0.4728  0.5811
  918MPD2    C413438   1.635   1.489  12.220 -0.0443  0.0002  0.0907
  918MPD2    C513439   1.681   1.513  12.349  0.3489 -0.2886 -0.3279
  918MPD2     H13440   1.925   1.515  12.057 -0.0810  0.0549  0.3697
  918MPD2    H113441   1.535   1.446  12.222 -1.1419  2.4999 -0.5161
  918MPD2    H213442   1.852   1.540  12.481 -3.0602  2.1365  0.6360
  918MPD2    H313443   1.614   1.507  12.434 -2.0393 -1.7801 -2.3190
  918MPD2     N13444   1.694   1.460  11.984 -0.1045 -0.1821 -1.1626
  918MPD2    H513445   1.779   1.454  11.928  1.0133  1.1411  0.4213
  918MPD2    N113446   2.045   1.553  12.285  0.2385  0.3943  0.0876
  918MPD2    H713447   2.107   1.566  12.205  0.4213 -2.1438 -0.1861
  919MPD2     C13448   2.373   0.749  11.491  0.0755  0.2519 -1.1335
  919MPD2    C113449   2.318   0.624  11.470 -0.0995  0.6795  0.3347
  919MPD2    C213450   2.304   0.579  11.340  0.2190 -0.5335  0.3629
  919MPD2    C313451   2.336   0.652  11.232 -0.0467  0.1910  0.0465
  919MPD2    C413452   2.394   0.774  11.248  0.2182  0.7282  0.1194
  919MPD2    C513453   2.415   0.816  11.375  1.4198  0.3136  0.3516
  919MPD2     H13454   2.266   0.478  11.331 -0.5468 -0.2518  0.3684
  919MPD2    H113455   2.411   0.836  11.161 -0.6035 -2.2270 -2.1489
  919MPD2    H213456   2.403   0.792  11.586 -2.3905  0.4253 -0.4252
  919MPD2    H313457   2.443   0.920  11.385 -1.3847  1.0490  0.6849
  919MPD2     N13458   2.321   0.602  11.098  0.0325  0.1176 -0.5018
  919MPD2    H513459   2.339   0.670  11.024  2.0601  1.6996  1.4664
  919MPD2    N113460   2.276   0.532  11.571 -0.3630 -0.4357 -0.3064
  919MPD2    H713461   2.251   0.443  11.531 -0.1132  0.2751 -2.0674
  920MPD2     C13462   1.956   0.889  10.202  0.0882 -0.0969 -1.1191
  920MPD2    C113463   1.847   0.826  10.266 -0.3166 -0.3687  0.3643
  920MPD2    C213464   1.873   0.753  10.387  0.4899  0.5291 -0.1181
  920MPD2    C313465   1.995   0.755  10.450 -0.3046 -0.1169  1.1808
  920MPD2    C413466   2.095   0.834  10.387 -0.4247 -0.0039 -0.3236
  920MPD2    C513467   2.079   0.891  10.266 -0.3299 -0.2001  0.1305
  920MPD2     H13468   1.791   0.699  10.433  0.9752 -1.3468 -1.4537
  920MPD2    H113469   2.194   0.849  10.429  0.2131  1.8328 -2.4874
  920MPD2    H213470   1.938   0.947  10.112  1.2711 -0.3548 -1.5242
  920MPD2    H313471   2.162   0.949  10.226 -0.3452 -0.6678 -0.5853
  920MPD2     N13472   2.011   0.675  10.562 -0.0173 -0.7212  0.3330
  920MPD2    H513473   1.935   0.611  10.584  0.9097 -1.8083  0.4205
  920MPD2    N113474   1.713   0.829  10.218  0.0636  0.3142 -0.0060
  920MPD2    H713475   1.655   0.747  10.236 -0.4805  0.3801 -1.5163
  921MPD2     C13476   3.184   4.067  17.381  0.1386  0.5499  0.3799
  921MPD2    C113477   3.200   4.098  17.245 -0.1269  0.0302 -0.0785
  921MPD2    C213478   3.089   4.104  17.161  0.7433  0.0488  0.1825
  921MPD2    C313479   2.965   4.059  17.209 -0.4239  0.4023  0.2963
  921MPD2    C413480   2.944   4.034  17.346 -0.1250  0.8939  1.2196
  921MPD2    C513481   3.057   4.033  17.427  0.3575 -0.1396  0.0443
  921MPD2     H13482   3.092   4.123  17.055 -1.0502  0.2777  0.1716
  921MPD2    H113483   2.853   3.980  17.370 -0.8868  1.0445 -1.4014
  921MPD2    H213484   3.277   4.056  17.436  0.5332 -0.0873 -0.4115
  921MPD2    H313485   3.040   4.010  17.532  2.1778  1.0257  0.6047
  921MPD2     N13486   2.868   4.036  17.112  0.4486  0.3890 -0.7780
  921MPD2    H513487   2.886   4.025  17.012 -0.5519 -1.7290 -0.7152
  921MPD2    N113488   3.333   4.122  17.200  0.4262 -0.4880 -0.1711
  921MPD2    H713489   3.401   4.109  17.274 -0.3324 -1.0126  0.4479
  922MPD2     C13490   4.173   1.672  17.193 -0.2865  0.4859  0.4341
  922MPD2    C113491   4.148   1.797  17.244  0.2308 -0.6004  0.0626
  922MPD2    C213492   4.063   1.808  17.348  0.2040  0.0320  0.7317
  922MPD2    C313493   3.999   1.695  17.398  0.5734  0.0436 -0.1815
  922MPD2    C413494   4.029   1.567  17.356 -0.2025  0.4943 -0.0602
  922MPD2    C513495   4.123   1.560  17.249 -0.4007 -0.2646  0.2711
  922MPD2     H13496   4.039   1.902  17.397  1.2391  0.0705  1.1513
  922MPD2    H113497   3.982   1.475  17.388 -1.1869  1.1666  0.4193
  922MPD2    H213498   4.244   1.656  17.113  0.2497  1.9077  0.6240
  922MPD2    H313499   4.150   1.468  17.199 -0.2131 -0.1514  0.1634
  922MPD2     N13500   3.896   1.711  17.493  0.4762 -0.2403  0.3355
  922MPD2    H513501   3.859   1.805  17.505 -1.0095 -0.5599 -1.7501
  922MPD2    N113502   4.197   1.910  17.179 -0.3562 -0.5423  0.2158
  922MPD2    H713503   4.175   1.996  17.229  2.0602 -0.1485  0.6019
  923MPD2     C13504   0.137   3.556   8.729 -0.3567 -0.9288 -0.1690
  923MPD2    C113505   0.077   3.566   8.858  0.3401 -0.2092 -0.0612
  923MPD2    C213506   0.152   3.589   8.968 -0.6216  0.4617  0.5171
  923MPD2    C313507   0.288   3.576   8.961  0.4787 -0.5510  0.5952
  923MPD2    C413508   0.357   3.566   8.836  0.4045  0.1730 -0.4187
  923MPD2    C513509   0.273   3.562   8.717  0.4417 -0.0656  0.2230
  923MPD2     H13510   0.109   3.605   9.066  0.2123 -0.7643  1.0803
  923MPD2    H113511   0.464   3.552   8.824  0.7461  1.9768  0.4275
  923MPD2    H213512   0.084   3.522   8.641 -0.2811  1.0818 -0.9866
  923MPD2    H313513   0.318   3.560   8.618 -0.1030  0.8259 -0.0399
  923MPD2     N13514   0.374   3.579   9.072  0.5757  0.4520  0.5191
  923MPD2    H513515   0.462   3.531   9.057 -0.0638 -0.9768  1.3034
  923MPD2    N113516   4.666   3.541   8.854  0.3519 -0.4290 -0.0399
  923MPD2    H713517   4.622   3.534   8.763  1.9552 -1.2931 -0.7527
  924MPD2     C13518   0.894   2.096  15.334 -0.3167 -0.0503 -0.2775
  924MPD2    C113519   0.918   2.057  15.467 -0.8238  0.8051  0.4873
  924MPD2    C213520   0.939   2.164  15.559 -0.3726  0.0455 -0.1989
  924MPD2    C313521   0.909   2.292  15.525  0.7285 -0.6999  0.1310
  924MPD2    C413522   0.882   2.325  15.391  0.2807 -0.0672 -0.3069
  924MPD2    C513523   0.875   2.226  15.294  0.0242 -0.5138  0.2767
  924MPD2     H13524   0.962   2.139  15.662 -1.2552 -1.5483 -0.3794
  924MPD2    H113525   0.861   2.426  15.358  1.5209  0.3191  0.0780
  924MPD2    H213526   0.867   2.021  15.260  2.2931 -1.3733  0.1148
  924MPD2    H313527   0.844   2.250  15.193  0.8685  1.7152  0.5472
  924MPD2     N13528   0.914   2.399  15.617  0.3044  0.1964  0.4790
  924MPD2    H513529   0.885   2.490  15.583 -0.4962 -1.7313 -4.0024
  924MPD2    N113530   0.930   1.919  15.496  0.1609 -1.3632  0.0607
  924MPD2    H713531   0.908   1.863  15.414 -2.1318  0.8241 -0.8484
  925MPD2     C13532   4.128   0.004  14.819 -0.4681 -0.2983  0.7909
  925MPD2    C113533   4.017   4.703  14.735  0.1512  0.0980  0.6969
  925MPD2    C213534   3.892   4.692  14.787  0.0571 -0.1630 -0.0410
  925MPD2    C313535   3.877   4.697  14.930  0.1232  0.2637  0.0084
  925MPD2    C413536   3.987   0.000  15.003 -0.4737 -0.3131  0.3973
  925MPD2    C513537   4.112   0.013  14.948 -0.5147 -0.0928 -0.5577
  925MPD2     H13538   3.801   4.680  14.729  0.4094 -0.0989 -0.6020
  925MPD2    H113539   3.989   0.001  15.112  0.2975 -2.2788  0.4015
  925MPD2    H213540   4.227   0.009  14.775 -0.1256 -2.2859  1.3683
  925MPD2    H313541   4.196   0.030  15.015 -0.7998  0.1315 -0.2562
  925MPD2     N13542   3.752   4.684  14.996 -0.1553 -0.1073 -0.0443
  925MPD2    H513543   3.742   4.708  15.094  0.1408  0.8334 -0.2400
  925MPD2    N113544   4.028   4.676  14.597 -0.4657 -0.0544 -0.2997
  925MPD2    H713545   3.940   4.674  14.546  0.1815 -0.5673 -1.3915
  926MPD2     C13546   2.189   2.840  13.564  0.4001  0.1610 -0.6405
  926MPD2    C113547   2.197   2.973  13.533 -0.1475  0.2551 -0.7731
  926MPD2    C213548   2.263   3.016  13.420  0.8314  0.5355  0.3461
  926MPD2    C313549   2.309   2.921  13.330  0.3585  0.1472  0.4562
  926MPD2    C413550   2.305   2.784  13.369 -0.4471 -0.5141  1.3190
  926MPD2    C513551   2.247   2.744  13.486  0.3676 -0.0023 -0.6669
  926MPD2     H13552   2.268   3.123  13.403 -0.4208  0.3074 -1.4905
  926MPD2    H113553   2.328   2.704  13.300  0.1321 -1.2939  2.4245
  926MPD2    H213554   2.136   2.796  13.648 -0.8598  0.4886 -1.2616
  926MPD2    H313555   2.249   2.640  13.515  2.3332 -0.1635 -1.3727
  926MPD2     N13556   2.370   2.944  13.209 -0.3661 -0.3750 -0.2892
  926MPD2    H513557   2.403   2.860  13.162  1.1145  0.0786 -0.0744
  926MPD2    N113558   2.145   3.078  13.623  0.6663 -0.2378  0.7193
  926MPD2    H713559   2.160   3.175  13.597 -1.3962  0.7121  3.1187
  927MPD2     C13560   2.743   0.551   0.554 -0.2689  0.0362 -0.1434
  927MPD2    C113561   2.840   0.636   0.507 -0.0267 -0.3247  0.0689
  927MPD2    C213562   2.927   0.580   0.415 -0.1030  0.6426 -0.6230
  927MPD2    C313563   2.918   0.450   0.364  0.1228 -0.0171 -0.0047
  927MPD2    C413564   2.813   0.371   0.409  0.2660 -0.1202  0.4762
  927MPD2    C513565   2.723   0.420   0.504  0.0671  0.3861 -0.1333
  927MPD2     H13566   2.989   0.650   0.360 -0.8177  1.7296 -0.0268
  927MPD2    H113567   2.798   0.270   0.374 -0.5978  0.4485 -0.8250
  927MPD2    H213568   2.670   0.582   0.628  1.1211  0.6347  0.9716
  927MPD2    H313569   2.646   0.353   0.537  1.7105 -1.0137  0.8224
  927MPD2     N13570   3.012   0.413   0.261 -0.4149 -0.1949  0.7098
  927MPD2    H513571   3.095   0.470   0.261 -0.7474  0.2923  1.2307
  927MPD2    N113572   2.846   0.769   0.551  0.4681  0.3012  0.0105
  927MPD2    H713573   2.793   0.800   0.632 -0.9766 -2.9244  0.2787
  928MPD2     C13574   4.666   3.926   0.854  0.1604 -0.7577 -0.2840
  928MPD2    C113575   0.051   3.952   0.921 -0.6736 -0.1596 -0.7938
  928MPD2    C213576   0.166   3.968   0.851  0.1460 -0.2769 -0.3192
  928MPD2    C313577   0.171   3.944   0.708  0.4499 -0.2661 -0.1667
  928MPD2    C413578   0.056   3.916   0.646  0.0051  0.0215 -0.1360
  928MPD2    C513579   4.664   3.908   0.720 -0.3936  0.0004  0.4443
  928MPD2     H13580   0.255   4.001   0.904  0.5698 -2.9898  0.6778
  928MPD2    H113581   0.043   3.905   0.539 -0.8669  1.8358 -0.2197
  928MPD2    H213582   4.571   3.909   0.905 -1.0003  0.1368 -2.1384
  928MPD2    H313583   4.571   3.877   0.672  0.1305 -2.4171  0.9944
  928MPD2     N13584   0.286   3.964   0.629  0.0352  0.0620 -0.0642
  928MPD2    H513585   0.276   3.936   0.532 -4.4491  1.9108 -0.1427
  928MPD2    N113586   0.051   3.957   1.064  0.3073  0.3928  0.4596
  928MPD2    H713587   4.687   3.927   1.105  1.4413 -2.9208  0.4453
  929MPD2     C13588   0.566   3.946  10.564 -0.1660 -0.7009 -0.0812
  929MPD2    C113589   0.525   3.813  10.560  0.0797 -0.2718 -0.1933
  929MPD2    C213590   0.476   3.775  10.431 -0.3672  0.0286  0.1489
  929MPD2    C313591   0.446   3.864  10.330  0.6622  0.2311 -0.3993
  929MPD2    C413592   0.486   3.994  10.341 -0.2918  0.1303 -0.6592
  929MPD2    C513593   0.544   4.030  10.456  0.7010 -0.1317 -0.6153
  929MPD2     H13594   0.445   3.672  10.430  0.4800 -0.2485  1.5085
  929MPD2    H113595   0.477   4.074  10.267  0.0287 -1.2568 -2.1902
  929MPD2    H213596   0.616   3.987  10.651 -0.6969 -1.2231  0.4798
  929MPD2    H313597   0.583   4.131  10.462  0.3304  0.0805 -1.7711
  929MPD2     N13598   0.371   3.833  10.219  0.0727 -0.5788  0.4693
  929MPD2    H513599   0.355   3.915  10.162 -0.3446 -1.5833 -0.8634
  929MPD2    N113600   0.539   3.725  10.670  0.7475  0.1195 -0.3278
  929MPD2    H713601   0.581   3.775  10.747 -0.1710 -0.0705  0.2927
  930MPD2     C13602   1.788   1.253  14.346 -0.2044 -0.1566  0.6482
  930MPD2    C113603   1.883   1.215  14.257  0.4237  0.1501 -0.1318
  930MPD2    C213604   1.876   1.089  14.204  0.2129  0.2986  0.0876
  930MPD2    C313605   1.763   1.005  14.225 -0.7326  0.8189 -0.6015
  930MPD2    C413606   1.666   1.048  14.314  0.2052 -0.4173 -0.1709
  930MPD2    C513607   1.683   1.172  14.377 -1.1744  0.0046  0.2313
  930MPD2     H13608   1.964   1.040  14.164  0.3239 -0.0552  0.7627
  930MPD2    H113609   1.584   0.983  14.341  2.3421 -2.9140  0.2635
  930MPD2    H213610   1.795   1.350  14.392  2.8848 -1.0958  2.1637
  930MPD2    H313611   1.608   1.203  14.448 -2.7731 -0.1790 -1.3793
  930MPD2     N13612   1.751   0.874  14.174 -0.1094  0.5575 -0.4388
  930MPD2    H513613   1.696   0.807  14.226 -1.6152  1.6041 -0.6979
  930MPD2    N113614   1.985   1.302  14.219  0.3674  0.0474 -0.7824
  930MPD2    H713615   1.991   1.385  14.277  0.7634 -0.4034 -0.1733
  931MPD2     C13616   2.864   1.171   1.182  0.7904 -0.1887  0.0793
  931MPD2    C113617   2.817   1.058   1.119 -0.3808 -0.1978  0.2086
  931MPD2    C213618   2.774   0.959   1.201  0.2586 -0.1029  0.0035
  931MPD2    C313619   2.771   0.971   1.338  0.3412 -0.1445  0.6514
  931MPD2    C413620   2.824   1.084   1.398  0.5397 -0.2634  0.3858
  931MPD2    C513621   2.867   1.183   1.319  0.6926 -0.0698 -0.8181
  931MPD2     H13622   2.708   0.886   1.155  1.1134 -1.2052  0.5199
  931MPD2    H113623   2.829   1.098   1.505 -0.9424  0.7137  0.3322
  931MPD2    H213624   2.915   1.253   1.133 -1.2435 -0.3576 -2.2881
  931MPD2    H313625   2.909   1.277   1.353  0.2795  1.1438 -3.6172
  931MPD2     N13626   2.727   0.870   1.421  0.0441 -0.2290  0.6551
  931MPD2    H513627   2.721   0.901   1.518  0.4840  0.5710  0.4298
  931MPD2    N113628   2.827   1.032   0.978  0.1742 -0.0112 -0.1593
  931MPD2    H713629   2.808   0.941   0.939 -0.1349  0.0948 -0.2558
  932MPD2     C13630   3.514   4.500  11.307  0.6892 -0.2005 -0.3411
  932MPD2    C113631   3.644   4.500  11.349 -0.5067 -0.1068 -0.5293
  932MPD2    C213632   3.695   4.389  11.419  0.0714  0.4532 -0.5388
  932MPD2    C313633   3.609   4.285  11.455  0.1202 -0.0785 -0.6620
  932MPD2    C413634   3.483   4.290  11.416  0.6090 -0.0325 -0.0353
  932MPD2    C513635   3.434   4.394  11.343  0.3550 -0.4082 -0.0488
  932MPD2     H13636   3.801   4.384  11.441 -0.0312  2.3604  0.3927
  932MPD2    H113637   3.412   4.217  11.453  1.7685 -0.7300  0.8121
  932MPD2    H213638   3.475   4.586  11.254  2.1416  0.8885  0.3472
  932MPD2    H313639   3.330   4.396  11.314  0.5998 -0.8751 -0.9802
  932MPD2     N13640   3.652   4.173  11.538  0.1759 -0.4294  0.0651
  932MPD2    H513641   3.590   4.094  11.554  0.1278 -0.3704  0.1695
  932MPD2    N113642   3.734   4.607  11.331 -0.1371 -0.1280  0.2595
  932MPD2    H713643   3.822   4.600  11.381  0.9510  3.2485 -1.1820
  933MPD2     C13644   4.219   3.993   1.363  0.0284  0.9476  0.5072
  933MPD2    C113645   4.311   4.035   1.462 -0.5055  1.1178  0.6132
  933MPD2    C213646   4.263   4.081   1.586  0.0022  0.7995 -0.0765
  933MPD2    C313647   4.131   4.079   1.616 -0.3685  0.3307  0.3787
  933MPD2    C413648   4.036   4.048   1.516 -0.5679 -0.1353 -0.5790
  933MPD2    C513649   4.087   4.002   1.395  0.1132  0.4416  0.0516
  933MPD2     H13650   4.339   4.117   1.655  0.2543 -1.0096  0.5803
  933MPD2    H113651   3.929   4.039   1.532 -0.0813 -1.9230  1.7228
  933MPD2    H213652   4.257   3.963   1.266 -0.0282  1.2212  0.4006
  933MPD2    H313653   4.013   3.973   1.321  0.4310  0.6274 -0.3408
  933MPD2     N13654   4.097   4.131   1.740  0.5840 -0.5554  0.0499
  933MPD2    H513655   4.172   4.154   1.806  0.8237 -0.5988 -0.2079
  933MPD2    N113656   4.451   4.016   1.434  0.7130  1.4469  0.5629
  933MPD2    H713657   4.471   3.955   1.356  1.2168 -0.6076  2.3262
  934MPD2     C13658   0.703   1.025   1.887 -0.1315 -0.2828  0.4112
  934MPD2    C113659   0.772   1.043   1.773  0.3575  0.2455 -0.5951
  934MPD2    C213660   0.721   1.009   1.644  0.3804  0.1604 -0.9394
  934MPD2    C313661   0.589   0.981   1.637  0.0620  0.5581  0.4101
  934MPD2    C413662   0.511   0.982   1.751  0.6052  0.3404 -0.0937
  934MPD2    C513663   0.569   1.004   1.878  0.9647 -0.2702 -0.0713
  934MPD2     H13664   0.783   1.010   1.554  0.7172  0.6296 -0.7049
  934MPD2    H113665   0.404   0.963   1.756  0.4709  0.6298 -1.9063
  934MPD2    H213666   0.748   1.038   1.985 -0.1606 -1.0768  0.5257
  934MPD2    H313667   0.505   1.009   1.966  2.6583  1.1659  1.1037
  934MPD2     N13668   0.543   0.943   1.506 -0.4565 -1.0287 -0.8279
  934MPD2    H513669   0.611   0.965   1.434  0.4928  1.6920  0.8910
  934MPD2    N113670   0.906   1.092   1.772  0.9836 -0.4667  0.5088
  934MPD2    H713671   0.947   1.114   1.681 -1.4054  0.9958 -0.2238
  935MPD2     C13672   1.064   0.696   0.970 -0.5368  0.2623 -0.1998
  935MPD2    C113673   0.951   0.652   0.895  0.3114  0.0661 -0.6497
  935MPD2    C213674   0.824   0.691   0.932  0.2819 -0.0892  0.7307
  935MPD2    C313675   0.810   0.761   1.050 -0.9631  0.2457 -0.4652
  935MPD2    C413676   0.920   0.795   1.130 -0.1746  0.0886 -1.4791
  935MPD2    C513677   1.041   0.757   1.090  0.5645 -0.5361  0.2828
  935MPD2     H13678   0.744   0.664   0.864  0.6483 -0.8351  0.5971
  935MPD2    H113679   0.901   0.831   1.230  2.4725 -2.2287 -0.1256
  935MPD2    H213680   1.166   0.668   0.947 -0.8206  0.8209 -2.1932
  935MPD2    H313681   1.131   0.780   1.147 -0.5510  3.7366  0.3334
  935MPD2     N13682   0.691   0.802   1.107 -0.1428  0.4490  0.1734
  935MPD2    H513683   0.695   0.839   1.201  1.9067  3.5967 -1.1337
  935MPD2    N113684   0.966   0.569   0.784 -0.2702  0.1187 -0.3348
  935MPD2    H713685   0.883   0.524   0.747  0.2087 -0.3522 -0.8505
  936MPD2     C13686   4.293   3.514  11.901  0.4980 -0.3645  0.1956
  936MPD2    C113687   4.328   3.571  12.016 -0.1222  0.1281 -0.2424
  936MPD2    C213688   4.413   3.678  12.023  0.3297  0.0566 -0.3101
  936MPD2    C313689   4.470   3.725  11.907 -0.3791  1.1090  0.6545
  936MPD2    C413690   4.443   3.665  11.789  0.0007 -0.0417 -0.0626
  936MPD2    C513691   4.357   3.558  11.789  0.4653  0.0747 -0.3668
  936MPD2     H13692   4.451   3.714  12.118 -1.8421  0.1340  0.5371
  936MPD2    H113693   4.483   3.701  11.695  0.4830  1.1690  0.6108
  936MPD2    H213694   4.222   3.433  11.889  1.7470 -1.3944 -0.2011
  936MPD2    H313695   4.341   3.513  11.691 -0.4831 -0.5331  0.0658
  936MPD2     N13696   4.573   3.824  11.923  0.0809  0.2949  0.3146
  936MPD2    H513697   4.592   3.844  12.021 -0.5980 -1.7672  0.8783
  936MPD2    N113698   4.292   3.516  12.143  0.2220 -0.4144 -0.1270
  936MPD2    H713699   4.336   3.563  12.222 -0.4582  2.0823 -1.2548
  937MPD2     C13700   2.459   4.587  11.592 -0.6387  0.5901  0.1737
  937MPD2    C113701   2.479   4.723  11.571  0.0051 -0.0129 -0.1761
  937MPD2    C213702   2.539   0.044  11.454 -0.3731 -0.4329  0.7544
  937MPD2    C313703   2.606   4.677  11.370 -0.1342  0.0723 -0.0320
  937MPD2    C413704   2.594   4.546  11.405  0.1199  0.0485 -0.1090
  937MPD2    C513705   2.523   4.499  11.506 -0.3930  0.2557 -0.4511
  937MPD2     H13706   2.542   0.149  11.427  2.0173 -0.5053  0.7228
  937MPD2    H113707   2.644   4.469  11.348 -0.1959  0.6640 -1.2063
  937MPD2    H213708   2.414   4.541  11.679  0.8579 -0.9824  0.1183
  937MPD2    H313709   2.534   4.394  11.532  0.3261  0.2664 -0.7197
  937MPD2     N13710   2.671   0.004  11.257  0.1816  0.1144  0.0956
  937MPD2    H513711   2.680   0.105  11.247  1.3157 -0.0294 -0.3510
  937MPD2    N113712   2.400   0.091  11.639 -0.5921  0.0074  0.2790
  937MPD2    H713713   2.399   0.180  11.590 -0.1585  0.0305  0.3127
  938MPD2     C13714   0.168   0.664   0.986  0.5404  0.2064 -0.0846
  938MPD2    C113715   0.056   0.720   1.044  0.1625 -0.4730 -0.7713
  938MPD2    C213716   0.011   0.665   1.164 -0.2069 -0.8565 -0.5537
  938MPD2    C313717   0.065   0.548   1.224  0.1452  0.4224 -0.0177
  938MPD2    C413718   0.176   0.503   1.154  0.2596 -0.4491  0.8847
  938MPD2    C513719   0.236   0.564   1.047 -0.8488 -0.4616 -0.3512
  938MPD2     H13720   4.639   0.703   1.197  1.0908  1.9141  0.0521
  938MPD2    H113721   0.238   0.427   1.200  1.6887  0.4588  0.4413
  938MPD2    H213722   0.209   0.701   0.892 -1.4090  2.0102 -0.2250
  938MPD2    H313723   0.328   0.527   1.003 -1.2223 -0.7048 -0.9372
  938MPD2     N13724   0.017   0.486   1.344 -0.2419 -0.0442 -0.1022
  938MPD2    H513725   0.060   0.396   1.364 -1.0313 -0.2784  0.5347
  938MPD2    N113726   4.711   0.830   0.993 -0.3155 -0.2521 -0.0021
  938MPD2    H713727   4.631   0.868   1.043 -0.4911 -0.8774  0.1989
  939MPD2     C13728   1.220   2.360   0.893  0.1164 -0.0141 -0.1815
  939MPD2    C113729   1.311   2.418   0.975  0.6573 -0.1186 -0.3030
  939MPD2    C213730   1.442   2.427   0.938 -0.5959  0.1945 -0.1037
  939MPD2    C313731   1.486   2.390   0.806 -0.3178 -0.3901 -0.1903
  939MPD2    C413732   1.393   2.332   0.725 -0.2887  0.4284  0.5241
  939MPD2    C513733   1.260   2.317   0.769 -0.3015 -0.0937 -0.3639
  939MPD2     H13734   1.510   2.466   1.012 -1.1502 -3.0488  2.1178
  939MPD2    H113735   1.411   2.299   0.623 -2.0773  0.9492  0.0324
  939MPD2    H213736   1.124   2.329   0.932  0.8223 -0.0095  1.5806
  939MPD2    H313737   1.187   2.273   0.703 -0.5680  4.4261 -3.0550
  939MPD2     N13738   1.626   2.393   0.773  0.2360 -0.6179  0.6349
  939MPD2    H513739   1.688   2.424   0.847 -0.3994  1.7477  0.1855
  939MPD2    N113740   1.259   2.463   1.095 -0.0058 -0.3935  0.4156
  939MPD2    H713741   1.169   2.432   1.130 -0.1849  1.7277  1.8357
  940MPD2     C13742   0.379   3.193  12.976  0.2332 -0.3874 -0.5262
  940MPD2    C113743   0.429   3.083  13.036  0.6228  0.1446  0.4712
  940MPD2    C213744   0.462   2.975  12.961  0.1412  0.0182  0.0387
  940MPD2    C313745   0.434   2.973  12.824  0.4992  0.3470  0.1349
  940MPD2    C413746   0.353   3.073  12.776 -0.1254  0.0679 -0.8313
  940MPD2    C513747   0.330   3.184  12.851  0.6270 -0.2767 -0.5123
  940MPD2     H13748   0.518   2.897  13.011 -0.8420 -1.4184 -1.1420
  940MPD2    H113749   0.317   3.069  12.674  1.4476  3.5074 -1.5410
  940MPD2    H213750   0.358   3.284  13.031 -3.0363 -0.4799 -1.6364
  940MPD2    H313751   0.263   3.263  12.820  1.5745  0.4525 -0.7180
  940MPD2     N13752   0.464   2.866  12.739 -0.8376 -0.1404  0.0739
  940MPD2    H513753   0.430   2.867  12.644  1.3379 -0.1192 -0.6955
  940MPD2    N113754   0.456   3.074  13.172  0.5343 -0.7987  0.6248
  940MPD2    H713755   0.483   2.985  13.212  0.4261  0.0828  2.6701
  941MPD2     C13756   4.438   1.980   9.234 -0.2939  0.3844  0.2164
  941MPD2    C113757   4.543   1.992   9.326  0.3185  0.7421  0.1491
  941MPD2    C213758   4.518   1.967   9.457  0.2473  0.0364 -0.5418
  941MPD2    C313759   4.396   1.919   9.500  0.4185 -0.3070  0.0617
  941MPD2    C413760   4.293   1.913   9.404  0.3502 -0.6537  0.0580
  941MPD2    C513761   4.312   1.941   9.272  0.3202  0.2841 -0.0493
  941MPD2     H13762   4.606   1.973   9.520 -0.3575 -2.3177  0.5100
  941MPD2    H113763   4.198   1.874   9.438  0.2759  0.5329  1.2285
  941MPD2    H213764   4.444   2.012   9.131 -1.2465 -0.6361 -0.1523
  941MPD2    H313765   4.234   1.947   9.196 -1.0938 -3.0802  1.1410
  941MPD2     N13766   4.372   1.889   9.631 -0.0947 -0.0590  0.0478
  941MPD2    H513767   4.280   1.858   9.658  0.4684  0.6110  2.7069
  941MPD2    N113768   4.674   2.026   9.282 -0.3078 -0.4579  0.1570
  941MPD2    H713769   0.013   2.023   9.361  0.4042 -0.0642 -0.3990
  942MPD2     C13770   4.038   3.150   8.623 -0.5283 -0.4065  0.4193
  942MPD2    C113771   4.070   3.119   8.754  0.2031 -0.0042  0.0425
  942MPD2    C213772   4.200   3.138   8.795 -0.7172 -0.2987 -0.0037
  942MPD2    C313773   4.299   3.193   8.717 -0.2443 -0.9303  0.1311
  942MPD2    C413774   4.266   3.221   8.586  0.8555  0.1336 -0.1812
  942MPD2    C513775   4.137   3.199   8.539  0.9421 -0.1236 -0.1435
  942MPD2     H13776   4.223   3.108   8.896  1.1001 -2.1694 -0.9639
  942MPD2    H113777   4.341   3.250   8.513  0.1679 -1.4546 -1.5077
  942MPD2    H213778   3.938   3.135   8.583 -0.9161  2.6377  0.2831
  942MPD2    H313779   4.122   3.227   8.436  0.8794 -3.4070 -1.0278
  942MPD2     N13780   4.429   3.209   8.759 -0.5339  0.3589  0.1417
  942MPD2    H513781   4.488   3.257   8.693  0.6604 -2.8979 -1.1608
  942MPD2    N113782   3.981   3.069   8.852  0.4034 -0.0923 -0.1590
  942MPD2    H713783   4.019   3.056   8.945  0.4285  1.8947  0.1157
  943MPD2     C13784   3.347   1.804   9.734 -0.1975  0.9871 -1.0316
  943MPD2    C113785   3.262   1.789   9.843  0.1916 -0.7186 -0.0006
  943MPD2    C213786   3.244   1.887   9.937 -0.0891  0.0411  0.1914
  943MPD2    C313787   3.324   2.003   9.923  0.4728 -0.9272 -0.0965
  943MPD2    C413788   3.413   2.013   9.820  0.0054  0.9220 -0.1984
  943MPD2    C513789   3.429   1.919   9.727 -0.0926 -1.2373 -0.0751
  943MPD2     H13790   3.165   1.880  10.011  0.4035  1.0724  0.8229
  943MPD2    H113791   3.467   2.106   9.813  1.0617  0.3444  0.2599
  943MPD2    H213792   3.360   1.730   9.656 -0.4073  1.1609 -1.2310
  943MPD2    H313793   3.497   1.932   9.643  2.0281  0.8466  1.9478
  943MPD2     N13794   3.327   2.099  10.021 -0.2628 -0.4068 -0.9498
  943MPD2    H513795   3.375   2.188  10.008 -0.6064 -0.2254 -1.0000
  943MPD2    N113796   3.176   1.675   9.836  0.4287 -0.1988 -0.0985
  943MPD2    H713797   3.187   1.620   9.751 -0.4248  0.3640 -0.5665
  944MPD2     C13798   2.749   0.900  10.962 -0.1461 -0.1825  1.0049
  944MPD2    C113799   2.845   0.987  10.926 -0.9762  0.9513 -0.1542
  944MPD2    C213800   2.897   1.082  11.013  0.8154 -0.2271  0.7876
  944MPD2    C313801   2.835   1.098  11.134  0.1067 -0.8606 -0.4705
  944MPD2    C413802   2.723   1.018  11.167 -0.4373 -0.4215 -0.1024
  944MPD2    C513803   2.682   0.911  11.083  0.0446 -0.2876  0.8964
  944MPD2     H13804   2.983   1.146  10.994  0.9290 -0.5485  0.2254
  944MPD2    H113805   2.671   1.046  11.258  0.1943  2.0103 -0.4770
  944MPD2    H213806   2.720   0.821  10.893 -0.2102 -0.4636  1.3531
  944MPD2    H313807   2.607   0.836  11.108  1.0239 -2.4331 -2.6371
  944MPD2     N13808   2.893   1.194  11.217  0.1497 -0.2798  0.8754
  944MPD2    H513809   2.970   1.247  11.176 -1.0295  1.6336  1.1608
  944MPD2    N113810   2.894   0.961  10.797 -0.8948  0.4330  0.1716
  944MPD2    H713811   2.865   0.875  10.751  0.4266 -0.3336  0.7816
    1TCq1    O113812   0.836   1.113  14.405  0.3084 -0.1112 -0.2631
    1TCq1    C113813   0.896   1.196  14.496 -0.5074 -0.5321 -0.1407
    1TCq1    O213814   0.950   1.159  14.596  0.5079 -0.5069 -0.7028
    1TCq1    C213815   0.871   1.334  14.457  0.4669  0.4582  0.0755
    1TCq1    C313816   0.783   1.365  14.353 -0.6797 -0.5487  0.6653
    1TCq1    C413817   0.783   1.493  14.298 -0.2498  0.2439 -0.4951
    1TCq1    C513818   0.877   1.585  14.342  0.3031  0.3425 -1.1900
    1TCq1    C613819   0.964   1.545  14.451  0.1081  0.0804 -0.3132
    1TCq1    C713820   0.961   1.419  14.509 -0.2088 -0.7551  0.1413
    1TCq1    C813821   1.070   1.635  14.502  0.2014  0.3699 -0.7507
    1TCq1    O413822   1.157   1.585  14.574 -0.4599 -0.1382 -0.2892
    1TCq1    C913823   0.711   1.514  14.175  0.2285 -0.2714 -0.0119
    1TCq1    O513824   0.628   1.429  14.141  0.3375 -0.4755 -0.2130
    1TCq1    O613825   0.708   1.632  14.130 -0.2429  0.4498  0.2542
    1TCq1    H113826   0.823   1.163  14.321  0.8157 -0.4821 -0.5603
    1TCq1    H213827   0.715   1.296  14.304  0.1102 -0.2326 -0.8876
    1TCq1    H313828   0.887   1.678  14.287  0.2368  0.4244 -1.0655
    1TCq1    H413829   1.032   1.382  14.582 -0.8227 -1.4751  0.3694
    2MPD2     C13830   1.300   2.087  14.493  0.0230 -0.2820  0.4243
    2MPD2    C113831   1.173   2.104  14.443 -0.3866 -0.1834  0.3575
    2MPD2    C213832   1.100   1.987  14.425  0.5763  0.6318  0.4283
    2MPD2    C313833   1.146   1.862  14.464  0.2815  0.4512 -0.0842
    2MPD2    C413834   1.276   1.850  14.512  0.4322  0.3632  0.1704
    2MPD2    C513835   1.347   1.961  14.537 -0.7484  0.4163 -0.2655
    2MPD2     H13836   0.995   1.992  14.397  0.2566 -1.9053  1.1728
    2MPD2    H113837   1.316   1.753  14.537  2.1380  0.6808 -1.3136
    2MPD2    H213838   1.356   2.176  14.517 -0.9554  0.4274  0.0454
    2MPD2    H313839   1.449   1.966  14.572 -0.1855 -0.7192 -1.7729
    2MPD2     N13840   1.058   1.757  14.443 -0.2466 -0.1255  0.5254
    2MPD2    H513841   0.973   1.776  14.389  1.1238 -0.5254 -1.7852
    2MPD2    N113842   1.115   2.236  14.424  0.5863  0.3269 -0.1731
    2MPD2    H713843   1.185   2.307  14.445 -0.3530  0.6676  1.8653
    3TMC2    C113844   0.941   2.390  14.378 -0.0180 -0.3970 -0.0041
    3TMC2    C213845   0.816   2.409  14.321 -0.2327  0.1565 -0.0328
    3TMC2    C313846   0.789   2.533  14.263 -0.3413  0.0802  0.2776
    3TMC2    C413847   1.040   2.487  14.349 -0.3946 -0.6661  0.9912
    3TMC2    C513848   1.007   2.608  14.296  0.1356  0.4535  0.0926
    3TMC2    C613849   0.879   2.635  14.250  0.3956  0.4882 -0.0155
    3TMC2     C13850   0.986   2.249  14.376  0.4172 -0.2699  0.6846
    3TMC2     O13851   0.897   2.173  14.342 -0.3105  0.0024  0.0189
    3TMC2     H13852   0.745   2.328  14.337  1.1772 -1.3944 -1.6140
    3TMC2    H113853   1.145   2.474  14.372 -0.5978 -1.4166  1.4978
    3TMC2    H213854   0.848   2.733  14.215 -0.2304  0.3497  0.1459
    3TMC2    C713855   1.110   2.709  14.295  0.1108 -0.1003 -0.1415
    3TMC2    C813856   0.649   2.546  14.223  1.0621  0.0159 -0.3214
    3TMC2    O113857   1.216   2.683  14.356  0.7235 -0.2752 -0.0663
    3TMC2    O213858   0.574   2.449  14.220  0.2424  0.4330  0.1019
    3TMC2    O513859   0.663   2.618  14.116  0.0461  0.2288  0.1946
    3TMC2    H513860   0.735   2.684  14.127 -0.0549  0.7194 -2.2073
    4MPD2     C13861   0.146   3.630  14.026  0.1198  0.0749 -0.2005
    4MPD2    C113862   0.181   3.582  13.905 -0.3997 -0.2064  0.0474
    4MPD2    C213863   0.315   3.556  13.887 -0.2429 -0.2390  0.2176
    4MPD2    C313864   0.411   3.587  13.977  0.2907 -0.3256  1.3892
    4MPD2    C413865   0.370   3.636  14.101 -0.0773 -0.5922  0.0300
    4MPD2    C513866   0.238   3.653  14.126 -0.6242  0.3392  0.1295
    4MPD2     H13867   0.342   3.510  13.793  1.2214  1.7132 -0.3308
    4MPD2    H113868   0.441   3.664  14.178  0.4608  0.5128 -0.8669
    4MPD2    H213869   0.043   3.651  14.052  0.4518  2.0962 -0.5539
    4MPD2    H313870   0.202   3.699  14.217 -1.2901 -0.6329  0.3479
    4MPD2     N13871   0.551   3.555  13.951 -0.9617  0.5235 -0.0576
    4MPD2    H513872   0.582   3.506  13.868 -0.0869 -0.4246  0.8174
    4MPD2    N113873   0.082   3.569  13.810 -0.3314  0.1347  0.7506
    4MPD2    H713874   4.713   3.582  13.848  0.9973  0.4852  3.8674
    5TCq2    C113875   0.656   3.612  14.025 -0.2886 -0.2870 -0.8392
    5TCq2    O213876   0.654   3.684  14.124 -0.0650 -0.2212 -0.0738
    5TCq2    C213877   0.777   3.600  13.951 -0.5211 -0.7310 -0.3293
    5TCq2    C313878   0.866   3.702  13.969 -0.6951  0.2075  0.3362
    5TCq2    C413879   0.998   3.674  13.977 -0.7721  0.0781  0.7739
    5TCq2    C513880   1.040   3.542  13.985  0.5455 -0.2456  0.2072
    5TCq2    C613881   0.948   3.444  13.979 -0.2207 -0.0737  0.1803
    5TCq2    C713882   0.813   3.473  13.970  0.3062 -0.8522  0.6394
    5TCq2    C813883   0.979   3.314  14.046  0.0120  0.0718  0.4202
    5TCq2    O413884   0.887   3.233  14.049  0.4034  0.1053 -1.1399
    5TCq2    C913885   1.101   3.775  13.984 -0.4117  0.9766 -0.0044
    5TCq2    O513886   1.089   3.879  13.911  0.9246 -0.4840 -0.3699
    5TCq2    O613887   1.201   3.748  14.052  0.1830 -0.4934 -0.3747
    5TCq2    H213888   0.838   3.806  13.962  0.9323  0.6355  0.1383
    5TCq2    H313889   1.146   3.522  13.979  0.3528 -0.7431 -1.5375
    5TCq2    H413890   0.739   3.394  13.976 -1.7658  1.2984  3.4213
    6MPD1     C13891   4.055   0.402  13.660 -0.5739 -0.1328  0.4190
    6MPD1    C113892   4.168   0.406  13.579 -0.4168 -0.6448 -0.5011
    6MPD1    C213893   4.214   0.294  13.509  0.1662 -0.6203 -0.4138
    6MPD1    C313894   4.141   0.177  13.514 -0.0841 -0.1869  0.0522
    6MPD1    C413895   4.028   0.169  13.583 -0.4242  0.0314 -0.6223
    6MPD1    C513896   3.994   0.281  13.656  0.0877  0.2037 -0.5017
    6MPD1     H13897   4.306   0.306  13.453 -0.1980  1.2009 -0.6484
    6MPD1    H113898   3.973   0.075  13.584  0.4675 -0.4939 -3.6446
    6MPD1    H213899   4.016   0.483  13.720 -1.8308  0.3429 -1.0514
    6MPD1    H313900   3.908   0.270  13.721  0.9128 -1.3006  0.3376
    6MPD1     N13901   4.204   0.053  13.469 -0.3720 -0.0486 -0.7400
    6MPD1    H513902   4.166   4.688  13.499  3.0249 -0.8329  1.2445
    6MPD1    N113903   4.247   0.519  13.583 -0.2150  1.0999 -0.3651
    6MPD1    H613904   4.188   0.601  13.570  0.4806  1.3013 -2.3056
    6MPD1    H713905   4.328   0.530  13.521 -0.9012 -1.9944 -1.7844
    7MPD2     C13906   4.407   4.164  13.868 -0.3381 -0.1520 -0.4961
    7MPD2    C113907   4.383   4.143  13.732 -0.2220  0.5660 -0.2419
    7MPD2    C213908   4.367   4.018  13.687 -0.0147  0.0807  0.5173
    7MPD2    C313909   4.373   3.906  13.769 -0.0820  0.1761  0.3492
    7MPD2    C413910   4.390   3.927  13.907 -0.0993 -0.0096 -0.0920
    7MPD2    C513911   4.410   4.048  13.952  0.8035  0.9031 -0.2042
    7MPD2     H13912   4.359   3.998  13.581  1.6038 -0.0735  0.4195
    7MPD2    H113913   4.381   3.848  13.981  1.6061 -0.2817 -0.1704
    7MPD2    H213914   4.430   4.261  13.910  0.2316 -0.9174  0.9553
    7MPD2    H313915   4.430   4.075  14.055 -1.2257  0.6564  0.2427
    7MPD2     N13916   4.385   3.773  13.726 -0.4641  0.1039 -0.4072
    7MPD2    H513917   4.417   3.708  13.797 -2.0569 -0.0627  0.1693
    7MPD2    N113918   4.378   4.249  13.634  0.4611  0.4389 -0.9352
    7MPD2    H713919   4.352   4.216  13.542 -1.7729  2.1248 -0.9020
    8TMC3    C113920   4.489   3.624  13.567  0.3133 -0.3124  0.0109
    8TMC3    C213921   4.594   3.613  13.657  0.4629 -0.2119 -0.4807
    8TMC3    C313922   4.712   3.581  13.593 -0.2144  0.1568  0.4414
    8TMC3    C413923   4.489   3.595  13.429 -0.0993 -0.2113 -0.0762
    8TMC3    C513924   4.614   3.564  13.373 -0.1117 -0.2779  0.3346
    8TMC3    C613925   4.723   3.557  13.458 -0.0564 -0.0537 -0.1126
    8TMC3     C13926   4.387   3.727  13.598 -0.2127  0.2067  0.6402
    8TMC3     O13927   4.354   3.791  13.498  0.2625 -0.4309 -0.0370
    8TMC3     H13928   4.588   3.647  13.759  0.4517 -0.7291 -0.3098
    8TMC3    H113929   4.403   3.619  13.368  0.0007 -0.5062 -0.3341
    8TMC3    H213930   0.099   3.538  13.422  0.4091  0.0540  1.1344
    8TMC3    C713931   4.638   3.655  13.262  0.2473 -0.0634  0.1410
    8TMC3    C813932   0.103   3.563  13.678  0.3541  0.3927 -0.1845
    8TMC3    O113933   0.011   3.626  13.198  0.4040 -0.4995  1.3167
    8TMC3    O213934   0.206   3.582  13.619  0.0595 -0.1927 -0.0811
    9TMC3    C113935   4.371   4.639  13.393  0.8640  0.7294 -0.3109
    9TMC3    C213936   4.417   4.568  13.288 -0.1626  0.2674 -0.1350
    9TMC3    C313937   4.464   4.446  13.306  0.0375 -0.3608  0.1315
    9TMC3    C413938   4.371   4.582  13.523  0.5705  0.4373  0.4793
    9TMC3    C513939   4.420   4.456  13.537  0.7376 -0.1493  1.2586
    9TMC3    C613940   4.462   4.380  13.429  0.5289  0.5488 -0.0577
    9TMC3     C13941   4.302   0.041  13.374  0.5977 -0.1647 -0.2015
    9TMC3     O13942   4.357   0.130  13.308  0.0897  0.6225  0.1230
    9TMC3     H13943   4.408   4.602  13.186 -0.4741  1.4405  0.2918
    9TMC3    H113944   4.336   4.636  13.611  0.3662  1.5335 -0.2745
    9TMC3    H213945   4.510   4.287  13.457  1.0483  0.3304 -1.6980
    9TMC3    C713946   4.399   4.383  13.660 -0.2118  0.0507  0.2361
    9TMC3    C813947   4.530   4.368  13.202 -0.3337  0.3379 -0.3583
    9TMC3    O113948   4.406   4.447  13.762  0.7488  0.6351 -0.2352
    9TMC3    O213949   4.579   4.424  13.105 -0.0347 -0.3299 -0.7953
   10MPD2     C13950   4.676   3.888  13.094 -0.2093  0.7043  0.7982
   10MPD2    C113951   4.593   3.884  13.193 -0.0279 -0.2121  0.8655
   10MPD2    C213952   4.522   4.003  13.227 -0.5322 -0.1584 -0.4458
   10MPD2    C313953   4.552   4.122  13.170 -0.1334  0.2602  0.8413
   10MPD2    C413954   4.646   4.128  13.073  0.3348 -0.1574 -0.5248
   10MPD2    C513955   4.708   4.010  13.039  0.0813 -0.2521 -0.3665
   10MPD2     H13956   4.457   3.989  13.312  1.1489  0.4997  0.9492
   10MPD2    H113957   4.670   4.224  13.029 -1.6463  1.5743  2.1440
   10MPD2    H213958   0.002   3.805  13.045  1.0970  3.3334 -2.3074
   10MPD2    H313959   0.049   4.007  12.952  1.5973  0.7307  0.7379
   10MPD2     N13960   4.493   4.238  13.224  0.4833 -0.0498 -0.4687
   10MPD2    H513961   4.423   4.222  13.295 -0.5525  2.1841 -1.0022
   10MPD2    N113962   4.568   3.771  13.264  0.5082 -0.1893  0.5528
   10MPD2    H713963   4.496   3.784  13.335  0.0943 -1.3127  0.3381
   11MPD2     C13964   1.262   2.961  14.294  0.6696  0.6743 -0.1777
   11MPD2    C113965   1.138   2.952  14.231  0.3784 -1.0314  0.5468
   11MPD2    C213966   1.086   3.066  14.176  0.7780 -0.5414  0.2072
   11MPD2    C313967   1.149   3.191  14.179 -0.1559 -0.3173  0.2121
   11MPD2    C413968   1.271   3.192  14.235 -0.0165 -0.0558  0.3715
   11MPD2    C513969   1.325   3.078  14.290  0.1469 -0.4141 -0.0891
   11MPD2     H13970   0.994   3.051  14.121  1.2636 -1.2623 -0.4073
   11MPD2    H113971   1.333   3.281  14.241  0.4128 -0.4997  2.4374
   11MPD2    H213972   1.318   2.881  14.341  0.9722  0.2250 -1.3138
   11MPD2    H313973   1.419   3.094  14.342 -0.0518 -1.8260  0.7230
   11MPD2     N13974   1.103   3.308  14.116  0.8521 -0.3756  0.4631
   11MPD2    H513975   1.174   3.381  14.115 -2.2555  2.6312  1.7659
   11MPD2    N113976   1.069   2.829  14.241  0.2937  0.1688  0.3760
   11MPD2    H713977   0.977   2.827  14.199 -0.8320  0.0652  2.8582
    1MPD1     C13978   3.613   2.387  17.388  0.4593  0.3492 -0.0336
    1MPD1    C113979   3.669   2.425  17.506  0.3451  0.3065  0.6307
    1MPD1    C213980   3.713   2.556  17.526 -0.3806  0.1283  0.4019
    1MPD1    C313981   3.726   2.636  17.413  0.5551 -0.3859  0.5367
    1MPD1    C413982   3.674   2.590  17.288  0.2624  0.0522 -0.0021
    1MPD1    C513983   3.617   2.466  17.280 -0.5640  0.3380 -0.0784
    1MPD1     H13984   3.751   2.580  17.625  0.9194  0.0255 -0.0823
    1MPD1    H113985   3.675   2.646  17.195 -0.7995 -0.8133 -0.5368
    1MPD1    H213986   3.560   2.293  17.384 -0.2121  0.7814 -1.1546
    1MPD1    H313987   3.581   2.424  17.187  1.5072 -1.0989 -0.2055
    1MPD1     N13988   3.789   2.757  17.416  0.1661 -0.1333 -0.3822
    1MPD1    H513989   3.783   2.810  17.330  0.8481 -0.7187 -0.7884
    1MPD1    N113990   3.639   2.342  17.610 -0.0998 -0.3378 -0.0996
    1MPD1    H613991   3.702   2.346  17.689  0.4986 -0.1844 -0.5874
    1MPD1    H713992   3.657   2.248  17.576 -3.1072 -1.8369  2.4820
    2MPD1     C13993   4.420   2.810  16.846 -0.1389  1.1054 -0.0382
    2MPD1    C113994   4.322   2.723  16.897  0.6888  0.1877 -0.0011
    2MPD1    C213995   4.258   2.766  17.014 -0.5302  0.2477 -0.2922
    2MPD1    C313996   4.268   2.891  17.064 -0.7234  0.0825 -0.2571
    2MPD1    C413997   4.358   2.974  17.004 -0.3372  0.3034  0.1623
    2MPD1    C513998   4.425   2.935  16.896 -0.2277  0.0651 -0.7536
    2MPD1     H13999   4.190   2.702  17.068  1.2867 -2.3378 -1.0597
    2MPD1    H114000   4.382   3.076  17.030 -1.9398  0.3159  1.6355
    2MPD1    H214001   4.479   2.776  16.761 -2.1997 -1.0331 -0.6162
    2MPD1    H314002   4.492   3.012  16.859 -0.1329  1.0602  1.4836
    2MPD1     N14003   4.176   2.923  17.171  0.0594  0.0743  0.1732
    2MPD1    H514004   4.118   2.845  17.200  1.0347  0.4160  3.0490
    2MPD1    N114005   4.303   2.594  16.844  0.0354 -0.7728 -0.3925
    2MPD1    H614006   4.207   2.561  16.856 -1.4848  3.9462  0.8261
    2MPD1    H714007   4.334   2.583  16.748 -0.9272  1.8722 -1.0334
    3TMC3    C114008   4.080   3.036  17.344  0.1171  0.9433 -0.1302
    3TMC3    C214009   4.103   3.135  17.439 -0.5192 -0.1201  0.2742
    3TMC3    C314010   4.046   3.118  17.564  0.2518  0.0819  0.1331
    3TMC3    C414011   3.990   2.936  17.370  0.5114 -0.0367  0.2499
    3TMC3    C514012   3.923   2.940  17.489  0.7002 -0.7943  0.3486
    3TMC3    C614013   3.960   3.017  17.591 -0.0331 -0.0231  0.0178
    3TMC3     C14014   4.176   3.033  17.245  0.1533 -0.1280 -0.1932
    3TMC3     O14015   4.226   3.142  17.217 -0.6594  0.1600 -0.3341
    3TMC3     H14016   4.166   3.220  17.413 -0.9185  0.1494  0.1785
    3TMC3    H114017   3.987   2.859  17.293 -1.3743  0.0770  0.2004
    3TMC3    H214018   3.921   3.010  17.692  1.5863 -0.3368  0.6215
    3TMC3    C714019   3.854   2.813  17.522 -0.3528  0.2423 -0.3869
    3TMC3    C814020   4.069   3.221  17.664 -0.9224 -0.3324  0.0722
    3TMC3    O114021   3.882   2.777  17.638 -0.0174 -0.5780 -0.5817
    3TMC3    O214022   4.042   3.187   0.083  0.1513  0.0455 -0.0558
    4MPD1     C14023   4.099   3.720   0.111 -0.2156 -0.1813 -0.2960
    4MPD1    C114024   4.128   3.711  17.676  0.0315  0.3154 -0.4014
    4MPD1    C214025   4.124   3.584  17.616  0.6388  1.2957  0.3073
    4MPD1    C314026   4.087   3.474  17.685 -0.1804 -0.9120  0.4866
    4MPD1    C414027   4.055   3.487   0.123  0.1286  0.2934  0.2111
    4MPD1    C514028   4.056   3.612   0.180  0.1958 -0.0958  0.4050
    4MPD1     H14029   4.149   3.577  17.510  0.9748  0.0017  0.4835
    4MPD1    H114030   4.029   3.404   0.188 -2.0124  1.4509  0.8475
    4MPD1    H214031   4.104   3.812   0.169  0.8650  0.9918 -2.2328
    4MPD1    H314032   4.036   3.618   0.287 -0.9601 -0.2646  0.1986
    4MPD1     N14033   4.086   3.350  17.616  0.6135  0.3149  0.1841
    4MPD1    H514034   4.085   3.360  17.515  0.2009  3.4926  0.5126
    4MPD1    N114035   4.189   3.816  17.614 -0.3081 -0.3725 -0.1883
    4MPD1    H614036   4.164   3.825  17.516  0.1908  0.0417 -0.2793
    4MPD1    H714037   4.169   3.904  17.660 -0.2645 -1.0494  1.1164
    1TCq1    O114038   4.369   3.426  11.366 -0.1133 -0.0600  0.1550
    1TCq1    C114039   4.277   3.344  11.310  0.2683 -0.1825 -0.6368
    1TCq1    O214040   4.308   3.233  11.265 -0.1076 -0.0776  0.0987
    1TCq1    C214041   4.159   3.421  11.265  0.1268 -0.6993 -0.1921
    1TCq1    C314042   4.084   3.467  11.369 -0.2107  0.0878  0.0659
    1TCq1    C414043   3.954   3.502  11.337  0.2821  0.1351  0.1294
    1TCq1    C514044   3.904   3.474  11.212  0.0920  0.1605 -0.2348
    1TCq1    C614045   3.987   3.434  11.113  0.1805  0.1161  0.1543
    1TCq1    C714046   4.118   3.402  11.134  0.1539  0.2425  0.0166
    1TCq1    C814047   3.925   3.398  10.987 -0.8204 -0.0264 -0.3335
    1TCq1    O414048   3.805   3.374  10.969 -0.3250  0.2419 -0.4171
    1TCq1    C914049   3.863   3.520  11.449  0.1712  0.7001 -0.6841
    1TCq1    O514050   3.906   3.506  11.568 -0.4497 -0.4017  0.0464
    1TCq1    O614051   3.744   3.555  11.416  0.2481  0.5281 -0.1337
    1TCq1    H114052   4.338   3.513  11.398  0.4127  0.4003 -0.5813
    1TCq1    H214053   4.102   3.449  11.474  1.5837  2.3946  0.1383
    1TCq1    H314054   3.799   3.478  11.188 -0.5739  2.6000  3.0410
    1TCq1    H414055   4.174   3.351  11.057  0.9796  1.1791 -0.0005
    2MPD1     C14056   3.959   3.335  10.479 -0.2110 -0.1984  0.1849
    2MPD1    C114057   4.052   3.427  10.514 -0.3119  0.3950 -0.2306
    2MPD1    C214058   4.077   3.447  10.651  0.1740  0.1397  0.0555
    2MPD1    C314059   3.989   3.393  10.743 -0.1086 -0.6998 -0.3707
    2MPD1    C414060   3.883   3.320  10.700  0.5966 -0.3988 -0.7615
    2MPD1    C514061   3.876   3.281  10.566 -0.2111 -0.0616 -0.1892
    2MPD1     H14062   4.159   3.510  10.683 -0.9283  1.1461  0.9448
    2MPD1    H114063   3.816   3.275  10.773  1.8464 -0.3146  0.4295
    2MPD1    H214064   3.957   3.308  10.374  0.2450  2.3577 -0.4908
    2MPD1    H314065   3.806   3.204  10.536 -1.0073  0.9204 -0.8533
    2MPD1     N14066   4.020   3.414  10.881 -0.6635 -0.0554  0.2705
    2MPD1    H514067   4.113   3.451  10.894  0.6598 -3.1636 -0.3700
    2MPD1    N114068   4.146   3.474  10.420  0.0252  0.2364 -0.3448
    2MPD1    H614069   4.181   3.562  10.457  0.0803  1.1742 -2.6679
    2MPD1    H714070   4.099   3.501  10.334 -1.3525 -1.4924 -0.1333
    1TCq1    O114071   2.943   2.147   1.911  0.4042 -0.2509  0.0440
    1TCq1    C114072   2.851   2.243   1.886 -0.4947  0.1907 -0.1799
    1TCq1    O214073   2.727   2.227   1.859 -0.3923  0.1248  0.0575
    1TCq1    C214074   2.920   2.374   1.879  0.5258 -0.2508 -0.2962
    1TCq1    C314075   3.016   2.410   1.967  0.1311  0.1595 -0.3028
    1TCq1    C414076   3.018   2.539   2.010 -0.4442 -0.1468  0.0966
    1TCq1    C514077   2.952   2.642   1.933 -0.2085  0.0417 -0.0514
    1TCq1    C614078   2.863   2.601   1.843  0.6645  0.6138 -0.4460
    1TCq1    C714079   2.845   2.469   1.815  0.3770  1.2704  0.6527
    1TCq1    C814080   2.817   2.693   1.744  0.1756  0.1423  0.5436
    1TCq1    O414081   2.877   2.797   1.742  0.1059  0.8507 -0.4976
    1TCq1    C914082   3.133   2.582   2.085  0.2631  0.5233 -0.1507
    1TCq1    O514083   3.151   2.707   2.095 -0.2806  0.6469  0.3065
    1TCq1    O614084   3.217   2.494   2.112  0.0753  0.2270 -0.3415
    1TCq1    H114085   3.038   2.167   1.926 -0.0064  1.4253  0.4100
    1TCq1    H214086   3.067   2.335   2.026 -1.0984  0.6074  1.3380
    1TCq1    H314087   2.964   2.746   1.961  0.7113 -0.5338  1.7312
    1TCq1    H414088   2.800   2.426   1.726  2.3448  1.6248 -0.4992
    2MPD1     C14089   2.589   2.817   1.306 -0.7532  0.3024 -0.6003
    2MPD1    C114090   2.540   2.693   1.351  0.3130 -0.4491 -0.4065
    2MPD1    C214091   2.596   2.638   1.460  0.5338  0.3380  0.2943
    2MPD1    C314092   2.687   2.706   1.537  0.6607 -0.7971  0.4764
    2MPD1    C414093   2.730   2.832   1.493 -0.2462  0.2760 -0.2446
    2MPD1    C514094   2.688   2.877   1.374 -0.0879 -0.2460  0.6376
    2MPD1     H14095   2.567   2.537   1.486  2.1248 -0.2972 -0.4271
    2MPD1    H114096   2.802   2.890   1.548  0.7160 -2.9121  1.8526
    2MPD1    H214097   2.552   2.866   1.217  0.9845 -1.5198 -2.3102
    2MPD1    H314098   2.707   2.980   1.346 -0.9896 -0.0748  0.6391
    2MPD1     N14099   2.729   2.649   1.654  0.7431 -0.3455  0.0116
    2MPD1    H514100   2.689   2.558   1.674 -0.3584 -0.3800 -2.3300
    2MPD1    N114101   2.446   2.628   1.265  0.5589  0.0248 -0.0170
    2MPD1    H614102   2.396   2.692   1.204 -0.4771 -1.6913 -1.0054
    2MPD1    H714103   2.371   2.575   1.309  1.0053  2.2625  3.3904
    1MPD1     C14104   2.443   4.504  10.793 -0.0486 -1.0055  0.3364
    1MPD1    C114105   2.479   4.405  10.881 -0.1084 -0.7292 -0.4093
    1MPD1    C214106   2.419   4.402  11.009 -0.4628 -0.3128  0.0508
    1MPD1    C314107   2.340   4.510  11.048 -0.8998  0.3807  0.1891
    1MPD1    C414108   2.321   4.619  10.964 -0.3266 -0.3494 -0.3639
    1MPD1    C514109   2.362   4.611  10.832  0.1415 -0.3115 -0.3374
    1MPD1     H14110   2.440   4.323  11.080  0.7600  0.4691  0.5611
    1MPD1    H114111   2.245   4.693  10.989  0.5037  0.1487  0.6962
    1MPD1    H214112   2.470   4.499  10.689 -1.7767 -0.4898 -0.1379
    1MPD1    H314113   2.333   4.682  10.756  2.6293  1.1116  0.0179
    1MPD1     N14114   2.288   4.507  11.179  0.0595  0.3999 -0.4666
    1MPD1    H514115   2.297   4.423  11.235  1.2033  0.8939  0.1179
    1MPD1    N114116   2.562   4.307  10.839  1.2864 -0.3645  0.4051
    1MPD1    H614117   2.613   4.276  10.922 -0.1482  1.4084  1.9425
    1MPD1    H714118   2.632   4.347  10.777 -0.1975  0.7707 -0.5426
    2MPD1     C14119   0.658   3.468  11.997 -0.8781 -0.3584  0.2031
    2MPD1    C114120   0.732   3.542  11.902 -0.1972  0.6901 -0.6659
    2MPD1    C214121   0.869   3.575  11.928  0.6310 -0.3300 -0.5870
    2MPD1    C314122   0.938   3.521  12.035 -0.1685  0.6928 -0.1429
    2MPD1    C414123   0.873   3.444  12.122 -0.2116  1.1057 -0.2469
    2MPD1    C514124   0.738   3.413  12.100  0.3090  0.3562 -0.0280
    2MPD1     H14125   0.923   3.637  11.857  0.6927 -0.9124 -1.0416
    2MPD1    H114126   0.924   3.403  12.208  0.1015 -1.9933 -1.8877
    2MPD1    H214127   0.551   3.453  11.988 -0.7405 -1.7189  0.8342
    2MPD1    H314128   0.702   3.340  12.171 -0.1554  1.1994  0.6120
    2MPD1     N14129   1.073   3.549  12.066 -0.3193  0.3878  0.7060
    2MPD1    H514130   1.117   3.497  12.142 -2.1816 -0.0950  1.4665
    2MPD1    N114131   0.669   3.619  11.801 -0.1002  0.1802 -0.0746
    2MPD1    H614132   0.722   3.647  11.718 -0.7372 -1.1783 -0.9414
    2MPD1    H714133   0.586   3.572  11.765 -0.5599  1.1700 -0.3279
    3MPD1     C14134   1.532   3.118  12.603 -0.2716  0.4248  0.6697
    3MPD1    C114135   1.399   3.154  12.576  0.4432 -0.0497  0.0347
    3MPD1    C214136   1.376   3.265  12.494  0.0916 -0.2602 -0.0098
    3MPD1    C314137   1.475   3.342  12.439  0.0395 -0.0110  0.2431
    3MPD1    C414138   1.602   3.315  12.478  0.8938  0.5094 -0.3144
    3MPD1    C514139   1.623   3.216  12.566 -0.0994 -0.9116 -0.4514
    3MPD1     H14140   1.271   3.276  12.467 -0.0480  0.6239  0.8995
    3MPD1    H114141   1.689   3.368  12.441  0.8943  1.6480  1.3725
    3MPD1    H214142   1.556   3.027  12.657 -2.0162  0.5904  1.7263
    3MPD1    H314143   1.727   3.193  12.587 -0.6535 -1.5568  1.6806
    3MPD1     N14144   1.427   3.446  12.354 -0.2938 -0.5177 -0.0323
    3MPD1    H514145   1.334   3.431  12.314 -0.5621  0.9193  0.0698
    3MPD1    N114146   1.290   3.075  12.613 -0.1018  0.2364 -0.0182
    3MPD1    H614147   1.317   3.014  12.689  2.0354  0.4482 -0.6112
    3MPD1    H714148   1.220   3.133  12.658  1.2695  1.6354  0.3215
    4MPD2     C14149   2.248   4.314  11.919 -0.0373  0.7739 -0.5616
    4MPD2    C114150   2.167   4.412  11.874 -0.1640 -0.5953 -0.0613
    4MPD2    C214151   2.102   4.501  11.961 -0.4858 -0.0339  0.1492
    4MPD2    C314152   2.109   4.477  12.098  0.4428  0.6114 -0.4018
    4MPD2    C414153   2.185   4.374  12.145  0.1042  0.5746  0.7964
    4MPD2    C514154   2.261   4.305  12.058  0.6727  0.7855  0.2148
    4MPD2     H14155   2.026   4.572  11.932 -1.3786 -1.3051 -0.5790
    4MPD2    H114156   2.201   4.360  12.251  0.0109 -1.4917  0.5433
    4MPD2    H214157   2.313   4.246  11.865  0.0480 -0.8937  1.6370
    4MPD2    H314158   2.332   4.235  12.100  1.0210  1.1216  0.1751
    4MPD2     N14159   2.031   4.552  12.186 -0.0316  0.1782  0.4650
    4MPD2    H514160   2.011   4.515  12.278 -2.5820  1.0887  0.2848
    4MPD2    N114161   2.138   4.427  11.739 -0.1362  0.2368 -0.2089
    4MPD2    H714162   2.069   4.498  11.716 -0.8232  0.4788  2.6005
    5TMC3    C114163   2.110   4.387  11.517  0.7282 -0.3530  0.5823
    5TMC3    C214164   2.191   4.446  11.420 -0.0405 -0.1015  0.4405
    5TMC3    C314165   2.165   4.562  11.360  0.2264  0.3153 -0.3947
    5TMC3    C414166   1.998   4.457  11.548  0.1474  0.1721  0.0569
    5TMC3    C514167   1.968   4.579  11.485  0.1012  0.9004 -0.0995
    5TMC3    C614168   2.061   4.633  11.406  0.2656  0.2854  0.8581
    5TMC3     C14169   2.184   4.351  11.633  0.0906  0.4493  0.0413
    5TMC3     O14170   2.274   4.268  11.622 -0.2647  0.0691  0.0811
    5TMC3     H14171   2.290   4.402  11.409 -1.0432 -2.0374 -0.8532
    5TMC3    H114172   1.927   4.420  11.621  0.6920 -4.0144 -1.5577
    5TMC3    H214173   2.036   4.724  11.353  0.0734  1.8237  3.5899
    5TMC3    C714174   1.910   4.675  11.585  0.1742 -0.6157  0.6128
    5TMC3    C814175   2.231   4.609  11.239 -0.2357  0.3092 -0.6651
    5TMC3    O114176   1.866   4.615  11.683 -0.2165  0.2146  0.1891
    5TMC3    O214177   2.241   0.009  11.220  0.4314  0.1686  0.2744
    6TMC3    C114178   1.277   3.673  12.067  0.3431  0.3193 -0.2488
    6TMC3    C214179   1.337   3.576  12.144 -0.1340  0.3861 -0.7276
    6TMC3    C314180   1.441   3.629  12.214  0.3051 -0.2588 -0.0439
    6TMC3    C414181   1.316   3.802  12.055  0.6856  0.2468 -0.0378
    6TMC3    C514182   1.424   3.846  12.132 -0.3696  0.0885 -0.3362
    6TMC3    C614183   1.483   3.758  12.218  0.8773 -0.3710 -0.8010
    6TMC3     C14184   1.150   3.646  12.004  0.7139 -1.0329 -0.0075
    6TMC3     O14185   1.119   3.734  11.921 -0.5170 -1.2498 -0.0985
    6TMC3     H14186   1.314   3.470  12.139  1.6896 -0.0136 -0.6689
    6TMC3    H114187   1.278   3.863  11.973 -0.4559  0.3881  0.5913
    6TMC3    H214188   1.567   3.798  12.273  1.3949 -4.0721  1.0522
    6TMC3    C714189   1.440   3.987  12.157 -0.1546  0.6437  0.1319
    6TMC3    C814190   1.509   3.545  12.310  0.5403 -0.1879  0.6622
    6TMC3    O114191   1.552   4.032  12.181 -0.8930  0.8044 -0.1290
    6TMC3    O214192   1.624   3.577  12.338  0.1126 -0.0045  0.4152
    7MPD2     C14193   1.868   0.405  11.817 -0.0064  0.1661  0.2607
    7MPD2    C114194   1.829   0.283  11.852  0.1945 -0.2193 -0.5078
    7MPD2    C214195   1.861   0.185  11.767  0.0530  0.5933 -0.2559
    7MPD2    C314196   1.919   0.195  11.644  0.3715  0.5049 -0.5137
    7MPD2    C414197   1.958   0.322  11.602  0.6993  0.3051 -0.1497
    7MPD2    C514198   1.926   0.427  11.697 -0.4728 -0.1672 -0.7369
    7MPD2     H14199   1.845   0.082  11.797 -1.8292  0.5974 -1.2435
    7MPD2    H114200   1.981   0.352  11.500 -2.3418  0.5958 -0.7549
    7MPD2    H214201   1.870   0.497  11.873 -1.8957 -1.2561  2.6530
    7MPD2    H314202   1.954   0.530  11.678 -1.3024 -0.2206 -2.3088
    7MPD2     N14203   1.928   0.085  11.555 -0.5361  0.3243 -0.0169
    7MPD2    H514204   1.966   0.097  11.462  0.5547 -0.5778  0.3115
    7MPD2    N114205   1.775   0.254  11.979  0.0894  0.2106 -0.0447
    7MPD2    H714206   1.771   0.333  12.043  0.3864  1.0308 -1.0326
    8TMC3    C114207   1.686   0.121  12.145 -0.0625  0.2963  0.2540
    8TMC3    C214208   1.594   0.018  12.160 -0.9690  1.0814 -0.3031
    8TMC3    C314209   1.638   4.619  12.203 -0.4074 -0.0682  0.0337
    8TMC3    C414210   1.812   0.115  12.195 -0.0547 -0.0621  0.0413
    8TMC3    C514211   1.860   4.710  12.229  0.1536 -0.2334 -0.1295
    8TMC3    C614212   1.771   4.601  12.238 -0.3481 -0.2924  0.2016
    8TMC3     C14213   1.700   0.147  12.006 -0.0561 -0.2323  0.2436
    8TMC3     O14214   1.632   0.084  11.920 -0.4410  0.8383 -0.3610
    8TMC3     H14215   1.503   0.037  12.104 -0.8114 -1.3359 -1.3507
    8TMC3    H114216   1.882   0.196  12.179 -0.1931 -0.2535 -1.5675
    8TMC3    H214217   1.816   4.506  12.263 -2.7592 -1.8300 -1.3506
    8TMC3    C714218   1.978   4.678  12.166  0.2495  0.0614 -0.6765
    8TMC3    C814219   1.577   4.494  12.157  0.4889  0.6992  0.4184
    8TMC3    O114220   2.020   0.034  12.080  0.0233 -0.0924 -0.6447
    8TMC3    O214221   1.644   4.392  12.160  0.3816 -0.2838 -0.1590
    9MPD2     C14222   1.212   4.444  12.112 -0.4319  0.4858 -0.9908
    9MPD2    C114223   1.343   4.410  12.119  0.4579  0.8708 -0.6775
    9MPD2    C214224   1.378   4.273  12.125 -0.4346  0.3457 -0.1637
    9MPD2    C314225   1.279   4.177  12.121 -0.2738  0.3994  0.3996
    9MPD2    C414226   1.146   4.210  12.107 -0.5654  0.0128  0.5797
    9MPD2    C514227   1.116   4.347  12.108 -0.2056  0.0783 -0.2793
    9MPD2     H14228   1.480   4.239  12.139 -0.7373 -1.4607 -2.4371
    9MPD2    H114229   1.070   4.137  12.080 -2.2693  1.1508  2.3168
    9MPD2    H214230   1.185   4.549  12.099  0.2488  0.7594 -0.2168
    9MPD2    H314231   1.013   4.372  12.086 -0.7703 -0.4879  1.7016
    9MPD2     N14232   1.314   4.040  12.133  0.1515 -0.5020 -0.4355
    9MPD2    H514233   1.236   3.975  12.132 -2.5569  2.7579  1.4061
    9MPD2    N114234   1.445   4.510  12.128 -0.3660 -0.6927 -0.5677
    9MPD2    H714235   1.404   4.601  12.148 -2.2202 -1.2448 -1.8064
    1MPD1     C14236   0.755   3.746   0.624  0.5622  0.1530  0.7905
    1MPD1    C114237   0.714   3.702   0.745  0.3686 -0.4818  0.1648
    1MPD1    C214238   0.581   3.669   0.771 -0.9024  0.3960 -0.6416
    1MPD1    C314239   0.482   3.671   0.664 -0.1086 -0.3597  1.0869
    1MPD1    C414240   0.527   3.698   0.537 -0.0261  0.0562 -0.3381
    1MPD1    C514241   0.660   3.740   0.524 -0.3058 -0.3332  0.2443
    1MPD1     H14242   0.540   3.660   0.870  0.1105  2.5791 -0.0132
    1MPD1    H114243   0.456   3.689   0.455  1.1516  2.0057 -1.5789
    1MPD1    H214244   0.853   3.785   0.599  0.9050 -0.9053  0.4513
    1MPD1    H314245   0.683   3.763   0.420  0.3170 -0.9117  0.2590
    1MPD1     N14246   0.340   3.644   0.683  0.0991  0.4273  0.6790
    1MPD1    H514247   0.284   3.651   0.598  0.1153  1.6097  0.7595
    1MPD1    N114248   0.798   3.711   0.851  0.3356  0.3784 -0.5925
    1MPD1    H614249   0.898   3.701   0.835 -0.5525 -1.0701 -5.1507
    1MPD1    H714250   0.779   3.629   0.909 -0.5434 -0.7344 -2.4779
    2MPD1     C14251   4.511   2.928   0.302  0.2654 -0.1041 -0.2818
    2MPD1    C114252   4.436   2.970   0.409  0.0421  0.3986 -0.9071
    2MPD1    C214253   4.469   3.088   0.472  0.0198 -0.2411 -0.2387
    2MPD1    C314254   4.584   3.165   0.438  0.0204  0.0888  0.4469
    2MPD1    C414255   4.664   3.115   0.340 -0.2302 -0.7079  0.1756
    2MPD1    C514256   4.627   3.003   0.273  0.8017  0.8169 -0.7991
    2MPD1     H14257   4.393   3.127   0.539  0.9345  0.0440  0.6456
    2MPD1    H114258   0.031   3.162   0.303 -1.2652 -0.0577 -1.5378
    2MPD1    H214259   4.487   2.838   0.246  1.5849  0.5962 -1.9650
    2MPD1    H314260   4.695   2.981   0.192 -0.1117 -1.7842 -0.8731
    2MPD1     N14261   4.600   3.281   0.510  0.3664  0.5903  0.8771
    2MPD1    H514262   4.557   3.288   0.602 -1.4833 -1.6085  0.1876
    2MPD1    N114263   4.300   2.936   0.425 -0.2841 -0.0874 -0.0781
    2MPD1    H614264   4.263   2.953   0.518 -1.5887  0.7040 -0.7466
    2MPD1    H714265   4.276   2.841   0.397 -0.0224  0.4026 -1.9560
    3TCq2    C114266   4.707   3.369   0.492  0.0124 -0.3110  0.4938
    3TCq2    O214267   0.070   3.381   0.411 -0.7006  0.7914  0.3663
    3TCq2    C214268   4.719   3.465   0.602  0.1062  1.0454 -0.0854
    3TCq2    C314269   4.609   3.504   0.673  0.2158  0.0363 -0.5134
    3TCq2    C414270   4.627   3.556   0.798 -0.6602  0.2381  0.1472
    3TCq2    C514271   0.031   3.582   0.850  0.2054 -0.5428 -0.5034
    3TCq2    C614272   0.135   3.564   0.764  0.6195 -0.4945  0.9306
    3TCq2    C714273   0.118   3.505   0.642  0.2342  0.0789 -0.1166
    3TCq2    C814274   0.268   3.616   0.798 -0.2690  0.0222 -0.2848
    3TCq2    O414275   0.300   3.628   0.917 -0.0472  0.0387 -0.1749
    3TCq2    C914276   4.514   3.564   0.880 -0.3204  0.5129 -0.0295
    3TCq2    O514277   4.405   3.566   0.819 -0.0135  0.2611  0.6229
    3TCq2    O614278   4.528   3.576   1.007  0.4088  0.5996 -0.0854
    3TCq2    H214279   4.507   3.480   0.644  0.0107 -1.0288  1.0962
    3TCq2    H314280   0.037   3.630   0.947  1.9926 -0.3906 -0.6938
    3TCq2    H414281   0.202   3.488   0.576 -0.5947 -2.4636 -0.4997
    1TCq1    O114282   3.339   2.293  12.440 -0.0691 -0.1219  0.5594
    1TCq1    C114283   3.463   2.345  12.453  0.0939 -0.3647  0.0667
    1TCq1    O214284   3.535   2.360  12.357  0.0692 -0.0761  0.5888
    1TCq1    C214285   3.503   2.361  12.592  0.3345  0.7546 -0.2565
    1TCq1    C314286   3.442   2.289  12.681  0.2581  0.1973 -0.1816
    1TCq1    C414287   3.492   2.294  12.810  0.2327  0.0557 -0.1715
    1TCq1    C514288   3.605   2.357  12.847 -0.6917 -0.1790  0.4695
    1TCq1    C614289   3.664   2.428  12.742 -0.1292 -0.4740 -0.0347
    1TCq1    C714290   3.619   2.431  12.615  0.6795 -0.2705  0.1692
    1TCq1    C814291   3.762   2.523  12.784  0.0538  0.1503 -0.1515
    1TCq1    O414292   3.773   2.623  12.713  0.3402  0.2455 -1.2884
    1TCq1    C914293   3.425   2.228  12.918  0.3513  0.4434  0.4525
    1TCq1    O514294   3.429   2.282  13.034 -0.5644 -0.1001 -0.4462
    1TCq1    O614295   3.349   2.137  12.882  0.0511 -0.2690 -0.1808
    1TCq1    H114296   3.280   2.321  12.513  0.3662 -1.6538  1.4872
    1TCq1    H214297   3.355   2.227  12.663 -0.7223  1.2985  0.7986
    1TCq1    H314298   3.638   2.361  12.950  0.7085 -0.2040  0.0148
    1TCq1    H414299   3.668   2.488  12.537  2.3816 -0.5271  1.0306
    2MPD2     C14300   3.923   2.706  12.963 -0.7323 -0.0297  0.1029
    2MPD2    C114301   3.936   2.569  12.954  0.4145 -0.4748  0.3613
    2MPD2    C214302   4.047   2.503  13.018 -0.0026 -0.5815  0.2293
    2MPD2    C314303   4.139   2.574  13.093  0.1394  0.7552 -0.4801
    2MPD2    C414304   4.128   2.711  13.085 -0.0552  0.1348  0.2277
    2MPD2    C514305   4.020   2.776  13.027 -0.0059 -0.2125 -0.2208
    2MPD2     H14306   4.050   2.395  13.025 -0.5114 -0.7102 -1.7669
    2MPD2    H114307   4.203   2.779  13.124 -1.5078  1.7650  0.1799
    2MPD2    H214308   3.846   2.761  12.910  1.5387  1.6510 -1.4475
    2MPD2    H314309   4.018   2.885  13.028 -0.3091 -0.2255  1.6452
    2MPD2     N14310   4.243   2.510  13.161  0.5225 -0.1508 -0.6433
    2MPD2    H514311   4.250   2.409  13.157 -0.4335 -0.3307  1.6056
    2MPD2    N114312   3.846   2.485  12.884 -0.3965  0.0759  0.3416
    2MPD2    H714313   3.843   2.386  12.902  0.5707 -0.3487 -1.8680
    3TCq1    O114314   0.098   2.263  13.210  0.5285  0.3171  0.0752
    3TCq1    C114315   4.691   2.276  13.174  0.0772  0.1099 -0.2498
    3TCq1    O214316   4.641   2.221  13.078  0.0020  0.0954 -0.1590
    3TCq1    C214317   4.620   2.357  13.267  0.3414  0.0253  0.4249
    3TCq1    C314318   4.680   2.374  13.389  0.3669  0.1187 -0.2862
    3TCq1    C414319   4.597   2.439  13.478 -0.5533 -0.7693  0.0965
    3TCq1    C514320   4.481   2.495  13.446  0.0326 -0.1969  0.1806
    3TCq1    C614321   4.424   2.472  13.322 -0.4186 -0.4676  0.0450
    3TCq1    C714322   4.492   2.396  13.234  0.2252 -0.4853 -0.3693
    3TCq1    C814323   4.315   2.561  13.268 -0.2200  0.2351 -0.5295
    3TCq1    O414324   4.308   2.674  13.315  0.0583 -0.2131 -0.3161
    3TCq1    C914325   4.632   2.447  13.612 -0.0288  0.9460 -0.8245
    3TCq1    O514326   4.585   2.538  13.684  0.2709  0.1112  0.2051
    3TCq1    O614327   4.705   2.354  13.652  0.1017 -0.2099  0.0502
    3TCq1    H114328   0.114   2.337  13.273 -1.6927  0.1433  0.8351
    3TCq1    H214329   0.048   2.338  13.431 -0.6723  0.6637  2.4463
    3TCq1    H314330   4.428   2.549  13.524 -1.7559 -2.5670  0.5978
    3TCq1    H414331   4.462   2.381  13.131  0.8453  0.7129 -0.7327
    1MPD2     C14332   3.114   3.623  14.901 -0.0614 -0.7901  0.3468
    1MPD2    C114333   3.085   3.486  14.864 -0.2772 -0.5904  0.1819
    1MPD2    C214334   3.173   3.385  14.898 -0.0049 -0.6098  0.5538
    1MPD2    C314335   3.289   3.418  14.968  0.0664  0.0980  0.2687
    1MPD2    C414336   3.317   3.548  15.006 -0.0252 -0.0486  0.3964
    1MPD2    C514337   3.234   3.650  14.962 -0.1301  0.2517 -0.7741
    1MPD2     H14338   3.166   3.280  14.872  2.3973 -0.7177  0.3185
    1MPD2    H114339   3.410   3.571  15.058 -0.8976 -2.4536  3.0446
    1MPD2    H214340   3.051   3.710  14.885  0.0861 -0.6958  0.2717
    1MPD2    H314341   3.256   3.752  14.993 -0.4824 -0.0133  0.3523
    1MPD2     N14342   3.379   3.316  14.997  0.1222 -0.1865 -0.8837
    1MPD2    H514343   3.343   3.226  14.966 -1.9391  0.5083 -0.5286
    1MPD2    N114344   2.963   3.462  14.793 -0.4824  0.8237  0.0050
    1MPD2    H714345   2.915   3.541  14.751 -1.9722 -0.2455 -0.2995
    2TMC3    C114346   2.825   3.333  14.661 -0.3281 -0.1612  0.2793
    2TMC3    C214347   2.773   3.204  14.665 -0.4878  0.7319 -1.1781
    2TMC3    C314348   2.798   3.128  14.555 -0.2933  0.6499  0.3337
    2TMC3    C414349   2.879   3.381  14.545 -0.0951  0.3914  1.0502
    2TMC3    C514350   2.896   3.303  14.435  0.2148 -0.2140 -0.3556
    2TMC3    C614351   2.843   3.177  14.436  0.1528  0.5459  0.2299
    2TMC3     C14352   2.922   3.335  14.762 -0.6314  0.4339 -0.6960
    2TMC3     O14353   2.965   3.228  14.806  0.6034  0.4067  0.4162
    2TMC3     H14354   2.743   3.157  14.758 -0.6348  0.9329 -1.1239
    2TMC3    H114355   2.943   3.468  14.553  1.3629 -0.4014 -1.7007
    2TMC3    H214356   2.843   3.112  14.349  0.7679  3.1616 -1.7492
    2TMC3    C714357   2.909   3.364  14.305  0.4266 -0.4874  0.2260
    2TMC3    C814358   2.816   2.992  14.579 -0.1296  0.7934 -0.2601
    2TMC3    O114359   2.894   3.285  14.212  0.0637  0.0990 -0.1268
    2TMC3    O214360   2.795   2.912  14.487 -0.1943 -0.9335 -0.7440
    3TCq1    O114361   3.396   4.521  14.197 -0.1443  0.5179  0.7052
    3TCq1    C114362   3.389   4.434  14.089 -1.0048 -0.6250 -0.2023
    3TCq1    O214363   3.365   4.466  13.974 -0.3279 -0.2721 -0.3708
    3TCq1    C214364   3.374   4.302  14.145 -0.6957 -0.5434  0.0937
    3TCq1    C314365   3.431   4.278  14.268  0.5146  0.1144  0.3967
    3TCq1    C414366   3.429   4.150  14.312 -0.4891  0.7474  0.1884
    3TCq1    C514367   3.355   4.052  14.251  0.4520  0.4422  0.1826
    3TCq1    C614368   3.295   4.089  14.136 -0.0690  0.3922 -0.3180
    3TCq1    C714369   3.298   4.211  14.083 -0.6336 -0.2924 -0.1062
    3TCq1    C814370   3.194   3.995  14.072 -0.2544  0.3688  0.4896
    3TCq1    O414371   3.132   4.032  13.968  0.0127  0.2168  0.5548
    3TCq1    C914372   3.487   4.108  14.444 -0.3754  0.9791  0.0431
    3TCq1    O514373   3.580   4.179  14.493 -0.3197  0.8338  0.4442
    3TCq1    O614374   3.466   3.987  14.479  0.1871 -0.0065  0.1464
    3TCq1    H114375   3.381   4.487  14.288 -0.1096  0.5596  0.7263
    3TCq1    H214376   3.492   4.350  14.321 -0.6253  0.4411  1.2414
    3TCq1    H314377   3.370   3.952  14.287  2.0673 -0.6652 -3.5290
    3TCq1    H414378   3.250   4.237  13.989  0.0191  2.3078  0.2870
    4MPD2     C14379   3.033   3.746  13.987 -0.0535 -0.0161 -0.5784
    4MPD2    C114380   3.095   3.764  14.110  0.3736  0.2893  0.5420
    4MPD2    C214381   3.068   3.675  14.211  0.2631 -0.3883  0.0259
    4MPD2    C314382   2.994   3.562  14.192  0.5719 -0.7342 -0.5433
    4MPD2    C414383   2.941   3.533  14.071 -0.2256  0.2310 -0.3789
    4MPD2    C514384   2.959   3.627  13.966 -0.4135  0.6697 -0.5609
    4MPD2     H14385   3.117   3.688  14.307  1.1332  0.9606 -0.6075
    4MPD2    H114386   2.880   3.447  14.045 -0.2640  0.5179 -1.2647
    4MPD2    H214387   3.037   3.824  13.911 -1.2746 -1.4139 -2.0844
    4MPD2    H314388   2.907   3.613  13.872 -0.8987 -0.9854 -0.0479
    4MPD2     N14389   2.972   3.484  14.308 -0.2727 -0.1957 -0.4949
    4MPD2    H514390   3.004   3.511  14.400  2.1479 -1.3922 -0.9801
    4MPD2    N114391   3.170   3.878  14.150  0.3717  0.8178 -0.2471
    4MPD2    H714392   3.213   3.879  14.241 -0.4775 -0.4649  0.1598
    5TMC2    C114393   3.497   2.984  14.949 -0.1044 -0.1039 -0.5932
    5TMC2    C214394   3.514   2.913  15.065 -0.3299 -0.2231  0.0836
    5TMC2    C314395   3.567   2.987  15.168  0.9278  0.0490  0.7903
    5TMC2    C414396   3.534   3.110  14.938  0.6462 -0.1474 -0.5501
    5TMC2    C514397   3.561   3.186  15.049  0.2330  0.1613 -0.5114
    5TMC2    C614398   3.591   3.123  15.164  0.2033 -0.0274 -0.2943
    5TMC2     C14399   3.382   2.969  14.878 -0.3910  0.5990 -0.4391
    5TMC2     O14400   3.327   3.079  14.864 -0.0341  0.3900 -0.0835
    5TMC2     H14401   3.471   2.815  15.084  1.0391 -0.6548  1.0087
    5TMC2    H114402   3.515   3.169  14.849  0.0738  0.5286  0.0171
    5TMC2    H214403   3.596   3.182  15.254 -0.7569 -2.5567  1.4107
    5TMC2    C714404   3.492   3.315  15.071  0.4053  0.5202  0.1034
    5TMC2    C814405   3.553   2.935  15.307 -0.3156 -0.3229 -1.0608
    5TMC2    O114406   3.535   3.406  15.141 -0.1947 -0.2318 -0.4186
    5TMC2    O214407   3.477   2.845  15.330 -0.0271 -0.1991 -0.6665
    5TMC2    O514408   3.657   2.989  15.377  0.3515  0.6128  0.2480
    5TMC2    H514409   3.724   3.026  15.315  1.4178 -2.5122 -0.4298
    6MPD2     C14410   2.988   2.755  14.635 -0.4613  0.0688 -0.0960
    6MPD2    C114411   2.995   2.876  14.698  0.8465  0.0059 -0.0163
    6MPD2    C214412   3.100   2.901  14.780  0.7717 -0.0728 -0.2464
    6MPD2    C314413   3.212   2.818  14.785 -0.1917 -0.3280 -0.3469
    6MPD2    C414414   3.201   2.694  14.716  0.2299  0.9497  0.0983
    6MPD2    C514415   3.088   2.658  14.646  0.0056 -0.9594  0.3967
    6MPD2     H14416   3.098   2.994  14.835  2.3874 -0.7063  0.8725
    6MPD2    H114417   3.281   2.621  14.716  0.5992  1.3581 -0.0065
    6MPD2    H214418   2.911   2.731  14.562 -0.6897  1.5770 -0.3490
    6MPD2    H314419   3.084   2.557  14.609  0.3319 -0.9464  0.3176
    6MPD2     N14420   3.338   2.842  14.849  0.1011 -0.1209 -0.1614
    6MPD2    H514421   3.407   2.769  14.859  0.7839  0.7907  1.8393
    6MPD2    N114422   2.911   2.984  14.676 -0.1692  0.1223 -0.3398
    6MPD2    H714423   2.929   3.069  14.728 -1.8814 -0.3732  1.0410
  945NH3     N114424   2.035   2.989  16.395 -0.5532  0.4227 -0.1694
  945NH3     H214425   2.059   2.991  16.296 -2.1782  1.5108 -0.5346
  945NH3     H314426   1.964   3.061  16.404 -2.9210 -2.0816  1.4159
  945NH3     H414427   1.989   2.899  16.405 -1.7266  1.1147  0.6709
  946SOD     NA14428   3.024   1.399  15.106 -0.0053 -0.3511 -0.1993
  947SOD     NA14429   1.303   2.864  15.718 -0.1910 -0.0435 -0.5646
  948SOD     NA14430   4.072   3.489   9.567  0.4278  0.0735 -0.1169
  949SOD     NA14431   3.393   1.814  10.190  0.1211 -0.4588  0.0080
  950SOD     NA14432   4.236   0.397   7.657 -0.2648 -0.4220 -0.1118
  951SOD     NA14433   0.467   0.773   6.146 -0.1605  0.2227  0.0605
  952SOD     NA14434   4.039   2.273   7.729 -0.0348 -0.0451 -0.1824
  953SOD     NA14435   3.071   1.189   9.397  0.6467  0.5386  0.3630
  954SOD     NA14436   0.018   1.870  12.389 -0.0645  0.4061  0.3308
  955SOD     NA14437   0.512   1.622  14.025  0.3493  0.2946  0.0919
  956SOD     NA14438   4.099   1.339   0.472 -0.7256 -0.3739  0.2952
  957SOD     NA14439   0.340   2.290  11.328  0.1062 -0.5280 -0.2358
  958SOD     NA14440   2.186   1.587   1.186  0.2119 -0.0667  0.3061
  959SOD     NA14441   3.332   2.684  15.440 -0.4344 -0.2885 -0.6101
  960SOD     NA14442   0.033   3.652  16.284  0.3443 -0.2955  0.3883
  961SOD     NA14443   4.555   1.167  10.915 -0.2947 -0.5698  0.0064
  962SOD     NA14444   4.250   1.906  12.029  0.0495 -0.1279  0.4066
  963SOD     NA14445   2.398   4.079  11.584  0.4371  0.6929  0.0040
  964SOD     NA14446   1.001   4.717  10.156 -0.0982  0.1809 -0.1937
  965SOD     NA14447   3.143   2.856  10.270 -0.0377 -0.1768  0.3864
  966SOD     NA14448   3.683   3.466  15.289  0.2898  0.4723  0.1343
  967SOD     NA14449   1.347   1.528   2.654 -0.4313  0.0344 -0.0783
  968SOD     NA14450   1.929   1.977   0.884  0.1435 -0.1615 -0.5179
  969SOD     NA14451   2.342   2.669  10.581 -0.6039  0.1244  0.3172
  970SOD     NA14452   3.459   2.510   9.870  0.1849  0.1084  0.5263
  971SOD     NA14453   3.289   4.586  17.328  0.4257  0.0919  0.0221
  972SOD     NA14454   3.817   3.438  11.755 -0.4901  0.1178 -0.4490
  973SOD     NA14455   3.821   1.771   9.995  0.0408  0.3532  0.1736
  974SOD     NA14456   3.305   1.926  12.882  0.0140 -0.0826 -0.0301
  975SOD     NA14457   0.643   3.583   4.371 -0.1706 -0.0795 -0.0244
  976SOD     NA14458   2.441   2.142  13.198 -0.3399 -0.1886 -0.5826
  977SOD     NA14459   0.071   2.124  11.121  0.0688 -0.0568 -0.0633
  978SOD     NA14460   4.605   0.918   1.574 -0.4535 -0.1131  0.5659
  979SOD     NA14461   3.617   3.588  14.631  0.3311  0.1032 -0.1024
  980SOD     NA14462   1.266   0.623  13.747  0.2058  0.4141  0.0784
  981SOD     NA14463   2.579   2.135  11.156 -0.6016  0.0940 -0.2754
  982SOD     NA14464   1.497   2.636  14.682  0.4862 -0.1683  0.5682
  983SOD     NA14465   4.414   4.252   3.125 -0.0200 -0.3087  0.0228
  984SOD     NA14466   0.675   3.825   5.279  0.3022 -0.0189  0.2311
  985SOD     NA14467   3.563   3.537  11.528 -0.3243  0.3971  0.2286
  986SOD     NA14468   1.555   0.083   2.157 -0.1379  0.1805  0.1355
  987SOD     NA14469   0.264   4.369   7.722  0.3117  0.0388  0.1415
  988SOD     NA14470   2.784   0.132   1.153  0.6118  0.1710  0.2380
  989SOD     NA14471   1.076   4.151   0.335  0.1275  0.0509 -0.2958
  990SOD     NA14472   2.786   1.594   3.243 -0.2140 -0.1203 -0.1059
  991SOD     NA14473   0.284   2.313  13.965  0.7072  0.0020  0.6826
  992SOD     NA14474   0.127   1.666   0.004 -0.4885  0.0469 -0.2686
  993SOD     NA14475   0.347   2.139   1.386 -0.5019  0.0811  0.1159
  994SOD     NA14476   4.304   1.467  10.620 -0.1259 -0.1058  0.1163
  995SOD     NA14477   0.778   1.830  14.100  0.3041 -0.2734  0.4359
  996SOD     NA14478   3.426   4.480   2.315 -0.0639  0.5337 -0.0104
  997SOD     NA14479   0.759   3.353   8.059 -0.0541 -0.2960  0.3575
  998SOD     NA14480   1.386   4.319   9.253 -0.3452 -0.0536  0.2865
  999SOD     NA14481   0.273   0.303   4.153  0.5063  0.3915 -0.1721
 1000SOD     NA14482   1.192   3.683  16.816  0.3289  0.4839 -0.4782
 1001SOD     NA14483   3.128   0.342  13.718  0.0353  0.0137  0.0539
 1002SOD     NA14484   0.318   3.687  13.469 -0.3126 -0.1614  0.1189
 1003SOD     NA14485   2.865   1.794  10.113 -0.0653 -0.3845  0.2353
 1004SOD     NA14486   4.601   2.285  11.691  0.2130  0.6563  0.0664
 1005SOD     NA14487   1.254   4.650  13.184  0.2714 -0.4743 -0.3360
 1006SOD     NA14488   3.259   3.877  10.368 -0.3554  0.0061  0.0156
 1007SOD     NA14489   0.507   2.429  11.084  0.1883 -0.0985  0.1641
 1008SOD     NA14490   1.975   0.613  15.202 -0.5008  0.1114 -0.4456
 1009SOD     NA14491   1.383   0.976   0.815 -0.0424  0.3188 -0.1400
 1010SOD     NA14492   1.643   1.051   2.474  0.1213 -0.4096  0.0903
 1011SOD     NA14493   0.130   3.130  14.908 -0.3330 -0.2312 -0.5730
 1012SOL     OW14494   2.544   0.185   0.666 -0.0413 -0.8382  0.1406
 1012SOL    HW114495   2.629   0.147   0.646  0.4291  0.4193 -0.2533
 1012SOL    HW214496   2.494   0.108   0.637 -1.7178  0.4367 -0.3357
 1013SOL     OW14497   2.595   1.920   5.653 -0.1894 -0.2472 -0.0540
 1013SOL    HW114498   2.648   1.847   5.684  3.2173  1.3950 -1.9601
 1013SOL    HW214499   2.529   1.877   5.599 -0.2504  0.3731 -0.4745
 1014SOL     OW14500   2.709   2.303   5.658  0.1205 -0.9405  0.1774
 1014SOL    HW114501   2.774   2.349   5.606  0.5066 -1.0173  0.5881
 1014SOL    HW214502   2.625   2.348   5.645  0.6717 -0.1438 -0.5649
 1015SOL     OW14503   2.326   4.220   5.941  1.1340  0.2583  0.2840
 1015SOL    HW114504   2.347   4.226   5.848  0.9795 -0.2020  0.2245
 1015SOL    HW214505   2.275   4.140   5.948  1.2684  0.0460 -1.2233
 1016SOL     OW14506   3.078   3.862   4.808 -0.4513 -0.0845  0.4771
 1016SOL    HW114507   3.102   3.888   4.719  0.3399  0.7045  0.9146
 1016SOL    HW214508   3.087   3.767   4.805 -0.2589 -0.1148  2.0462
 1017SOL     OW14509   0.002   3.214   6.599 -0.1567  0.4121  0.2768
 1017SOL    HW114510   0.045   3.227   6.515 -1.9377  0.5111 -0.6206
 1017SOL    HW214511   4.659   3.281   6.588 -0.2259  0.3802  0.4966
 1018SOL     OW14512   3.037   4.285  13.627 -0.3634 -0.1100  0.3057
 1018SOL    HW114513   2.991   4.203  13.643  0.4028 -0.7152 -0.6007
 1018SOL    HW214514   2.979   4.336  13.570 -0.6601 -1.1001 -0.2735
 1019SOL     OW14515   1.883   4.450   4.832 -0.5818  0.4834 -0.4135
 1019SOL    HW114516   1.826   4.525   4.849 -2.1342 -0.1093 -3.0134
 1019SOL    HW214517   1.874   4.455   4.737  2.2073 -0.0298 -0.6949
 1020SOL     OW14518   2.397   0.948  10.641 -0.1169  0.5737  0.3937
 1020SOL    HW114519   2.355   1.009  10.581  2.0139  0.5205 -1.1481
 1020SOL    HW214520   2.338   0.874  10.626 -2.4794  2.1096  2.1859
 1021SOL     OW14521   2.358   2.656  15.952  0.2203  0.0501  0.0079
 1021SOL    HW114522   2.376   2.580  15.897  2.2470 -0.2960  1.1517
 1021SOL    HW214523   2.350   2.721  15.881  1.9342  0.7262  0.4159
 1022SOL     OW14524   4.555   4.099   2.735  0.3306 -0.1066 -0.7161
 1022SOL    HW114525   4.623   4.108   2.668  2.1101 -0.9700  0.9952
 1022SOL    HW214526   4.490   4.049   2.685  1.4979 -1.7813 -0.5635
 1023SOL     OW14527   3.666   3.992   7.362 -0.4091  0.4745  0.0058
 1023SOL    HW114528   3.635   3.927   7.298  0.1129  0.2832 -0.0487
 1023SOL    HW214529   3.597   4.001   7.427 -0.7729 -2.6787  0.0780
 1024SOL     OW14530   4.444   1.888   4.735 -0.0156  0.0897  0.4391
 1024SOL    HW114531   4.353   1.917   4.729  0.0561  0.3213  0.4642
 1024SOL    HW214532   4.488   1.973   4.727  0.9308 -0.3149  1.4590
 1025SOL     OW14533   4.259   1.014   6.732 -0.0619 -0.0508 -0.0797
 1025SOL    HW114534   4.328   1.063   6.777 -0.3460  0.9118 -0.6925
 1025SOL    HW214535   4.209   0.969   6.801 -1.1357  1.7411  0.3080
 1026SOL     OW14536   3.595   1.012   1.896  1.1089  0.3732 -0.2324
 1026SOL    HW114537   3.562   0.925   1.872 -0.3482  0.6779  0.6642
 1026SOL    HW214538   3.690   1.001   1.899  1.2240  1.6969  0.8743
 1027SOL     OW14539   1.955   1.437   5.172 -0.0553  0.6808 -0.8161
 1027SOL    HW114540   2.050   1.444   5.181 -0.2613 -0.9922  2.8285
 1027SOL    HW214541   1.934   1.484   5.091  0.7894  2.0281 -0.2562
 1028SOL     OW14542   3.314   2.722  12.670 -0.5980  0.2331 -0.1098
 1028SOL    HW114543   3.273   2.805  12.693  1.3911  0.3082  3.0861
 1028SOL    HW214544   3.335   2.734  12.577  0.0427 -0.5607 -0.0674
 1029SOL     OW14545   0.805   1.108   6.139  0.0019  0.5822  0.2783
 1029SOL    HW114546   0.854   1.113   6.221 -1.6622 -0.5920  1.3445
 1029SOL    HW214547   0.723   1.066   6.165 -0.4272  0.1192 -1.8437
 1030SOL     OW14548   0.386   1.532   6.833 -0.2612  0.1021 -0.2484
 1030SOL    HW114549   0.470   1.522   6.877 -1.2235 -3.4120  0.7305
 1030SOL    HW214550   0.340   1.536   6.916  1.2745  0.1969  0.5996
 1031SOL     OW14551   4.351   4.110   7.732 -0.1062 -0.2597  0.0816
 1031SOL    HW114552   4.278   4.120   7.671 -0.8584  0.8033  1.1422
 1031SOL    HW214553   4.333   4.175   7.800  0.0677  1.5066 -1.5479
 1032SOL     OW14554   2.134   2.501  16.611  0.2246 -0.6734  0.0054
 1032SOL    HW114555   2.081   2.535  16.538  1.8719 -2.2947 -1.9442
 1032SOL    HW214556   2.197   2.445  16.566 -1.4932 -1.0591 -1.8959
 1033SOL     OW14557   0.804   2.124   3.681  0.2563 -0.1434  0.0796
 1033SOL    HW114558   0.755   2.195   3.723  0.6163 -0.0592  0.3566
 1033SOL    HW214559   0.746   2.068   3.630  1.4449 -1.3801  0.0863
 1034SOL     OW14560   4.257   3.615   2.132 -0.1371  0.1686 -0.1373
 1034SOL    HW114561   4.227   3.664   2.208 -0.8131  1.8305 -1.4587
 1034SOL    HW214562   4.321   3.676   2.094  0.3306 -0.3197 -0.1369
 1035SOL     OW14563   0.437   4.106   5.723 -0.7094 -0.7269  0.1003
 1035SOL    HW114564   0.389   4.162   5.784 -0.4828  0.1289 -0.5096
 1035SOL    HW214565   0.505   4.064   5.775 -0.5647  0.3831  0.8020
 1036SOL     OW14566   1.553   0.558  10.314 -0.0114  0.8535 -0.0641
 1036SOL    HW114567   1.555   0.520  10.402 -1.5150  3.6918  1.1798
 1036SOL    HW214568   1.623   0.511  10.267 -1.4785 -2.9955  1.5861
 1037SOL     OW14569   3.575   3.225   1.844 -0.2417 -0.3388  0.1565
 1037SOL    HW114570   3.533   3.155   1.894  2.2478 -0.6919  1.7428
 1037SOL    HW214571   3.635   3.257   1.911 -1.9079 -2.2383  2.5230
 1038SOL     OW14572   2.286   1.004   8.260 -0.7040 -0.6052 -0.3842
 1038SOL    HW114573   2.234   0.992   8.340 -0.1651 -1.4050 -0.1521
 1038SOL    HW214574   2.368   0.957   8.268 -1.7152 -2.2612  0.3713
 1039SOL     OW14575   0.192   2.519   1.842  0.1404  0.3443  0.3153
 1039SOL    HW114576   0.268   2.551   1.795 -0.9711  0.5724 -1.3253
 1039SOL    HW214577   0.167   2.454   1.777  0.9975 -0.1858  0.5231
 1040SOL     OW14578   2.697   2.212  14.529 -0.2108  0.0799 -0.3400
 1040SOL    HW114579   2.601   2.213  14.524 -0.2153 -2.0327 -0.9470
 1040SOL    HW214580   2.723   2.257  14.449  1.4924  0.8278  0.6577
 1041SOL     OW14581   2.266   4.251   3.655 -0.3558 -0.7682 -0.2124
 1041SOL    HW114582   2.285   4.223   3.745 -2.0047  0.7861  0.6088
 1041SOL    HW214583   2.174   4.273   3.666  0.3013  2.6346 -1.2837
 1042SOL     OW14584   3.716   4.227  12.838  0.5440 -0.2285  1.0523
 1042SOL    HW114585   3.736   4.305  12.785  1.1098 -2.0811 -1.4666
 1042SOL    HW214586   3.720   4.156  12.774 -0.2785  0.5744  0.1071
 1043SOL     OW14587   4.300   2.372   6.498 -0.0436  0.1539  0.8792
 1043SOL    HW114588   4.231   2.337   6.441  0.7508  0.5600 -0.3468
 1043SOL    HW214589   4.377   2.345   6.447 -1.6305 -0.3359 -1.2502
 1044SOL     OW14590   3.400   1.100   5.111 -0.5413 -0.4923  0.3703
 1044SOL    HW114591   3.457   1.053   5.050  0.7082  0.4270  0.8268
 1044SOL    HW214592   3.425   1.191   5.095  1.0659 -0.8746  0.6219
 1045SOL     OW14593   4.591   3.806   4.975  0.5445  0.6066  0.2208
 1045SOL    HW114594   4.568   3.885   5.024 -0.2182 -0.3930  1.4612
 1045SOL    HW214595   4.659   3.769   5.032  1.0033 -1.5042 -1.6960
 1046SOL     OW14596   2.478   1.366   6.555  0.4463  0.3255 -0.1261
 1046SOL    HW114597   2.405   1.327   6.507 -1.1572  2.6778  0.3839
 1046SOL    HW214598   2.490   1.450   6.510 -0.5354 -0.2011 -1.3618
 1047SOL     OW14599   2.854   3.278   8.565 -0.6861  0.4746 -0.1507
 1047SOL    HW114600   2.815   3.195   8.593  1.2354  0.3897  2.3137
 1047SOL    HW214601   2.796   3.345   8.600 -0.1730  0.3421  0.9630
 1048SOL     OW14602   0.722   2.954   3.320  0.3607 -0.0016  0.5899
 1048SOL    HW114603   0.738   2.942   3.413 -0.0830 -2.7903  0.2928
 1048SOL    HW214604   0.804   2.990   3.285  0.1272  0.8887  0.9706
 1049SOL     OW14605   1.160   3.008  15.384 -0.6620  0.9669  0.5883
 1049SOL    HW114606   1.247   3.017  15.345 -0.1278 -1.2754  1.2726
 1049SOL    HW214607   1.137   2.918  15.362  2.0794  0.0140  1.6244
 1050SOL     OW14608   3.827   4.381  14.634 -0.5808 -0.4158 -0.3354
 1050SOL    HW114609   3.780   4.423  14.562 -1.7472 -0.0926  0.6212
 1050SOL    HW214610   3.810   4.441  14.707  1.4364  0.0852 -0.2985
 1051SOL     OW14611   1.493   0.883   7.944 -0.1518  0.1107 -0.2189
 1051SOL    HW114612   1.501   0.978   7.936  3.0150 -0.2406 -0.9913
 1051SOL    HW214613   1.517   0.857   8.033 -0.0539  0.6449 -0.0907
 1052SOL     OW14614   1.475   4.590   2.599 -0.1928 -0.1759 -0.6605
 1052SOL    HW114615   1.437   4.627   2.679 -0.0412  1.7263 -1.4754
 1052SOL    HW214616   1.560   4.634   2.602 -0.2361 -0.2533  1.5029
 1053SOL     OW14617   1.606   3.493   6.297  0.3924 -0.0923  0.2975
 1053SOL    HW114618   1.652   3.560   6.348  1.0069 -1.3411  1.3767
 1053SOL    HW214619   1.645   3.415   6.337 -0.5863 -0.2950  0.8471
 1054SOL     OW14620   2.561   0.554   9.025 -0.3894 -0.4904 -0.0389
 1054SOL    HW114621   2.592   0.473   8.983 -1.6337 -0.8472 -0.2528
 1054SOL    HW214622   2.611   0.548   9.107  0.3008 -1.3456 -0.5173
 1055SOL     OW14623   1.173   2.289   8.419  0.0603 -0.1117  0.1291
 1055SOL    HW114624   1.124   2.353   8.471 -0.6277 -0.4165 -0.1490
 1055SOL    HW214625   1.208   2.224   8.480 -1.2100 -0.8789  0.0283
 1056SOL     OW14626   4.502   2.396   7.039  0.2989  0.2210 -0.4218
 1056SOL    HW114627   4.559   2.471   7.018 -0.3678  0.3394 -1.7713
 1056SOL    HW214628   4.467   2.365   6.956  0.4495 -0.5343 -0.2014
 1057SOL     OW14629   1.264   2.601   5.547 -0.3604  0.5763  0.0106
 1057SOL    HW114630   1.205   2.584   5.473 -1.7211 -1.2089  1.5208
 1057SOL    HW214631   1.201   2.580   5.616  0.3458  0.6305  0.6713
 1058SOL     OW14632   4.372   3.990   5.426 -0.4067  0.3268 -0.0247
 1058SOL    HW114633   4.382   3.900   5.457 -1.1076  1.3902  3.2970
 1058SOL    HW214634   4.285   3.985   5.386 -0.0469 -1.7265 -0.5667
 1059SOL     OW14635   4.330   1.262   6.200  0.0408  0.0649 -0.0826
 1059SOL    HW114636   4.323   1.195   6.268  0.8949 -0.9001 -0.9569
 1059SOL    HW214637   4.407   1.235   6.150  0.3015  0.0851  0.3075
 1060SOL     OW14638   2.541   2.201   5.930  0.4246  0.1886  0.0453
 1060SOL    HW114639   2.524   2.295   5.931  0.6576  0.2419 -1.1310
 1060SOL    HW214640   2.608   2.186   5.997 -0.6204  1.9061  1.4772
 1061SOL     OW14641   4.350   0.228   8.647  0.1836 -0.1357  0.2288
 1061SOL    HW114642   4.322   0.139   8.627  2.0834 -0.4394 -1.1359
 1061SOL    HW214643   4.430   0.221   8.595 -0.0786 -0.3515 -0.1457
 1062SOL     OW14644   0.902   2.869  14.023 -0.4683  0.4386  0.0842
 1062SOL    HW114645   0.869   2.930  13.957 -1.4784  1.2886  1.3640
 1062SOL    HW214646   0.958   2.811  13.971 -1.0836  1.3314 -1.5849
 1063SOL     OW14647   3.532   3.067  10.085  0.5438 -0.7631 -0.0905
 1063SOL    HW114648   3.627   3.057  10.094  0.8294 -0.8929 -3.4388
 1063SOL    HW214649   3.501   2.977  10.085 -2.2318  0.1849  0.0931
 1064SOL     OW14650   1.033   3.686   7.501  0.0251 -1.0826  0.0663
 1064SOL    HW114651   1.112   3.736   7.479 -0.3870 -0.4813 -0.0426
 1064SOL    HW214652   0.968   3.755   7.490  0.0293 -0.7680  1.9961
 1065SOL     OW14653   3.095   4.520  17.200 -0.3448 -1.0270  0.1238
 1065SOL    HW114654   3.032   4.448  17.194 -0.5373 -0.8308 -0.2341
 1065SOL    HW214655   3.047   4.584  17.147 -0.5998 -1.5653 -0.3000
 1066SOL     OW14656   4.380   2.504  14.280 -0.1466 -0.2089 -0.7706
 1066SOL    HW114657   4.415   2.484  14.368  0.8440 -0.0234 -1.1164
 1066SOL    HW214658   4.287   2.494  14.298  0.3690 -1.8876  1.0533
 1067SOL     OW14659   0.247   2.201   7.671 -0.3615  0.5469 -0.6821
 1067SOL    HW114660   0.305   2.276   7.682  0.5987 -0.4873  1.2372
 1067SOL    HW214661   0.184   2.239   7.610  0.9808  0.2158 -2.2910
 1068SOL     OW14662   2.255   2.871  13.965 -0.2690 -0.0682 -0.4774
 1068SOL    HW114663   2.175   2.895  13.918 -0.9113 -0.2323  0.5288
 1068SOL    HW214664   2.229   2.909  14.050 -0.1338 -2.4399  0.6228
 1069SOL     OW14665   3.050   3.625  11.084  0.6165  0.3527 -0.0467
 1069SOL    HW114666   3.063   3.716  11.110  2.4528  0.0922 -0.0566
 1069SOL    HW214667   3.021   3.642  10.995  1.5103  1.6724 -0.0791
 1070SOL     OW14668   1.534   3.574   8.964 -0.1786 -0.2739  0.1858
 1070SOL    HW114669   1.559   3.593   8.874  0.5680 -2.9537 -0.1682
 1070SOL    HW214670   1.455   3.626   8.977 -0.0954 -0.3391  0.9811
 1071SOL     OW14671   1.258   3.893   3.065 -0.4446 -0.2687  0.3917
 1071SOL    HW114672   1.192   3.958   3.088  1.0998  1.2030  0.6759
 1071SOL    HW214673   1.297   3.923   2.983 -1.0914  1.2091  0.6368
 1072SOL     OW14674   3.254   3.746   6.343 -0.2707 -0.2633 -0.4637
 1072SOL    HW114675   3.274   3.661   6.304 -1.9955 -1.3737  1.0588
 1072SOL    HW214676   3.225   3.721   6.431  0.9900 -0.8931 -0.2306
 1073SOL     OW14677   0.445   4.534  17.288 -0.0600  0.3784 -0.4424
 1073SOL    HW114678   0.399   4.579  17.216  1.0201  0.8801 -0.8158
 1073SOL    HW214679   0.537   4.552  17.269  0.2852  0.4987  1.4275
 1074SOL     OW14680   1.791   0.481  10.592  0.3468  0.3647  0.5223
 1074SOL    HW114681   1.771   0.427  10.669 -1.4414 -0.2634 -0.3699
 1074SOL    HW214682   1.789   0.409  10.528 -2.8886  0.2516  0.7417
 1075SOL     OW14683   1.995   2.104   4.081 -1.6086 -0.1097 -0.0633
 1075SOL    HW114684   1.991   2.118   4.175 -1.3842  2.0691 -0.3888
 1075SOL    HW214685   2.011   2.195   4.056  2.2157 -0.5993  0.6116
 1076SOL     OW14686   3.601   0.146   6.067  0.8242  0.3252  0.5734
 1076SOL    HW114687   3.640   0.131   6.153  1.0448  0.3063  0.4701
 1076SOL    HW214688   3.513   0.143   6.106  0.7765 -0.3468  0.4176
 1077SOL     OW14689   2.499   2.274   8.952  0.5764 -1.0718 -0.0265
 1077SOL    HW114690   2.522   2.295   9.042 -2.4424 -1.1654  0.7675
 1077SOL    HW214691   2.413   2.314   8.942  1.6503  1.3478  0.3022
 1078SOL     OW14692   2.150   0.443  15.140  0.1682 -0.1903  0.3846
 1078SOL    HW114693   2.078   0.430  15.078 -0.3565  2.0140  0.5356
 1078SOL    HW214694   2.214   0.375  15.120  0.2881 -0.4560  1.6820
 1079SOL     OW14695   3.973   2.439   5.881 -0.1768 -0.3231 -0.1345
 1079SOL    HW114696   4.008   2.488   5.806 -0.3217 -0.8384 -0.5392
 1079SOL    HW214697   3.945   2.360   5.836  2.6086 -2.0963  1.2677
 1080SOL     OW14698   3.385   1.593  16.682 -0.0495  0.2803 -0.5374
 1080SOL    HW114699   3.368   1.657  16.613  0.8710  0.6659 -0.4179
 1080SOL    HW214700   3.297   1.569  16.711 -0.1362 -0.2029 -1.2016
 1081SOL     OW14701   3.019   0.372   9.194  0.0092 -0.1484 -0.3098
 1081SOL    HW114702   2.944   0.339   9.243  1.0173 -0.4304  1.0302
 1081SOL    HW214703   3.055   0.289   9.162  2.0594  0.9287 -0.8221
 1082SOL     OW14704   0.909   2.216   9.809  0.0467 -0.2443 -0.2174
 1082SOL    HW114705   0.851   2.208   9.733 -0.4181  1.7119 -0.0630
 1082SOL    HW214706   0.963   2.136   9.805  1.4065  0.6554  0.0828
 1083SOL     OW14707   2.871   4.569  16.942  0.1801  0.7405 -0.3286
 1083SOL    HW114708   2.860   4.639  16.877  1.3893 -1.0277 -2.4189
 1083SOL    HW214709   2.821   4.597  17.019 -1.3344  0.0291 -1.0312
 1084SOL     OW14710   1.701   2.259  15.341 -0.0046  0.2255  0.6345
 1084SOL    HW114711   1.635   2.223  15.282  1.7330 -3.3646  0.8581
 1084SOL    HW214712   1.662   2.252  15.428 -0.6050  0.9240  0.4147
 1085SOL     OW14713   2.127   1.081  11.977  0.6620  0.6568 -0.2689
 1085SOL    HW114714   2.038   1.116  11.969  0.2633 -0.4910 -1.0160
 1085SOL    HW214715   2.121   1.011  11.911 -0.3392 -0.9178  1.4854
 1086SOL     OW14716   0.486   2.573   0.501 -0.1199 -0.0270  0.5233
 1086SOL    HW114717   0.477   2.601   0.592  0.0282 -1.6086  1.0286
 1086SOL    HW214718   0.446   2.647   0.456 -2.4366 -0.7429  1.3696
 1087SOL     OW14719   1.088   3.934   4.487  0.0459 -0.0734  0.5028
 1087SOL    HW114720   1.032   4.008   4.511  1.2017  1.1978 -0.7253
 1087SOL    HW214721   1.108   3.954   4.396  0.8537 -0.8331  0.5226
 1088SOL     OW14722   3.882   1.588   6.293 -0.3318 -0.2876  0.0192
 1088SOL    HW114723   3.881   1.602   6.198  1.1135  2.4135  0.3776
 1088SOL    HW214724   3.960   1.534   6.306 -0.6402 -0.7434 -0.0238
 1089SOL     OW14725   1.108   1.027  11.986  0.0998  0.2741  0.0015
 1089SOL    HW114726   1.148   1.045  11.901  1.0265 -0.9971  0.1676
 1089SOL    HW214727   1.145   1.105  12.026  0.7578 -1.5049  2.8376
 1090SOL     OW14728   3.736   4.095   9.078 -0.5428  0.7012  0.1579
 1090SOL    HW114729   3.727   4.037   9.001  2.3423  1.5862 -0.8226
 1090SOL    HW214730   3.659   4.067   9.128 -0.2520  1.1399  0.8472
 1091SOL     OW14731   0.996   1.764  14.040 -0.3325  0.0511 -0.6825
 1091SOL    HW114732   1.051   1.728  13.972  0.0144 -0.9760  0.1359
 1091SOL    HW214733   1.005   1.858  14.023  1.2130 -0.0478 -0.4146
 1092SOL     OW14734   4.553   1.935   3.334 -0.4039 -0.1578  0.1973
 1092SOL    HW114735   4.466   1.943   3.374 -0.9592  0.0433 -1.0252
 1092SOL    HW214736   4.546   1.871   3.263 -0.1103 -1.8661  1.7026
 1093SOL     OW14737   4.036   4.263   8.949  0.3641  0.6616 -0.2077
 1093SOL    HW114738   4.055   4.233   9.038 -0.6226 -2.4304 -1.0539
 1093SOL    HW214739   4.076   4.197   8.893 -0.4061  0.6737 -0.7680
 1094SOL     OW14740   4.483   2.950   2.119  0.1217  0.0062  0.1044
 1094SOL    HW114741   4.578   2.967   2.118  0.1015  0.1496  0.6197
 1094SOL    HW214742   4.451   3.022   2.173 -0.7904 -0.6081  0.3694
 1095SOL     OW14743   0.700   4.406   5.234 -0.2765  0.6419  0.5670
 1095SOL    HW114744   0.719   4.500   5.246 -2.1564  0.9975  0.7772
 1095SOL    HW214745   0.721   4.395   5.142  2.4572 -1.0024  1.3934
 1096SOL     OW14746   3.556   3.814  14.946 -0.1485 -0.3174 -0.2691
 1096SOL    HW114747   3.622   3.874  14.979  0.9509 -0.5792 -2.0057
 1096SOL    HW214748   3.608   3.737  14.923 -0.2542 -0.2937 -0.5975
 1097SOL     OW14749   3.516   0.972   5.814  0.1296 -0.2005 -0.8269
 1097SOL    HW114750   3.598   1.020   5.826  0.9003 -1.6677 -0.1937
 1097SOL    HW214751   3.463   1.018   5.879  0.7337 -0.6499 -0.0245
 1098SOL     OW14752   0.684   2.875   3.759  0.4392 -0.5327 -0.2874
 1098SOL    HW114753   0.595   2.891   3.728  1.3182 -0.6773 -2.8850
 1098SOL    HW214754   0.667   2.851   3.850 -0.6285 -1.8463 -0.8170
 1099SOL     OW14755   0.667   1.415   7.686  0.0400  0.0971  0.1398
 1099SOL    HW114756   0.628   1.493   7.725  0.4551  0.3820 -0.0165
 1099SOL    HW214757   0.655   1.441   7.595 -1.1182 -1.6069 -0.2004
 1100SOL     OW14758   3.594   4.359   4.444 -0.1256 -0.1627  0.3365
 1100SOL    HW114759   3.635   4.443   4.467 -3.0710  2.1328 -2.7883
 1100SOL    HW214760   3.660   4.306   4.399 -1.1051 -0.2509 -0.9870
 1101SOL     OW14761   3.710   3.290   8.585  0.3538  0.0746 -0.0458
 1101SOL    HW114762   3.722   3.248   8.500  1.8731  2.2688 -0.9012
 1101SOL    HW214763   3.738   3.216   8.640  3.6414  1.4675  0.1402
 1102SOL     OW14764   0.143   0.305   5.250 -0.3669 -0.0503 -0.3554
 1102SOL    HW114765   0.199   0.381   5.263 -0.9102  0.6567 -2.1509
 1102SOL    HW214766   0.163   0.261   5.167  0.9244 -0.8926  0.4037
 1103SOL     OW14767   2.341   2.971   4.755  0.0773  0.0425 -0.2804
 1103SOL    HW114768   2.320   3.058   4.789  1.0203  0.3314 -0.4579
 1103SOL    HW214769   2.376   2.930   4.835 -0.4061  2.6748  1.2655
 1104SOL     OW14770   4.292   1.282   3.177 -0.5080 -0.0716 -0.6165
 1104SOL    HW114771   4.287   1.374   3.203 -0.2516 -0.4481  0.7929
 1104SOL    HW214772   4.377   1.277   3.134  0.9792  0.1605  2.2677
 1105SOL     OW14773   3.206   1.849   6.637 -0.4854  0.6689  0.2553
 1105SOL    HW114774   3.166   1.891   6.713 -1.4458 -1.6891  1.0519
 1105SOL    HW214775   3.157   1.889   6.566 -0.7546  2.6309  1.5354
 1106SOL     OW14776   3.648   1.902  14.292  0.0732  0.0200  0.1293
 1106SOL    HW114777   3.673   1.912  14.384  1.4887  1.3680 -0.4169
 1106SOL    HW214778   3.672   1.987  14.255  0.8254 -0.3542 -0.2445
 1107SOL     OW14779   0.504   0.692  17.066 -0.1045  0.2180  0.1880
 1107SOL    HW114780   0.509   0.769  17.010 -0.2191  1.0320  1.3146
 1107SOL    HW214781   0.413   0.665  17.053  0.6317 -1.9871 -0.5340
 1108SOL     OW14782   0.505   3.284   6.076 -0.7675 -0.0097  0.3138
 1108SOL    HW114783   0.594   3.250   6.084 -0.5090  0.3093 -1.1480
 1108SOL    HW214784   0.518   3.354   6.012  1.3509 -0.4571  0.2423
 1109SOL     OW14785   3.751   3.878   3.176  0.1111 -0.1857  0.3266
 1109SOL    HW114786   3.826   3.819   3.184  0.0872 -0.5133 -1.8936
 1109SOL    HW214787   3.735   3.880   3.082 -0.1118  0.5481  0.3785
 1110SOL     OW14788   0.749   4.113   2.783  0.1275 -0.0364 -0.0021
 1110SOL    HW114789   0.788   4.183   2.731 -1.8789 -0.1333 -1.6305
 1110SOL    HW214790   0.736   4.057   2.706  1.6995 -0.5542  0.1096
 1111SOL     OW14791   1.038   0.444   6.086  0.7283 -0.4669 -0.6247
 1111SOL    HW114792   1.061   0.352   6.075 -0.0771 -0.6510 -0.7155
 1111SOL    HW214793   1.110   0.466   6.146  1.7510 -1.7958 -1.3881
 1112SOL     OW14794   1.945   4.241   2.649  0.1736  0.0253  0.0071
 1112SOL    HW114795   1.962   4.147   2.661 -0.0434  0.4100  3.4216
 1112SOL    HW214796   1.872   4.237   2.588 -0.3628 -1.1477  0.7307
 1113SOL     OW14797   0.681   2.904  14.226 -0.4697 -0.0578 -0.1262
 1113SOL    HW114798   0.731   2.922  14.306 -0.3612 -1.8060  0.2040
 1113SOL    HW214799   0.595   2.876  14.259 -0.2850 -1.0034 -0.4407
 1114SOL     OW14800   2.076   1.319   2.233  0.1768  0.2958 -0.5525
 1114SOL    HW114801   2.132   1.258   2.282 -0.0671  0.2005 -0.3928
 1114SOL    HW214802   2.031   1.262   2.171  1.1067  0.0390 -0.9908
 1115SOL     OW14803   2.679   2.952   3.314  0.0270 -0.4133 -1.0266
 1115SOL    HW114804   2.768   2.916   3.309  0.7435  0.9331  1.9985
 1115SOL    HW214805   2.708   3.038   3.283  2.4590 -1.3937 -1.4882
 1116SOL     OW14806   1.672   1.690   5.061  0.5218  0.3203 -0.0697
 1116SOL    HW114807   1.583   1.696   5.029  0.2826  1.0132  0.7345
 1116SOL    HW214808   1.653   1.671   5.153  0.0563  1.1441  0.0000
 1117SOL     OW14809   1.574   3.321  17.400 -0.0006  0.5767 -0.0677
 1117SOL    HW114810   1.493   3.348  17.442 -0.5750  1.0764 -1.4897
 1117SOL    HW214811   1.571   3.226  17.412 -0.4677  0.2901 -2.3827
 1118SOL     OW14812   2.020   2.264   4.518 -0.0955  0.3146  0.2602
 1118SOL    HW114813   2.038   2.356   4.497 -0.2546  0.3876  0.4433
 1118SOL    HW214814   2.095   2.248   4.575 -0.2463 -0.8543  0.1137
 1119SOL     OW14815   1.877   2.778   0.889  0.3644  0.8260 -0.2698
 1119SOL    HW114816   1.967   2.799   0.912  0.7982 -2.0365  0.5712
 1119SOL    HW214817   1.827   2.830   0.952  0.9999  1.4366 -0.2657
 1120SOL     OW14818   3.850   1.294   6.771  0.0205  0.8456 -0.1247
 1120SOL    HW114819   3.782   1.338   6.720  0.4379 -2.4295 -3.5442
 1120SOL    HW214820   3.883   1.364   6.827 -2.1271  1.4697  0.3533
 1121SOL     OW14821   2.622   0.348   5.086 -0.4424  1.1515 -0.5918
 1121SOL    HW114822   2.539   0.368   5.128 -0.9158  0.3478 -1.1379
 1121SOL    HW214823   2.679   0.424   5.099 -0.5140  1.2520 -0.8554
 1122SOL     OW14824   1.343   4.350   6.685  0.6693 -0.4539 -0.3900
 1122SOL    HW114825   1.251   4.326   6.696  0.6257  0.5919  1.3851
 1122SOL    HW214826   1.337   4.334   6.590  0.2023 -0.5569 -0.3432
 1123SOL     OW14827   2.306   4.277   7.824 -0.1211  0.1398  0.1965
 1123SOL    HW114828   2.289   4.222   7.748  2.6026  1.0874 -1.1221
 1123SOL    HW214829   2.268   4.236   7.902  0.4664 -0.0192  0.3946
 1124SOL     OW14830   1.735   2.415   8.954 -0.1232  0.1998 -1.0164
 1124SOL    HW114831   1.815   2.387   8.998 -0.0254 -0.2651 -1.4905
 1124SOL    HW214832   1.723   2.504   8.988  0.7645  0.2318 -0.7954
 1125SOL     OW14833   1.731   3.805   2.543  0.3339 -0.1634 -0.0704
 1125SOL    HW114834   1.741   3.728   2.487  0.7857  0.4241 -0.7798
 1125SOL    HW214835   1.652   3.840   2.502  0.1362  0.4106  0.7941
 1126SOL     OW14836   4.469   0.307   5.613 -0.0950  0.2047  0.1785
 1126SOL    HW114837   4.430   0.342   5.532  0.0364  2.3779  1.0382
 1126SOL    HW214838   4.433   0.366   5.679  2.4226  2.2162 -0.2583
 1127SOL     OW14839   3.990   0.091   6.343 -0.2349 -0.1431 -0.1867
 1127SOL    HW114840   4.016   0.171   6.388  0.2463 -0.7296  0.5781
 1127SOL    HW214841   3.999   0.025   6.412 -0.7548 -1.0319 -0.9690
 1128SOL     OW14842   2.746   4.672  17.147 -0.0586 -0.2720 -0.3516
 1128SOL    HW114843   2.652   4.672  17.168  0.2812  1.5695  1.2041
 1128SOL    HW214844   2.780   4.689  17.235 -1.9642  0.8283  0.1687
 1129SOL     OW14845   3.261   1.864   4.780  0.9077  0.5027  0.3156
 1129SOL    HW114846   3.213   1.944   4.758 -0.6063 -0.0015  1.7712
 1129SOL    HW214847   3.264   1.873   4.875  2.7009  2.5259  0.0820
 1130SOL     OW14848   0.535   1.360   5.271  0.5188  0.5374 -0.4883
 1130SOL    HW114849   0.572   1.323   5.191 -3.2560 -0.4682 -1.7626
 1130SOL    HW214850   0.448   1.321   5.260  0.1204  1.6702 -1.3113
 1131SOL     OW14851   3.802   2.292   0.853 -0.3528  0.2882 -0.2343
 1131SOL    HW114852   3.795   2.202   0.823  0.4526 -0.1458  0.8505
 1131SOL    HW214853   3.838   2.274   0.941  0.7106 -1.9526 -1.1386
 1132SOL     OW14854   0.474   2.180   6.217 -0.2713  0.2033  0.2699
 1132SOL    HW114855   0.490   2.086   6.213 -0.6760  0.0068  3.5336
 1132SOL    HW214856   0.404   2.179   6.282  0.7706  0.4684  1.3770
 1133SOL     OW14857   3.038   3.785   2.085  0.3204 -0.1364  0.3655
 1133SOL    HW114858   3.042   3.735   2.004 -0.2593 -1.7537  1.3343
 1133SOL    HW214859   3.115   3.743   2.124 -0.1524 -1.6318 -0.3368
 1134SOL     OW14860   0.356   4.690  11.833  0.3999 -0.3014 -0.8761
 1134SOL    HW114861   0.433   0.006  11.793  1.1597  1.0023  1.9003
 1134SOL    HW214862   0.402   4.628  11.890 -1.1409  0.7276  1.4601
 1135SOL     OW14863   3.090   4.584  14.589  0.3609  0.0744  0.8053
 1135SOL    HW114864   3.062   4.648  14.524 -1.0774  0.7199  2.0530
 1135SOL    HW214865   3.103   4.649  14.659  1.1257 -0.1537  0.8750
 1136SOL     OW14866   2.672   1.938   8.003  0.1181  0.8115 -0.0785
 1136SOL    HW114867   2.598   1.888   8.037 -0.2307  1.0581 -0.4792
 1136SOL    HW214868   2.696   1.878   7.932  0.8133 -1.5368  2.1206
 1137SOL     OW14869   2.467   4.401   5.333 -0.0896 -0.5006  0.0739
 1137SOL    HW114870   2.376   4.380   5.354  0.7480 -2.4869  1.7469
 1137SOL    HW214871   2.463   4.471   5.268  1.2949 -0.4703  0.0255
 1138SOL     OW14872   3.999   2.933  15.097  0.0038  0.4899 -0.3588
 1138SOL    HW114873   3.967   2.929  15.007 -0.9575  1.0122 -0.0441
 1138SOL    HW214874   3.938   2.988  15.146  1.2541 -0.4253  2.2208
 1139SOL     OW14875   0.225   3.001   0.550 -0.5018  0.3026 -0.9756
 1139SOL    HW114876   0.268   2.920   0.521 -0.8777  0.9821 -3.3998
 1139SOL    HW214877   0.256   3.058   0.479 -1.6219  2.7739  0.5657
 1140SOL     OW14878   3.858   1.684   8.028  0.7260 -0.2641 -0.0109
 1140SOL    HW114879   3.876   1.768   7.987  1.8257  0.7165  2.5088
 1140SOL    HW214880   3.847   1.689   8.123 -0.3265  1.1057 -0.2106
 1141SOL     OW14881   0.547   4.517   8.813 -0.3648  0.6536 -0.5693
 1141SOL    HW114882   0.493   4.493   8.738 -0.8219  0.0741 -0.0536
 1141SOL    HW214883   0.562   4.608   8.788 -0.5915  0.5442 -1.1016
 1142SOL     OW14884   0.616   4.652  10.568 -0.2644  0.3582  0.1230
 1142SOL    HW114885   0.576   4.588  10.626  2.3852  0.3299  1.8832
 1142SOL    HW214886   0.553   0.001  10.560  0.7037  1.0272 -1.5383
 1143SOL     OW14887   1.165   2.217   3.517 -0.1585 -0.7802 -0.1571
 1143SOL    HW114888   1.152   2.203   3.611  0.3554  2.5479  0.4347
 1143SOL    HW214889   1.078   2.204   3.480 -0.6963  0.3614  0.6986
 1144SOL     OW14890   0.814   0.842   4.713  0.1526  0.0959  0.2507
 1144SOL    HW114891   0.792   0.797   4.794  1.0089  0.8547  0.9146
 1144SOL    HW214892   0.890   0.794   4.680  0.5387  0.3155  0.8153
 1145SOL     OW14893   4.176   1.139  14.748 -0.4795  0.3964  0.2266
 1145SOL    HW114894   4.219   1.053  14.747 -1.8980 -0.2720 -1.2977
 1145SOL    HW214895   4.115   1.130  14.675  1.0619  0.6824 -1.1137
 1146SOL     OW14896   1.907   3.346   6.575 -0.2761  0.2453  0.1316
 1146SOL    HW114897   1.853   3.331   6.498  2.1447 -3.7983 -0.7507
 1146SOL    HW214898   1.871   3.281   6.635  1.3708 -0.3363  0.4786
 1147SOL     OW14899   1.809   3.686   4.103 -0.3937  0.1691 -0.2479
 1147SOL    HW114900   1.804   3.686   4.198 -0.0998  1.9261 -0.2290
 1147SOL    HW214901   1.832   3.595   4.087 -1.6691  0.0129 -1.1803
 1148SOL     OW14902   1.861   1.684   0.123  0.0461  0.1969 -0.6681
 1148SOL    HW114903   1.899   1.772   0.122  2.0074 -0.6718 -1.0282
 1148SOL    HW214904   1.830   1.675   0.032 -1.4384 -2.0925  0.0744
 1149SOL     OW14905   1.530   0.897   2.604  0.3324  0.7638 -0.3842
 1149SOL    HW114906   1.439   0.877   2.584  0.0263  1.0931  0.6394
 1149SOL    HW214907   1.543   0.849   2.686  0.4179  0.7567 -0.4022
 1150SOL     OW14908   3.116   2.966   2.080  0.1448 -0.2714  0.2279
 1150SOL    HW114909   3.131   2.875   2.107 -0.6166 -0.1772  0.9627
 1150SOL    HW214910   3.200   2.984   2.037  0.5086 -0.7091  0.7482
 1151SOL     OW14911   1.708   0.298   9.761  0.4293  0.3690  0.3921
 1151SOL    HW114912   1.628   0.308   9.813  0.0676 -1.4377  0.2055
 1151SOL    HW214913   1.665   0.332   9.683 -0.2765 -0.5939  0.3641
 1152SOL     OW14914   3.486   2.659   8.028 -0.1953 -0.0781  0.6135
 1152SOL    HW114915   3.530   2.744   8.023  0.2829 -0.3985 -0.7998
 1152SOL    HW214916   3.404   2.682   7.985 -0.1364 -1.4692 -0.2698
 1153SOL     OW14917   1.637   0.089  10.620  0.0029  0.2031 -0.2483
 1153SOL    HW114918   1.623   0.007  10.572 -0.8394  0.1801  0.0362
 1153SOL    HW214919   1.637   0.061  10.711  0.7957  0.7032 -0.0927
 1154SOL     OW14920   0.217   1.895   2.892  0.0372 -0.0688 -0.4431
 1154SOL    HW114921   0.200   1.950   2.816  0.7155  0.5545 -0.1384
 1154SOL    HW214922   0.279   1.840   2.843 -0.8506  0.7942 -2.5424
 1155SOL     OW14923   0.413   2.248  13.763  0.2453  0.3268  0.0473
 1155SOL    HW114924   0.501   2.272  13.736  0.3736 -2.3153 -1.8736
 1155SOL    HW214925   0.442   2.172  13.814 -0.6020 -0.2960 -0.3874
 1156SOL     OW14926   4.441   3.907   6.654  0.0635  0.2061  0.8428
 1156SOL    HW114927   4.374   3.898   6.586  1.7127  0.7459 -0.8614
 1156SOL    HW214928   4.509   3.849   6.620 -0.3208  0.8552 -1.0309
 1157SOL     OW14929   0.934   1.308   5.080  0.2501 -0.3455 -0.0040
 1157SOL    HW114930   0.900   1.249   5.013  1.1161 -0.6808 -0.1429
 1157SOL    HW214931   0.922   1.392   5.034  1.9880  0.8754  1.7598
 1158SOL     OW14932   3.774   1.530  15.765 -0.1572  0.2528 -0.0063
 1158SOL    HW114933   3.861   1.490  15.771  0.4306  1.4280 -0.8088
 1158SOL    HW214934   3.742   1.509  15.677  1.3968  1.1342 -0.7754
 1159SOL     OW14935   3.543   1.482   4.111  0.0590  0.1351 -0.1032
 1159SOL    HW114936   3.493   1.533   4.047  2.0984  2.2600 -0.0316
 1159SOL    HW214937   3.615   1.546   4.117  0.7999 -0.5628 -1.4449
 1160SOL     OW14938   1.586   2.655   3.679 -0.1855  0.1318 -0.0354
 1160SOL    HW114939   1.640   2.598   3.623 -0.0077  0.9895 -0.7417
 1160SOL    HW214940   1.500   2.622   3.652  0.2754 -0.3907 -0.8915
 1161SOL     OW14941   0.210   0.703  17.688  0.3776 -0.5117  0.0105
 1161SOL    HW114942   0.234   0.611  17.691 -1.5873 -0.9952  0.5745
 1161SOL    HW214943   0.155   0.721   0.066  0.6685  3.0887 -0.6313
 1162SOL     OW14944   3.037   0.691  13.407 -0.0981  0.8335 -0.4099
 1162SOL    HW114945   3.075   0.777  13.392  2.6495 -0.5916 -1.5516
 1162SOL    HW214946   3.102   0.627  13.377 -1.1092 -0.1768 -0.4598
 1163SOL     OW14947   1.799   3.125   2.685 -0.0133  0.3679 -0.3489
 1163SOL    HW114948   1.717   3.113   2.636  0.5906 -0.0246 -1.2579
 1163SOL    HW214949   1.782   3.207   2.732  0.3214 -0.0758  0.5443
 1164SOL     OW14950   0.337   0.353  10.817  0.8537 -0.1216  0.1787
 1164SOL    HW114951   0.414   0.408  10.831  0.3300  0.8413 -0.7358
 1164SOL    HW214952   0.324   0.331  10.909 -1.5735 -1.4897 -0.4718
 1165SOL     OW14953   3.875   2.191   5.765 -0.4734 -0.2948  0.0800
 1165SOL    HW114954   3.908   2.126   5.703 -1.8520 -0.1593 -0.8113
 1165SOL    HW214955   3.787   2.192   5.727 -0.3823 -3.5179 -0.2028
 1166SOL     OW14956   4.197   2.892   6.068 -0.2998  0.2792 -0.5602
 1166SOL    HW114957   4.265   2.829   6.092 -0.9989 -0.4326 -0.4456
 1166SOL    HW214958   4.258   2.964   6.058  0.8621 -0.5321  0.6829
 1167SOL     OW14959   0.064   1.823   2.105  0.1903  0.2957 -0.5116
 1167SOL    HW114960   0.148   1.790   2.074 -0.4387 -2.1139  0.3736
 1167SOL    HW214961   0.085   1.913   2.130 -0.9256 -0.2256  2.2310
 1168SOL     OW14962   2.868   4.703  15.431  0.1066  0.0152 -0.0845
 1168SOL    HW114963   2.837   0.035  15.502 -1.2116 -1.0197  0.1619
 1168SOL    HW214964   2.886   4.624  15.482  1.5050 -0.5746 -1.5017
 1169SOL     OW14965   0.265   3.551   5.937  0.5573  0.1064 -0.0337
 1169SOL    HW114966   0.313   3.543   6.020  0.5092 -2.0825 -0.2191
 1169SOL    HW214967   0.305   3.485   5.880 -1.2290 -1.8303  0.9455
 1170SOL     OW14968   2.957   1.942   7.442  0.1588  0.5138 -0.4518
 1170SOL    HW114969   2.882   1.996   7.467  0.0585  0.9681 -1.7549
 1170SOL    HW214970   3.026   2.006   7.458  0.8808  0.0622 -1.7950
 1171SOL     OW14971   2.426   2.147   1.894  0.4007  0.0804 -0.3084
 1171SOL    HW114972   2.494   2.182   1.953  0.1914  0.0287 -0.0382
 1171SOL    HW214973   2.359   2.144   1.962  0.9820  2.6334  0.3999
 1172SOL     OW14974   0.450   2.365   7.236  0.0930 -1.0702  0.1030
 1172SOL    HW114975   0.378   2.417   7.271 -1.5392 -2.2215 -1.5873
 1172SOL    HW214976   0.501   2.426   7.182 -0.3702 -0.4044  0.4202
 1173SOL     OW14977   2.370   1.843   6.003 -0.2010 -0.1227 -0.7339
 1173SOL    HW114978   2.316   1.831   6.080  1.5690 -2.9220  0.0888
 1173SOL    HW214979   2.313   1.868   5.930 -1.1501 -1.5746 -0.4916
 1174SOL     OW14980   4.364   1.096   9.215 -0.0098  0.0357 -0.3495
 1174SOL    HW114981   4.311   1.027   9.255  0.8054 -0.5716 -0.3407
 1174SOL    HW214982   4.444   1.047   9.199  0.9612  1.3244  0.5255
 1175SOL     OW14983   0.710   3.431   2.259 -0.1669 -0.4538  0.2499
 1175SOL    HW114984   0.739   3.515   2.223 -1.2001 -0.0107  0.4573
 1175SOL    HW214985   0.678   3.402   2.174  1.7421 -1.4169 -0.1366
 1176SOL     OW14986   4.179   2.597   6.812 -0.3632  0.4877  0.2191
 1176SOL    HW114987   4.114   2.528   6.797 -0.7218  1.1393 -1.2583
 1176SOL    HW214988   4.126   2.672   6.783 -0.7257 -0.2361 -0.9762
 1177SOL     OW14989   0.328   1.329   5.577 -0.1086 -0.3604 -0.3478
 1177SOL    HW114990   0.262   1.394   5.601 -0.0940  0.1537 -1.6917
 1177SOL    HW214991   0.281   1.287   5.504  0.2445 -1.6114  0.1503
 1178SOL     OW14992   0.070   0.615   5.144 -0.0383  0.1049  0.3845
 1178SOL    HW114993   4.718   0.582   5.096  1.2816  0.5242 -2.0140
 1178SOL    HW214994   0.064   0.571   5.229  1.2162 -0.2215  0.3025
 1179SOL     OW14995   3.933   2.657   7.051  0.6666 -0.0930 -0.0120
 1179SOL    HW114996   3.927   2.687   6.960 -0.4421 -1.6540 -0.4569
 1179SOL    HW214997   3.838   2.643   7.056  0.5461  0.5749 -0.3859
 1180SOL     OW14998   0.713   1.456   6.248 -0.0109 -0.4840 -0.3955
 1180SOL    HW114999   0.802   1.436   6.219 -0.0192  1.5112 -1.8109
 1180SOL    HW215000   0.724   1.551   6.240  0.7048 -0.4138  1.5479
 1181SOL     OW15001   3.128   0.042  15.383 -0.3502 -0.0123  0.2051
 1181SOL    HW115002   3.167   4.679  15.374  1.1393  0.7818 -1.3185
 1181SOL    HW215003   3.040   0.022  15.352 -0.5612  0.7530  0.3116
 1182SOL     OW15004   1.311   1.511   7.889 -0.1671 -0.9211 -0.6105
 1182SOL    HW115005   1.230   1.500   7.939 -0.0901  0.9332 -0.0935
 1182SOL    HW215006   1.349   1.423   7.894  0.1906 -0.7211  0.1425
 1183SOL     OW15007   0.706   3.414   9.779 -0.0751 -0.2465  0.3108
 1183SOL    HW115008   0.666   3.328   9.763 -2.7523  1.6710 -3.1860
 1183SOL    HW215009   0.749   3.396   9.863 -0.2677 -0.4610  0.3650
 1184SOL     OW15010   0.839   2.175   6.486 -0.1692 -0.6070 -0.1103
 1184SOL    HW115011   0.891   2.175   6.567 -0.8013  0.4698  0.2916
 1184SOL    HW215012   0.780   2.249   6.499  0.5136 -0.0238 -0.3063
 1185SOL     OW15013   3.954   0.843   3.207 -0.1802  0.6408 -0.1703
 1185SOL    HW115014   3.950   0.906   3.135  0.3690  2.8394  1.7617
 1185SOL    HW215015   3.894   0.772   3.182  0.5683 -0.0129 -0.0910
 1186SOL     OW15016   1.946   1.195   7.228 -0.3072  0.0599  0.7083
 1186SOL    HW115017   2.006   1.139   7.278 -0.2547 -0.0129  0.5645
 1186SOL    HW215018   1.871   1.136   7.230  0.4182 -0.9602 -1.6238
 1187SOL     OW15019   3.046   4.043   2.081 -0.1705  0.4760  0.5752
 1187SOL    HW115020   3.042   3.947   2.083  0.2877  0.4593  1.0203
 1187SOL    HW215021   2.967   4.062   2.132 -0.3327  0.6495  0.2547
 1188SOL     OW15022   2.442   4.436   7.648 -0.1693 -0.1618  0.3052
 1188SOL    HW115023   2.501   4.492   7.699 -0.7958  0.8533 -0.1024
 1188SOL    HW215024   2.385   4.391   7.711  1.2557 -1.4769  0.6589
 1189SOL     OW15025   0.291   0.950   8.632  0.1036 -0.3092 -0.2193
 1189SOL    HW115026   0.378   0.977   8.662  0.5887 -5.0706  2.6607
 1189SOL    HW215027   0.279   1.023   8.571 -0.5410  1.6968  2.2945
 1190SOL     OW15028   3.630   3.707   6.057 -0.3388 -0.0936 -0.3568
 1190SOL    HW115029   3.614   3.777   6.120  0.4897  0.4433 -0.7386
 1190SOL    HW215030   3.705   3.741   6.009 -0.5696  0.1662 -0.5331
 1191SOL     OW15031   4.407   3.299   2.510  0.3120  0.1412 -0.2111
 1191SOL    HW115032   4.485   3.320   2.562 -0.6767  0.7354  1.0411
 1191SOL    HW215033   4.357   3.379   2.527 -0.3932 -0.3156 -0.1373
 1192SOL     OW15034   1.669   2.410  14.035  0.2803 -0.6543  0.2646
 1192SOL    HW115035   1.716   2.437  14.114 -1.3755 -0.8836  1.3324
 1192SOL    HW215036   1.741   2.387  13.976  0.2808  0.2846 -0.0994
 1193SOL     OW15037   0.336   1.339   4.258  0.3258  0.2094  0.1331
 1193SOL    HW115038   0.333   1.429   4.291  1.0498  0.3368 -0.1460
 1193SOL    HW215039   0.303   1.360   4.171 -0.1077  1.7853  0.6682
 1194SOL     OW15040   2.353   4.328   4.770  0.1406 -0.0882 -0.3776
 1194SOL    HW115041   2.359   4.423   4.768 -0.3142 -0.0495  0.3078
 1194SOL    HW215042   2.444   4.315   4.796 -0.0460 -1.6677 -0.4656
 1195SOL     OW15043   1.216   0.689   0.338 -0.5549  0.9255  0.2266
 1195SOL    HW115044   1.139   0.631   0.333 -1.8263  2.7071 -0.8973
 1195SOL    HW215045   1.286   0.640   0.294 -1.7705 -0.9647  0.4191
 1196SOL     OW15046   4.159   0.947   7.433  0.4682  0.0078 -0.8654
 1196SOL    HW115047   4.147   0.985   7.520  0.9307 -0.9829 -0.3678
 1196SOL    HW215048   4.099   0.875   7.449  0.2454  0.1706 -0.9577
 1197SOL     OW15049   1.277   1.760   3.157 -0.2403 -0.1998  0.7139
 1197SOL    HW115050   1.265   1.823   3.086  1.8188  0.1163  0.6371
 1197SOL    HW215051   1.367   1.778   3.185 -0.0590  0.7055 -0.4304
 1198SOL     OW15052   2.293   3.789   7.407 -0.2486  0.0548 -0.5468
 1198SOL    HW115053   2.282   3.702   7.443 -1.3426  0.7301  0.7593
 1198SOL    HW215054   2.319   3.836   7.487  0.1137  0.2836 -0.7971
 1199SOL     OW15055   3.863   1.373   0.145  0.3782  0.3398  0.0495
 1199SOL    HW115056   3.778   1.400   0.181  0.6652 -0.7193  1.5561
 1199SOL    HW215057   3.876   1.427   0.067 -1.9135  0.3099 -0.3719
 1200SOL     OW15058   0.831   0.623  16.685  0.4754 -0.2928 -0.3106
 1200SOL    HW115059   0.761   0.687  16.697  1.0934  0.4801 -0.7871
 1200SOL    HW215060   0.792   0.546  16.726 -1.6207  0.9489  0.0210
 1201SOL     OW15061   2.913   1.318   8.515 -0.9699  0.1578 -0.0578
 1201SOL    HW115062   2.994   1.275   8.544 -0.9767  0.7457  0.8203
 1201SOL    HW215063   2.936   1.410   8.522 -0.1252 -0.0204 -0.4981
 1202SOL     OW15064   1.646   4.586   2.191  0.3918  0.1105 -1.1455
 1202SOL    HW115065   1.592   4.509   2.205 -0.0422  0.4822 -0.7619
 1202SOL    HW215066   1.713   4.553   2.131  1.1260  0.0368 -0.2929
 1203SOL     OW15067   4.045   3.088   7.223 -0.0439  0.0731  0.6854
 1203SOL    HW115068   4.127   3.038   7.232 -1.0994 -2.0078 -1.1716
 1203SOL    HW215069   4.086   3.170   7.249  1.0906 -1.5102  3.9091
 1204SOL     OW15070   4.358   4.095   4.041  0.3513 -0.5342  0.5386
 1204SOL    HW115071   4.393   4.127   4.124 -0.3320  1.8757 -0.0937
 1204SOL    HW215072   4.306   4.023   4.076  0.0742 -1.0649 -0.9864
 1205SOL     OW15073   3.678   3.402   1.534  0.0021  0.0217  0.3325
 1205SOL    HW115074   3.709   3.401   1.444 -0.1219  1.7199  0.2756
 1205SOL    HW215075   3.592   3.360   1.526  0.7339 -1.4133 -0.1218
 1206SOL     OW15076   1.118   4.320   4.993 -0.2937 -0.0194  0.1084
 1206SOL    HW115077   1.086   4.386   4.930 -1.1276 -1.1393 -0.6385
 1206SOL    HW215078   1.165   4.372   5.059  1.0259 -0.5548 -0.4359
 1207SOL     OW15079   2.805   2.135   7.924 -0.0714  0.0502 -0.0043
 1207SOL    HW115080   2.737   2.070   7.946 -0.4795  0.7845  0.8973
 1207SOL    HW215081   2.874   2.111   7.985  0.6297 -0.1228 -0.8758
 1208SOL     OW15082   2.192   1.389   4.209 -0.3097  0.5925  0.0422
 1208SOL    HW115083   2.276   1.347   4.227  0.8957  3.1598  0.4239
 1208SOL    HW215084   2.166   1.414   4.298 -0.4744  0.4987  0.0201
 1209SOL     OW15085   0.254   2.362   2.919  0.2770 -0.4311  0.1798
 1209SOL    HW115086   0.201   2.419   2.863  1.4903 -0.3761 -0.9055
 1209SOL    HW215087   0.296   2.433   2.968 -0.3111 -1.9728  2.9303
 1210SOL     OW15088   0.703   1.798   3.848 -0.0818 -0.0541  0.7853
 1210SOL    HW115089   0.631   1.838   3.799  0.2077 -0.0877  0.3297
 1210SOL    HW215090   0.724   1.717   3.801 -2.1757 -0.6524  0.8553
 1211SOL     OW15091   1.209   3.582  12.581 -0.1963 -0.0025 -0.0615
 1211SOL    HW115092   1.216   3.608  12.673 -1.0155 -0.4125  0.1185
 1211SOL    HW215093   1.235   3.662  12.535  1.1314 -1.1440 -1.2759
 1212SOL     OW15094   3.475   0.270   3.491  0.1980 -0.0846 -0.4224
 1212SOL    HW115095   3.410   0.335   3.517  0.3479  0.0295 -0.3323
 1212SOL    HW215096   3.560   0.311   3.510 -0.7432  1.9346 -0.5296
 1213SOL     OW15097   0.966   2.341   7.109 -0.0194 -0.1733 -0.4163
 1213SOL    HW115098   1.043   2.337   7.165 -0.2163 -0.9001 -0.1980
 1213SOL    HW215099   0.891   2.327   7.168  1.2030 -2.2957  0.6439
 1214SOL     OW15100   1.973   3.037   2.287  0.5285 -0.0577  0.1276
 1214SOL    HW115101   1.956   3.092   2.210 -0.8446  0.3090  0.6873
 1214SOL    HW215102   2.034   3.075   2.350  0.5105  0.5162 -0.1995
 1215SOL     OW15103   3.766   0.247   4.470 -0.6160 -0.1166  0.3360
 1215SOL    HW115104   3.756   0.156   4.497 -0.3066 -0.7593 -1.6858
 1215SOL    HW215105   3.856   0.259   4.499  0.5907 -0.3943 -3.2300
 1216SOL     OW15106   3.658   3.873  13.316  0.1931 -0.3868  0.4256
 1216SOL    HW115107   3.588   3.902  13.257  1.8938  2.0129 -0.3957
 1216SOL    HW215108   3.731   3.930  13.293  0.8842 -1.9474 -1.1386
 1217SOL     OW15109   3.163   4.625   4.879  0.0971  0.1686  0.0351
 1217SOL    HW115110   3.128   4.635   4.968 -1.0490  0.0384 -0.4028
 1217SOL    HW215111   3.193   4.534   4.883  0.4820  0.2608 -0.7424
 1218SOL     OW15112   1.260   3.972  15.415 -0.3024  0.1834 -0.0775
 1218SOL    HW115113   1.210   3.939  15.490 -2.0563 -0.4920 -1.5184
 1218SOL    HW215114   1.228   4.062  15.412 -0.7155 -0.0061 -1.5074
 1219SOL     OW15115   4.677   1.141   4.169  0.0327 -0.5260  0.1959
 1219SOL    HW115116   4.690   1.217   4.113  1.0125 -0.1451  0.9487
 1219SOL    HW215117   4.590   1.159   4.205  0.2230 -1.3542  1.0724
 1220SOL     OW15118   2.427   2.663  10.375  0.0868  0.2120  0.0739
 1220SOL    HW115119   2.434   2.574  10.342  0.3938  0.4109 -0.3946
 1220SOL    HW215120   2.480   2.717  10.316 -1.0158 -1.0497 -2.0609
 1221SOL     OW15121   4.366   0.894   7.132  0.3309 -0.8382  0.0131
 1221SOL    HW115122   4.366   0.800   7.150 -0.3925 -0.1341  3.5499
 1221SOL    HW215123   4.394   0.943   7.209 -1.6643  0.5571 -0.1309
 1222SOL     OW15124   1.540   1.438   8.787  0.1810 -1.0047 -0.3106
 1222SOL    HW115125   1.590   1.440   8.705  2.2904 -2.9019  0.9224
 1222SOL    HW215126   1.602   1.434   8.860 -0.8440  0.8024  0.6501
 1223SOL     OW15127   2.367   2.200   3.154 -0.5440  1.0731  0.5287
 1223SOL    HW115128   2.372   2.258   3.230  1.1044  0.5599  0.8081
 1223SOL    HW215129   2.459   2.182   3.136 -0.4683  3.1286 -1.1526
 1224SOL     OW15130   4.016   4.561   9.011  0.1469  0.0371  0.5789
 1224SOL    HW115131   3.935   4.517   8.986 -0.7403  1.5709  0.7346
 1224SOL    HW215132   4.076   4.490   8.991 -0.2390  0.7241 -3.1042
 1225SOL     OW15133   1.703   1.214   8.311 -0.1575 -0.0971 -0.2651
 1225SOL    HW115134   1.740   1.129   8.287 -0.7913  0.0721 -1.7972
 1225SOL    HW215135   1.623   1.208   8.260 -1.7495 -1.9855  2.4944
 1226SOL     OW15136   0.268   4.137   2.815 -0.0749 -0.4693  0.2752
 1226SOL    HW115137   0.218   4.077   2.760 -2.0729 -0.1646  1.7710
 1226SOL    HW215138   0.234   4.112   2.901  0.9516 -0.3611  0.7136
 1227SOL     OW15139   1.233   0.389   2.179  0.1770 -0.2089 -0.0137
 1227SOL    HW115140   1.191   0.394   2.093  0.0160 -1.3546 -0.0113
 1227SOL    HW215141   1.159   0.349   2.225 -0.0212 -0.1443 -0.2736
 1228SOL     OW15142   3.687   1.807   3.323 -0.5917  0.4488 -0.0401
 1228SOL    HW115143   3.650   1.806   3.235 -0.3535  2.7205 -0.1672
 1228SOL    HW215144   3.630   1.782   3.395  0.3638  0.4757  0.7296
 1229SOL     OW15145   0.521   2.000   7.612  0.0933  0.4989  0.1696
 1229SOL    HW115146   0.440   1.950   7.619 -0.9526  1.8132 -2.4650
 1229SOL    HW215147   0.492   2.083   7.649  0.2434  2.1729 -3.4665
 1230SOL     OW15148   0.402   2.766   7.137  0.3158  0.0857 -0.2606
 1230SOL    HW115149   0.393   2.858   7.161  2.4073  0.0456  0.6324
 1230SOL    HW215150   0.398   2.781   7.042  0.2040  0.6237 -0.1717
 1231SOL     OW15151   0.614   2.741   3.147 -0.0507  0.5009  0.0526
 1231SOL    HW115152   0.633   2.808   3.081  0.8719 -0.1771 -0.3728
 1231SOL    HW215153   0.646   2.794   3.220  0.7047 -0.7650  0.6547
 1232SOL     OW15154   0.088   4.053  15.906 -1.1946 -0.0077  0.2365
 1232SOL    HW115155   0.122   4.142  15.890 -0.7921  0.0557  1.4796
 1232SOL    HW215156   0.131   4.035  15.990  0.5304  0.7921 -0.4652
 1233SOL     OW15157   0.961   1.472   5.303 -0.0994 -0.0867  0.1034
 1233SOL    HW115158   0.948   1.418   5.225 -4.0617  0.2526  0.4925
 1233SOL    HW215159   1.009   1.547   5.268 -0.8371 -0.1428 -1.0129
 1234SOL     OW15160   4.599   4.440   3.884  0.2965  0.1708  0.6164
 1234SOL    HW115161   4.672   4.387   3.915  1.2353 -0.4170 -2.5625
 1234SOL    HW215162   4.642   4.504   3.828 -1.0481 -1.2644 -2.0604
 1235SOL     OW15163   2.551   3.255   3.519 -0.2382 -0.3217 -0.1685
 1235SOL    HW115164   2.616   3.258   3.590 -0.7204  0.5302  0.2345
 1235SOL    HW215165   2.606   3.275   3.443 -0.0799 -0.4979 -0.1003
 1236SOL     OW15166   1.122   3.038   3.025  0.2413  0.3112 -0.4195
 1236SOL    HW115167   1.095   3.022   2.935  2.6979 -1.4391 -0.8370
 1236SOL    HW215168   1.174   3.118   3.019  0.1884  0.1354 -2.9713
 1237SOL     OW15169   4.277   1.181   0.442 -0.2427  0.1352  0.1708
 1237SOL    HW115170   4.265   1.118   0.370  1.4558  0.8965 -0.7708
 1237SOL    HW215171   4.356   1.151   0.486  0.8906  2.3697 -0.3417
 1238SOL     OW15172   3.023   0.683  17.693  0.3540 -0.7230  0.1520
 1238SOL    HW115173   3.098   0.693  17.634  0.4734  1.5822  0.6600
 1238SOL    HW215174   3.000   0.775   0.012 -1.1700 -0.8364 -1.3835
 1239SOL     OW15175   0.661   3.262  16.623  0.0686  0.2499  0.0118
 1239SOL    HW115176   0.637   3.271  16.716 -0.1152  1.2679 -0.1426
 1239SOL    HW215177   0.576   3.232  16.593 -0.4372  2.0826 -0.3661
 1240SOL     OW15178   2.879   2.430   4.208  0.0864 -0.2879 -0.0847
 1240SOL    HW115179   2.883   2.494   4.138  0.9436 -0.9519 -0.6458
 1240SOL    HW215180   2.972   2.432   4.232  0.1262  4.4572 -0.7183
 1241SOL     OW15181   4.555   0.304   2.498 -0.4813  0.3603 -0.3362
 1241SOL    HW115182   4.487   0.268   2.556 -1.0819 -1.0374 -1.9200
 1241SOL    HW215183   4.531   0.397   2.492  0.3699  0.7856  2.4904
 1242SOL     OW15184   3.958   2.373   7.514 -0.4810 -0.2911 -0.4395
 1242SOL    HW115185   3.873   2.397   7.549  0.3696  0.4907  1.1135
 1242SOL    HW215186   3.960   2.431   7.438 -1.5270 -0.1373 -0.3473
 1243SOL     OW15187   1.713   3.618   3.067 -0.8503 -0.2067 -0.4814
 1243SOL    HW115188   1.808   3.619   3.080 -1.0730  2.0430  0.9195
 1243SOL    HW215189   1.724   3.660   2.982  1.4071 -1.4344 -0.7924
 1244SOL     OW15190   3.682   4.578  14.499  0.2099  0.4443 -0.1374
 1244SOL    HW115191   3.643   4.659  14.532 -0.6510 -0.5318  1.2243
 1244SOL    HW215192   3.708   4.603  14.411  0.0388 -1.5109 -0.7518
 1245SOL     OW15193   0.196   1.450  10.470 -0.0223 -0.5667  0.0015
 1245SOL    HW115194   0.165   1.532  10.432 -0.4763 -1.7053 -2.0945
 1245SOL    HW215195   0.116   1.426  10.516 -0.5218 -0.5193 -0.8392
 1246SOL     OW15196   0.491   2.285  14.054  0.4255 -0.4369  0.0094
 1246SOL    HW115197   0.573   2.240  14.035  1.7858  2.2541 -0.4723
 1246SOL    HW215198   0.527   2.350  14.114  0.7359  0.1346 -0.7923
 1247SOL     OW15199   3.285   4.185   3.628 -0.2919 -0.4745 -0.2035
 1247SOL    HW115200   3.321   4.096   3.638  0.8282  0.0331  0.2663
 1247SOL    HW215201   3.341   4.220   3.558 -1.0405  0.8668 -0.1228
 1248SOL     OW15202   4.588   2.860   6.495 -0.2447 -0.0293 -0.4333
 1248SOL    HW115203   4.505   2.881   6.452  0.1111  0.7684 -0.7182
 1248SOL    HW215204   4.642   2.933   6.465 -0.8856  0.3800 -0.5950
 1249SOL     OW15205   0.744   4.427   3.872  0.2126 -0.1321  0.0238
 1249SOL    HW115206   0.686   4.409   3.799 -0.2877 -0.1238  0.4167
 1249SOL    HW215207   0.813   4.474   3.825 -0.8451  0.6831 -0.6974
 1250SOL     OW15208   0.233   4.052   3.670  0.1086  0.6377  0.2362
 1250SOL    HW115209   0.163   4.029   3.609 -0.7095 -1.5188  1.9958
 1250SOL    HW215210   0.308   4.042   3.611 -1.4759  0.3394 -1.7613
 1251SOL     OW15211   3.361   3.716   7.343  0.5143  0.2535  0.1142
 1251SOL    HW115212   3.318   3.801   7.344 -2.4591 -1.2281 -2.6478
 1251SOL    HW215213   3.409   3.709   7.425 -0.6549 -2.1195  0.5935
 1252SOL     OW15214   1.656   1.331   7.416  0.1636  0.0453 -0.4556
 1252SOL    HW115215   1.660   1.419   7.379  2.7834 -0.2236 -0.8696
 1252SOL    HW215216   1.646   1.276   7.338 -2.9695 -1.0106  0.7072
 1253SOL     OW15217   3.810   0.943  13.654  0.0624  0.0538 -0.4885
 1253SOL    HW115218   3.746   0.962  13.586 -0.5146 -0.9473 -0.2252
 1253SOL    HW215219   3.842   0.863  13.612  3.1689  0.8200  0.4346
 1254SOL     OW15220   0.951   2.207   2.486 -0.1269  0.3801  0.6473
 1254SOL    HW115221   0.907   2.282   2.446  0.8686  0.4468 -0.3192
 1254SOL    HW215222   0.948   2.137   2.421 -0.9138  0.4875  0.5694
 1255SOL     OW15223   2.613   2.104   2.773  0.1042  0.9519 -0.5690
 1255SOL    HW115224   2.581   2.043   2.707  1.7590 -1.8256  1.2123
 1255SOL    HW215225   2.644   2.170   2.711  0.2634  0.8588 -0.5872
 1256SOL     OW15226   2.686   3.710  10.073 -0.1826  0.5733 -0.0651
 1256SOL    HW115227   2.719   3.790  10.113  1.4331  0.3470 -0.9669
 1256SOL    HW215228   2.760   3.651  10.063  0.6229  1.8981 -1.8737
 1257SOL     OW15229   0.020   2.177   8.394 -1.0477 -0.2648  0.1297
 1257SOL    HW115230   0.001   2.174   8.300 -0.6646  0.8284  0.0235
 1257SOL    HW215231   4.659   2.175   8.437 -1.2245  1.5147 -0.1514
 1258SOL     OW15232   3.820   1.511   9.659  0.0049  0.1845 -0.5261
 1258SOL    HW115233   3.873   1.461   9.720 -1.2936 -0.9744 -0.3648
 1258SOL    HW215234   3.758   1.444   9.629  1.4935 -1.3941 -0.0486
 1259SOL     OW15235   1.413   3.843  12.573 -0.4823 -0.8099 -0.4749
 1259SOL    HW115236   1.477   3.774  12.593  0.7571  0.2112 -0.9064
 1259SOL    HW215237   1.394   3.873  12.662  2.7932  3.4551 -1.2296
 1260SOL     OW15238   3.728   3.418  16.963  0.5898  0.0818 -0.0245
 1260SOL    HW115239   3.724   3.359  16.888 -0.6416 -0.4851  0.5016
 1260SOL    HW215240   3.679   3.496  16.936  1.0722  0.0621 -0.9466
 1261SOL     OW15241   0.588   2.240  17.644  0.1734 -0.0966  0.7173
 1261SOL    HW115242   0.529   2.266   0.016  0.4950  2.2275  0.1162
 1261SOL    HW215243   0.573   2.311  17.581  1.1856 -0.0318  0.5484
 1262SOL     OW15244   1.441   2.903  12.878 -0.2170 -0.1508 -0.1683
 1262SOL    HW115245   1.420   2.810  12.866  0.3850 -0.2027 -0.7939
 1262SOL    HW215246   1.523   2.907  12.829 -0.7883 -0.9028 -1.1897
 1263SOL     OW15247   4.146   3.427   6.392  0.5076  0.2246 -0.0126
 1263SOL    HW115248   4.148   3.478   6.473  0.4969 -1.9607  1.3703
 1263SOL    HW215249   4.164   3.499   6.332 -0.6413  0.1210 -0.4746
 1264SOL     OW15250   2.590   2.863   8.104 -0.4347 -0.1188 -0.0031
 1264SOL    HW115251   2.614   2.844   8.194 -1.3029  0.0494  0.2549
 1264SOL    HW215252   2.642   2.797   8.058 -0.5494 -0.2828  0.1054
 1265SOL     OW15253   4.417   3.804   3.870 -0.2896  0.1811  0.5234
 1265SOL    HW115254   4.464   3.885   3.850 -1.5485  0.4825 -1.2064
 1265SOL    HW215255   4.491   3.743   3.879  0.7996  1.4618  0.2717
 1266SOL     OW15256   3.472   2.548   5.009  0.0672 -0.1338  0.6094
 1266SOL    HW115257   3.525   2.626   4.994  0.9561 -1.1457 -1.3813
 1266SOL    HW215258   3.446   2.585   5.094  1.6919 -0.4756  1.2441
 1267SOL     OW15259   3.880   0.381   7.397  0.4821 -0.4086  0.4052
 1267SOL    HW115260   3.832   0.377   7.314 -0.0456 -1.7446  0.7759
 1267SOL    HW215261   3.807   0.368   7.458 -1.5014  1.3865 -1.5870
 1268SOL     OW15262   2.385   4.250  17.534  0.6139  0.0588  0.4856
 1268SOL    HW115263   2.474   4.228  17.505 -0.6486 -0.3122 -3.2110
 1268SOL    HW215264   2.393   4.225  17.626  2.7577 -0.1665  0.2398
 1269SOL     OW15265   1.762   3.050  17.197  0.5827 -0.4109 -0.3275
 1269SOL    HW115266   1.779   3.111  17.125  1.6961 -0.6163 -0.2473
 1269SOL    HW215267   1.824   3.082  17.263 -0.1430 -0.7478  0.5148
 1270SOL     OW15268   4.336   2.319   4.097 -0.1963 -0.8845  0.0401
 1270SOL    HW115269   4.250   2.362   4.088 -0.7646 -1.7253  1.4786
 1270SOL    HW215270   4.389   2.363   4.031  1.0232 -0.8703  1.0249
 1271SOL     OW15271   0.274   0.001   5.309 -0.2491 -0.3663  0.6276
 1271SOL    HW115272   0.362   0.032   5.287 -0.3343 -0.3588  0.3076
 1271SOL    HW215273   0.272   4.711   5.404 -2.2528  0.4546  0.7002
 1272SOL     OW15274   3.738   4.561  17.345  0.1571  0.1234 -0.1406
 1272SOL    HW115275   3.749   4.610  17.427  0.1855  0.8703 -0.5888
 1272SOL    HW215276   3.811   4.585  17.288 -0.3321 -0.0277 -0.8280
 1273SOL     OW15277   3.152   3.832   8.156  0.1020  0.6917  0.4059
 1273SOL    HW115278   3.112   3.908   8.197 -0.4017  0.7758 -0.2404
 1273SOL    HW215279   3.224   3.808   8.215  1.0156  0.3026 -0.8615
 1274SOL     OW15280   0.050   3.841   4.173  0.2251 -0.2421 -0.6435
 1274SOL    HW115281   4.717   3.798   4.110 -1.8237 -0.2468  1.2375
 1274SOL    HW215282   4.714   3.878   4.237 -0.8118 -0.5386 -1.4582
 1275SOL     OW15283   3.894   0.549   3.391 -0.1878 -0.0005  0.3007
 1275SOL    HW115284   3.918   0.486   3.322 -2.1695  0.3296 -0.6794
 1275SOL    HW215285   3.949   0.509   3.459  0.6363 -1.2126 -1.0764
 1276SOL     OW15286   0.692   4.016  16.812 -0.5144  0.3586  0.5488
 1276SOL    HW115287   0.785   3.992  16.804 -0.9781 -0.6639 -1.7874
 1276SOL    HW215288   0.662   3.991  16.899 -3.0992 -1.6709 -0.9568
 1277SOL     OW15289   2.866   3.355   4.192  0.1834  0.0157 -0.3007
 1277SOL    HW115290   2.883   3.324   4.281 -1.5232  1.5034  0.5379
 1277SOL    HW215291   2.904   3.442   4.191 -1.1593  0.6089  0.0676
 1278SOL     OW15292   0.492   0.574  11.459 -0.8144 -0.2258  0.5019
 1278SOL    HW115293   0.408   0.615  11.479  0.3912  1.7162  1.5840
 1278SOL    HW215294   0.490   0.495  11.513  0.2367 -0.7817 -0.2755
 1279SOL     OW15295   4.273   3.835   4.102 -0.3445 -0.3386  0.6687
 1279SOL    HW115296   4.303   3.809   4.015 -0.4502 -0.1765  0.5827
 1279SOL    HW215297   4.207   3.766   4.107 -1.0205  0.3682  1.6150
 1280SOL     OW15298   0.397   1.003   9.490 -0.4817 -0.0306 -0.1658
 1280SOL    HW115299   0.302   1.000   9.498 -0.3444  0.5577  1.6930
 1280SOL    HW215300   0.407   1.081   9.545 -0.2678  1.1337 -1.8224
 1281SOL     OW15301   1.630   0.689   4.419  1.2062  0.0565 -0.3239
 1281SOL    HW115302   1.622   0.785   4.424  0.7890  0.0370 -0.6054
 1281SOL    HW215303   1.672   0.670   4.503  0.5997 -2.2064 -0.5471
 1282SOL     OW15304   3.984   3.705   9.125  0.1757 -0.3687  0.5414
 1282SOL    HW115305   3.901   3.702   9.171 -1.0874 -0.0663 -1.7269
 1282SOL    HW215306   4.041   3.725   9.200 -0.0406  1.5395  0.2039
 1283SOL     OW15307   3.910   3.365   5.019 -0.2308 -0.2384  0.4731
 1283SOL    HW115308   3.904   3.455   4.986 -2.0204 -0.0942  1.1705
 1283SOL    HW215309   3.860   3.303   4.965  0.4994  0.3622 -0.8830
 1284SOL     OW15310   0.080   0.009   6.203 -0.2669 -0.6434 -0.4621
 1284SOL    HW115311   0.034   0.013   6.287 -1.9878 -0.7409 -1.4051
 1284SOL    HW215312   0.070   4.640   6.184  0.2698 -1.1457  1.6859
 1285SOL     OW15313   0.147   1.938   4.324  0.7160  0.0594  0.2008
 1285SOL    HW115314   0.065   1.979   4.352 -0.6203 -1.4779 -1.4189
 1285SOL    HW215315   0.219   1.982   4.369  1.2945  1.4789 -2.1148
 1286SOL     OW15316   2.961   3.906   4.499 -0.0527 -0.4281  0.0784
 1286SOL    HW115317   2.995   3.991   4.526 -2.0263  1.0221 -2.1123
 1286SOL    HW215318   3.033   3.880   4.442 -2.7386 -3.0806 -2.0869
 1287SOL     OW15319   2.275   1.437  12.960 -0.0452 -0.4182 -0.0227
 1287SOL    HW115320   2.300   1.347  12.977 -0.4556 -0.7683 -1.2665
 1287SOL    HW215321   2.277   1.439  12.864 -0.8830  1.5966 -0.0060
 1288SOL     OW15322   2.074   2.654   2.456  0.3696  0.2937  0.4015
 1288SOL    HW115323   2.154   2.666   2.406  0.6751 -0.3375  0.7472
 1288SOL    HW215324   2.051   2.740   2.491  1.5826  0.3885  0.9626
 1289SOL     OW15325   1.374   3.454   3.903  0.1059  0.1050 -0.0413
 1289SOL    HW115326   1.428   3.483   3.829  2.0963 -1.4397  0.7669
 1289SOL    HW215327   1.296   3.433   3.852 -0.5238 -0.4069  1.1478
 1290SOL     OW15328   4.617   3.240  16.994 -0.3056 -0.0527  0.0174
 1290SOL    HW115329   4.612   3.297  16.918  1.4983  0.1085  0.0153
 1290SOL    HW215330   4.668   3.168  16.956 -0.8165  0.8883 -2.4147
 1291SOL     OW15331   3.304   3.168   3.188  0.3675 -0.1897 -0.3022
 1291SOL    HW115332   3.293   3.091   3.244 -0.4420  2.0699  2.6713
 1291SOL    HW215333   3.211   3.186   3.175  0.0198 -2.1637 -0.4955
 1292SOL     OW15334   1.263   0.056   3.279 -0.2209  0.3070  0.1764
 1292SOL    HW115335   1.324   0.075   3.208  2.4013 -0.4751  2.2069
 1292SOL    HW215336   1.239   0.141   3.317 -2.2534  0.6708 -1.9345
 1293SOL     OW15337   1.114   1.132   5.594 -0.1390  0.1701  0.0672
 1293SOL    HW115338   1.163   1.178   5.527 -0.0482 -0.1503 -0.0870
 1293SOL    HW215339   1.091   1.190   5.667 -0.8580 -1.5682  1.2238
 1294SOL     OW15340   1.914   2.246   8.360  0.0755  0.2711  0.2437
 1294SOL    HW115341   1.942   2.224   8.449 -0.5788  0.8321  0.5942
 1294SOL    HW215342   1.849   2.176   8.351  0.3816 -0.2899  2.2235
 1295SOL     OW15343   2.916   2.820   6.663  0.8922 -0.0932 -0.1340
 1295SOL    HW115344   2.918   2.725   6.653 -0.8352 -0.1136 -0.2346
 1295SOL    HW215345   3.006   2.831   6.694  0.8476 -1.3752  0.4287
 1296SOL     OW15346   1.532   2.131   3.727  0.1545  0.2318 -0.0911
 1296SOL    HW115347   1.608   2.138   3.786 -0.0360  1.5326 -0.0013
 1296SOL    HW215348   1.505   2.041   3.744 -0.1186  0.2844 -0.2498
 1297SOL     OW15349   2.948   1.702  14.210 -0.2672  0.3641  0.2692
 1297SOL    HW115350   2.873   1.759  14.198  0.1894  1.3727  2.2534
 1297SOL    HW215351   2.953   1.704  14.306  2.1957 -0.5948  0.1625
 1298SOL     OW15352   1.875   2.078   3.355 -0.5187  0.8060  0.4501
 1298SOL    HW115353   1.799   2.134   3.373 -1.7259 -0.6644 -0.0083
 1298SOL    HW215354   1.932   2.136   3.306 -0.5467  0.5122  0.0753
 1299SOL     OW15355   2.082   0.070   1.866  0.0704 -0.1894  0.3481
 1299SOL    HW115356   2.175   0.074   1.889 -0.1177  0.7441  0.9702
 1299SOL    HW215357   2.059   0.159   1.896 -0.3167  0.2307 -1.2227
 1300SOL     OW15358   1.200   4.323  10.724  0.4332  0.1131 -0.0964
 1300SOL    HW115359   1.204   4.298  10.817 -1.5653  2.2800  0.5817
 1300SOL    HW215360   1.281   4.372  10.711  0.3550 -0.1463 -1.4778
 1301SOL     OW15361   2.053   1.170  10.052  0.3476 -0.5782  0.1777
 1301SOL    HW115362   1.993   1.150  10.124  1.5638 -2.6451  0.6244
 1301SOL    HW215363   2.016   1.246  10.007  1.7786  0.5483  0.9050
 1302SOL     OW15364   3.633   4.127   6.433 -0.0949  0.3540 -0.2119
 1302SOL    HW115365   3.664   4.084   6.513  0.5126 -0.9878 -1.1757
 1302SOL    HW215366   3.572   4.057   6.410  0.5850 -0.2720 -0.1346
 1303SOL     OW15367   1.549   0.010   6.577  0.0844  0.0412 -0.7343
 1303SOL    HW115368   1.498   0.090   6.568 -1.0733 -0.6326 -0.2342
 1303SOL    HW215369   1.635   0.042   6.603  0.1350 -0.4915 -0.2526
 1304SOL     OW15370   2.106   0.329   8.012 -0.0571 -0.3516 -0.3249
 1304SOL    HW115371   2.200   0.339   7.995 -0.1454  1.2741  0.1438
 1304SOL    HW215372   2.088   0.236   8.021 -0.2441 -0.4061 -1.2173
 1305SOL     OW15373   2.225   3.089   3.329 -0.4319  0.0644 -0.1495
 1305SOL    HW115374   2.229   3.171   3.378 -2.1157 -0.3610  0.6793
 1305SOL    HW215375   2.296   3.042   3.374 -0.5693 -0.3835 -0.3992
 1306SOL     OW15376   2.691   2.945  13.417 -0.6060  0.0151  0.0548
 1306SOL    HW115377   2.771   2.945  13.469 -0.0866 -1.8707 -0.7454
 1306SOL    HW215378   2.712   2.870  13.361  1.2661  0.7810 -0.2601
 1307SOL     OW15379   0.832   2.495   7.688  0.8711  0.4909 -0.0899
 1307SOL    HW115380   0.754   2.484   7.633  2.0171 -4.4064 -0.8235
 1307SOL    HW215381   0.797   2.547   7.759 -1.0117  0.2108 -0.8084
 1308SOL     OW15382   0.880   3.402  16.957 -0.1884  0.1227 -0.3982
 1308SOL    HW115383   0.884   3.477  17.016 -1.3078 -1.4854  1.7090
 1308SOL    HW215384   0.944   3.435  16.894 -1.8140  0.1640 -2.0302
 1309SOL     OW15385   0.435   0.643   5.583 -0.3910  0.7654 -0.3062
 1309SOL    HW115386   0.417   0.727   5.540  0.2102  2.0435  1.9596
 1309SOL    HW215387   0.498   0.592   5.531 -0.0911  0.9324 -0.1054
 1310SOL     OW15388   0.953   0.267  13.064  0.0833  0.3226 -0.1067
 1310SOL    HW115389   0.896   0.342  13.081 -0.0798  0.2391 -0.2827
 1310SOL    HW215390   0.982   0.278  12.973 -1.0701 -2.2992 -0.7666
 1311SOL     OW15391   3.124   1.386   1.408  0.1859 -0.2139  0.6069
 1311SOL    HW115392   3.212   1.382   1.446  1.3262 -0.6098 -2.0477
 1311SOL    HW215393   3.082   1.445   1.470  1.7452  1.0270  0.4874
 1312SOL     OW15394   4.559   0.830   1.777  0.3667 -0.0367 -0.4865
 1312SOL    HW115395   4.489   0.830   1.843  0.6458 -1.3790 -0.1837
 1312SOL    HW215396   4.631   0.786   1.821 -0.1560 -0.9216 -0.5128
 1313SOL     OW15397   4.244   0.864   5.316 -0.3762  0.1267 -0.1824
 1313SOL    HW115398   4.186   0.936   5.293  0.6691  1.1084  0.2771
 1313SOL    HW215399   4.322   0.903   5.354 -0.7280  1.6347 -0.9914
 1314SOL     OW15400   0.876   1.643   7.120 -0.2317  0.2992 -0.0285
 1314SOL    HW115401   0.944   1.709   7.133  0.8020 -0.7022 -0.4070
 1314SOL    HW215402   0.922   1.600   7.048  0.9165 -2.6161  2.4605
 1315SOL     OW15403   1.081   3.695   0.757  0.6551  0.3819  0.2185
 1315SOL    HW115404   1.106   3.603   0.766  1.7983  0.6381 -0.2655
 1315SOL    HW215405   1.142   3.716   0.686  0.2467  1.2528  0.1240
 1316SOL     OW15406   0.862   0.118   2.997 -0.6340  0.1986  0.1674
 1316SOL    HW115407   0.857   0.050   3.063  0.0721  2.1498  2.2444
 1316SOL    HW215408   0.951   0.121   2.961 -1.5940  1.1128 -2.1739
 1317SOL     OW15409   0.761   1.919  13.176  0.4064  0.5065  0.1394
 1317SOL    HW115410   0.731   2.010  13.172 -2.4720 -0.4865 -0.9522
 1317SOL    HW215411   0.788   1.915  13.084 -0.7857 -4.6841  0.0364
 1318SOL     OW15412   2.109   3.274  10.069 -0.0166  0.0382  0.7887
 1318SOL    HW115413   2.135   3.284  10.161 -1.1528 -1.3763  1.2465
 1318SOL    HW215414   2.065   3.358  10.053  0.9232  0.3880  0.0358
 1319SOL     OW15415   2.564   0.968   8.087  0.1576  0.2128 -0.3848
 1319SOL    HW115416   2.520   0.938   8.008  2.8632 -0.4801 -1.5978
 1319SOL    HW215417   2.552   1.063   8.079 -3.1880 -0.0231  1.8893
 1320SOL     OW15418   0.581   1.665  13.803 -0.4163 -0.4726 -0.1632
 1320SOL    HW115419   0.521   1.710  13.744 -0.7065 -1.8093 -0.9055
 1320SOL    HW215420   0.656   1.720  13.782  0.3674 -0.3108  3.0554
 1321SOL     OW15421   0.942   1.374   0.039  0.1896  0.0547  0.1307
 1321SOL    HW115422   1.025   1.342   0.074 -0.0710 -0.0005  0.6997
 1321SOL    HW215423   0.921   1.294  17.688 -3.4645  0.5455  0.8939
 1322SOL     OW15424   4.662   2.761   1.159 -0.4523  0.2796  0.2793
 1322SOL    HW115425   0.029   2.751   1.185 -0.6740  0.8009  1.2408
 1322SOL    HW215426   4.655   2.855   1.144 -0.0966  0.2907  0.1824
 1323SOL     OW15427   1.227   0.140   2.515 -0.5999  0.5844  0.2154
 1323SOL    HW115428   1.205   0.049   2.534 -1.4332  0.6564 -0.3913
 1323SOL    HW215429   1.176   0.157   2.436  0.3655  0.0799 -0.5103
 1324SOL     OW15430   4.016   0.548   0.624  0.6538 -0.1945  0.3026
 1324SOL    HW115431   4.099   0.500   0.617  0.4362 -0.5379  0.1076
 1324SOL    HW215432   3.998   0.533   0.717 -1.4899  1.8603  0.2080
 1325SOL     OW15433   2.024   1.343   8.194 -0.9770 -0.2612 -0.2908
 1325SOL    HW115434   2.063   1.266   8.152 -0.8650 -0.1670 -0.3607
 1325SOL    HW215435   2.060   1.410   8.136 -2.7612 -1.6302 -2.9840
 1326SOL     OW15436   0.496   4.042   4.884 -0.3790 -0.4151 -0.4059
 1326SOL    HW115437   0.484   3.963   4.936  5.2983  0.4933  2.3355
 1326SOL    HW215438   0.592   4.048   4.877 -0.2653 -0.7273  0.9427
 1327SOL     OW15439   2.788   2.687   3.508 -0.1642 -0.0787  0.5815
 1327SOL    HW115440   2.879   2.707   3.482  0.2862 -0.8713  1.5773
 1327SOL    HW215441   2.793   2.731   3.592 -0.1221  2.8206 -0.9273
 1328SOL     OW15442   1.877   0.459   7.805  0.3620 -0.1517 -0.3626
 1328SOL    HW115443   1.908   0.425   7.889 -1.1628  0.5502  0.4971
 1328SOL    HW215444   1.904   0.385   7.751 -0.2532  0.7334 -1.8982
 1329SOL     OW15445   3.273   4.368  17.429  0.1720 -0.0898 -0.2477
 1329SOL    HW115446   3.255   4.347  17.521  1.4951 -1.0889 -0.2154
 1329SOL    HW215447   3.250   4.282  17.394  0.1841 -0.1171 -0.1885
 1330SOL     OW15448   2.666   0.099   7.274 -0.4468 -0.2261  0.0086
 1330SOL    HW115449   2.702   0.168   7.218  1.0868 -0.0852  1.1766
 1330SOL    HW215450   2.727   0.106   7.347  0.8336  2.0454 -1.2612
 1331SOL     OW15451   1.253   4.404   7.542 -0.2587 -0.0159 -0.4718
 1331SOL    HW115452   1.328   4.350   7.516  1.3203  1.3836  1.1649
 1331SOL    HW215453   1.292   4.482   7.501  2.4393 -2.4205 -2.5188
 1332SOL     OW15454   4.110   0.451   9.007  0.7059  0.0304  0.3040
 1332SOL    HW115455   4.064   0.463   8.924  2.3574  3.2815 -0.1496
 1332SOL    HW215456   4.052   0.484   9.075  1.0095  1.1645  0.0105
 1333SOL     OW15457   1.793   3.869   7.408  0.2037 -0.0130 -0.4309
 1333SOL    HW115458   1.841   3.803   7.458  1.2681  1.4284  0.4944
 1333SOL    HW215459   1.848   3.882   7.331  3.2257 -3.3701  1.2082
 1334SOL     OW15460   3.493   4.214   7.545  0.1220 -0.2625  0.2638
 1334SOL    HW115461   3.529   4.279   7.605 -1.2910 -1.9657  2.9774
 1334SOL    HW215462   3.442   4.275   7.492  0.8756 -0.1596 -0.3420
 1335SOL     OW15463   0.056   0.214   8.779  0.3201 -0.1121 -0.2648
 1335SOL    HW115464   4.706   0.268   8.750  0.4846 -0.5527 -1.5031
 1335SOL    HW215465   0.017   0.126   8.779 -1.1479  0.5441 -1.4254
 1336SOL     OW15466   3.357   4.202   5.607 -0.2559 -0.6162 -0.1014
 1336SOL    HW115467   3.424   4.179   5.671 -0.3267  0.4234  0.3556
 1336SOL    HW215468   3.290   4.156   5.657 -0.6481  0.0782  0.0074
 1337SOL     OW15469   2.914   3.555   9.055  0.3016 -0.1073 -0.6155
 1337SOL    HW115470   2.977   3.533   8.987 -1.6936 -3.0403 -1.5378
 1337SOL    HW215471   2.850   3.612   9.013  0.2686  0.6107  0.3942
 1338SOL     OW15472   0.626   3.600   4.591  0.0607  0.1324  0.2374
 1338SOL    HW115473   0.690   3.608   4.662  1.2570  0.4154 -0.8587
 1338SOL    HW215474   0.552   3.566   4.640  0.7357 -0.4331  0.8648
 1339SOL     OW15475   2.783   3.889   9.192  0.1592 -0.0668  0.8103
 1339SOL    HW115476   2.766   3.819   9.255 -2.9669 -0.0336 -0.0208
 1339SOL    HW215477   2.813   3.967   9.239  1.2750  1.1502 -1.9062
 1340SOL     OW15478   4.616   3.881   8.804  0.2531  0.2150 -0.0787
 1340SOL    HW115479   4.568   3.965   8.807 -3.5957 -2.0635  2.1864
 1340SOL    HW215480   4.572   3.847   8.726 -0.8274  0.7074  0.3099
 1341SOL     OW15481   0.858   1.662  16.562 -0.1391  0.0680  0.2570
 1341SOL    HW115482   0.925   1.596  16.580  0.5346  0.5797 -0.4060
 1341SOL    HW215483   0.789   1.608  16.524  0.1794 -0.3932  0.3410
 1342SOL     OW15484   4.255   1.731   6.162  0.1887 -0.3271  0.1793
 1342SOL    HW115485   4.277   1.645   6.199 -0.4701 -1.0733 -1.1466
 1342SOL    HW215486   4.204   1.771   6.232 -0.1150  1.1518 -0.8967
 1343SOL     OW15487   1.557   2.423  14.401 -0.4058  0.3083  0.0188
 1343SOL    HW115488   1.529   2.459  14.316 -1.7105  2.8128  1.5206
 1343SOL    HW215489   1.558   2.505  14.450  1.8662  1.6634 -2.2854
 1344SOL     OW15490   0.011   4.661   7.760 -0.3806  0.6492 -0.2061
 1344SOL    HW115491   0.033   0.003   7.694  1.1138  1.3207  0.9875
 1344SOL    HW215492   0.040   4.704   7.840 -0.5747  0.7730 -0.2013
 1345SOL     OW15493   0.457   1.345   2.066  0.5882 -0.0041 -0.3942
 1345SOL    HW115494   0.482   1.291   2.142 -0.3076 -0.9924 -0.8074
 1345SOL    HW215495   0.546   1.351   2.030 -0.6564 -0.8653 -3.5901
 1346SOL     OW15496   3.139   4.496  11.931 -0.0404  0.1896  1.3246
 1346SOL    HW115497   3.092   4.420  11.895  1.2214  0.4420 -0.8703
 1346SOL    HW215498   3.179   4.453  12.007 -0.9135 -0.8099  1.2237
 1347SOL     OW15499   0.194   4.319   7.148  0.2235  0.1775  0.2129
 1347SOL    HW115500   0.185   4.268   7.068  0.9068  0.4860 -0.0633
 1347SOL    HW215501   0.100   4.314   7.168  1.1367 -1.6612  4.0217
 1348SOL     OW15502   3.135   3.355   1.212  0.3308  0.1836 -0.4663
 1348SOL    HW115503   3.104   3.269   1.183  1.4181 -0.0765 -0.8360
 1348SOL    HW215504   3.134   3.334   1.305 -0.0389 -0.4634 -0.6128
 1349SOL     OW15505   2.031   3.538   6.721 -0.1872  0.8204  0.1585
 1349SOL    HW115506   1.989   3.490   6.792  0.6900 -0.5908 -0.2679
 1349SOL    HW215507   1.990   3.491   6.647 -0.2499  0.9725  0.0967
 1350SOL     OW15508   0.499   4.366   9.323 -0.5467 -0.6143 -0.2713
 1350SOL    HW115509   0.460   4.424   9.257 -0.8012  0.6203  0.9590
 1350SOL    HW215510   0.449   4.286   9.307  0.6065 -0.5597 -4.1361
 1351SOL     OW15511   0.186   1.417   6.346 -0.3481 -0.3807 -0.3344
 1351SOL    HW115512   0.258   1.479   6.361  0.0599 -1.1404  0.8274
 1351SOL    HW215513   0.235   1.336   6.337  0.8842  0.0040  2.9806
 1352SOL     OW15514   0.717   2.150   9.614 -0.5935 -0.6109  0.2318
 1352SOL    HW115515   0.624   2.173   9.611 -0.9996 -2.3875 -0.8460
 1352SOL    HW215516   0.725   2.113   9.526 -0.0957  2.3511 -0.9610
 1353SOL     OW15517   3.568   0.671   2.010 -0.0165 -0.3374  0.0554
 1353SOL    HW115518   3.484   0.707   2.037  0.2557  1.3382 -1.3422
 1353SOL    HW215519   3.625   0.688   2.084  0.9415 -1.4874 -0.4118
 1354SOL     OW15520   1.443   2.829   7.180 -0.3977  0.0836 -0.2398
 1354SOL    HW115521   1.524   2.784   7.202 -1.4988 -2.1649 -0.8300
 1354SOL    HW215522   1.420   2.870   7.263 -0.6683 -1.0621  0.2395
 1355SOL     OW15523   2.352   4.620   1.032  0.2034 -0.1204 -0.3029
 1355SOL    HW115524   2.269   4.587   0.997 -0.6210  1.6849 -0.0551
 1355SOL    HW215525   2.417   4.567   0.986  1.1348  1.3087 -0.6420
 1356SOL     OW15526   3.063   2.829   7.125 -0.2943 -0.2147 -0.0213
 1356SOL    HW115527   2.989   2.774   7.151  0.2198 -0.0779  1.7263
 1356SOL    HW215528   3.123   2.758   7.099  0.4133  0.6738 -0.8270
 1357SOL     OW15529   1.617   1.374  15.027 -0.3617 -0.2071  0.3361
 1357SOL    HW115530   1.597   1.397  14.936  0.5255 -1.7505 -0.2448
 1357SOL    HW215531   1.557   1.427  15.080 -0.2266  2.2362 -1.9753
 1358SOL     OW15532   1.775   3.015   5.111 -0.0011  0.0219 -0.5077
 1358SOL    HW115533   1.787   3.042   5.020  2.1325  0.6398 -0.0303
 1358SOL    HW215534   1.859   2.971   5.119 -0.2322 -0.6006 -1.4939
 1359SOL     OW15535   4.507   4.536   7.801 -0.1310 -0.0563 -0.1459
 1359SOL    HW115536   4.592   4.580   7.795 -0.0108  0.0026  1.8746
 1359SOL    HW215537   4.487   4.564   7.891  1.6233 -0.5145  0.3982
 1360SOL     OW15538   1.908   0.150   0.839 -0.6699 -0.0481  0.1786
 1360SOL    HW115539   1.883   0.094   0.912 -0.9816  0.1663  0.2353
 1360SOL    HW215540   1.839   0.136   0.774  1.2557  3.5609 -2.6772
 1361SOL     OW15541   2.585   2.010   8.956  0.2760 -0.0657  0.1928
 1361SOL    HW115542   2.533   1.992   9.034  1.2280  0.4713  0.9480
 1361SOL    HW215543   2.546   2.094   8.929 -1.7312 -0.3282  2.3585
 1362SOL     OW15544   1.903   2.555   7.826 -0.4596  0.3077  0.8627
 1362SOL    HW115545   1.873   2.572   7.737 -0.1324 -4.0396 -0.0740
 1362SOL    HW215546   1.969   2.486   7.824  0.2476  1.0441 -0.9773
 1363SOL     OW15547   1.784   3.718   5.332  0.3623 -0.3739 -0.0877
 1363SOL    HW115548   1.777   3.812   5.322  1.3258 -0.6344 -3.2863
 1363SOL    HW215549   1.861   3.711   5.388  0.4657  3.1836  0.1755
 1364SOL     OW15550   2.373   2.338   6.285 -0.1002  0.1959 -0.1802
 1364SOL    HW115551   2.301   2.381   6.239 -0.7393 -2.2280 -1.4561
 1364SOL    HW215552   2.332   2.305   6.366 -0.0623 -2.0576 -1.0729
 1365SOL     OW15553   2.315   1.311   4.843  0.2274  0.4134 -0.0448
 1365SOL    HW115554   2.345   1.365   4.916 -0.8437 -2.4797  2.5310
 1365SOL    HW215555   2.239   1.360   4.810 -0.9393 -1.7424 -0.5390
 1366SOL     OW15556   1.874   1.349  15.025  0.1856  0.5331 -0.5732
 1366SOL    HW115557   1.779   1.359  15.035  0.1693  0.6781 -0.8747
 1366SOL    HW215558   1.899   1.434  15.060  2.4652  0.2259 -1.4424
 1367SOL     OW15559   4.545   2.543   4.749 -0.4290 -0.1873  0.4583
 1367SOL    HW115560   4.640   2.555   4.755 -0.5479  1.7880 -1.6755
 1367SOL    HW215561   4.511   2.561   4.836 -0.8727 -1.2409  0.4998
 1368SOL     OW15562   3.462   1.307  10.223  0.1535 -0.5135 -0.0184
 1368SOL    HW115563   3.376   1.267  10.238 -0.6274  0.9962 -0.4276
 1368SOL    HW215564   3.504   1.310  10.309 -0.4721 -1.1383  0.3104
 1369SOL     OW15565   4.035   1.798  16.912 -0.5025  0.1573 -0.7102
 1369SOL    HW115566   3.975   1.755  16.973  1.0770  0.2796  0.9349
 1369SOL    HW215567   4.110   1.815  16.969 -0.2314 -0.1538 -0.9733
 1370SOL     OW15568   3.521   4.245  12.623 -0.2404  0.2558  0.0815
 1370SOL    HW115569   3.503   4.248  12.717 -1.2808  0.8019 -0.1298
 1370SOL    HW215570   3.600   4.192  12.618  0.3304  1.1339 -0.1341
 1371SOL     OW15571   4.256   2.806   5.114 -0.7620  0.1861  1.3564
 1371SOL    HW115572   4.341   2.809   5.157 -1.3324 -0.9349  2.5624
 1371SOL    HW215573   4.233   2.899   5.116  0.5487  0.5964 -3.4666
 1372SOL     OW15574   0.197   3.286   7.591 -0.6780  0.3117  0.8117
 1372SOL    HW115575   0.202   3.207   7.645 -1.8664 -0.9552 -0.8925
 1372SOL    HW215576   0.287   3.314   7.578 -0.9810  1.2474  0.7422
 1373SOL     OW15577   3.967   2.731   0.184 -0.4784  0.0075 -0.5976
 1373SOL    HW115578   4.025   2.798   0.220 -0.7337 -1.1334  1.9236
 1373SOL    HW215579   3.957   2.752   0.091  0.9223 -0.7765 -0.9185
 1374SOL     OW15580   2.049   4.340   4.226  0.5564  0.3269  0.3774
 1374SOL    HW115581   2.084   4.341   4.315  2.2653  0.0462 -0.3048
 1374SOL    HW215582   2.126   4.357   4.172  0.7437  0.4590  0.6822
 1375SOL     OW15583   1.815   4.346   8.197  0.1217  0.7474 -0.0558
 1375SOL    HW115584   1.824   4.262   8.150 -1.5754  0.0231  0.9320
 1375SOL    HW215585   1.804   4.310   8.285  1.2798 -1.4049 -0.7657
 1376SOL     OW15586   4.473   4.697   1.721 -0.1288  0.5196  0.1966
 1376SOL    HW115587   4.438   4.610   1.703 -1.3142  0.9826  0.2190
 1376SOL    HW215588   4.402   0.034   1.699 -1.2300 -0.7704  0.1489
 1377SOL     OW15589   0.801   1.619   9.327  0.6051  0.2703  0.7564
 1377SOL    HW115590   0.857   1.675   9.272  1.0226 -1.3370 -0.4409
 1377SOL    HW215591   0.788   1.545   9.268  1.7133  0.1356  0.6784
 1378SOL     OW15592   4.181   1.992   7.133  0.1123 -0.3393 -0.1872
 1378SOL    HW115593   4.194   1.912   7.082  0.1221  0.4608 -1.4484
 1378SOL    HW215594   4.251   2.037   7.085 -2.7870  2.1060 -2.1807
 1379SOL     OW15595   0.954   3.514  16.434 -0.0717 -0.3255 -0.6407
 1379SOL    HW115596   0.860   3.499  16.428 -0.6749  1.9942  3.0148
 1379SOL    HW215597   0.993   3.488  16.350  2.5987  1.3074  0.0776
 1380SOL     OW15598   1.199   4.689  17.516  0.6861  0.2934 -0.0229
 1380SOL    HW115599   1.291   4.674  17.498  0.6430 -1.8096  1.4906
 1380SOL    HW215600   1.207   0.027  17.588  1.7528 -0.0290  0.1342
 1381SOL     OW15601   2.501   0.826   4.721 -0.2122 -0.0839 -0.3182
 1381SOL    HW115602   2.467   0.808   4.809 -0.0181  2.8244  0.3219
 1381SOL    HW215603   2.457   0.910   4.709 -1.2737 -0.4544  0.9333
 1382SOL     OW15604   4.260   3.012  13.597  0.2880 -0.2307  0.2501
 1382SOL    HW115605   4.337   2.978  13.642 -0.8832 -2.3473  0.6668
 1382SOL    HW215606   4.224   2.928  13.569  2.0775  0.1746 -3.2956
 1383SOL     OW15607   1.657   1.872   1.209  0.6004  0.1847  0.0537
 1383SOL    HW115608   1.716   1.930   1.258 -2.0226  2.6676  0.2328
 1383SOL    HW215609   1.706   1.819   1.147  0.9084  0.4757  0.0505
 1384SOL     OW15610   4.218   1.913   5.073  0.4621  0.3171 -0.2777
 1384SOL    HW115611   4.313   1.901   5.079  0.7144  1.6415 -1.7602
 1384SOL    HW215612   4.216   1.999   5.030 -0.0076  0.7852  0.6729
 1385SOL     OW15613   4.098   1.050   4.322 -0.1627 -0.2639  0.0811
 1385SOL    HW115614   4.188   1.016   4.318  0.5923  1.5822  0.7985
 1385SOL    HW215615   4.097   1.077   4.414 -0.1408  0.0585 -0.0114
 1386SOL     OW15616   0.990   2.791   8.506  0.2164  0.2768 -0.2624
 1386SOL    HW115617   1.081   2.820   8.510  0.3647 -0.2928  0.4626
 1386SOL    HW215618   0.975   2.783   8.600 -1.0150  0.3607 -0.4465
 1387SOL     OW15619   0.153   4.627   1.085 -0.1964 -0.3742 -0.0504
 1387SOL    HW115620   0.204   4.626   1.166  1.8770 -0.2796 -1.3601
 1387SOL    HW215621   0.208   4.575   1.027  0.3349  0.1404  0.0046
 1388SOL     OW15622   0.020   0.320   8.340 -0.5447 -0.6021  0.7763
 1388SOL    HW115623   0.073   0.327   8.262  0.1500  0.3236  1.3382
 1388SOL    HW215624   0.002   0.413   8.354  2.4290  0.3104 -1.6049
 1389SOL     OW15625   2.523   3.086  17.631  0.1760  0.6633  0.6021
 1389SOL    HW115626   2.506   3.025  17.559 -3.2102 -0.8060  2.6604
 1389SOL    HW215627   2.494   3.025   0.000 -1.8264  1.6292  0.5935
 1390SOL     OW15628   4.570   3.317   6.258 -0.0782  0.0111 -0.0090
 1390SOL    HW115629   4.543   3.308   6.166  1.3593 -2.0193 -0.2492
 1390SOL    HW215630   4.666   3.322   6.259  0.0619 -2.3576 -0.0474
 1391SOL     OW15631   3.419   0.518   8.069  0.2063 -0.0157  0.0032
 1391SOL    HW115632   3.423   0.441   8.013  0.7943  1.2273 -1.6599
 1391SOL    HW215633   3.341   0.499   8.121  1.8765  0.0630  2.5156
 1392SOL     OW15634   1.570   3.337   8.343  0.0687  0.0045  0.0308
 1392SOL    HW115635   1.516   3.413   8.364  0.9551  0.8599 -0.7447
 1392SOL    HW215636   1.647   3.360   8.395 -0.7375  1.8769  0.4122
 1393SOL     OW15637   2.809   4.346   9.046  0.0464 -0.0637  0.4839
 1393SOL    HW115638   2.822   4.362   8.952  0.2119  0.8575  0.6617
 1393SOL    HW215639   2.892   4.308   9.073  0.1609  1.0714  1.7711
 1394SOL     OW15640   0.526   3.652   8.375 -0.0446 -0.1161 -0.0820
 1394SOL    HW115641   0.469   3.721   8.409  0.9307  1.0031 -0.6764
 1394SOL    HW215642   0.581   3.714   8.327 -1.3139  1.8476  0.9920
 1395SOL     OW15643   4.563   3.292   8.327  0.4832 -0.1468 -0.7615
 1395SOL    HW115644   4.653   3.286   8.295  0.1520  0.1091 -1.7433
 1395SOL    HW215645   4.538   3.203   8.353 -1.2245  0.4937 -0.2079
 1396SOL     OW15646   0.743   2.474   5.269 -0.1948  0.1310  0.7324
 1396SOL    HW115647   0.830   2.438   5.287 -0.4963  0.3850  2.6988
 1396SOL    HW215648   0.710   2.407   5.209  0.9875  0.5373 -0.3870
 1397SOL     OW15649   4.432   4.427   1.684 -0.5037  0.0093 -0.6580
 1397SOL    HW115650   4.452   4.444   1.592 -0.0823 -1.3075 -0.8081
 1397SOL    HW215651   4.517   4.390   1.706  0.0110  0.2448 -2.2686
 1398SOL     OW15652   2.948   0.301   2.724  0.2016  0.5764 -0.1108
 1398SOL    HW115653   2.976   0.300   2.633  0.7301  0.5188  0.0514
 1398SOL    HW215654   3.015   0.348   2.774  0.8358 -0.4987  0.0576
 1399SOL     OW15655   2.651   1.548   6.136  0.1425 -1.0795  0.3816
 1399SOL    HW115656   2.689   1.562   6.049 -0.0751 -1.9221  0.1547
 1399SOL    HW215657   2.563   1.530   6.105 -1.1013  2.9427  1.6234
 1400SOL     OW15658   2.962   0.683   3.622 -0.3564  0.2100 -0.1607
 1400SOL    HW115659   2.884   0.737   3.613  1.1380  2.3100 -0.2728
 1400SOL    HW215660   3.032   0.744   3.646  0.0749 -1.2670  2.3329
 1401SOL     OW15661   1.470   0.707   5.906  0.1030 -0.0706 -0.2011
 1401SOL    HW115662   1.484   0.706   6.001 -1.9396 -1.2103  0.1083
 1401SOL    HW215663   1.381   0.742   5.903  0.7353  1.2814 -2.2778
 1402SOL     OW15664   0.516   1.634   9.050 -0.1769  0.0598 -0.0987
 1402SOL    HW115665   0.455   1.563   9.065  0.6535 -0.7530 -0.5353
 1402SOL    HW215666   0.467   1.677   8.981  1.4423  1.4581 -0.3863
 1403SOL     OW15667   2.280   1.938   6.686  0.6277 -0.0230  0.1262
 1403SOL    HW115668   2.275   1.904   6.776  0.5809  1.5785  0.7246
 1403SOL    HW215669   2.316   1.865   6.636 -0.1493  0.2177 -0.7826
 1404SOL     OW15670   1.402   4.494   4.627  0.5147 -0.0890 -0.2542
 1404SOL    HW115671   1.339   4.529   4.689 -0.3999 -3.9496  1.0179
 1404SOL    HW215672   1.388   4.399   4.626  0.1628 -0.0368  0.0143
 1405SOL     OW15673   4.638   2.002  13.360  0.3513  0.0937  0.2101
 1405SOL    HW115674   4.677   1.958  13.436  0.9247 -1.4752 -0.9890
 1405SOL    HW215675   4.705   2.003  13.292  0.9232  1.0953  0.7731
 1406SOL     OW15676   4.284   4.188   2.461 -0.0914 -0.5623 -0.5054
 1406SOL    HW115677   4.243   4.183   2.548  1.9236 -0.9796  0.4125
 1406SOL    HW215678   4.237   4.264   2.428  1.2217  0.1649 -0.6945
 1407SOL     OW15679   4.601   3.533  16.170 -0.2254  0.4137  0.2192
 1407SOL    HW115680   4.586   3.443  16.143  1.9968 -0.3627  1.5599
 1407SOL    HW215681   4.528   3.585  16.136  0.4940  1.6548  0.5742
 1408SOL     OW15682   4.110   1.878  12.235  0.3553  0.4219 -0.2822
 1408SOL    HW115683   4.085   1.789  12.260 -0.0388  0.7458  0.4850
 1408SOL    HW215684   4.093   1.917  12.321 -1.5014 -1.1539  0.0800
 1409SOL     OW15685   1.722   2.825  11.158  0.1701 -0.0675 -0.4370
 1409SOL    HW115686   1.795   2.769  11.184 -0.5381 -1.1782 -0.8400
 1409SOL    HW215687   1.737   2.854  11.068  1.2584  2.6634  0.6297
 1410SOL     OW15688   0.439   4.570   5.531  0.0409 -0.3091 -0.7802
 1410SOL    HW115689   0.450   4.477   5.515 -3.3836 -0.5022 -1.9640
 1410SOL    HW215690   0.532   4.596   5.532  0.0716 -0.5458  2.0316
 1411SOL     OW15691   1.199   4.350   0.337  0.2356 -0.6088 -0.3257
 1411SOL    HW115692   1.174   4.440   0.313 -0.6777 -0.2866  1.8201
 1411SOL    HW215693   1.289   4.364   0.365 -0.0423  0.5310  0.0244
 1412SOL     OW15694   3.734   1.091   5.013 -0.3407 -0.2419  0.2282
 1412SOL    HW115695   3.790   1.152   4.965 -0.9883  0.1909  0.0244
 1412SOL    HW215696   3.662   1.083   4.952  0.3148  2.3262 -0.8494
 1413SOL     OW15697   1.282   4.675   6.380 -0.0782 -0.2411 -1.0412
 1413SOL    HW115698   1.248   0.040   6.373 -2.5183 -1.1171 -0.3441
 1413SOL    HW215699   1.194   4.638   6.391  0.3751 -0.5837  1.3664
 1414SOL     OW15700   2.154   3.270   6.456 -0.5089  0.7676 -0.3258
 1414SOL    HW115701   2.180   3.184   6.489  0.3271  0.9674 -0.4714
 1414SOL    HW215702   2.089   3.299   6.519 -0.3724  0.4671 -0.0489
 1415SOL     OW15703   4.241   4.099   8.210 -0.0360 -1.2783 -0.0891
 1415SOL    HW115704   4.253   4.088   8.116  2.4732  0.0322  0.0830
 1415SOL    HW215705   4.174   4.167   8.197  2.3855  1.1652  0.2360
 1416SOL     OW15706   1.458   3.612   4.306  0.7609  0.2304 -0.1365
 1416SOL    HW115707   1.450   3.534   4.361 -1.1640  0.6751  0.2081
 1416SOL    HW215708   1.387   3.603   4.243 -0.4079  1.8821  0.9562
 1417SOL     OW15709   2.311   3.667   9.805  0.7009 -0.6737 -0.2002
 1417SOL    HW115710   2.386   3.719   9.834  0.8594  1.0078 -3.5999
 1417SOL    HW215711   2.353   3.588   9.772 -0.3751 -1.5591  0.5391
 1418SOL     OW15712   3.680   4.585   7.423 -0.0809 -0.1179  0.5461
 1418SOL    HW115713   3.763   4.551   7.389  0.2198 -0.7660  1.9383
 1418SOL    HW215714   3.621   4.529   7.373 -1.6283  0.7143  1.4235
 1419SOL     OW15715   0.123   2.055  17.409  0.3740 -0.2074 -0.4962
 1419SOL    HW115716   0.201   2.106  17.430 -1.1266  1.0675  2.0406
 1419SOL    HW215717   0.058   2.119  17.439  2.1220  1.6755 -0.7346
 1420SOL     OW15718   2.034   3.197   4.689 -0.3564 -0.1972 -0.3561
 1420SOL    HW115719   2.045   3.274   4.745  0.1175 -0.8655  0.4663
 1420SOL    HW215720   2.105   3.192   4.625  0.3163  1.1697  0.2892
 1421SOL     OW15721   4.130   0.853   7.957 -0.3284  0.5595 -0.4647
 1421SOL    HW115722   4.103   0.885   7.871  0.1518  3.3994  0.4559
 1421SOL    HW215723   4.053   0.884   8.006 -0.9082 -1.0921 -0.3251
 1422SOL     OW15724   0.911   0.350   2.443 -0.2137  0.4427 -0.1070
 1422SOL    HW115725   0.883   0.433   2.403  0.6783  0.8844  0.1919
 1422SOL    HW215726   0.928   0.291   2.370  0.7683 -0.3282  0.7569
 1423SOL     OW15727   4.324   1.170   6.519  0.3269 -0.3998  0.0168
 1423SOL    HW115728   4.248   1.227   6.528  1.4626  0.9632  0.9337
 1423SOL    HW215729   4.301   1.091   6.568 -0.4893 -1.3304 -1.8529
 1424SOL     OW15730   2.959   3.193  15.721  0.6353  0.2593  0.5703
 1424SOL    HW115731   2.991   3.119  15.773 -0.9541 -0.0427  1.1193
 1424SOL    HW215732   3.021   3.253  15.762  0.1411  0.6090  0.8062
 1425SOL     OW15733   2.070   3.436   4.433 -0.3168  0.0697 -0.0408
 1425SOL    HW115734   2.091   3.353   4.389 -1.9560  0.6081 -1.8704
 1425SOL    HW215735   1.991   3.463   4.387  0.7182  1.3943 -1.0462
 1426SOL     OW15736   3.686   1.126   7.787 -0.3370 -0.3493  0.2851
 1426SOL    HW115737   3.756   1.174   7.831 -1.7932  0.6954  1.4514
 1426SOL    HW215738   3.670   1.064   7.857 -0.0644  1.3927  1.8797
 1427SOL     OW15739   1.302   0.271   7.987 -0.7308  0.0625 -0.0334
 1427SOL    HW115740   1.247   0.243   8.060 -0.8847  0.7018  0.0953
 1427SOL    HW215741   1.279   0.364   7.988 -1.5694 -0.1586  0.6361
 1428SOL     OW15742   2.174   2.690   9.522 -0.2858 -0.4555  0.0909
 1428SOL    HW115743   2.246   2.734   9.567  0.5123  0.3795 -1.9597
 1428SOL    HW215744   2.217   2.606   9.506 -0.9642 -1.2204  2.3288
 1429SOL     OW15745   3.779   3.660   5.651  0.2114  0.4022  0.2143
 1429SOL    HW115746   3.693   3.631   5.620  0.2042  0.4543  0.1854
 1429SOL    HW215747   3.844   3.622   5.592  0.1288 -0.7910  0.8840
 1430SOL     OW15748   3.248   2.892   8.420 -0.0561  0.0635 -0.0174
 1430SOL    HW115749   3.272   2.957   8.354 -0.0342  0.4004  0.3171
 1430SOL    HW215750   3.216   2.824   8.362 -1.8471 -0.0785  1.1441
 1431SOL     OW15751   0.514   1.396   4.542 -0.0916  0.2207 -0.1726
 1431SOL    HW115752   0.603   1.376   4.570 -0.4668  0.5280  1.2375
 1431SOL    HW215753   0.490   1.313   4.500 -2.0386 -0.2860  1.9187
 1432SOL     OW15754   2.183   1.863  13.383 -0.1605  0.3222  0.0360
 1432SOL    HW115755   2.121   1.794  13.407  0.5390  0.1741  1.3914
 1432SOL    HW215756   2.213   1.819  13.303  1.0641  1.2426 -0.0057
 1433SOL     OW15757   0.768   4.427   8.248  0.0573  0.3395  0.0358
 1433SOL    HW115758   0.755   4.411   8.155 -1.7503 -2.1463  0.7070
 1433SOL    HW215759   0.728   4.348   8.285  1.1612 -0.5470 -0.6615
 1434SOL     OW15760   1.916   3.291   4.263  0.1831 -0.2650  0.0562
 1434SOL    HW115761   1.879   3.366   4.217  1.6877  0.9348  0.8189
 1434SOL    HW215762   1.884   3.214   4.217  2.1239 -0.0619 -1.6133
 1435SOL     OW15763   4.273   2.855  12.731  0.2631 -0.4835 -0.0792
 1435SOL    HW115764   4.209   2.908  12.684  0.3855 -0.3606 -0.1060
 1435SOL    HW215765   4.217   2.781  12.755 -0.7014  0.3286  0.1309
 1436SOL     OW15766   3.143   3.885   3.088  0.0812  0.1697  0.6510
 1436SOL    HW115767   3.200   3.937   3.032 -1.0010  1.5942  0.8898
 1436SOL    HW215768   3.204   3.822   3.127  1.7942  0.3773 -1.6785
 1437SOL     OW15769   2.496   3.107   3.058 -0.2313  0.4831 -0.1933
 1437SOL    HW115770   2.491   3.192   3.101  1.1548  0.6110 -0.2913
 1437SOL    HW215771   2.517   3.136   2.969 -0.8323 -1.3879 -0.9341
 1438SOL     OW15772   3.794   4.108   8.162  0.9427 -0.3068  0.6237
 1438SOL    HW115773   3.886   4.083   8.156  0.7145 -1.4209  2.0347
 1438SOL    HW215774   3.778   4.059   8.242 -0.6009 -0.8483 -0.0267
 1439SOL     OW15775   4.509   3.383   6.535  0.6222  0.3678  0.3816
 1439SOL    HW115776   4.453   3.460   6.545  0.3965  0.4165 -1.3020
 1439SOL    HW215777   4.524   3.392   6.441 -1.9697 -2.0640 -0.2317
 1440SOL     OW15778   4.617   3.995  10.941 -0.1384 -0.1434 -1.0428
 1440SOL    HW115779   4.636   3.906  10.909  0.2828 -1.5337  3.0097
 1440SOL    HW215780   4.521   3.998  10.941 -0.2009 -1.4598  2.2123
 1441SOL     OW15781   4.470   2.110   2.078 -0.3554 -0.6631 -0.0386
 1441SOL    HW115782   4.381   2.080   2.065 -1.1774  1.5972  0.2676
 1441SOL    HW215783   4.478   2.116   2.173  1.4092 -0.0033 -0.2260
 1442SOL     OW15784   0.041   3.575  11.587 -0.2721 -0.2848 -0.8573
 1442SOL    HW115785   4.712   3.593  11.510  2.2757  1.1655 -2.3024
 1442SOL    HW215786   0.032   3.654  11.639 -2.6838 -0.5353 -0.9204
 1443SOL     OW15787   1.376   1.334  15.273 -0.3591  0.0958  0.2714
 1443SOL    HW115788   1.407   1.267  15.335  3.4449  0.9548 -0.7047
 1443SOL    HW215789   1.414   1.409  15.319 -1.4385  0.5668  0.3794
 1444SOL     OW15790   3.161   1.623   6.984  0.7452  0.1881 -0.7080
 1444SOL    HW115791   3.220   1.657   6.917  0.4789 -0.0428 -1.0623
 1444SOL    HW215792   3.139   1.696   7.042  0.4975 -0.4948  0.0476
 1445SOL     OW15793   4.469   3.305  14.947 -0.0961  0.1228  0.1862
 1445SOL    HW115794   4.423   3.373  14.898  1.5484  0.2968 -1.0796
 1445SOL    HW215795   4.431   3.241  14.888  0.4975 -0.2937  0.2568
 1446SOL     OW15796   4.629   0.850   9.415  0.3212  0.0842  0.4453
 1446SOL    HW115797   4.587   0.766   9.400 -0.0291  0.4491 -0.6533
 1446SOL    HW215798   4.579   0.888   9.487  0.3106  0.6495  0.1443
 1447SOL     OW15799   4.134   0.830   5.734 -0.0120 -0.2414  0.8654
 1447SOL    HW115800   4.097   0.752   5.774 -2.7003  0.4067 -0.3758
 1447SOL    HW215801   4.220   0.792   5.715  0.4295  2.7244 -3.1006
 1448SOL     OW15802   0.982   4.254  17.519 -0.1157  0.8711 -0.0012
 1448SOL    HW115803   1.035   4.292  17.449  1.9974 -0.8360  0.6739
 1448SOL    HW215804   0.896   4.287  17.496 -1.4621 -1.4191  1.7111
 1449SOL     OW15805   1.941   1.664   6.785 -0.4129 -0.1196 -0.0011
 1449SOL    HW115806   1.859   1.699   6.821 -1.3475 -1.7016 -0.5774
 1449SOL    HW215807   2.009   1.708   6.836 -0.0905 -0.5693 -0.0516
 1450SOL     OW15808   0.034   0.302  12.738  0.0685 -0.3462  0.3408
 1450SOL    HW115809   0.005   0.222  12.693 -0.4820 -0.1752  0.3868
 1450SOL    HW215810   0.052   0.356  12.661 -0.7866 -1.6602 -0.7965
 1451SOL     OW15811   1.651   1.841   7.913 -0.0503 -0.3600 -0.1776
 1451SOL    HW115812   1.605   1.829   7.830  0.5886  0.5124 -0.6573
 1451SOL    HW215813   1.610   1.771   7.963 -0.2215  1.8627  2.8315
 1452SOL     OW15814   3.833   4.589  13.509  0.2801  0.0192  0.3772
 1452SOL    HW115815   3.744   4.613  13.536  0.2868  0.9131 -0.4122
 1452SOL    HW215816   3.813   4.505  13.467  2.3091  0.4642 -1.4903
 1453SOL     OW15817   3.671   4.048  10.454 -0.5839 -0.1936  0.1490
 1453SOL    HW115818   3.737   4.013  10.395  1.7528  0.6025  2.2794
 1453SOL    HW215819   3.730   4.049  10.530 -0.8817  1.4998  0.3505
 1454SOL     OW15820   0.450   2.052  10.769 -0.0633 -0.1305 -0.0693
 1454SOL    HW115821   0.374   2.071  10.714  0.8278  1.3437 -0.7780
 1454SOL    HW215822   0.503   2.002  10.707 -0.0970 -0.7006  0.3593
 1455SOL     OW15823   4.291   2.457  15.034 -0.2773 -0.8090 -1.1931
 1455SOL    HW115824   4.209   2.438  15.079 -1.0891 -1.2193 -2.8531
 1455SOL    HW215825   4.358   2.430  15.097 -0.2629  0.0055 -0.8610
 1456SOL     OW15826   3.784   2.521  10.884 -0.3055  0.1942 -0.2557
 1456SOL    HW115827   3.857   2.459  10.885  0.3256  0.9338 -0.5331
 1456SOL    HW215828   3.819   2.595  10.834 -1.4081  0.6419 -0.3727
 1457SOL     OW15829   3.308   3.410   8.272  0.2370  0.1370 -0.5621
 1457SOL    HW115830   3.256   3.487   8.294 -0.5568 -0.7022  0.4816
 1457SOL    HW215831   3.369   3.416   8.346 -0.8781 -1.0105  0.4498
 1458SOL     OW15832   0.352   3.656   3.536  0.3387 -0.2121 -0.3035
 1458SOL    HW115833   0.316   3.716   3.471  4.3144  2.2548 -0.2214
 1458SOL    HW215834   0.443   3.645   3.507  0.9664  2.2260  0.7101
 1459SOL     OW15835   4.118   1.972  16.730 -0.1109 -0.2429  0.4637
 1459SOL    HW115836   4.106   1.902  16.793 -1.5557  1.5074  2.1429
 1459SOL    HW215837   4.087   1.927  16.652  0.0268 -0.7163  0.6865
 1460SOL     OW15838   2.407   0.572   8.582 -0.6673 -0.5407  0.5746
 1460SOL    HW115839   2.435   0.604   8.668 -0.1306 -0.1512  0.2581
 1460SOL    HW215840   2.339   0.507   8.599 -0.7943 -0.0081  2.1684
 1461SOL     OW15841   3.851   3.856  12.825  0.0247 -0.1359  0.2058
 1461SOL    HW115842   3.829   3.801  12.900 -1.6252 -0.9406 -0.8690
 1461SOL    HW215843   3.772   3.840  12.773 -0.7897 -1.3893  1.7904
 1462SOL     OW15844   1.220   4.345   3.356 -0.2351  0.6404 -0.5344
 1462SOL    HW115845   1.195   4.356   3.264 -1.6658  1.9446 -0.0038
 1462SOL    HW215846   1.305   4.388   3.356  0.0319  0.1235 -1.3181
 1463SOL     OW15847   3.253   3.594   9.623 -0.5259 -0.6159  0.2360
 1463SOL    HW115848   3.237   3.557   9.710  0.1998 -2.3185 -0.3693
 1463SOL    HW215849   3.232   3.687   9.632  1.4971  0.0398 -1.8927
 1464SOL     OW15850   0.822   2.001  10.631 -0.2559  0.6354  1.1058
 1464SOL    HW115851   0.823   2.084  10.678 -1.1468  0.5237  1.3081
 1464SOL    HW215852   0.913   1.996  10.599 -0.1793 -1.2406  1.6316
 1465SOL     OW15853   2.767   0.038   3.632 -0.0582 -0.1679  0.2886
 1465SOL    HW115854   2.843   0.016   3.685 -0.9879 -0.1469  1.6392
 1465SOL    HW215855   2.692   0.032   3.692  1.5740  1.1559  2.4582
 1466SOL     OW15856   1.114   4.613   2.594  0.4050 -0.7210 -0.7092
 1466SOL    HW115857   1.161   4.553   2.537 -1.6157 -0.9455 -2.1409
 1466SOL    HW215858   1.070   4.553   2.655  0.1225  1.6412  1.4468
 1467SOL     OW15859   0.555   2.213   1.301  0.1887  0.4856  0.5813
 1467SOL    HW115860   0.616   2.146   1.333 -0.3348 -0.1611  0.2419
 1467SOL    HW215861   0.604   2.264   1.236  1.4086  0.4568  1.4795
 1468SOL     OW15862   3.742   0.741   8.764  0.5888  0.3236  0.0982
 1468SOL    HW115863   3.837   0.736   8.758  0.2972 -2.7805 -1.4073
 1468SOL    HW215864   3.728   0.665   8.820 -2.3569  0.3980 -0.5034
 1469SOL     OW15865   2.682   2.416   8.108  0.0853 -0.6311 -0.6479
 1469SOL    HW115866   2.745   2.426   8.179 -0.0454  3.5610 -1.1333
 1469SOL    HW215867   2.712   2.339   8.059  0.8120  1.3755 -3.3800
 1470SOL     OW15868   2.416   0.016  16.426 -0.0728 -0.2286 -0.5875
 1470SOL    HW115869   2.377   4.702  16.346 -0.8327 -1.4574  0.3674
 1470SOL    HW215870   2.510   0.001  16.416 -0.0599 -0.1578 -0.5692
 1471SOL     OW15871   0.040   1.973  12.185 -0.2907  0.0430 -0.5092
 1471SOL    HW115872   0.038   2.020  12.102  0.2441 -0.3267 -0.7322
 1471SOL    HW215873   4.719   2.044  12.232  1.6431 -0.0802  1.5185
 1472SOL     OW15874   2.884   3.343   2.661  0.4100  0.3289  0.3156
 1472SOL    HW115875   2.960   3.308   2.709 -0.4909 -0.3267  1.2697
 1472SOL    HW215876   2.923   3.367   2.577 -0.0945  1.8208  0.5076
 1473SOL     OW15877   2.943   2.062  17.376  0.0208 -0.9239  0.3817
 1473SOL    HW115878   2.848   2.069  17.364  0.3274 -2.4427 -2.9728
 1473SOL    HW215879   2.971   2.154  17.377  0.2404 -0.9917  0.7832
 1474SOL     OW15880   1.564   3.397   6.916  0.6774  0.2688 -0.3092
 1474SOL    HW115881   1.499   3.462   6.943  2.1324  0.6240  2.3643
 1474SOL    HW215882   1.569   3.394   6.821  0.6534  0.1771 -0.3071
 1475SOL     OW15883   3.021   4.210   4.812 -0.0583  0.4201  0.1205
 1475SOL    HW115884   3.054   4.214   4.722  1.0869 -1.2528  0.4754
 1475SOL    HW215885   2.931   4.243   4.805 -0.0777  0.2538 -0.4054
 1476SOL     OW15886   4.009   1.867   2.196  0.6523  0.0620  0.3039
 1476SOL    HW115887   3.922   1.893   2.224  0.7239  1.3974 -0.6950
 1476SOL    HW215888   3.987   1.782   2.160  1.6260 -0.8639  1.9124
 1477SOL     OW15889   1.320   4.409   8.780 -0.7192  0.6760  0.0493
 1477SOL    HW115890   1.409   4.399   8.746 -1.3666 -0.2410 -1.3903
 1477SOL    HW215891   1.269   4.367   8.711 -3.5469 -1.1085  3.2050
 1478SOL     OW15892   1.870   0.845   9.713  0.8368 -0.6811 -0.2273
 1478SOL    HW115893   1.961   0.815   9.714  0.7990 -0.7947 -0.1160
 1478SOL    HW215894   1.861   0.917   9.775  1.1004  1.2132 -2.4238
 1479SOL     OW15895   0.741   0.042   8.982 -0.0649  0.0981  0.0003
 1479SOL    HW115896   0.804   4.723   8.925 -1.0116  0.0908 -1.0201
 1479SOL    HW215897   0.676   0.034   8.913 -0.0222  1.2566 -0.1761
 1480SOL     OW15898   2.815   4.491   5.093  0.0826 -0.1460  0.0424
 1480SOL    HW115899   2.884   4.430   5.118  0.1309 -0.3997 -0.7106
 1480SOL    HW215900   2.867   4.569   5.078  2.9913 -2.4192 -1.5800
 1481SOL     OW15901   0.471   1.557   7.832 -0.2343 -0.3636  0.3973
 1481SOL    HW115902   0.521   1.540   7.911 -0.2285 -0.1095  0.4484
 1481SOL    HW215903   0.482   1.652   7.828 -0.9671 -0.3077 -0.5355
 1482SOL     OW15904   2.812   3.878   7.964  0.2288  0.1674 -0.0623
 1482SOL    HW115905   2.811   3.845   8.054  1.5201 -2.2519 -0.9390
 1482SOL    HW215906   2.717   3.884   7.952  0.1546  2.7489  1.7685
 1483SOL     OW15907   2.457   0.035  12.713 -0.8468  0.2184 -0.5652
 1483SOL    HW115908   2.375   4.715  12.734 -0.7217  0.5526  0.6096
 1483SOL    HW215909   2.457   0.103  12.780  0.6430 -2.2216  1.8746
 1484SOL     OW15910   1.769   4.047   5.974 -0.1837 -0.3929  0.1152
 1484SOL    HW115911   1.768   4.100   5.894  0.9288 -2.4040 -1.2344
 1484SOL    HW215912   1.825   3.975   5.946 -0.0168 -1.0436  2.1304
 1485SOL     OW15913   4.340   1.534   3.320 -0.1184  1.0374  0.1046
 1485SOL    HW115914   4.409   1.576   3.268  0.5507 -1.3029 -0.8823
 1485SOL    HW215915   4.318   1.604   3.381  1.5595  0.6958  1.1225
 1486SOL     OW15916   3.366   3.011   8.204  0.0064  0.4101 -0.4085
 1486SOL    HW115917   3.290   3.053   8.163  0.2673 -0.9884 -2.3542
 1486SOL    HW215918   3.424   3.087   8.196  0.0253  0.1536 -2.8030
 1487SOL     OW15919   0.988   0.625   9.401 -0.4804 -0.2748  0.1141
 1487SOL    HW115920   0.978   0.718   9.420 -0.6758 -0.4725  1.0003
 1487SOL    HW215921   0.909   0.589   9.441 -0.3897 -1.9255 -1.2008
 1488SOL     OW15922   1.495   3.088   0.545 -0.0994  0.5039  0.0164
 1488SOL    HW115923   1.575   3.067   0.593 -0.1720 -1.0151 -0.5196
 1488SOL    HW215924   1.495   3.012   0.487  1.4869 -1.5306  2.7303
 1489SOL     OW15925   2.165   2.559   0.353  0.1644  0.1252 -0.6705
 1489SOL    HW115926   2.078   2.592   0.330 -0.0614  0.1177  0.1888
 1489SOL    HW215927   2.169   2.592   0.443 -0.4516  1.3787 -1.0999
 1490SOL     OW15928   3.108   2.183  12.867 -0.4298 -0.0698 -0.2505
 1490SOL    HW115929   3.203   2.175  12.874 -0.5212 -1.0361 -0.1984
 1490SOL    HW215930   3.106   2.268  12.822 -1.6374 -0.6694 -1.3529
 1491SOL     OW15931   3.128   4.469   8.542 -0.1662  0.0686 -0.7039
 1491SOL    HW115932   3.063   4.525   8.500 -1.6340 -1.3196 -0.3071
 1491SOL    HW215933   3.151   4.403   8.477  1.7968 -0.2202  0.2912
 1492SOL     OW15934   1.029   0.330   1.712 -0.0137  0.1804  0.5325
 1492SOL    HW115935   1.092   0.297   1.777 -0.1181  0.4536  0.7721
 1492SOL    HW215936   1.057   0.295   1.628 -2.8880 -2.0817  0.5108
 1493SOL     OW15937   1.525   1.862   6.049 -0.0292  0.2246  0.0381
 1493SOL    HW115938   1.456   1.914   6.090  0.7280  0.4620  1.0177
 1493SOL    HW215939   1.562   1.932   5.996  1.0755 -0.9700 -0.7614
 1494SOL     OW15940   2.843   0.794   6.891  0.5405 -0.2661 -0.4392
 1494SOL    HW115941   2.802   0.765   6.809  1.0979  1.2884 -1.2703
 1494SOL    HW215942   2.823   0.888   6.891 -1.5736 -0.7244 -0.7125
 1495SOL     OW15943   4.457   1.779   8.172 -0.3139 -0.0788  0.0467
 1495SOL    HW115944   4.449   1.713   8.103  1.6814 -1.6012  1.2706
 1495SOL    HW215945   4.372   1.776   8.216 -0.0321 -0.2765  0.5743
 1496SOL     OW15946   1.534   3.606   7.998  0.3897 -0.0964  0.4278
 1496SOL    HW115947   1.467   3.668   8.025  1.5063  0.1198  2.7215
 1496SOL    HW215948   1.606   3.670   7.993  1.2951 -1.0535  1.1742
 1497SOL     OW15949   2.013   1.475   0.021  0.0092 -0.0561  1.0055
 1497SOL    HW115950   1.965   1.509   0.097 -0.4849 -0.2782  0.7961
 1497SOL    HW215951   2.032   1.562  17.682 -1.1511  0.8844  2.6241
 1498SOL     OW15952   0.440   1.366   8.426 -0.9792 -0.1234 -0.4486
 1498SOL    HW115953   0.534   1.348   8.427 -0.8408  0.5414 -2.3496
 1498SOL    HW215954   0.436   1.454   8.389 -0.3327  0.9904  2.1108
 1499SOL     OW15955   1.231   0.427  13.216 -0.0804  0.6428 -0.4975
 1499SOL    HW115956   1.146   0.397  13.250 -0.4710  0.3740 -1.6769
 1499SOL    HW215957   1.236   0.520  13.238 -0.2761  1.0736 -2.3050
 1500SOL     OW15958   1.609   1.726  14.459  0.0411 -0.1413  0.4153
 1500SOL    HW115959   1.668   1.800  14.444 -1.2793  1.0316  1.0203
 1500SOL    HW215960   1.633   1.702  14.549 -0.5523  3.1712  1.4554
 1501SOL     OW15961   1.788   3.201  10.643  0.8914  0.4139 -0.1766
 1501SOL    HW115962   1.810   3.184  10.734  0.2277 -1.1295 -0.3026
 1501SOL    HW215963   1.874   3.205  10.602  1.1514 -0.2279  0.3044
 1502SOL     OW15964   3.751   1.043   8.492  0.0567 -0.0865  0.2341
 1502SOL    HW115965   3.834   1.040   8.444 -0.4497  1.0408 -0.7109
 1502SOL    HW215966   3.770   1.060   8.584  0.0857 -0.2344  0.2548
 1503SOL     OW15967   0.872   4.276   2.611  0.2139  0.4749  0.0455
 1503SOL    HW115968   0.945   4.287   2.549  1.0539  0.9277  1.1292
 1503SOL    HW215969   0.798   4.306   2.557 -0.3850 -2.1032 -0.5734
 1504SOL     OW15970   3.772   3.278   7.775  1.0060  0.1083  0.3100
 1504SOL    HW115971   3.759   3.186   7.797 -2.8071  1.0839  2.0964
 1504SOL    HW215972   3.693   3.299   7.725  0.6881  0.5893  1.0136
 1505SOL     OW15973   1.165   0.789   9.027  0.1738  0.7194 -0.4310
 1505SOL    HW115974   1.078   0.785   8.987 -0.9906 -0.1630  2.1893
 1505SOL    HW215975   1.139   0.836   9.106  0.0151  1.0834 -0.6988
 1506SOL     OW15976   4.303   0.728  11.779  0.2361  0.1518 -0.4539
 1506SOL    HW115977   4.317   0.742  11.685 -1.7178  2.7874 -0.3515
 1506SOL    HW215978   4.306   0.818  11.811  2.0627 -0.1636  0.2804
 1507SOL     OW15979   3.200   4.096  10.661  0.5555 -0.4859 -0.2155
 1507SOL    HW115980   3.118   4.095  10.611  1.1568  3.0627 -1.2754
 1507SOL    HW215981   3.259   4.147  10.606 -1.4887  3.5202  1.3506
 1508SOL     OW15982   1.722   3.909   9.045  0.9914  0.1117  0.0573
 1508SOL    HW115983   1.758   3.985   9.090 -2.6480  1.4387  0.7126
 1508SOL    HW215984   1.771   3.839   9.089  0.8485 -1.3333 -2.0907
 1509SOL     OW15985   4.233   3.150  14.272 -0.0267  0.1484  0.1957
 1509SOL    HW115986   4.255   3.151  14.179 -0.0280  1.7750  0.2176
 1509SOL    HW215987   4.319   3.182  14.297 -0.5750  0.3941  1.7981
 1510SOL     OW15988   0.970   1.690  12.150  0.2628  0.1673  0.1822
 1510SOL    HW115989   0.999   1.599  12.156 -0.8053 -0.1657  0.2372
 1510SOL    HW215990   0.994   1.726  12.236  2.8558  1.6152 -1.1435
 1511SOL     OW15991   1.163   3.677   4.553  0.0679 -0.0390  0.3826
 1511SOL    HW115992   1.146   3.762   4.512 -0.5385 -0.9760 -1.2764
 1511SOL    HW215993   1.232   3.698   4.616 -0.5083  0.4971  0.8409
 1512SOL     OW15994   2.843   2.482   7.417 -0.2956 -0.5708 -0.1919
 1512SOL    HW115995   2.777   2.550   7.431 -0.1592 -0.7346  1.2521
 1512SOL    HW215996   2.836   2.422   7.492 -0.3466 -0.9413 -0.4931
 1513SOL     OW15997   4.386   3.584   9.799  0.0587 -0.2048 -0.0397
 1513SOL    HW115998   4.451   3.552   9.737 -1.3003 -0.9421 -1.0976
 1513SOL    HW215999   4.396   3.523   9.872 -1.8440 -0.4425  0.0194
 1514SOL     OW16000   4.198   1.821   3.899 -0.1021 -0.1718  0.3908
 1514SOL    HW116001   4.222   1.854   3.813 -1.8726  0.6778  0.2270
 1514SOL    HW216002   4.279   1.776   3.924  0.5526  0.2812 -0.9256
 1515SOL     OW16003   2.848   1.349   6.140  0.8321 -0.4081 -0.1749
 1515SOL    HW116004   2.862   1.282   6.208 -0.2043 -1.4942 -1.0363
 1515SOL    HW216005   2.773   1.400   6.172 -0.2690 -1.9072 -0.3427
 1516SOL     OW16006   4.532   2.101   3.045 -0.5288  0.3742 -0.2210
 1516SOL    HW116007   4.464   2.158   3.012 -1.4595 -1.6975 -1.9280
 1516SOL    HW216008   4.584   2.162   3.097 -0.5314  0.6457 -0.5366
 1517SOL     OW16009   3.875   1.613   3.328  0.3550 -0.4335 -0.4770
 1517SOL    HW116010   3.798   1.665   3.304  1.1250  0.7554 -0.4090
 1517SOL    HW216011   3.843   1.532   3.289  1.3374 -0.7080 -0.7048
 1518SOL     OW16012   3.772   2.889  16.139 -0.0309 -0.6433 -0.4538
 1518SOL    HW116013   3.828   2.899  16.062  0.2974  0.1452 -0.1096
 1518SOL    HW216014   3.755   2.795  16.146  1.5919 -0.9278 -0.3643
 1519SOL     OW16015   3.494   3.742   2.258 -0.4140  0.0643 -0.4397
 1519SOL    HW116016   3.578   3.786   2.269 -0.7882  0.4177  0.9975
 1519SOL    HW216017   3.449   3.807   2.205  1.1987 -0.3932 -2.3544
 1520SOL     OW16018   0.208   1.961   6.982  0.2445  0.0669 -0.0727
 1520SOL    HW116019   0.222   2.056   6.982 -1.0954  0.2685 -1.5053
 1520SOL    HW216020   0.292   1.930   7.015  0.2241  0.2841  0.1847
 1521SOL     OW16021   1.195   4.699   3.754  0.0307  0.1807 -0.5686
 1521SOL    HW116022   1.226   0.066   3.748  1.1489 -0.1017  0.8206
 1521SOL    HW216023   1.248   4.662   3.683 -1.8239 -1.0664 -1.2834
 1522SOL     OW16024   1.333   1.949   7.892 -0.3428 -0.5514  0.2191
 1522SOL    HW116025   1.277   1.935   7.968 -1.3937 -3.0521 -1.0137
 1522SOL    HW216026   1.410   1.905   7.929  0.8022  0.1546 -1.3140
 1523SOL     OW16027   3.572   4.234   8.269 -0.2662 -0.1182  0.1479
 1523SOL    HW116028   3.653   4.188   8.246 -0.2792 -0.3055  0.4644
 1523SOL    HW216029   3.607   4.302   8.327 -0.2345  1.1944 -1.4043
 1524SOL     OW16030   3.839   2.025  10.323  0.3213 -0.5937  0.2021
 1524SOL    HW116031   3.916   1.974  10.347  2.4730  0.9738 -3.2623
 1524SOL    HW216032   3.777   2.002  10.392  1.0482  0.8147  1.3264
 1525SOL     OW16033   2.613   4.192   3.040 -0.3487  0.5513 -0.5381
 1525SOL    HW116034   2.518   4.192   3.054  0.0185 -1.3230  1.9561
 1525SOL    HW216035   2.616   4.210   2.946 -3.0064  3.2428 -0.1106
 1526SOL     OW16036   4.038   2.527   3.041  0.2194  0.4050 -0.1771
 1526SOL    HW116037   4.101   2.552   2.972  0.0455  1.3612  0.0119
 1526SOL    HW216038   3.970   2.591   3.021 -1.1787 -0.9632  0.2981
 1527SOL     OW16039   2.511   3.520  17.499  0.1162 -0.3840  0.3207
 1527SOL    HW116040   2.597   3.553  17.528 -0.2881  0.3859  0.6327
 1527SOL    HW216041   2.461   3.578  17.556 -0.5092  0.0724 -0.7086
 1528SOL     OW16042   3.179   0.015   7.619  0.0433 -0.0459 -0.3889
 1528SOL    HW116043   3.257   0.034   7.671 -0.0133 -0.2938 -0.2128
 1528SOL    HW216044   3.117   4.699   7.680 -1.5950  0.0934 -1.9819
 1529SOL     OW16045   2.798   1.346  13.476 -0.0146  0.0889 -0.4009
 1529SOL    HW116046   2.806   1.300  13.559 -0.3924  0.2149 -0.2921
 1529SOL    HW216047   2.861   1.417  13.489  0.7343 -0.0133 -3.4871
 1530SOL     OW16048   2.218   1.962   7.549  0.0164 -0.3804  0.5270
 1530SOL    HW116049   2.212   2.054   7.576  1.2682 -0.2594  0.3847
 1530SOL    HW216050   2.135   1.935   7.589  1.3456 -3.0346  1.5216
 1531SOL     OW16051   2.201   1.695   0.986  0.8347  0.1047  0.0313
 1531SOL    HW116052   2.111   1.725   0.981  0.5334 -0.7959  0.0297
 1531SOL    HW216053   2.243   1.745   0.916  0.4189  2.0461  1.1827
 1532SOL     OW16054   4.345   4.446   6.620  0.1065 -0.0855  0.5198
 1532SOL    HW116055   4.255   4.443   6.587 -0.1099 -2.1001  1.2847
 1532SOL    HW216056   4.372   4.359   6.590  1.1041  1.1099 -2.0336
 1533SOL     OW16057   1.504   0.708  14.606  0.0800  0.4652 -0.2792
 1533SOL    HW116058   1.441   0.780  14.608 -1.4425 -0.8477 -0.3122
 1533SOL    HW216059   1.568   0.735  14.671 -0.0474 -2.7654  1.1653
 1534SOL     OW16060   0.999   4.077   3.841 -0.1094  0.4707 -0.4161
 1534SOL    HW116061   0.970   4.133   3.914  2.3716  0.8756  0.2534
 1534SOL    HW216062   1.093   4.096   3.841  0.3152 -1.6280 -0.3946
 1535SOL     OW16063   1.421   2.336   3.564 -0.2843 -0.5559  0.1544
 1535SOL    HW116064   1.350   2.300   3.511  1.4568 -2.6377 -0.7788
 1535SOL    HW216065   1.464   2.257   3.598 -0.3181 -1.7568 -2.5443
 1536SOL     OW16066   2.179   0.662   5.113  0.2528  0.5820  0.0911
 1536SOL    HW116067   2.116   0.623   5.052  0.5101 -0.4598  0.4948
 1536SOL    HW216068   2.144   0.737   5.160  0.2151 -0.3495  1.5611
 1537SOL     OW16069   3.091   4.153   4.480  0.2740 -0.2651  0.3700
 1537SOL    HW116070   3.174   4.187   4.515  1.0872  1.0413 -2.8064
 1537SOL    HW216071   3.109   4.160   4.386  0.7950  0.9728  0.5629
 1538SOL     OW16072   3.784   2.971   7.841  0.2095  0.1706 -0.9276
 1538SOL    HW116073   3.707   2.967   7.897 -0.6059  3.5460 -1.7893
 1538SOL    HW216074   3.753   2.937   7.757 -0.5525  2.7595 -1.7122
 1539SOL     OW16075   2.872   4.312   5.405 -0.2382  0.4915 -0.3911
 1539SOL    HW116076   2.937   4.337   5.340  1.7326  1.5598  1.9807
 1539SOL    HW216077   2.918   4.334   5.486  1.8445  0.7871 -1.6638
 1540SOL     OW16078   2.164   2.537   8.299  0.3558 -0.3553  0.3710
 1540SOL    HW116079   2.211   2.583   8.230  0.4501 -0.5756  0.2907
 1540SOL    HW216080   2.239   2.500   8.345  1.2150  0.1119 -0.6564
 1541SOL     OW16081   3.737   1.549   5.267  0.2273 -0.2011  0.1162
 1541SOL    HW116082   3.697   1.476   5.314  0.5935 -0.3762  0.1609
 1541SOL    HW216083   3.754   1.514   5.180  0.1364 -1.7152  0.7044
 1542SOL     OW16084   2.997   3.890  11.721  0.0310  0.3646  0.5957
 1542SOL    HW116085   3.047   3.930  11.792  1.6653 -1.5798  0.5267
 1542SOL    HW216086   2.908   3.922  11.735  0.0944  1.3264 -1.1622
 1543SOL     OW16087   2.332   0.834   7.338  0.0666 -0.0644 -0.3610
 1543SOL    HW116088   2.338   0.764   7.272  0.0868  0.7756 -1.2509
 1543SOL    HW216089   2.321   0.781   7.417 -1.3785  1.7155  0.6284
 1544SOL     OW16090   1.928   2.368   9.142 -0.0379  0.6094  0.1691
 1544SOL    HW116091   1.897   2.349   9.230 -1.3130 -0.0682 -0.4338
 1544SOL    HW216092   1.983   2.446   9.143  1.5024 -0.4999  2.3613
 1545SOL     OW16093   0.966   2.619   2.895 -0.0471  0.2909 -0.1044
 1545SOL    HW116094   1.060   2.636   2.903  0.3378 -1.7468 -0.3875
 1545SOL    HW216095   0.953   2.544   2.837 -0.0250 -0.7315  1.2082
 1546SOL     OW16096   1.651   4.369   4.489 -0.3640  0.8775 -0.0810
 1546SOL    HW116097   1.707   4.436   4.450 -0.0559 -0.1043 -1.2916
 1546SOL    HW216098   1.678   4.358   4.580 -1.9413  2.3353  0.5758
 1547SOL     OW16099   4.018   0.023   4.864  0.1270  0.0157 -0.2799
 1547SOL    HW116100   3.953   0.093   4.870 -1.6821 -1.5156 -1.9817
 1547SOL    HW216101   4.048   0.031   4.774  0.3794 -1.7413 -0.3413
 1548SOL     OW16102   1.746   2.967  12.058  0.0331  0.5165  0.1530
 1548SOL    HW116103   1.655   2.938  12.054  0.0479  0.2895  1.6341
 1548SOL    HW216104   1.796   2.893  12.025  0.1263  1.3545 -1.5760
 1549SOL     OW16105   3.822   2.599   9.956 -0.3139 -0.4329 -1.1483
 1549SOL    HW116106   3.846   2.550   9.877 -0.0911 -1.2865 -0.5397
 1549SOL    HW216107   3.740   2.639   9.927 -0.1505 -0.6517 -1.9233
 1550SOL     OW16108   0.154   4.486   8.574  0.1201  0.6015  0.3291
 1550SOL    HW116109   0.153   4.521   8.663 -0.2778 -1.1189  1.0075
 1550SOL    HW216110   0.217   4.417   8.593 -0.2956  0.1541  0.1049
 1551SOL     OW16111   0.312   0.483   2.356 -0.0736 -0.2663 -0.1993
 1551SOL    HW116112   0.327   0.531   2.275 -1.9543  1.9873  0.7845
 1551SOL    HW216113   0.273   0.556   2.404 -0.8601 -0.2552 -0.8568
 1552SOL     OW16114   0.291   1.541   7.114  0.1463 -0.1811 -0.4522
 1552SOL    HW116115   0.324   1.452   7.127 -3.6324 -1.6259 -0.7720
 1552SOL    HW216116   0.272   1.570   7.203  0.0679 -0.5529 -0.3485
 1553SOL     OW16117   1.328   1.164  11.297 -0.5787  0.0302 -0.3856
 1553SOL    HW116118   1.239   1.178  11.264 -0.6730 -0.1570 -0.2087
 1553SOL    HW216119   1.334   1.249  11.342 -1.8928 -0.3140  0.4318
 1554SOL     OW16120   2.579   3.648  10.701 -0.4021  0.5836 -0.0049
 1554SOL    HW116121   2.516   3.706  10.743 -1.9960 -0.3464 -1.1025
 1554SOL    HW216122   2.618   3.608  10.779 -0.6864 -0.9387 -0.6324
 1555SOL     OW16123   1.406   2.087   7.434  0.1024  0.3116 -0.0698
 1555SOL    HW116124   1.353   2.066   7.511  1.3154 -2.4800  0.0202
 1555SOL    HW216125   1.453   2.167   7.458 -1.0450  1.5830 -2.0326
 1556SOL     OW16126   1.365   3.457   2.819 -0.3199 -0.1097 -0.1164
 1556SOL    HW116127   1.448   3.413   2.834  0.3120  1.4647  0.9259
 1556SOL    HW216128   1.398   3.530   2.766 -1.3847  1.3149  1.1907
 1557SOL     OW16129   4.291   0.515   9.342 -0.0908 -0.1820 -0.1576
 1557SOL    HW116130   4.214   0.460   9.362  1.2539 -1.5654  1.2669
 1557SOL    HW216131   4.250   0.578   9.284  1.7006 -1.5007 -2.8629
 1558SOL     OW16132   2.926   0.396   4.123 -0.2533  0.9673  0.1185
 1558SOL    HW116133   2.992   0.344   4.169 -0.3685 -0.0479 -0.8664
 1558SOL    HW216134   2.885   0.328   4.069  1.9022 -1.3725  1.4459
 1559SOL     OW16135   4.129   2.958   2.221 -0.5854  0.3155  0.1588
 1559SOL    HW116136   4.039   2.964   2.188 -1.4734 -0.9783  2.3937
 1559SOL    HW216137   4.132   2.889   2.287 -0.7014 -0.1344 -0.3077
 1560SOL     OW16138   3.003   0.063  12.244 -0.3728  0.2964 -0.1191
 1560SOL    HW116139   2.981   0.155  12.231  1.0085  0.4213 -1.5924
 1560SOL    HW216140   2.991   0.050  12.339 -0.0415 -0.1233 -0.1342
 1561SOL     OW16141   0.769   4.240  12.543  0.6222  0.6558 -0.5807
 1561SOL    HW116142   0.810   4.295  12.610 -1.9437  0.1789  1.3838
 1561SOL    HW216143   0.794   4.149  12.562  0.4982  0.8148  0.3112
 1562SOL     OW16144   2.041   2.535   4.380  0.4035 -0.3695  0.0423
 1562SOL    HW116145   2.087   2.609   4.339 -2.5804  1.0698 -0.7031
 1562SOL    HW216146   1.957   2.570   4.408  0.8816  0.4404  0.4629
 1563SOL     OW16147   4.347   3.123   7.762 -0.2090 -0.1542 -0.4338
 1563SOL    HW116148   4.425   3.100   7.813 -1.3391 -0.6945  1.0684
 1563SOL    HW216149   4.282   3.123   7.832  0.7293 -2.7115  0.4696
 1564SOL     OW16150   3.572   2.955   8.624 -0.4724 -0.2317 -0.0278
 1564SOL    HW116151   3.599   3.006   8.548  1.4056  2.0548  2.1998
 1564SOL    HW216152   3.658   2.963   8.663  0.2925  2.3454 -2.2958
 1565SOL     OW16153   0.902   0.844   8.492  0.8825 -0.0244 -0.0917
 1565SOL    HW116154   0.909   0.787   8.415  1.6915 -0.5844  0.4120
 1565SOL    HW216155   0.816   0.881   8.469  1.2493 -0.3697 -2.0479
 1566SOL     OW16156   0.184   3.094   9.645  0.3811 -0.0636  0.0285
 1566SOL    HW116157   0.242   3.044   9.703  1.2264  1.8974  0.8580
 1566SOL    HW216158   0.245   3.160   9.613  1.0362 -0.1576  1.0970
 1567SOL     OW16159   3.059   1.976  16.226  0.0068 -0.5849  0.2801
 1567SOL    HW116160   3.043   1.896  16.176 -1.3531 -0.0880 -0.0760
 1567SOL    HW216161   2.974   1.996  16.265 -0.3451 -1.5296 -0.0042
 1568SOL     OW16162   1.674   3.162   7.889 -0.0828 -0.5895 -0.0173
 1568SOL    HW116163   1.645   3.074   7.868 -0.6505 -0.1077 -1.2603
 1568SOL    HW216164   1.767   3.141   7.902  0.7603  3.4876  0.7144
 1569SOL     OW16165   3.171   2.189   1.339 -0.0463  0.0141 -0.1859
 1569SOL    HW116166   3.146   2.242   1.414  0.8666  0.2245 -0.0323
 1569SOL    HW216167   3.223   2.116   1.373 -0.4760  0.6179  1.7471
 1570SOL     OW16168   1.554   4.349   7.131 -0.2781  0.3024 -0.0854
 1570SOL    HW116169   1.623   4.413   7.147  1.9582 -1.8236 -1.1045
 1570SOL    HW216170   1.526   4.378   7.044  0.7780 -0.6504 -0.7450
 1571SOL     OW16171   1.162   4.143   8.117 -0.0255 -0.3796 -0.3827
 1571SOL    HW116172   1.121   4.057   8.121  1.2000 -0.9889 -0.9955
 1571SOL    HW216173   1.127   4.175   8.200 -0.7493  0.3084 -0.9542
 1572SOL     OW16174   3.089   2.754   4.513 -0.0813  0.0380  0.1510
 1572SOL    HW116175   3.172   2.725   4.551 -1.0096  0.6791  2.6659
 1572SOL    HW216176   3.041   2.714   4.586 -0.7427 -1.2051 -0.9672
 1573SOL     OW16177   4.718   3.877   1.884  0.2654 -0.1512  0.1603
 1573SOL    HW116178   4.715   3.817   1.958 -0.2108 -0.4126 -0.0704
 1573SOL    HW216179   4.669   3.953   1.917  0.9091  0.2694  0.1350
 1574SOL     OW16180   3.307   3.148  16.774  0.0807 -0.3549  0.2885
 1574SOL    HW116181   3.223   3.118  16.738  0.6963 -2.0921  0.2906
 1574SOL    HW216182   3.324   3.234  16.735 -1.0930  0.5824  1.8419
 1575SOL     OW16183   2.723   1.655   8.637  0.0443 -0.3170  0.0721
 1575SOL    HW116184   2.669   1.720   8.682  2.1471  2.0053 -0.7853
 1575SOL    HW216185   2.791   1.666   8.703 -1.6395  3.1768  1.2293
 1576SOL     OW16186   3.360   4.184   0.640 -0.1677  0.9763 -0.2591
 1576SOL    HW116187   3.353   4.195   0.735  1.1035  1.9721 -0.2712
 1576SOL    HW216188   3.353   4.278   0.621  1.0172  1.4280  1.5328
 1577SOL     OW16189   2.929   4.045   5.324 -0.0394 -0.1464  0.1441
 1577SOL    HW116190   3.016   4.081   5.306 -0.1184  0.4963  1.0360
 1577SOL    HW216191   2.877   4.124   5.340 -1.9904 -1.2948 -0.4450
 1578SOL     OW16192   0.195   4.582   5.666 -0.5662 -0.6204  0.5794
 1578SOL    HW116193   0.217   4.674   5.676  2.0679 -1.1197 -0.4618
 1578SOL    HW216194   0.274   4.553   5.619 -0.6369 -0.4248  0.3392
 1579SOL     OW16195   1.609   3.750  10.682 -0.0433  0.0693  0.1120
 1579SOL    HW116196   1.683   3.693  10.661 -2.6259 -3.3189  0.3188
 1579SOL    HW216197   1.578   3.713  10.764  0.1401  1.6434  0.9058
 1580SOL     OW16198   1.367   2.389   7.117  0.3520  0.2080  0.6322
 1580SOL    HW116199   1.346   2.470   7.070  0.1699 -0.3482 -0.2361
 1580SOL    HW216200   1.376   2.429   7.204 -1.5050  3.3568 -0.6194
 1581SOL     OW16201   1.456   4.498   3.352  0.7247  0.0807  0.1884
 1581SOL    HW116202   1.543   4.485   3.389 -0.2687 -1.4082  2.0303
 1581SOL    HW216203   1.480   4.543   3.272  0.6817 -1.8604 -0.9297
 1582SOL     OW16204   3.073   2.786  16.061  0.3059  0.4448  0.1891
 1582SOL    HW116205   3.105   2.718  16.121 -1.0545 -0.7497 -0.4377
 1582SOL    HW216206   2.992   2.816  16.104  0.6604  3.4164 -1.2136
 1583SOL     OW16207   4.291   2.110  11.912 -0.6872 -0.0569 -0.1027
 1583SOL    HW116208   4.283   2.079  11.822  3.8335 -0.7117 -0.2620
 1583SOL    HW216209   4.380   2.142  11.918 -1.1916  1.2838  0.2897
 1584SOL     OW16210   1.540   3.002   8.681 -0.1208  0.9441  0.0434
 1584SOL    HW116211   1.602   2.980   8.751  2.8754  1.8696 -2.3167
 1584SOL    HW216212   1.477   2.930   8.683 -0.8284  1.6538  3.0126
 1585SOL     OW16213   2.476   2.701   2.596 -0.0468  0.6733 -0.3734
 1585SOL    HW116214   2.383   2.701   2.574 -0.2694 -3.4679  0.5853
 1585SOL    HW216215   2.482   2.781   2.648  1.1270 -0.1260  0.7242
 1586SOL     OW16216   1.363   3.904  11.397 -0.0361 -0.0763  0.2873
 1586SOL    HW116217   1.326   3.911  11.485  0.6618 -0.4521  0.6109
 1586SOL    HW216218   1.296   3.844  11.364  0.5429 -0.6444  0.1458
 1587SOL     OW16219   3.115   4.621   1.256  0.3717  0.0438 -0.4486
 1587SOL    HW116220   3.209   4.623   1.275 -0.0876  1.0884  1.7554
 1587SOL    HW216221   3.080   4.545   1.303  0.4418 -0.6301 -1.4710
 1588SOL     OW16222   1.242   3.855   7.445 -0.9183  0.0439 -0.1655
 1588SOL    HW116223   1.334   3.867   7.423 -1.1749 -0.7991 -1.7139
 1588SOL    HW216224   1.217   3.947   7.447 -0.1114  0.2419  0.8113
 1589SOL     OW16225   3.063   3.587   4.780 -0.0428 -0.8074 -0.4575
 1589SOL    HW116226   3.150   3.570   4.814 -0.4250  1.0106  1.3953
 1589SOL    HW216227   3.052   3.525   4.708 -0.3032 -1.9709  0.5842
 1590SOL     OW16228   4.419   4.108   3.307  0.4037 -0.5234 -0.0803
 1590SOL    HW116229   4.389   4.136   3.393 -2.0742  3.4495 -2.2054
 1590SOL    HW216230   4.442   4.016   3.322  0.6312 -0.2572  1.1682
 1591SOL     OW16231   4.223   1.177   1.270  0.0379  0.3384 -0.3778
 1591SOL    HW116232   4.154   1.215   1.215 -2.0130  0.3168  2.2043
 1591SOL    HW216233   4.276   1.129   1.207 -0.7185  0.6742 -1.2682
 1592SOL     OW16234   4.559   0.650   7.840  0.4992 -0.3600 -0.6341
 1592SOL    HW116235   4.501   0.584   7.801 -1.3226  0.5498  0.5543
 1592SOL    HW216236   4.619   0.658   7.766 -2.2876 -1.9731 -3.1047
 1593SOL     OW16237   3.424   1.080  10.072 -0.7024 -0.3159 -0.2585
 1593SOL    HW116238   3.339   1.113  10.102 -0.4686  0.4374 -0.4266
 1593SOL    HW216239   3.482   1.152  10.095 -0.8241 -0.7770  1.5130
 1594SOL     OW16240   1.860   4.382   6.608  0.2501 -0.4110  0.1272
 1594SOL    HW116241   1.807   4.303   6.601  0.9980 -0.9217  0.1222
 1594SOL    HW216242   1.830   4.435   6.534  0.4269  0.9653  1.0449
 1595SOL     OW16243   1.060   0.669   4.062  0.2093  0.0201  0.2429
 1595SOL    HW116244   1.106   0.586   4.045 -0.5222 -0.0292 -1.4561
 1595SOL    HW216245   1.137   0.725   4.069  0.7988 -0.5676 -1.5597
 1596SOL     OW16246   0.578   3.270   5.643  0.7423  0.0940  0.2424
 1596SOL    HW116247   0.644   3.203   5.664 -3.0848 -3.6324  0.4836
 1596SOL    HW216248   0.631   3.346   5.664  1.7870 -0.1602 -1.4599
 1597SOL     OW16249   3.847   0.110   8.909  0.0133  0.4803 -0.5535
 1597SOL    HW116250   3.817   0.191   8.950 -1.3542 -1.3628  2.1229
 1597SOL    HW216251   3.880   0.144   8.825 -2.4815  1.7957 -1.0043
 1598SOL     OW16252   3.869   0.783   6.048  0.6106  0.4805 -0.2957
 1598SOL    HW116253   3.781   0.783   6.010  1.0277  1.2078 -1.2430
 1598SOL    HW216254   3.841   0.793   6.139 -1.4014 -0.7473 -0.7905
 1599SOL     OW16255   0.189   3.937   5.984  0.1531  0.1359  0.1134
 1599SOL    HW116256   0.104   3.923   6.027 -0.1735  2.4383  0.2178
 1599SOL    HW216257   0.210   4.030   5.989 -0.0802  0.1630  0.6126
 1600SOL     OW16258   4.319   0.595  17.655 -0.2110 -0.0861 -0.2500
 1600SOL    HW116259   4.336   0.667   0.016  1.7766 -1.1127  0.4345
 1600SOL    HW216260   4.341   0.637  17.572  0.3775 -0.7995 -0.4585
 1601SOL     OW16261   1.635   3.837   3.711 -0.0833 -0.3154 -0.2115
 1601SOL    HW116262   1.559   3.878   3.671  1.3528  2.2307 -0.2862
 1601SOL    HW216263   1.601   3.817   3.799  0.8865 -0.6786  0.0801
 1602SOL     OW16264   2.202   3.078   1.520  0.1188 -0.3498  0.3468
 1602SOL    HW116265   2.276   3.135   1.499 -0.8017  0.5962 -0.3083
 1602SOL    HW216266   2.135   3.145   1.506  1.6674  1.0026 -0.7215
 1603SOL     OW16267   1.786   4.271   1.832  0.0937 -0.1016 -0.3267
 1603SOL    HW116268   1.798   4.273   1.927  0.8597 -0.1630 -0.4231
 1603SOL    HW216269   1.818   4.183   1.818 -0.7949 -0.0098 -2.8840
 1604SOL     OW16270   1.991   2.368   2.770 -0.4544  0.2362  0.5183
 1604SOL    HW116271   2.070   2.406   2.807  1.1999 -0.9768 -1.7769
 1604SOL    HW216272   2.005   2.273   2.768  1.4437  0.5383  0.0223
 1605SOL     OW16273   3.842   3.546   1.014 -0.0775 -0.6112 -0.0721
 1605SOL    HW116274   3.831   3.626   0.962 -0.9070 -1.5105 -1.3015
 1605SOL    HW216275   3.754   3.511   1.000 -0.0341 -0.1322 -1.6108
 1606SOL     OW16276   2.120   4.552  13.771  0.0186 -0.1187 -0.5441
 1606SOL    HW116277   2.046   4.565  13.829 -0.6660  0.3070 -1.4997
 1606SOL    HW216278   2.158   4.468  13.797 -0.6466 -0.8657 -1.9603
 1607SOL     OW16279   3.244   3.716   6.032 -1.0303 -0.1828 -0.0597
 1607SOL    HW116280   3.175   3.772   6.068 -0.2600 -0.1651  1.3950
 1607SOL    HW216281   3.237   3.740   5.940  1.6926  0.2836 -0.1228
 1608SOL     OW16282   4.255   0.167   5.383  0.6224  0.1577 -0.3815
 1608SOL    HW116283   4.327   0.222   5.353  0.2000  0.4455 -0.8699
 1608SOL    HW216284   4.192   0.163   5.311  0.5282 -1.5316 -0.2175
 1609SOL     OW16285   2.540   1.339  13.538 -0.4212  0.7649  0.9445
 1609SOL    HW116286   2.484   1.386  13.476  0.6816  0.7548 -0.0445
 1609SOL    HW216287   2.623   1.370  13.502 -0.4792  0.7000  0.7562
 1610SOL     OW16288   3.254   1.338  10.017 -0.1219 -0.8053 -0.4481
 1610SOL    HW116289   3.217   1.269  10.073  0.3283 -0.0716  0.7686
 1610SOL    HW216290   3.307   1.384  10.082 -0.8863  1.4324 -1.4331
 1611SOL     OW16291   0.052   1.856   4.011 -0.3164 -0.4119  0.1629
 1611SOL    HW116292   4.694   1.885   4.051  0.4407 -0.5768  1.8603
 1611SOL    HW216293   0.098   1.863   4.095  0.2406  3.3431 -0.4665
 1612SOL     OW16294   2.792   0.373  17.636 -0.3183  0.4477  0.3257
 1612SOL    HW116295   2.770   0.282  17.613  0.3628  0.6111 -0.9370
 1612SOL    HW216296   2.747   0.418  17.564 -0.0213 -0.4018 -0.3943
 1613SOL     OW16297   3.573   1.741  13.100  0.6011  0.3054 -0.5158
 1613SOL    HW116298   3.656   1.704  13.130  1.0856  0.6686 -1.4260
 1613SOL    HW216299   3.582   1.831  13.132 -0.3443  0.4050 -0.5331
 1614SOL     OW16300   1.205   2.986   8.811  0.2036 -0.5293  0.3313
 1614SOL    HW116301   1.180   3.009   8.722 -0.5722 -1.8020  0.2221
 1614SOL    HW216302   1.250   2.904   8.793  1.6957  0.5644 -0.9279
 1615SOL     OW16303   1.776   1.453   6.175 -0.1677  0.0067  0.0455
 1615SOL    HW116304   1.836   1.521   6.204 -2.4948  1.8854  0.3962
 1615SOL    HW216305   1.704   1.500   6.134 -1.5957 -0.1670  2.4074
 1616SOL     OW16306   3.436   1.732   1.550 -0.5893 -0.1339  0.2253
 1616SOL    HW116307   3.451   1.637   1.549 -1.9969 -0.3485  0.0109
 1616SOL    HW216308   3.366   1.737   1.615  0.0553  0.5366  0.8839
 1617SOL     OW16309   2.085   2.964  10.063  0.4813  0.1518 -0.6727
 1617SOL    HW116310   2.149   2.933  10.128  0.3650 -1.7107 -1.4468
 1617SOL    HW216311   2.056   3.052  10.088 -1.5162 -1.8681  4.1133
 1618SOL     OW16312   2.216   1.626  11.501  0.0615  0.5979 -0.2725
 1618SOL    HW116313   2.243   1.542  11.537  1.7182  0.6642 -1.3344
 1618SOL    HW216314   2.151   1.596  11.438 -0.9260  2.5957 -0.1858
 1619SOL     OW16315   3.630   3.233   6.793  0.3785  0.2759  0.0220
 1619SOL    HW116316   3.597   3.177   6.723  1.3202  2.5168 -2.2529
 1619SOL    HW216317   3.560   3.298   6.782  0.8487  0.7141 -0.4085
 1620SOL     OW16318   2.678   0.342   6.857  0.3272  0.2233  0.3621
 1620SOL    HW116319   2.645   0.256   6.884  0.7752  0.4505  1.6143
 1620SOL    HW216320   2.597   0.390   6.870  1.3983  1.8865  0.8492
 1621SOL     OW16321   1.895   2.714  16.226 -0.0493  0.2074  0.3749
 1621SOL    HW116322   1.826   2.769  16.264  1.8264  1.2196  2.2938
 1621SOL    HW216323   1.883   2.731  16.133  0.6845  0.0598  0.2560
 1622SOL     OW16324   0.923   4.638   3.722  0.0578 -0.2054 -0.0277
 1622SOL    HW116325   1.017   4.651   3.733 -0.0192 -0.1525  0.5364
 1622SOL    HW216326   0.888   4.722   3.749  0.1863  0.0479 -0.6350
 1623SOL     OW16327   0.155   4.412   9.170  0.0693  0.8793  0.3707
 1623SOL    HW116328   0.154   4.494   9.220  0.4110  0.2279  1.4680
 1623SOL    HW216329   0.069   4.372   9.185  0.2171  0.9761  1.4973
 1624SOL     OW16330   4.022   0.447   7.654 -0.3238 -0.2089 -0.1854
 1624SOL    HW116331   3.941   0.442   7.604  0.6605 -1.5999 -1.6522
 1624SOL    HW216332   4.003   0.531   7.696 -0.3371 -0.1225 -0.3620
 1625SOL     OW16333   1.185   3.581   7.300  0.0347  0.1230  1.0057
 1625SOL    HW116334   1.190   3.525   7.378  0.8842  1.0290  1.5996
 1625SOL    HW216335   1.221   3.663   7.333  0.5002 -0.5095  2.0986
 1626SOL     OW16336   4.412   0.246  16.868 -0.2091 -0.1430  0.9391
 1626SOL    HW116337   4.398   0.339  16.849  1.2654 -0.6045 -2.3169
 1626SOL    HW216338   4.478   0.249  16.937 -1.8392  0.6916  2.4736
 1627SOL     OW16339   2.238   0.044   1.475 -0.4712 -0.4545 -0.2689
 1627SOL    HW116340   2.302   4.714   1.428  0.0433 -0.4911  0.4757
 1627SOL    HW216341   2.171   4.706   1.502 -0.7117 -0.5286 -1.0432
 1628SOL     OW16342   4.273   0.305   3.514 -0.1529 -0.9400  0.4657
 1628SOL    HW116343   4.193   0.353   3.535 -0.3369 -0.2107 -1.8524
 1628SOL    HW216344   4.290   0.344   3.428 -1.8117 -0.3944  0.3840
 1629SOL     OW16345   4.692   4.648  15.349  0.3656 -0.3246 -0.1024
 1629SOL    HW116346   4.697   0.018  15.365  0.2784  0.1104 -2.6629
 1629SOL    HW216347   0.057   4.615  15.348  0.7521  0.5995  2.7293
 1630SOL     OW16348   2.853   3.837   9.835  0.2431  0.2348  0.5297
 1630SOL    HW116349   2.832   3.882   9.753 -1.2027  2.1760  1.9593
 1630SOL    HW216350   2.949   3.836   9.838  0.3468  1.1032 -2.6963
 1631SOL     OW16351   0.267   4.582   2.501  0.0767  0.1808  0.2255
 1631SOL    HW116352   0.251   4.492   2.529  0.3299  0.6769  1.9279
 1631SOL    HW216353   0.316   4.575   2.418  0.8761  0.0919  0.7046
 1632SOL     OW16354   3.586   2.924   5.324  0.4419  0.0676  0.5533
 1632SOL    HW116355   3.506   2.970   5.349  0.6664  0.4152  0.6361
 1632SOL    HW216356   3.628   2.984   5.262 -0.8834 -0.3271 -0.6952
 1633SOL     OW16357   1.942   2.033   9.286 -0.2216  0.2309 -0.0684
 1633SOL    HW116358   1.942   2.117   9.241 -0.7544  1.1282  1.6237
 1633SOL    HW216359   1.854   1.999   9.269  0.4573 -0.7830 -1.5234
 1634SOL     OW16360   0.051   4.046  11.159 -0.1902 -0.3811  0.7434
 1634SOL    HW116361   4.722   4.035  11.080 -1.4999 -1.3174  1.7586
 1634SOL    HW216362   0.036   3.960  11.198  0.5319 -0.4098  0.9611
 1635SOL     OW16363   3.293   0.918   6.279 -0.3575  0.5547 -0.3668
 1635SOL    HW116364   3.251   0.918   6.365 -1.8168 -0.0949 -1.0861
 1635SOL    HW216365   3.371   0.869   6.307 -0.2564 -0.0908 -1.7846
 1636SOL     OW16366   3.950   2.811   6.785  0.1742 -0.4269  0.0350
 1636SOL    HW116367   3.855   2.803   6.780  0.1588  0.5940 -1.1781
 1636SOL    HW216368   3.949   2.904   6.761 -1.6804 -0.7017 -0.9312
 1637SOL     OW16369   2.683   2.642   7.026  0.2925 -0.0440  0.8043
 1637SOL    HW116370   2.693   2.734   7.047  0.0164 -0.1255  1.2968
 1637SOL    HW216371   2.767   2.640   6.980  0.2294  2.3476  0.5840
 1638SOL     OW16372   1.513   1.644  16.059  0.5768 -0.2034  0.1436
 1638SOL    HW116373   1.571   1.571  16.083  1.1971  0.6633  1.2874
 1638SOL    HW216374   1.459   1.654  16.138  1.5410  0.6476  0.7020
 1639SOL     OW16375   4.229   0.621   4.683  0.5670  0.2607 -0.4828
 1639SOL    HW116376   4.197   0.709   4.661  0.7042  1.1592  2.9360
 1639SOL    HW216377   4.155   0.581   4.637 -0.3514  1.8863 -0.4493
 1640SOL     OW16378   2.873   1.710  13.647 -0.5227  0.1316 -0.1742
 1640SOL    HW116379   2.941   1.735  13.710 -1.1206  0.2801  0.4066
 1640SOL    HW216380   2.879   1.614  13.648  0.6894  0.1940 -1.5755
 1641SOL     OW16381   3.153   2.962   3.737  0.1896  0.1857 -0.8174
 1641SOL    HW116382   3.141   2.870   3.714 -1.8152 -0.1213  1.4365
 1641SOL    HW216383   3.088   2.998   3.677  0.6109  1.9900 -0.2043
 1642SOL     OW16384   1.699   1.332   3.266  0.3509 -0.4852  0.2637
 1642SOL    HW116385   1.790   1.338   3.238  0.2422 -1.0338 -0.1947
 1642SOL    HW216386   1.697   1.406   3.328 -1.3231 -0.2831 -0.0274
 1643SOL     OW16387   0.524   3.161  14.532 -0.1588  0.1878  0.0695
 1643SOL    HW116388   0.619   3.159  14.518 -0.2554  1.5516 -0.8083
 1643SOL    HW216389   0.497   3.213  14.456  0.5711  0.9657  0.3441
 1644SOL     OW16390   0.391   3.310   6.851 -0.3061 -0.4287  0.4816
 1644SOL    HW116391   0.317   3.286   6.906  2.1119  1.2263  4.5354
 1644SOL    HW216392   0.436   3.230   6.825 -0.7799 -0.2763 -0.7610
 1645SOL     OW16393   0.157   0.989   9.171 -0.4742 -0.2504  0.3020
 1645SOL    HW116394   0.225   0.939   9.126  0.2142  1.0204 -0.0544
 1645SOL    HW216395   0.206   1.067   9.194 -0.2828 -0.1793 -0.3653
 1646SOL     OW16396   1.527   1.788  11.664 -0.0496 -0.3048  0.1443
 1646SOL    HW116397   1.490   1.872  11.639  0.5224 -0.0573  0.1555
 1646SOL    HW216398   1.559   1.801  11.753  0.3986 -1.2865  0.1268
 1647SOL     OW16399   0.428   3.989  12.669  0.1132  0.1126 -0.4115
 1647SOL    HW116400   0.380   3.929  12.725  0.4939 -1.2993 -1.5943
 1647SOL    HW216401   0.487   3.927  12.626 -0.8217 -1.0372 -0.0231
 1648SOL     OW16402   4.680   2.977   5.489  0.0898 -0.7233  0.4459
 1648SOL    HW116403   4.674   2.961   5.395  0.4177 -0.2720  0.3509
 1648SOL    HW216404   0.047   3.002   5.501  0.9274 -2.5052 -2.1158
 1649SOL     OW16405   4.368   3.342  17.141 -0.0587 -0.5135 -0.0735
 1649SOL    HW116406   4.427   3.286  17.091  0.1190 -0.7456  0.4014
 1649SOL    HW216407   4.298   3.279  17.161 -1.3067  1.1788  0.9371
 1650SOL     OW16408   1.464   0.907   3.278  0.2606 -0.0786 -0.0564
 1650SOL    HW116409   1.403   0.859   3.335 -0.5488  0.6237 -0.3454
 1650SOL    HW216410   1.483   0.987   3.327 -0.0169  0.4924 -0.8941
 1651SOL     OW16411   4.371   3.364   4.417 -0.6540  0.6958 -0.3785
 1651SOL    HW116412   4.319   3.441   4.440 -0.9116  0.1608  0.8171
 1651SOL    HW216413   4.391   3.371   4.323  1.5046  3.8333  0.3049
 1652SOL     OW16414   2.183   2.586  10.831 -0.5520  0.8388  0.2067
 1652SOL    HW116415   2.108   2.527  10.827 -0.4084  0.7036 -0.5586
 1652SOL    HW216416   2.147   2.663  10.787 -3.3018 -1.1757 -1.0603
 1653SOL     OW16417   0.287   3.893   3.884  0.9155  0.3626  0.5794
 1653SOL    HW116418   0.205   3.874   3.838 -0.5314  2.8961  2.1421
 1653SOL    HW216419   0.316   3.967   3.831 -1.9652  0.8616 -0.2890
 1654SOL     OW16420   1.843   4.067   9.242  0.1345 -0.7532 -0.0045
 1654SOL    HW116421   1.864   4.109   9.326 -0.8173  1.3864 -0.8370
 1654SOL    HW216422   1.887   3.983   9.244 -0.1852 -0.9446 -0.9975
 1655SOL     OW16423   0.370   1.819  17.324  0.0756 -0.2913  0.2392
 1655SOL    HW116424   0.356   1.823  17.229  0.9762  0.9351  0.1528
 1655SOL    HW216425   0.447   1.762  17.326 -1.6355 -2.4812  2.9503
 1656SOL     OW16426   3.725   2.319   5.183 -0.1708 -0.6683 -0.4646
 1656SOL    HW116427   3.687   2.237   5.215 -0.8499 -0.1641  0.0091
 1656SOL    HW216428   3.786   2.339   5.254 -0.3970 -1.0930 -0.1547
 1657SOL     OW16429   1.495   0.385   0.828 -0.1333  0.6636  0.2634
 1657SOL    HW116430   1.526   0.452   0.767 -0.8490 -0.4106 -1.2727
 1657SOL    HW216431   1.536   0.417   0.909  3.0648 -1.7042 -0.4276
 1658SOL     OW16432   4.105   4.403   6.473 -0.0645 -0.6220  0.9789
 1658SOL    HW116433   4.104   4.470   6.405  2.1254 -1.0565  0.5051
 1658SOL    HW216434   4.020   4.361   6.465  0.3707 -1.2577 -0.3834
 1659SOL     OW16435   4.427   4.250  16.948 -0.0946 -0.1938  0.6045
 1659SOL    HW116436   4.398   4.253  16.857  0.7410  2.0389  0.4183
 1659SOL    HW216437   4.519   4.222  16.939 -0.2895 -1.4412  2.4098
 1660SOL     OW16438   1.966   4.338   5.468 -0.2870 -0.4368  0.1031
 1660SOL    HW116439   2.041   4.279   5.464  1.2261  1.6218 -2.1299
 1660SOL    HW216440   1.993   4.423   5.433  1.5873 -1.5157 -1.0637
 1661SOL     OW16441   2.809   4.026   8.651  0.1683  0.2854  0.2146
 1661SOL    HW116442   2.736   3.978   8.692  1.3181 -0.6245  1.2106
 1661SOL    HW216443   2.849   4.064   8.729 -2.2476 -0.6070  1.9010
 1662SOL     OW16444   0.696   2.583   5.999  0.3751  0.4668 -0.3596
 1662SOL    HW116445   0.788   2.611   6.006  0.5479  0.0293 -0.8455
 1662SOL    HW216446   0.676   2.582   6.092  0.8844 -0.2169 -0.2550
 1663SOL     OW16447   0.005   0.318   6.022  0.4707  0.4115 -0.1881
 1663SOL    HW116448   0.003   0.236   5.972  1.0482  1.3041 -1.6838
 1663SOL    HW216449   0.040   0.381   5.959 -0.5381  1.1057 -0.0537
 1664SOL     OW16450   0.201   0.105   0.691 -0.2688 -0.1216  0.3358
 1664SOL    HW116451   0.184   0.121   0.784 -1.6402  0.0530  0.0493
 1664SOL    HW216452   0.263   0.176   0.674 -1.2179  0.7146  0.3309
 1665SOL     OW16453   0.638   4.097   3.321 -0.0216 -0.3233  0.3964
 1665SOL    HW116454   0.700   4.101   3.395  1.4648  1.0178 -0.9229
 1665SOL    HW216455   0.663   4.178   3.278  0.7849 -1.0913 -0.5922
 1666SOL     OW16456   1.141   1.454   6.377  0.4299 -0.2807 -0.4706
 1666SOL    HW116457   1.226   1.410   6.378 -0.1211 -1.3069  0.5025
 1666SOL    HW216458   1.115   1.440   6.468  1.2686  2.7987  0.2506
 1667SOL     OW16459   3.810   3.389  15.007  0.3835  0.1875 -0.4639
 1667SOL    HW116460   3.888   3.363  14.958  0.3809  1.1889 -1.0129
 1667SOL    HW216461   3.818   3.360  15.098 -2.0535 -1.9971 -0.9433
 1668SOL     OW16462   4.428   3.973   0.066  0.0095 -0.4623  0.1969
 1668SOL    HW116463   4.415   3.878   0.062  2.5188 -0.8097  0.4578
 1668SOL    HW216464   4.435   3.994  17.671  1.1290 -0.0999  0.3699
 1669SOL     OW16465   1.380   3.853  14.194  0.0406 -0.9522 -0.4617
 1669SOL    HW116466   1.313   3.827  14.131 -1.7235 -1.0831  1.4321
 1669SOL    HW216467   1.342   3.927  14.241  2.6961  0.3686 -0.4445
 1670SOL     OW16468   4.702   1.977   6.642 -0.3120 -0.1615  0.2562
 1670SOL    HW116469   4.719   1.886   6.616  1.4842 -0.0290  1.0309
 1670SOL    HW216470   4.663   2.008   6.560 -0.3093  0.1680  0.3821
 1671SOL     OW16471   3.530   0.601  14.441  0.0476  0.5380 -0.1044
 1671SOL    HW116472   3.560   0.510  14.434 -0.0282  0.5737 -0.9510
 1671SOL    HW216473   3.435   0.590  14.438  0.1816 -0.3156 -1.6265
 1672SOL     OW16474   1.838   1.730  13.194  0.1094 -0.2607 -0.5084
 1672SOL    HW116475   1.770   1.707  13.131 -1.1210  2.6814 -0.2801
 1672SOL    HW216476   1.818   1.668  13.264  1.3388  0.1269  0.1871
 1673SOL     OW16477   3.875   4.013   0.232 -0.7024  0.2880  0.2277
 1673SOL    HW116478   3.930   4.030   0.155 -0.9179  0.8643  0.2006
 1673SOL    HW216479   3.874   4.097   0.278 -0.6146  0.3829  0.0580
 1674SOL     OW16480   2.198   0.849   0.923 -0.8583  0.1032  0.5426
 1674SOL    HW116481   2.201   0.928   0.869 -0.9620  0.9552  1.7730
 1674SOL    HW216482   2.289   0.845   0.954 -0.6285 -0.8559 -0.2577
 1675SOL     OW16483   4.473   1.620   8.620 -0.2401  0.3702  0.1985
 1675SOL    HW116484   4.492   1.575   8.703  1.5304  2.2899  0.8318
 1675SOL    HW216485   4.546   1.681   8.609 -0.9407  0.7358 -2.3665
 1676SOL     OW16486   3.321   2.629  13.997  0.7131 -0.3033 -0.5865
 1676SOL    HW116487   3.289   2.651  14.084 -0.4070 -2.0318 -0.5678
 1676SOL    HW216488   3.378   2.553  14.001 -0.0465 -0.7909  0.7677
 1677SOL     OW16489   0.330   2.879  15.079  0.0603  0.8245 -0.6726
 1677SOL    HW116490   0.282   2.890  14.996 -1.1451  1.8592  0.1625
 1677SOL    HW216491   0.322   2.968  15.111 -2.0943  0.8864 -1.3237
 1678SOL     OW16492   1.363   3.036   2.809  0.7662  0.4187 -0.0248
 1678SOL    HW116493   1.397   3.071   2.891 -1.9691  0.8848  0.8902
 1678SOL    HW216494   1.357   3.107   2.746 -1.0064  0.6199  0.3825
 1679SOL     OW16495   3.344   3.127   1.384  0.6095  0.5524  0.1673
 1679SOL    HW116496   3.439   3.114   1.382  0.6650  1.0192 -0.6586
 1679SOL    HW216497   3.329   3.134   1.478  0.0814  0.0557  0.1179
 1680SOL     OW16498   1.976   3.761   7.978  0.4815 -0.4237 -0.0219
 1680SOL    HW116499   2.016   3.768   8.064  0.0211  0.0861  0.1540
 1680SOL    HW216500   2.055   3.746   7.927  0.2397  0.5948 -0.7092
 1681SOL     OW16501   1.848   4.348   2.362 -1.0754  0.3911 -0.1653
 1681SOL    HW116502   1.815   4.422   2.414  2.4163  2.0440 -0.2786
 1681SOL    HW216503   1.811   4.275   2.412 -2.0038  0.1921 -1.1539
 1682SOL     OW16504   1.631   4.684  15.714 -0.2272  0.3321 -0.0706
 1682SOL    HW116505   1.651   4.609  15.659 -1.5868 -0.4022  0.4228
 1682SOL    HW216506   1.721   4.716  15.709  0.7013 -2.4035 -0.5737
 1683SOL     OW16507   0.645   3.968   6.484 -0.0443  0.7903 -0.0147
 1683SOL    HW116508   0.667   3.925   6.402  1.3736 -0.2127  0.8871
 1683SOL    HW216509   0.695   3.918   6.548 -0.0353  0.5106 -0.2405
 1684SOL     OW16510   2.826   3.981   6.983  0.1105  0.8908 -0.3360
 1684SOL    HW116511   2.732   3.967   6.968  0.4435 -1.9487  0.2237
 1684SOL    HW216512   2.856   3.892   7.003 -1.9573  0.6931  1.8058
 1685SOL     OW16513   4.252   2.800   3.506 -0.2634 -0.2210 -0.6570
 1685SOL    HW116514   4.260   2.758   3.420  0.5001 -0.0858 -0.6518
 1685SOL    HW216515   4.342   2.805   3.540 -0.0993 -1.7190 -0.8514
 1686SOL     OW16516   2.291   1.449   6.885 -0.1826 -0.4764  0.0786
 1686SOL    HW116517   2.318   1.357   6.886 -2.1396 -1.1021 -4.0358
 1686SOL    HW216518   2.345   1.485   6.955  0.4806 -1.3032 -0.0073
 1687SOL     OW16519   2.189   1.927  14.726 -0.9017 -0.5743 -0.3308
 1687SOL    HW116520   2.128   1.949  14.796  1.2704  0.6297  1.1863
 1687SOL    HW216521   2.199   2.008  14.677 -0.4171  0.3360  1.2880
 1688SOL     OW16522   4.706   0.723   3.698 -0.2875 -0.0847  0.3750
 1688SOL    HW116523   4.672   0.780   3.767 -1.6151 -0.6247  0.1511
 1688SOL    HW216524   4.677   0.635   3.721 -1.4417  0.5578  1.3409
 1689SOL     OW16525   3.571   1.742   7.190  0.0224 -0.4268  0.1291
 1689SOL    HW116526   3.615   1.821   7.220  0.0771 -0.5762  0.4443
 1689SOL    HW216527   3.554   1.763   7.098  1.9779 -0.8538 -0.3241
 1690SOL     OW16528   1.892   1.311   5.618 -0.3099  0.2165 -0.0299
 1690SOL    HW116529   1.967   1.350   5.573 -0.8513  1.0122 -0.2521
 1690SOL    HW216530   1.902   1.357   5.701 -1.9419  0.4760  0.0249
 1691SOL     OW16531   1.583   0.070   8.935  0.1001 -0.1672  0.5900
 1691SOL    HW116532   1.555   0.010   9.004  2.1102 -1.2716  0.4498
 1691SOL    HW216533   1.652   0.017   8.894  0.4801 -1.1572  2.5176
 1692SOL     OW16534   4.232   1.765   7.010 -0.4095 -0.1044  0.3323
 1692SOL    HW116535   4.178   1.728   6.940  0.0948  1.1936 -0.7399
 1692SOL    HW216536   4.310   1.793   6.963  0.0546  0.7253  1.5770
 1693SOL     OW16537   2.244   0.767   2.315 -0.0729 -0.2891 -0.0735
 1693SOL    HW116538   2.294   0.743   2.237  0.3663 -1.3129  0.5330
 1693SOL    HW216539   2.157   0.745   2.282 -0.1172  1.0696 -0.8634
 1694SOL     OW16540   1.347   3.017   4.635 -0.2670  0.1913 -0.4927
 1694SOL    HW116541   1.441   3.023   4.656 -0.5780  2.0850  0.3264
 1694SOL    HW216542   1.305   3.031   4.720 -2.2468  1.3012 -1.6654
 1695SOL     OW16543   2.837   0.196   8.407  0.1843 -0.0835 -0.0580
 1695SOL    HW116544   2.759   0.182   8.460  0.9493 -1.5861  0.6765
 1695SOL    HW216545   2.852   0.285   8.440  2.4167 -0.5394  0.1761
 1696SOL     OW16546   4.415   2.882   9.111  0.4642  0.6209  0.2304
 1696SOL    HW116547   4.445   2.957   9.061  0.7358  0.5950  0.3555
 1696SOL    HW216548   4.497   2.857   9.154 -0.1321  1.6379  1.9826
 1697SOL     OW16549   4.047   0.945   0.157  0.0145 -0.1278  0.1214
 1697SOL    HW116550   4.053   1.041   0.158 -2.6450  0.0218  2.5248
 1697SOL    HW216551   4.016   0.932   0.247  0.7671  0.3893  0.4561
 1698SOL     OW16552   1.662   1.586   0.299 -0.0901 -0.2220  0.2659
 1698SOL    HW116553   1.724   1.637   0.246  0.1775 -0.2733  0.5259
 1698SOL    HW216554   1.604   1.548   0.234  1.3376  0.4343 -1.3694
 1699SOL     OW16555   1.277   1.539   8.900  0.2033 -0.0852 -0.0240
 1699SOL    HW116556   1.303   1.584   8.980  0.1582 -0.0071 -0.0533
 1699SOL    HW216557   1.361   1.514   8.862  0.5179  0.2708  0.4392
 1700SOL     OW16558   4.448   1.708   5.348  0.7355 -0.2376  0.7516
 1700SOL    HW116559   4.496   1.687   5.428  1.8066 -0.6881 -0.0205
 1700SOL    HW216560   4.387   1.635   5.333 -1.6069  1.7808  0.5111
 1701SOL     OW16561   3.630   2.160   5.955  0.3511  0.4186  0.6827
 1701SOL    HW116562   3.703   2.133   6.012 -0.5708 -2.3839  0.5524
 1701SOL    HW216563   3.570   2.087   5.971  0.3226  0.6426  1.6245
 1702SOL     OW16564   3.718   4.452  12.394  0.4447  0.4533  0.6011
 1702SOL    HW116565   3.743   4.520  12.332 -2.8330  1.7931  0.6940
 1702SOL    HW216566   3.799   4.403  12.403 -0.6615 -1.2007  1.6187
 1703SOL     OW16567   0.083   3.227   7.010 -0.4585  0.4854  0.1536
 1703SOL    HW116568   0.087   3.178   6.927 -0.2092  0.8603 -0.0559
 1703SOL    HW216569   0.009   3.286   6.997  0.1296  1.6869  2.2895
 1704SOL     OW16570   0.709   1.926   5.029 -0.8557 -0.5971 -0.2121
 1704SOL    HW116571   0.795   1.884   5.025 -1.2130 -1.4020  0.5362
 1704SOL    HW216572   0.708   1.941   5.124 -1.7473  1.6079 -0.5536
 1705SOL     OW16573   3.748   3.663  15.184  0.3189 -0.1251 -0.3925
 1705SOL    HW116574   3.738   3.754  15.157  2.7190  0.0842 -0.6020
 1705SOL    HW216575   3.827   3.644  15.133 -0.8083 -1.2218 -1.6997
 1706SOL     OW16576   3.938   4.118   7.740  0.3871 -0.2425 -0.1134
 1706SOL    HW116577   3.846   4.116   7.766  0.2526 -2.9404 -0.7462
 1706SOL    HW216578   3.958   4.210   7.755  0.5751 -0.1328 -0.9920
 1707SOL     OW16579   2.883   4.417   0.889  0.2736 -0.0679 -0.6325
 1707SOL    HW116580   2.885   4.364   0.809 -1.2259 -1.4118  0.2191
 1707SOL    HW216581   2.835   4.491   0.851 -1.3636 -1.0236 -0.4170
 1708SOL     OW16582   1.758   3.996   8.767 -0.0562 -0.2683 -0.3820
 1708SOL    HW116583   1.699   4.058   8.723  0.3711 -0.3028 -1.0035
 1708SOL    HW216584   1.706   3.968   8.842 -1.7733 -0.2083 -1.5578
 1709SOL     OW16585   4.569   2.367   6.370  0.0113 -0.1018  0.8510
 1709SOL    HW116586   4.618   2.448   6.378  1.0993 -0.7256  0.5281
 1709SOL    HW216587   4.638   2.301   6.384  0.8032  0.6708  0.5408
 1710SOL     OW16588   3.714   2.735   3.323 -0.4142 -0.1121  0.2413
 1710SOL    HW116589   3.776   2.668   3.295  1.1624  0.8316  1.4551
 1710SOL    HW216590   3.761   2.812   3.291 -0.3463 -0.3781 -0.2946
 1711SOL     OW16591   0.563   2.330  15.338 -1.1331  0.4186 -0.0533
 1711SOL    HW116592   0.573   2.238  15.362  3.2764  1.1369  0.8856
 1711SOL    HW216593   0.575   2.328  15.243 -0.2104  0.1053  0.0783
 1712SOL     OW16594   2.849   4.378  15.316  0.4000  0.0443  0.1583
 1712SOL    HW116595   2.899   4.414  15.389 -0.2368 -1.5581  1.3866
 1712SOL    HW216596   2.915   4.387  15.247  1.4837 -3.4494  0.7061
 1713SOL     OW16597   1.033   3.839   5.809 -0.2419 -0.3541  0.1056
 1713SOL    HW116598   1.050   3.768   5.748 -1.1339  0.2622 -0.8630
 1713SOL    HW216599   1.118   3.855   5.850 -0.0998 -1.7282  0.3327
 1714SOL     OW16600   0.874   1.499   7.359 -0.2178  0.6968  0.0190
 1714SOL    HW116601   0.855   1.541   7.275 -1.1097 -0.0801 -0.1740
 1714SOL    HW216602   0.788   1.502   7.401 -0.6153 -2.0045 -0.5401
 1715SOL     OW16603   1.950   3.449   5.136  0.2470  0.1032 -0.1501
 1715SOL    HW116604   2.045   3.459   5.139 -0.1419  3.2881  2.3513
 1715SOL    HW216605   1.942   3.509   5.062  0.1210 -0.7531 -0.8278
 1716SOL     OW16606   3.981   3.770   3.214 -0.0895 -0.0333 -0.5805
 1716SOL    HW116607   4.055   3.785   3.154 -1.3362  1.1353 -1.8323
 1716SOL    HW216608   4.006   3.700   3.274 -0.3228  0.1386 -0.2890
 1717SOL     OW16609   2.339   2.104   1.641 -0.0163  0.1447  0.5181
 1717SOL    HW116610   2.379   2.137   1.722  2.0949  0.6902 -0.7488
 1717SOL    HW216611   2.299   2.182   1.601 -1.3023 -0.5167  0.5296
 1718SOL     OW16612   0.677   1.254   3.845  0.2917  0.5738  0.2669
 1718SOL    HW116613   0.727   1.211   3.915 -0.7705 -0.7230  0.2318
 1718SOL    HW216614   0.753   1.291   3.800  1.9042  0.5070  2.8951
 1719SOL     OW16615   1.477   3.209  12.926 -0.1954 -0.1868  0.5237
 1719SOL    HW116616   1.474   3.113  12.919 -0.5464 -0.0577 -1.1278
 1719SOL    HW216617   1.571   3.227  12.921 -0.3994  0.1719 -2.1522
 1720SOL     OW16618   2.906   3.009   3.620 -0.5273  0.5551 -0.3618
 1720SOL    HW116619   2.832   3.069   3.614  0.0989  1.5276  1.5679
 1720SOL    HW216620   2.876   2.943   3.683  1.6239 -0.3940 -0.3225
 1721SOL     OW16621   4.584   2.107  11.520 -0.4160  0.2291  0.1895
 1721SOL    HW116622   4.491   2.125  11.505  0.1690  1.2307 -2.1648
 1721SOL    HW216623   4.582   2.011  11.525 -0.5476  0.1426 -1.5759
 1722SOL     OW16624   2.015   0.421   6.688  0.0467 -0.8744  0.0956
 1722SOL    HW116625   2.022   0.325   6.686  1.4069 -0.7751 -0.0176
 1722SOL    HW216626   2.052   0.440   6.601 -0.7504  1.1797  0.2016
 1723SOL     OW16627   3.240   3.113   4.680  0.1125 -0.2351 -0.1129
 1723SOL    HW116628   3.256   3.046   4.746  0.0170  1.2552  1.4180
 1723SOL    HW216629   3.148   3.133   4.692 -0.0024 -0.6066 -0.3636
 1724SOL     OW16630   3.160   1.543   9.268  0.3830  0.6751 -0.1014
 1724SOL    HW116631   3.072   1.576   9.250 -0.1071  0.6769  2.3448
 1724SOL    HW216632   3.140   1.456   9.304  2.1939  1.0184  1.6992
 1725SOL     OW16633   3.826   2.259   7.782 -1.0148  0.0472 -0.7798
 1725SOL    HW116634   3.760   2.190   7.778 -0.4032 -0.6069  0.5508
 1725SOL    HW216635   3.810   2.279   7.874 -0.7422 -0.5869 -0.5937
 1726SOL     OW16636   0.060   0.887  12.314 -0.1631  0.3749  0.1862
 1726SOL    HW116637   0.009   0.816  12.275  0.3805  0.7684 -1.2475
 1726SOL    HW216638   4.717   0.915  12.376 -0.5130 -0.6916  0.2983
 1727SOL     OW16639   3.877   0.194   8.326 -0.3960  0.4712  0.3325
 1727SOL    HW116640   3.797   0.226   8.283 -1.1144  0.7935  1.9021
 1727SOL    HW216641   3.836   0.189   8.412  1.8794 -0.7051  1.3272
 1728SOL     OW16642   0.118   2.596   3.508  0.1588  0.1258  0.6291
 1728SOL    HW116643   0.180   2.589   3.436 -0.8942  0.4820 -0.3156
 1728SOL    HW216644   0.073   2.512   3.506 -0.6248  0.5122  1.7941
 1729SOL     OW16645   2.976   3.536  16.607  0.1289  0.3654 -0.1261
 1729SOL    HW116646   3.044   3.569  16.666  0.5363  0.1423 -0.4708
 1729SOL    HW216647   2.974   3.612  16.548 -2.9803  1.5211  1.5291
 1730SOL     OW16648   4.045   0.794  13.525 -0.1052 -0.7925 -0.2470
 1730SOL    HW116649   4.128   0.826  13.561 -1.7446  2.2406  0.8236
 1730SOL    HW216650   4.044   0.811  13.431 -0.5797  0.8731  0.0567
 1731SOL     OW16651   0.332   1.093   6.727 -0.0241 -0.1191 -0.5215
 1731SOL    HW116652   0.391   1.140   6.669  0.5171  0.4099  0.4586
 1731SOL    HW216653   0.312   1.014   6.677  0.3265 -0.5789  0.0598
 1732SOL     OW16654   1.302   2.074  10.749 -0.0276 -0.6003 -0.5162
 1732SOL    HW116655   1.244   2.024  10.807  0.5023 -2.2385 -1.4013
 1732SOL    HW216656   1.379   2.018  10.735  1.5622  1.0098  1.6205
 1733SOL     OW16657   3.258   3.762   4.096 -0.1922  0.4552  0.1353
 1733SOL    HW116658   3.351   3.760   4.074 -1.0265  3.9516 -3.6713
 1733SOL    HW216659   3.218   3.764   4.009  1.3131  0.9394 -0.5446
 1734SOL     OW16660   4.528   1.474   4.688  0.4136 -0.2554 -0.0124
 1734SOL    HW116661   4.606   1.528   4.674  1.0216 -0.9094  0.8528
 1734SOL    HW216662   4.551   1.384   4.665 -0.1415 -0.9186  2.0386
 1735SOL     OW16663   0.430   1.911   1.361  0.2509  0.0029  0.2464
 1735SOL    HW116664   0.469   1.824   1.365  1.2724  0.4822  1.1114
 1735SOL    HW216665   0.370   1.894   1.289  0.3658 -1.2922  0.4623
 1736SOL     OW16666   1.203   0.706  13.240 -0.7964  0.1866 -0.2504
 1736SOL    HW116667   1.198   0.746  13.154 -0.4674 -0.0426 -0.3767
 1736SOL    HW216668   1.263   0.763  13.288  0.9483 -1.5011 -0.4566
 1737SOL     OW16669   0.089   4.362   5.160  0.8214  0.1908  0.2229
 1737SOL    HW116670   0.153   4.294   5.141  1.6174  0.3079  2.5206
 1737SOL    HW216671   0.104   4.421   5.086  1.6974  1.6698  1.5767
 1738SOL     OW16672   2.878   4.287   7.642 -0.2138 -0.1049  0.0354
 1738SOL    HW116673   2.871   4.352   7.572 -0.3233 -0.9441 -0.7350
 1738SOL    HW216674   2.883   4.348   7.715  1.0085  0.9938 -0.9627
 1739SOL     OW16675   2.492   2.671   8.795 -0.1245 -0.4035  0.6112
 1739SOL    HW116676   2.577   2.715   8.797  0.3863 -1.3090 -1.5391
 1739SOL    HW216677   2.433   2.746   8.807 -1.6424 -1.1280 -2.4365
 1740SOL     OW16678   3.535   2.323  13.289 -0.0628  0.1654 -0.4933
 1740SOL    HW116679   3.506   2.325  13.198 -0.3154 -0.2562 -0.4219
 1740SOL    HW216680   3.464   2.369  13.334 -2.4600 -1.7966 -2.2916
 1741SOL     OW16681   3.186   2.682   5.445  0.4286  0.0816 -0.0956
 1741SOL    HW116682   3.142   2.733   5.377  0.6536 -2.2045 -1.9583
 1741SOL    HW216683   3.244   2.749   5.481 -1.8940  2.2031 -0.2711
 1742SOL     OW16684   4.600   3.383   1.155  0.4992 -0.0630 -0.1234
 1742SOL    HW116685   4.692   3.361   1.142  0.4622  0.6999 -1.6045
 1742SOL    HW216686   4.586   3.464   1.106 -0.2668 -1.1670 -1.7275
 1743SOL     OW16687   0.567   1.849   0.201  0.0324 -0.2392  0.1503
 1743SOL    HW116688   0.499   1.809   0.255  2.1073 -0.8170  2.3582
 1743SOL    HW216689   0.587   1.923   0.258 -2.8132  0.5798  0.0855
 1744SOL     OW16690   2.489   3.652   2.425 -0.0880  0.0724  0.1339
 1744SOL    HW116691   2.399   3.633   2.451 -0.3194  0.8007 -0.1392
 1744SOL    HW216692   2.493   3.618   2.335  0.9665  0.4428  0.0380
 1745SOL     OW16693   2.121   3.983   5.545  0.4513  0.0234 -0.4966
 1745SOL    HW116694   2.184   3.976   5.617 -1.1662  0.8144  0.9850
 1745SOL    HW216695   2.177   3.977   5.468  0.6004 -2.4444 -0.1875
 1746SOL     OW16696   0.137   0.283  15.078  0.6433  0.2232  0.0145
 1746SOL    HW116697   0.148   0.364  15.128  1.9902 -0.6354  1.1132
 1746SOL    HW216698   0.101   0.318  14.997  2.3637  1.1525 -0.3561
 1747SOL     OW16699   0.881   3.696   7.959 -0.1703  0.2686  0.3613
 1747SOL    HW116700   0.969   3.718   7.929 -0.2633  0.5195  0.2738
 1747SOL    HW216701   0.829   3.764   7.916  0.5175 -0.9355 -2.3189
 1748SOL     OW16702   2.779   2.388   3.564  0.2397  0.0370  0.3244
 1748SOL    HW116703   2.810   2.404   3.475  0.3496  0.6914  0.4757
 1748SOL    HW216704   2.686   2.410   3.570  0.1191 -1.2942  3.3300
 1749SOL     OW16705   0.434   3.488   2.679  0.1082 -0.2600  0.0693
 1749SOL    HW116706   0.473   3.441   2.605 -0.0243  1.5105 -1.1273
 1749SOL    HW216707   0.508   3.533   2.719  0.5695 -0.6617 -0.3205
 1750SOL     OW16708   1.719   2.071   5.240  0.2192 -0.1386  0.5457
 1750SOL    HW116709   1.756   2.008   5.302 -1.0023 -0.5773  0.8470
 1750SOL    HW216710   1.786   2.090   5.175 -1.8016  0.5902 -1.3393
 1751SOL     OW16711   1.913   1.249   2.023  0.1837  0.3558  0.3593
 1751SOL    HW116712   1.835   1.196   2.009  1.2097 -0.6798 -1.4736
 1751SOL    HW216713   1.888   1.334   2.058 -0.8214 -0.3376  1.3240
 1752SOL     OW16714   0.092   2.070   3.645 -0.2038  0.0718 -0.2609
 1752SOL    HW116715   0.038   2.003   3.604  1.2473 -1.4062  0.2629
 1752SOL    HW216716   0.081   2.059   3.740 -0.7115  0.7346 -0.2375
 1753SOL     OW16717   0.059   1.261   9.520  0.0206  0.1144  0.5536
 1753SOL    HW116718   4.698   1.252   9.562  0.3238  0.5050  1.2365
 1753SOL    HW216719   0.082   1.172   9.490 -4.0872 -0.4486 -0.9166
 1754SOL     OW16720   1.377   2.185   8.098 -0.4746  0.1445 -0.6386
 1754SOL    HW116721   1.377   2.145   8.011  1.2091 -1.6975  0.1978
 1754SOL    HW216722   1.460   2.232   8.100 -0.7127  0.5714 -0.7417
 1755SOL     OW16723   4.097   1.731   5.291  0.2894 -0.4268 -0.2046
 1755SOL    HW116724   4.130   1.751   5.204 -0.4782 -1.7257 -0.8049
 1755SOL    HW216725   4.023   1.791   5.296 -0.6855 -1.4809 -2.0811
 1756SOL     OW16726   0.104   3.345   4.988 -0.6023 -0.0973  0.1620
 1756SOL    HW116727   0.101   3.413   4.920 -2.4873 -0.4350 -0.0905
 1756SOL    HW216728   0.132   3.266   4.941  2.2404  1.1054 -0.1987
 1757SOL     OW16729   0.588   0.342   8.697  0.2949  0.5834 -0.1775
 1757SOL    HW116730   0.657   0.394   8.738  0.5767 -1.3319  1.7065
 1757SOL    HW216731   0.514   0.400   8.718  0.3092  0.9815 -1.1770
 1758SOL     OW16732   1.799   0.367   9.139  0.9346 -0.6102  0.4416
 1758SOL    HW116733   1.874   0.408   9.182  2.0302 -0.5343 -1.5745
 1758SOL    HW216734   1.733   0.410   9.194 -1.7016 -1.0500 -2.3454
 1759SOL     OW16735   2.042   1.022   2.315  0.3047 -0.6117  0.5591
 1759SOL    HW116736   2.120   1.057   2.358 -0.6802  2.1827  0.1004
 1759SOL    HW216737   2.039   0.927   2.319 -1.4103 -0.6354 -0.8723
 1760SOL     OW16738   2.597   2.995   3.955 -0.2593  0.2510 -0.6278
 1760SOL    HW116739   2.660   2.935   3.994 -1.0052  0.9651  1.6875
 1760SOL    HW216740   2.648   3.075   3.968  1.1534 -0.5228 -1.4327
 1761SOL     OW16741   3.828   3.721  13.058 -0.0833 -1.0586  0.0202
 1761SOL    HW116742   3.905   3.759  13.101 -1.4134  0.3038  1.2239
 1761SOL    HW216743   3.771   3.710  13.135  1.1520  1.5867  1.3205
 1762SOL     OW16744   2.612   1.139   6.624  0.2033 -0.2525 -0.0926
 1762SOL    HW116745   2.551   1.209   6.600  1.1638  0.6561  0.1266
 1762SOL    HW216746   2.619   1.091   6.541 -0.7921  1.1490 -0.9850
 1763SOL     OW16747   0.854   0.553   9.153  0.2936  0.2177 -0.2353
 1763SOL    HW116748   0.830   0.644   9.136  0.2330 -0.3069 -3.0709
 1763SOL    HW216749   0.922   0.573   9.217  0.3773 -1.8677  0.3206
 1764SOL     OW16750   3.485   4.448  13.744 -0.0595  0.0804 -0.9049
 1764SOL    HW116751   3.462   4.355  13.751  1.6516 -0.3205 -0.5443
 1764SOL    HW216752   3.437   4.477  13.822  1.4382  0.4748 -0.1254
 1765SOL     OW16753   0.726   1.459   9.122  0.7462 -0.7597 -0.3761
 1765SOL    HW116754   0.676   1.536   9.095  1.4338 -1.3292 -3.2321
 1765SOL    HW216755   0.776   1.448   9.041  0.7083 -2.0918 -0.2199
 1766SOL     OW16756   4.531   2.152   6.787 -0.0329  0.0933 -0.0752
 1766SOL    HW116757   4.587   2.095   6.735 -0.4090 -1.2053  0.9408
 1766SOL    HW216758   4.597   2.220   6.805 -0.3430 -0.1952  2.1025
 1767SOL     OW16759   0.901   0.812   2.864  0.5838 -0.0868  0.3362
 1767SOL    HW116760   0.922   0.901   2.834  1.7163 -0.2349  0.6884
 1767SOL    HW216761   0.872   0.770   2.783 -0.1794 -0.9606  1.0569
 1768SOL     OW16762   2.806   0.882   5.630 -0.0206 -0.1144  0.3721
 1768SOL    HW116763   2.879   0.880   5.692  1.0638 -1.6640 -0.9350
 1768SOL    HW216764   2.838   0.928   5.552 -0.2932  0.4745  0.6102
 1769SOL     OW16765   4.631   0.681   7.333 -0.1175 -0.2944 -0.0392
 1769SOL    HW116766   4.683   0.761   7.341  3.1970 -2.6213  1.4431
 1769SOL    HW216767   4.695   0.610   7.330  0.9282  0.5705  1.6943
 1770SOL     OW16768   4.419   3.540   3.586  0.0301 -0.7805  0.1214
 1770SOL    HW116769   4.395   3.539   3.679  0.3536 -2.6335  0.1761
 1770SOL    HW216770   4.361   3.475   3.546  0.1130 -1.6598  1.4236
 1771SOL     OW16771   3.969   4.277   5.471 -0.2572  0.2863 -0.7546
 1771SOL    HW116772   3.970   4.370   5.492  3.3470 -0.2011  1.3155
 1771SOL    HW216773   4.046   4.270   5.415  2.0702 -2.1502  2.7010
 1772SOL     OW16774   0.690   1.885   9.062  0.3802  0.2582 -0.6563
 1772SOL    HW116775   0.652   1.806   9.101 -0.5660  0.9985 -0.0852
 1772SOL    HW216776   0.633   1.916   8.992  0.6719 -0.3927 -1.1882
 1773SOL     OW16777   3.785   0.276  15.444 -0.3039  0.3747 -0.6478
 1773SOL    HW116778   3.829   0.227  15.514 -2.7034 -0.6015  0.1780
 1773SOL    HW216779   3.849   0.345  15.423  0.3602 -0.3875 -1.1201
 1774SOL     OW16780   3.004   1.699   3.599  0.3441  0.1115 -0.5072
 1774SOL    HW116781   2.966   1.634   3.540  0.6323 -0.3716 -0.1550
 1774SOL    HW216782   2.984   1.778   3.549 -1.2017  0.9945  1.5626
 1775SOL     OW16783   0.944   1.691   7.948  0.5537  0.3153 -0.3939
 1775SOL    HW116784   1.006   1.619   7.960  1.7480  1.1814 -1.4475
 1775SOL    HW216785   0.864   1.668   7.996  0.2075  1.8021 -0.2483
 1776SOL     OW16786   0.938   2.463   6.653 -0.0904  0.0758 -0.0598
 1776SOL    HW116787   0.843   2.465   6.657 -0.0175 -0.9398  1.9639
 1776SOL    HW216788   0.962   2.474   6.745 -0.2574  2.3223 -0.2911
 1777SOL     OW16789   1.779   4.449   3.927 -0.3777 -0.1306 -0.6185
 1777SOL    HW116790   1.818   4.365   3.901 -0.0900  0.9606 -3.6781
 1777SOL    HW216791   1.731   4.476   3.849 -0.8685 -2.2560 -1.0441
 1778SOL     OW16792   2.197   3.189   4.347  0.3283  0.2713 -0.0844
 1778SOL    HW116793   2.233   3.144   4.423 -2.1316 -1.0657  0.2632
 1778SOL    HW216794   2.278   3.225   4.310  0.5166 -0.1801 -0.1101
 1779SOL     OW16795   4.017   1.622   3.059  0.2277  0.3451  0.1106
 1779SOL    HW116796   3.931   1.610   3.018  0.6625  1.9535 -1.2570
 1779SOL    HW216797   3.991   1.616   3.151  0.7352 -0.5608  0.1998
 1780SOL     OW16798   0.326   0.923   4.843 -0.1876 -0.2197 -0.4008
 1780SOL    HW116799   0.386   0.977   4.790 -0.3173 -1.9888 -2.3201
 1780SOL    HW216800   0.377   0.843   4.856 -0.1969 -0.4521 -1.8407
 1781SOL     OW16801   1.950   0.233   6.915  0.2547  0.4672 -0.1679
 1781SOL    HW116802   1.911   0.153   6.948 -0.4081  1.0068  0.3586
 1781SOL    HW216803   2.028   0.248   6.968 -0.4439 -0.0026  0.9798
 1782SOL     OW16804   1.484   4.236   6.321  0.8548 -0.1041 -0.4021
 1782SOL    HW116805   1.513   4.245   6.230  0.5969  1.3731 -0.3451
 1782SOL    HW216806   1.474   4.325   6.356  2.6582  0.0417 -0.2398
 1783SOL     OW16807   3.482   1.801  10.395  0.1155  0.3372 -0.8620
 1783SOL    HW116808   3.559   1.838  10.438 -0.8722 -2.3473  3.1865
 1783SOL    HW216809   3.412   1.799  10.460  2.4824  0.4652  1.6898
 1784SOL     OW16810   4.050   3.318   9.726  0.5671  0.0789  0.5855
 1784SOL    HW116811   4.022   3.345   9.813  1.0285  0.4110  0.6251
 1784SOL    HW216812   4.060   3.224   9.743 -0.9696 -0.3067 -0.5716
 1785SOL     OW16813   3.004   2.450   0.356  0.6022 -0.6055 -0.2474
 1785SOL    HW116814   3.071   2.514   0.335  0.2198 -0.0206  0.2964
 1785SOL    HW216815   3.042   2.364   0.335 -2.4543 -1.7430 -1.1446
 1786SOL     OW16816   1.744   3.935  11.126 -0.3989 -0.7634  0.1096
 1786SOL    HW116817   1.651   3.959  11.137 -0.2729  0.3609 -1.3035
 1786SOL    HW216818   1.765   4.002  11.060  0.1992  0.5736  1.6532
 1787SOL     OW16819   0.058   1.359   7.467 -0.0785 -0.3846  0.2367
 1787SOL    HW116820   0.087   1.277   7.426  0.0635  1.0992 -2.6607
 1787SOL    HW216821   0.087   1.335   7.555  3.0475 -1.7071 -1.1365
 1788SOL     OW16822   0.479   3.043   3.625  0.4986 -0.2634 -0.0625
 1788SOL    HW116823   0.528   3.126   3.625 -0.3509  0.2428 -0.0581
 1788SOL    HW216824   0.428   3.054   3.705  1.9122 -0.4918  0.8770
 1789SOL     OW16825   0.468   0.292   3.985  0.1415  0.1109 -0.1005
 1789SOL    HW116826   0.459   0.279   3.891 -1.5752 -0.7434  0.1820
 1789SOL    HW216827   0.548   0.344   3.985 -0.7678  1.5162  1.8375
 1790SOL     OW16828   2.342   3.350   1.367 -0.5981 -0.3286  0.3297
 1790SOL    HW116829   2.333   3.386   1.455  2.9175  1.3892  0.0064
 1790SOL    HW216830   2.427   3.384   1.339  1.3348 -3.2163  2.7255
 1791SOL     OW16831   0.338   0.079   2.213 -0.2281  0.3880 -0.4042
 1791SOL    HW116832   0.289   0.115   2.286  0.7450  0.9947 -0.0480
 1791SOL    HW216833   0.272   0.073   2.143  0.1887 -1.0300 -0.6825
 1792SOL     OW16834   0.335   3.225  14.724 -0.5784 -0.1908 -0.0578
 1792SOL    HW116835   0.265   3.167  14.698  0.1338 -0.5393 -1.1819
 1792SOL    HW216836   0.407   3.194  14.669  0.4485  0.4497  0.9154
 1793SOL     OW16837   2.345   0.259   1.315 -0.1791 -0.0404  0.4313
 1793SOL    HW116838   2.314   0.218   1.396  2.0573  0.0545  1.3273
 1793SOL    HW216839   2.285   0.334   1.308 -0.8259 -0.2783  3.5332
 1794SOL     OW16840   0.494   1.423   8.768  0.0380 -0.4304 -0.1430
 1794SOL    HW116841   0.482   1.447   8.860  1.0304  4.4360 -1.2825
 1794SOL    HW216842   0.422   1.362   8.755 -1.8659  1.3381  1.9921
 1795SOL     OW16843   4.161   4.703   9.675  0.5445 -0.6439  0.0749
 1795SOL    HW116844   4.160   4.700   9.771 -2.4847 -5.1791 -0.1471
 1795SOL    HW216845   4.144   0.073   9.663 -0.9047 -1.0568 -1.0962
 1796SOL     OW16846   0.163   2.424   9.016  0.2216  0.0812 -0.4155
 1796SOL    HW116847   0.226   2.496   9.027 -0.7058  0.9036 -0.5626
 1796SOL    HW216848   0.086   2.465   9.055  0.4977 -0.7062  0.9744
 1797SOL     OW16849   4.077   3.037   1.495 -0.2622  0.0065  0.3390
 1797SOL    HW116850   4.083   3.082   1.411  1.0837 -0.1878  0.3260
 1797SOL    HW216851   4.169   3.023   1.519 -0.4116 -2.6616 -0.5812
 1798SOL     OW16852   0.898   0.460   1.914  0.5462 -0.2812  0.4737
 1798SOL    HW116853   0.840   0.525   1.874  2.2161  0.8217 -0.1608
 1798SOL    HW216854   0.943   0.417   1.841  0.9832 -0.4457  0.8408
 1799SOL     OW16855   3.580   0.539   2.608 -0.6792 -0.2760  0.4045
 1799SOL    HW116856   3.521   0.498   2.671 -1.2551  0.7369  0.5293
 1799SOL    HW216857   3.613   0.461   2.563 -1.3610  0.2269 -0.9770
 1800SOL     OW16858   3.272   1.334  15.430 -0.4239  0.0315 -0.8613
 1800SOL    HW116859   3.316   1.289  15.359 -0.1591 -0.1275 -0.5941
 1800SOL    HW216860   3.342   1.359  15.490 -2.0896  1.8130  0.3783
 1801SOL     OW16861   2.010   2.347   6.770  0.2782  0.0562 -0.0620
 1801SOL    HW116862   2.002   2.355   6.675 -1.7442  1.6588  0.2319
 1801SOL    HW216863   2.079   2.282   6.784  1.2330  0.4824 -2.8911
 1802SOL     OW16864   1.865   1.964   6.033  0.0848  0.3031 -0.1218
 1802SOL    HW116865   1.930   1.926   6.093 -2.4436  0.3553  2.6377
 1802SOL    HW216866   1.923   2.034   6.003 -0.0261  0.1420 -0.7001
 1803SOL     OW16867   4.723   4.173   4.567  0.1160  0.0610 -0.5802
 1803SOL    HW116868   0.068   4.107   4.571 -0.6065 -0.4744  2.5512
 1803SOL    HW216869   4.659   4.122   4.617  1.0561 -1.2128 -0.6877
 1804SOL     OW16870   0.443   1.158  11.994  0.1229 -0.4682 -0.0968
 1804SOL    HW116871   0.469   1.109  12.072  0.3528 -0.4981 -0.1935
 1804SOL    HW216872   0.459   1.248  12.023 -0.9342 -1.2718  3.0035
 1805SOL     OW16873   3.810   3.471   3.244  0.5137 -0.4504  0.2884
 1805SOL    HW116874   3.766   3.551   3.213  0.3636 -0.7882 -0.3667
 1805SOL    HW216875   3.765   3.463   3.328  0.5575  0.9575  0.4569
 1806SOL     OW16876   1.704   0.310  17.247  0.5013  0.0665  0.1359
 1806SOL    HW116877   1.716   0.308  17.342 -1.3770  0.5310  0.3793
 1806SOL    HW216878   1.656   0.230  17.222  0.1731  0.2356  0.2207
 1807SOL     OW16879   4.712   4.671   8.772 -0.0742  0.3874  0.8804
 1807SOL    HW116880   4.645   4.676   8.704 -2.2775  0.2384  3.0253
 1807SOL    HW216881   4.654   4.630   8.837  0.2320 -3.4645 -1.2665
 1808SOL     OW16882   2.064   1.741  11.788 -0.5472 -0.4102 -0.2271
 1808SOL    HW116883   2.069   1.697  11.703  1.1369  2.9472 -1.9016
 1808SOL    HW216884   2.013   1.818  11.763 -1.0682 -0.8012 -0.3672
 1809SOL     OW16885   0.229   3.411   7.166  0.0294  0.0641 -0.4883
 1809SOL    HW116886   0.292   3.347   7.200 -0.9492 -1.5371 -1.6782
 1809SOL    HW216887   0.182   3.346   7.114 -2.2689  0.4215  1.1334
 1810SOL     OW16888   0.757   3.352  17.423  0.2066 -0.3831 -0.2515
 1810SOL    HW116889   0.675   3.315  17.390  0.1419 -1.1063  0.7025
 1810SOL    HW216890   0.808   3.385  17.350 -0.5916 -0.6487 -0.9340
 1811SOL     OW16891   0.811   2.173   5.402  0.2572  0.4832  0.0700
 1811SOL    HW116892   0.859   2.092   5.391  0.8944  0.6339  1.6842
 1811SOL    HW216893   0.776   2.194   5.316 -0.6392 -0.6251  0.1741
 1812SOL     OW16894   3.179   3.259   7.064 -0.1219  0.1320  0.1166
 1812SOL    HW116895   3.221   3.344   7.051 -0.6423  0.2207 -0.9959
 1812SOL    HW216896   3.256   3.204   7.078 -0.4507 -0.8627 -1.9421
 1813SOL     OW16897   2.426   1.747   3.852 -0.2161 -0.2117 -0.3651
 1813SOL    HW116898   2.332   1.757   3.869  0.1756  0.0125  1.6703
 1813SOL    HW216899   2.455   1.711   3.936  1.7571  0.5789 -0.6971
 1814SOL     OW16900   2.086   0.718   8.666  0.3585  0.3258 -0.2586
 1814SOL    HW116901   2.088   0.642   8.607 -1.5178 -0.3245  0.5124
 1814SOL    HW216902   2.042   0.684   8.744  0.7160 -0.4532 -0.3950
 1815SOL     OW16903   3.257   4.681  13.364 -0.0024  0.0643 -0.8973
 1815SOL    HW116904   3.261   4.685  13.460  0.2343  1.1594 -0.9489
 1815SOL    HW216905   3.337   4.638  13.334  0.5590  1.1396 -0.9571
 1816SOL     OW16906   1.243   3.068  15.652 -0.6975 -0.0718 -0.2712
 1816SOL    HW116907   1.183   3.115  15.709  0.7013 -0.4776  1.5203
 1816SOL    HW216908   1.188   3.044  15.576 -0.9967  0.4169 -0.2049
 1817SOL     OW16909   3.458   3.753   7.580  0.0565  0.1362 -0.0680
 1817SOL    HW116910   3.492   3.778   7.665  2.2405  1.1346 -1.2474
 1817SOL    HW216911   3.433   3.836   7.539  3.6152  2.0190  1.6223
 1818SOL     OW16912   3.689   2.988  10.588  0.3522  0.6273 -0.4951
 1818SOL    HW116913   3.637   3.028  10.519 -0.9867 -0.3601 -0.0451
 1818SOL    HW216914   3.649   2.902  10.597 -0.3117  1.0002  0.0301
 1819SOL     OW16915   0.947   4.398   5.872 -0.1629 -0.2205 -0.5218
 1819SOL    HW116916   0.865   4.420   5.828 -1.1531 -1.7318  0.5817
 1819SOL    HW216917   1.006   4.413   5.798  1.5925  0.2013  0.9832
 1820SOL     OW16918   2.281   2.121   3.489 -0.1911  0.0776  0.2726
 1820SOL    HW116919   2.277   2.211   3.520  1.4018  0.0299  0.5887
 1820SOL    HW216920   2.291   2.130   3.394 -1.7446  1.3058  0.2208
 1821SOL     OW16921   4.543   4.041  15.884 -0.0730  0.4370  0.0169
 1821SOL    HW116922   4.636   4.049  15.908  0.5041  0.2507 -2.1731
 1821SOL    HW216923   4.546   4.022  15.791 -0.1143  1.5148 -0.2000
 1822SOL     OW16924   3.167   1.911   7.072  0.3329 -0.2702 -0.4004
 1822SOL    HW116925   3.127   1.988   7.112 -0.5276 -0.1656 -1.4602
 1822SOL    HW216926   3.163   1.850   7.146  0.7323  0.5008  0.2545
 1823SOL     OW16927   2.001   2.264   7.532 -0.6691 -0.9428  0.2778
 1823SOL    HW116928   1.975   2.186   7.581  0.2963 -0.5371  1.4500
 1823SOL    HW216929   2.095   2.271   7.546 -0.4677 -2.4801 -0.3371
 1824SOL     OW16930   3.458   1.273  11.789  0.5357 -0.1350  1.0174
 1824SOL    HW116931   3.406   1.198  11.762  1.3854 -1.1863  2.2570
 1824SOL    HW216932   3.542   1.228  11.782 -0.3338 -1.4697 -0.7620
 1825SOL     OW16933   3.582   0.208   3.913  0.4271 -0.1500  0.2023
 1825SOL    HW116934   3.568   0.299   3.939  1.3036 -0.4676  1.7491
 1825SOL    HW216935   3.628   0.177   3.991  0.6025  0.7578  0.4577
 1826SOL     OW16936   2.268   1.415   8.831  0.7872 -0.5334 -0.1540
 1826SOL    HW116937   2.317   1.372   8.760  1.0360 -1.8841  0.8341
 1826SOL    HW216938   2.244   1.341   8.887 -2.1342  0.2335 -0.4223
 1827SOL     OW16939   4.653   3.506  14.212 -0.7985 -0.6314  0.3661
 1827SOL    HW116940   4.716   3.442  14.177  0.0553  1.2021 -1.4329
 1827SOL    HW216941   4.659   3.491  14.306  1.7845 -1.5568  0.0489
 1828SOL     OW16942   2.325   2.065   2.328  0.0177  0.2233  0.0981
 1828SOL    HW116943   2.347   2.109   2.411  1.3114 -1.2011  0.5039
 1828SOL    HW216944   2.371   1.982   2.332 -0.4685 -0.1067 -1.1668
 1829SOL     OW16945   1.885   3.074   9.746  0.3099 -0.1417 -0.6063
 1829SOL    HW116946   1.921   2.995   9.706 -1.5314 -0.5620 -1.4134
 1829SOL    HW216947   1.973   3.098   9.775 -1.3155 -0.7472  4.8373
 1830SOL     OW16948   3.673   2.165  14.814  0.5862 -0.6244 -0.0668
 1830SOL    HW116949   3.655   2.172  14.908  2.0758  0.7133  0.1090
 1830SOL    HW216950   3.584   2.176  14.778 -0.3785  1.7918  3.0945
 1831SOL     OW16951   1.880   2.151  14.108  0.8841  0.1988  0.1864
 1831SOL    HW116952   1.945   2.178  14.043 -0.2203  0.5208 -0.7667
 1831SOL    HW216953   1.827   2.227  14.132 -1.6377 -0.3027 -3.8830
 1832SOL     OW16954   2.603   4.542   3.707 -0.8763 -0.1285 -0.1459
 1832SOL    HW116955   2.603   4.500   3.793 -0.5461 -0.6293 -0.3937
 1832SOL    HW216956   2.666   4.491   3.657  1.7396  2.2910  0.6782
 1833SOL     OW16957   2.881   2.497  11.933 -0.5095 -0.0422 -0.0704
 1833SOL    HW116958   2.889   2.529  11.844 -0.2547 -0.1624 -0.0891
 1833SOL    HW216959   2.786   2.498  11.944 -0.3448 -0.3339  1.3746
 1834SOL     OW16960   1.579   2.850   4.876  0.5801 -0.0861  0.2519
 1834SOL    HW116961   1.654   2.789   4.872  0.4893 -0.2342  0.8745
 1834SOL    HW216962   1.602   2.914   4.808 -3.0155  0.0281 -0.8258
 1835SOL     OW16963   1.883   4.493   6.017 -0.6202 -0.1041 -0.1983
 1835SOL    HW116964   1.978   4.503   6.016 -0.5290 -0.8665  0.6822
 1835SOL    HW216965   1.867   4.483   5.923 -0.2732 -1.3558 -0.1234
 1836SOL     OW16966   0.815   0.630   3.307 -0.1010 -0.6276 -0.2505
 1836SOL    HW116967   0.820   0.702   3.369 -1.4424 -0.8142  0.0829
 1836SOL    HW216968   0.778   0.664   3.226 -2.2502  0.9410  1.3976
 1837SOL     OW16969   1.473   1.199   6.811  0.2702  0.1346 -0.2450
 1837SOL    HW116970   1.553   1.243   6.839  0.5873  0.0759 -1.0549
 1837SOL    HW216971   1.509   1.141   6.744 -1.2552 -0.7791 -0.2732
 1838SOL     OW16972   1.710   4.294  11.895  0.0256  0.5276 -0.1135
 1838SOL    HW116973   1.731   4.326  11.983  0.1807 -2.3952  0.9041
 1838SOL    HW216974   1.679   4.376  11.857  0.5624  0.5113 -0.5812
 1839SOL     OW16975   0.106   3.844   2.798 -0.4325 -0.6253  0.4149
 1839SOL    HW116976   0.021   3.842   2.841 -0.0346 -1.2808  1.1824
 1839SOL    HW216977   0.157   3.891   2.865 -0.6482  1.2760 -0.7610
 1840SOL     OW16978   2.182   1.572   2.295  0.2333  0.2945  0.3625
 1840SOL    HW116979   2.256   1.533   2.342  0.8074  0.8324 -0.1087
 1840SOL    HW216980   2.144   1.488   2.270  2.8197 -0.8913  0.4177
 1841SOL     OW16981   2.083   2.794   4.904  0.3504  0.1870 -0.2070
 1841SOL    HW116982   2.043   2.817   4.820  1.4076  1.1463 -0.4412
 1841SOL    HW216983   2.164   2.754   4.875  0.3037  1.5794 -2.2558
 1842SOL     OW16984   0.310   1.031   2.780  0.4682 -0.3652 -0.0259
 1842SOL    HW116985   0.286   0.941   2.759  0.1729 -0.7081  1.8709
 1842SOL    HW216986   0.364   1.028   2.859  0.0701 -0.7054  0.2310
 1843SOL     OW16987   2.647   0.396   6.165  0.1286 -0.3393 -0.3334
 1843SOL    HW116988   2.611   0.484   6.153  2.2831  0.9480  2.6166
 1843SOL    HW216989   2.722   0.403   6.106  0.3831 -1.7006 -0.1629
 1844SOL     OW16990   0.237   2.310   8.597 -0.4096 -0.6595 -0.1004
 1844SOL    HW116991   0.280   2.386   8.557  0.1456 -1.4174 -0.9525
 1844SOL    HW216992   0.196   2.272   8.519 -0.2580  0.0894 -0.5477
 1845SOL     OW16993   0.587   2.481  15.575  0.1194  0.2045 -0.4658
 1845SOL    HW116994   0.560   2.428  15.500 -0.1012 -0.5992  0.1884
 1845SOL    HW216995   0.605   2.558  15.521  0.0120 -1.6205 -3.1083
 1846SOL     OW16996   1.963   0.438   5.404  0.0628 -0.1191  0.4352
 1846SOL    HW116997   1.955   0.383   5.481  4.4125 -1.0881  0.1914
 1846SOL    HW216998   1.991   0.517   5.450 -1.1361 -0.2671  1.4085
 1847SOL     OW16999   3.834   2.450   4.979 -0.0801  0.5683  0.7266
 1847SOL    HW117000   3.808   2.403   5.058  1.2235 -2.0194 -0.3872
 1847SOL    HW217001   3.919   2.486   5.004  0.2263  0.5616 -0.2927
 1848SOL     OW17002   4.294   0.847   6.380 -0.1882  0.1870  0.2202
 1848SOL    HW117003   4.338   0.783   6.323 -1.0100  0.7570 -1.0632
 1848SOL    HW217004   4.350   0.924   6.376 -1.0267  0.7102 -1.6985
 1849SOL     OW17005   0.306   3.780   8.181  0.5368  0.0597  0.4825
 1849SOL    HW117006   0.269   3.808   8.265 -0.1999  2.2777 -0.5855
 1849SOL    HW217007   0.235   3.719   8.161  0.6254  0.3530 -0.6952
 1850SOL     OW17008   0.549   1.815   7.832  0.7172 -0.0687  0.3108
 1850SOL    HW117009   0.512   1.902   7.816  0.8552  0.3171  2.1580
 1850SOL    HW217010   0.638   1.820   7.797  0.3272  1.7345 -0.4638
 1851SOL     OW17011   0.307   0.373   4.563  0.3517  0.5694  0.2853
 1851SOL    HW117012   0.365   0.386   4.488  0.8269  0.7651  0.6801
 1851SOL    HW217013   0.273   0.460   4.584 -2.8590  0.0533 -2.9129
 1852SOL     OW17014   0.237   3.913   6.767 -0.8109  0.2471 -0.1078
 1852SOL    HW117015   0.249   3.825   6.803  1.5186 -0.1915 -1.9505
 1852SOL    HW217016   0.305   3.907   6.700 -0.0556 -0.4108  0.7278
 1853SOL     OW17017   1.700   2.068   8.283  0.2116  0.4519 -0.0945
 1853SOL    HW117018   1.624   2.065   8.340  0.8750 -0.9508  0.7137
 1853SOL    HW217019   1.727   1.976   8.289  1.1249  0.7600  0.5600
 1854SOL     OW17020   0.027   0.655   0.186 -0.6472  0.3294 -0.1789
 1854SOL    HW117021   4.704   0.574   0.167  0.2445 -0.5380  1.3011
 1854SOL    HW217022   4.683   0.700   0.234  0.0342  0.5538  0.5843
 1855SOL     OW17023   0.310   2.260  17.515  0.2361  0.7331 -0.0279
 1855SOL    HW117024   0.334   2.343  17.473  4.1461 -0.1338  0.4803
 1855SOL    HW217025   0.366   2.203  17.462  0.1769  1.4053 -0.8090
 1856SOL     OW17026   3.851   1.993  10.048 -0.3349  0.2166 -0.4350
 1856SOL    HW117027   3.932   2.037  10.021  0.3902 -0.3850  0.7490
 1856SOL    HW217028   3.857   1.989  10.143 -1.5688 -1.5796 -0.4419
 1857SOL     OW17029   3.976   1.835  14.678 -0.3053 -0.0353 -0.2707
 1857SOL    HW117030   4.043   1.770  14.657 -0.7746 -1.0242  1.3233
 1857SOL    HW217031   4.028   1.916  14.684  1.6131 -1.4000  1.3649
 1858SOL     OW17032   2.971   0.466  10.653  0.3648 -0.0715  0.0048
 1858SOL    HW117033   2.986   0.519  10.731 -0.6913  0.5711 -0.2282
 1858SOL    HW217034   2.951   0.534  10.588  0.2159 -0.4396 -0.3296
 1859SOL     OW17035   0.869   0.589   7.486 -0.1065  0.1531  0.0802
 1859SOL    HW117036   0.903   0.534   7.416 -1.8696  0.4711 -1.0248
 1859SOL    HW217037   0.923   0.667   7.479  0.4105 -0.2842 -0.7856
 1860SOL     OW17038   2.776   1.805   3.322 -0.5067 -1.0531 -0.0953
 1860SOL    HW117039   2.779   1.870   3.252 -1.6513  0.4597  1.2605
 1860SOL    HW217040   2.822   1.857   3.389  1.8126 -1.5803 -1.2844
 1861SOL     OW17041   2.956   4.724  13.499 -0.1579 -0.1984  0.0647
 1861SOL    HW117042   2.934   4.720  13.406 -1.1729 -2.3279  0.3892
 1861SOL    HW217043   3.023   4.657  13.511 -1.1006 -0.9202  1.1727
 1862SOL     OW17044   4.018   1.807   5.769  0.1761 -0.0270  0.0762
 1862SOL    HW117045   4.021   1.862   5.691  2.8754 -0.4634 -0.1399
 1862SOL    HW217046   3.932   1.828   5.804 -0.4299 -0.3740 -1.2202
 1863SOL     OW17047   1.465   1.605  10.508  0.1953  0.0374  0.1609
 1863SOL    HW117048   1.550   1.564  10.525  1.1069  1.7057 -0.3546
 1863SOL    HW217049   1.424   1.603  10.595  1.3893 -1.7562  0.6889
 1864SOL     OW17050   0.027   3.236  14.201  0.2712 -0.2174  0.4443
 1864SOL    HW117051   0.121   3.254  14.196  0.0147  0.8178 -0.7185
 1864SOL    HW217052   0.026   3.206  14.292 -2.4915 -0.8722  0.1920
 1865SOL     OW17053   2.047   0.389   1.048 -0.2010 -0.7207 -0.4157
 1865SOL    HW117054   2.103   0.461   1.018 -2.4360  0.3053 -2.1241
 1865SOL    HW217055   2.024   0.355   0.962  1.8184 -1.4592 -0.6552
 1866SOL     OW17056   0.257   1.016  11.852  0.2356  0.2048  0.2882
 1866SOL    HW117057   0.335   1.034  11.906  0.7662 -0.5702 -0.2181
 1866SOL    HW217058   0.194   1.055  11.912 -0.1473 -0.7627  0.5094
 1867SOL     OW17059   0.879   0.710   2.609 -0.0573 -0.7487  0.0315
 1867SOL    HW117060   0.820   0.747   2.543 -0.8400  1.8986  2.2271
 1867SOL    HW217061   0.958   0.722   2.556 -0.8413 -1.0327 -1.2237
 1868SOL     OW17062   3.486   2.621   8.326  0.1526 -0.2029 -0.0843
 1868SOL    HW117063   3.470   2.653   8.237 -0.2304 -0.9574 -0.2870
 1868SOL    HW217064   3.415   2.558   8.317 -0.1703  0.3062 -1.1411
 1869SOL     OW17065   3.098   4.314   8.330  0.1661  0.4830  0.2834
 1869SOL    HW117066   3.012   4.344   8.301 -0.2939 -1.1074  0.0430
 1869SOL    HW217067   3.084   4.223   8.304 -0.3945  0.9071 -0.8747
 1870SOL     OW17068   1.946   3.821   9.243  0.1096  0.3511  0.3122
 1870SOL    HW117069   1.896   3.739   9.238 -0.8360  0.8066  2.2681
 1870SOL    HW217070   2.027   3.790   9.282 -0.1674  0.0710  0.6712
 1871SOL     OW17071   1.714   0.342   8.428 -0.4182 -0.4167  0.4994
 1871SOL    HW117072   1.715   0.251   8.399  0.0452 -0.3763  0.3830
 1871SOL    HW217073   1.655   0.348   8.503 -1.2977  0.4854 -0.2708
 1872SOL     OW17074   1.259   1.886  11.920 -0.3761  0.3570 -0.2292
 1872SOL    HW117075   1.180   1.906  11.971 -0.4920 -0.7779  0.0490
 1872SOL    HW217076   1.298   1.817  11.974 -0.7165  0.5309  0.2468
 1873SOL     OW17077   0.614   4.199   4.509 -0.5174 -1.0356 -0.4110
 1873SOL    HW117078   0.564   4.117   4.505  0.1853 -1.3954 -1.5598
 1873SOL    HW217079   0.548   4.267   4.495 -2.2015 -3.0976 -2.5557
 1874SOL     OW17080   1.656   0.899  17.138  0.6522 -0.4709  0.3959
 1874SOL    HW117081   1.644   0.945  17.055 -1.2983 -0.3624  0.7231
 1874SOL    HW217082   1.624   0.962  17.202 -0.5997 -2.4717  1.7608
 1875SOL     OW17083   1.631   3.076   0.193 -0.1386 -0.2848 -0.4494
 1875SOL    HW117084   1.704   3.095   0.252  0.5847 -1.3713 -0.9900
 1875SOL    HW217085   1.659   2.997   0.146 -0.9342 -1.5258  1.1641
 1876SOL     OW17086   2.097   2.085   6.547 -0.0360 -0.5031  0.0058
 1876SOL    HW117087   2.158   2.049   6.611  0.6592 -0.3477 -0.5635
 1876SOL    HW217088   2.130   2.051   6.463 -0.7471 -2.1281  0.3922
 1877SOL     OW17089   3.505   2.494   8.554 -0.2456  0.2716  0.2059
 1877SOL    HW117090   3.496   2.529   8.465  0.2068  1.4773  0.6420
 1877SOL    HW217091   3.516   2.579   8.595  2.8830  0.3414 -0.7673
 1878SOL     OW17092   3.773   3.556   5.343 -0.5475  0.4713 -0.0215
 1878SOL    HW117093   3.848   3.610   5.319  0.3796 -0.4814  0.7910
 1878SOL    HW217094   3.800   3.465   5.350  0.1511  0.6093 -0.8959
 1879SOL     OW17095   4.208   1.122  13.378 -0.4722 -0.0279 -0.3992
 1879SOL    HW117096   4.257   1.067  13.438 -1.1367  1.4614  1.5153
 1879SOL    HW217097   4.119   1.086  13.386 -0.1485 -0.8565 -0.5681
 1880SOL     OW17098   4.534   1.831  11.511  0.4983  0.2575 -0.3235
 1880SOL    HW117099   4.523   1.760  11.574  1.0700  0.8305  0.4259
 1880SOL    HW217100   4.509   1.783  11.432  1.3090 -1.0988  0.2392
 1881SOL     OW17101   2.483   0.233   2.221  0.5350 -0.1356  0.0582
 1881SOL    HW117102   2.480   0.318   2.265  1.4266 -0.2126  0.2766
 1881SOL    HW217103   2.390   0.214   2.212 -0.2763  3.5938  0.6925
 1882SOL     OW17104   3.750   3.870   8.920  0.2468  0.4067  0.3161
 1882SOL    HW117105   3.844   3.866   8.933  0.1951 -4.1301 -0.5897
 1882SOL    HW217106   3.718   3.792   8.965  0.9406  0.1611  0.3819
 1883SOL     OW17107   0.448   4.346  11.388  0.2847 -0.3347  0.0966
 1883SOL    HW117108   0.404   4.368  11.470 -0.5160 -1.3537 -0.0645
 1883SOL    HW217109   0.374   4.304  11.344  0.5611 -2.9861  2.1755
 1884SOL     OW17110   3.578   2.273   4.203 -0.0611 -0.1166 -0.0518
 1884SOL    HW117111   3.529   2.195   4.176 -2.4467  1.1297  0.6270
 1884SOL    HW217112   3.559   2.268   4.297 -0.5205  0.5381 -0.1156
 1885SOL     OW17113   1.378   4.242   4.811  0.0908 -0.1272  0.1842
 1885SOL    HW117114   1.311   4.287   4.862  0.7908  1.2225 -0.0758
 1885SOL    HW217115   1.435   4.216   4.884  1.0682 -2.2416 -1.3548
 1886SOL     OW17116   2.393   0.285   3.936 -0.0866 -0.3922 -0.0051
 1886SOL    HW117117   2.476   0.312   3.974 -0.6320 -0.3388  1.1515
 1886SOL    HW217118   2.385   0.205   3.987  3.4989 -0.6418  0.1132
 1887SOL     OW17119   0.462   2.055   6.806 -0.2456  0.3667  0.2107
 1887SOL    HW117120   0.383   2.081   6.759  0.1732 -0.1579 -0.8083
 1887SOL    HW217121   0.430   2.093   6.887 -2.1988  0.0613 -0.4187
 1888SOL     OW17122   2.473   3.121   1.280 -0.3446 -0.1474  0.6973
 1888SOL    HW117123   2.464   3.216   1.282 -1.8694 -0.2641 -0.6742
 1888SOL    HW217124   2.477   3.104   1.374  1.2020 -1.2561  0.4193
 1889SOL     OW17125   4.402   1.602   0.711  0.1888  0.1348 -0.1275
 1889SOL    HW117126   4.367   1.548   0.783  1.8811  0.5550  1.0180
 1889SOL    HW217127   4.479   1.545   0.704 -1.2274 -1.6600 -1.1704
 1890SOL     OW17128   2.166   1.766   3.945  0.0382 -0.9167  0.1068
 1890SOL    HW117129   2.160   1.837   3.881  1.2544 -1.2836 -0.4284
 1890SOL    HW217130   2.136   1.686   3.902  0.3263  0.5725 -2.8481
 1891SOL     OW17131   3.997   4.666  15.388  0.3841  0.1863 -0.5983
 1891SOL    HW117132   4.044   4.583  15.380  1.7004  0.8183  0.6974
 1891SOL    HW217133   3.919   4.639  15.436  1.7246  0.9798  2.0402
 1892SOL     OW17134   4.482   4.706   6.983  0.2197 -0.8368  0.4518
 1892SOL    HW117135   4.430   0.057   7.012  0.9703  0.3456 -1.2841
 1892SOL    HW217136   4.530   0.029   6.914  0.1839 -0.0886  0.9354
 1893SOL     OW17137   4.247   2.841   2.941  0.9715  0.4637  0.1185
 1893SOL    HW117138   4.256   2.754   2.901  1.3772  0.2410  0.6949
 1893SOL    HW217139   4.302   2.900   2.890  2.4538  0.4607  1.7214
 1894SOL     OW17140   1.046   2.702   1.060  0.3208 -0.7785  0.3706
 1894SOL    HW117141   0.973   2.673   1.006  1.4998 -0.7408 -1.2528
 1894SOL    HW217142   1.118   2.652   1.020 -1.4944 -2.5725 -0.6517
 1895SOL     OW17143   0.536   1.361  15.908 -0.5444 -0.2979 -0.1620
 1895SOL    HW117144   0.462   1.319  15.865 -1.1262  0.0599  0.4874
 1895SOL    HW217145   0.608   1.320  15.859 -0.9704  1.3038 -2.1089
 1896SOL     OW17146   0.528   4.101   1.117 -0.1351  0.1578  0.1817
 1896SOL    HW117147   0.560   4.037   1.054 -0.7963  0.0190 -0.0082
 1896SOL    HW217148   0.433   4.098   1.103 -0.0208  1.3424 -0.8445
 1897SOL     OW17149   3.145   1.867   0.089  0.0010  1.3615  0.0434
 1897SOL    HW117150   3.099   1.875   0.173 -0.0163  1.7788 -0.0050
 1897SOL    HW217151   3.075   1.848   0.026  0.0118 -4.2573  1.7574
 1898SOL     OW17152   3.100   3.589   2.810  0.0654  0.3719 -0.1642
 1898SOL    HW117153   3.027   3.634   2.852  0.0744 -0.5212  0.8085
 1898SOL    HW217154   3.179   3.620   2.856  0.4131 -2.0222  0.8621
 1899SOL     OW17155   0.805   3.134   4.524 -0.3246  0.4545  0.5411
 1899SOL    HW117156   0.737   3.157   4.587  0.0534 -1.6907  1.7446
 1899SOL    HW217157   0.765   3.152   4.440 -1.4191  1.4783  1.2846
 1900SOL     OW17158   2.596   3.955   5.502  0.3557  0.4780  0.2789
 1900SOL    HW117159   2.511   3.999   5.511 -0.4626 -1.6977  2.9366
 1900SOL    HW217160   2.631   4.027   5.449 -0.3909 -0.2884 -1.2581
 1901SOL     OW17161   2.427   4.400   4.315 -1.1406 -0.5746 -0.0274
 1901SOL    HW117162   2.358   4.437   4.369 -1.8924 -3.1969  0.8111
 1901SOL    HW217163   2.372   4.374   4.241  0.3195 -0.3694 -1.1927
 1902SOL     OW17164   3.636   3.138   1.335  0.2928 -0.1906 -0.2979
 1902SOL    HW117165   3.614   3.102   1.249 -0.3102 -0.3857 -0.0604
 1902SOL    HW217166   3.730   3.145   1.315 -0.4511  1.7796 -3.1564
 1903SOL     OW17167   4.076   3.426   2.288 -0.3070 -0.4623 -0.2175
 1903SOL    HW117168   4.087   3.385   2.202  0.4882 -0.4790 -0.1087
 1903SOL    HW217169   3.994   3.469   2.264 -0.0637  0.6309  0.8847
 1904SOL     OW17170   0.464   2.507   1.079  0.4672  0.2598 -0.4187
 1904SOL    HW117171   0.483   2.483   0.988  2.4171  3.2747 -0.8183
 1904SOL    HW217172   0.379   2.465   1.087 -1.2770  3.4074 -2.2988
 1905SOL     OW17173   1.779   1.307   0.265  1.0625 -0.1980 -0.3008
 1905SOL    HW117174   1.719   1.382   0.265 -0.7189 -1.6382  0.0306
 1905SOL    HW217175   1.738   1.271   0.187  0.9609  0.4852 -0.5679
 1906SOL     OW17176   2.199   4.053   4.282  0.0544  0.4806  0.3209
 1906SOL    HW117177   2.237   4.044   4.195  0.2848  2.3481  0.2215
 1906SOL    HW217178   2.276   4.072   4.336 -1.6467  2.0875  2.1894
 1907SOL     OW17179   0.082   1.977   8.727  0.3829 -0.2700 -0.5222
 1907SOL    HW117180   0.062   2.071   8.730  0.2451 -0.2593 -1.9066
 1907SOL    HW217181   0.176   1.987   8.742  0.3315 -2.3787  1.2294
 1908SOL     OW17182   0.858   2.061   4.448 -0.6579  0.3942 -0.1583
 1908SOL    HW117183   0.889   2.140   4.404  0.5558 -1.0498 -1.9400
 1908SOL    HW217184   0.869   1.992   4.382 -0.1934 -1.7613  2.1566
 1909SOL     OW17185   3.239   0.065   7.372  0.1761  0.5937 -0.0941
 1909SOL    HW117186   3.216   0.016   7.451  0.8657  1.0244  0.3627
 1909SOL    HW217187   3.178   0.138   7.382 -1.9075 -1.1792  0.2097
 1910SOL     OW17188   2.212   3.811   2.519 -0.2382  0.2473 -0.1780
 1910SOL    HW117189   2.211   3.717   2.504 -0.2133 -0.2690  3.0135
 1910SOL    HW217190   2.223   3.807   2.614  1.5643  1.9318 -0.3047
 1911SOL     OW17191   2.727   3.765   4.518 -0.7260  0.4041 -0.2743
 1911SOL    HW117192   2.817   3.796   4.526  0.2970 -2.8823  0.8804
 1911SOL    HW217193   2.732   3.671   4.508  0.1562  0.6293 -1.8497
 1912SOL     OW17194   4.249   4.699   8.596 -0.1125 -0.2203  0.1085
 1912SOL    HW117195   4.196   4.632   8.553 -1.5336  2.1591 -1.9018
 1912SOL    HW217196   4.221   4.688   8.687  0.2932  3.8033  0.7366
 1913SOL     OW17197   3.143   0.137  16.959  0.6880 -0.1382 -0.1015
 1913SOL    HW117198   3.105   0.084  16.888 -3.5199  1.7819  0.7108
 1913SOL    HW217199   3.191   0.204  16.909 -0.3295 -0.3097 -1.3102
 1914SOL     OW17200   0.607   2.277   0.313 -0.4299 -0.8166 -0.6913
 1914SOL    HW117201   0.646   2.364   0.316 -0.0947 -0.9262 -1.9739
 1914SOL    HW217202   0.677   2.219   0.345  0.8041  0.9534 -0.1721
 1915SOL     OW17203   1.202   3.547  17.020  0.0563  0.5847 -0.3345
 1915SOL    HW117204   1.230   3.575  17.107 -1.0680  0.3497  0.1078
 1915SOL    HW217205   1.148   3.469  17.033  0.8109  0.3326  1.1681
 1916SOL     OW17206   2.246   2.629  17.127  0.3667  0.1763 -0.1457
 1916SOL    HW117207   2.236   2.688  17.053  0.1498  0.0244 -0.2398
 1916SOL    HW217208   2.240   2.540  17.092 -0.1928 -0.6055  1.9010
 1917SOL     OW17209   3.681   1.287   3.990 -0.0858 -0.1445 -0.4323
 1917SOL    HW117210   3.757   1.344   3.975 -0.6281  0.3518 -1.2909
 1917SOL    HW217211   3.631   1.338   4.054 -0.8834  0.7027 -1.7187
 1918SOL     OW17212   1.704   4.302   3.168 -0.2391 -0.2559  0.4056
 1918SOL    HW117213   1.721   4.294   3.074  0.3796 -1.3145  0.6069
 1918SOL    HW217214   1.648   4.378   3.151  0.3097  0.6186  2.5898
 1919SOL     OW17215   0.681   2.500   8.691  0.3662  0.3245 -0.8334
 1919SOL    HW117216   0.762   2.461   8.722 -0.5334 -1.8010 -1.1949
 1919SOL    HW217217   0.635   2.518   8.773 -0.4109  2.5104 -1.7475
 1920SOL     OW17218   4.228   3.147   7.506 -0.1621 -0.1321 -0.4602
 1920SOL    HW117219   4.243   3.058   7.473  1.4909  0.0973 -0.3397
 1920SOL    HW217220   4.292   3.146   7.577 -0.1760  0.5435 -0.4414
 1921SOL     OW17221   3.951   3.504  11.947 -0.5290 -0.6147  0.2488
 1921SOL    HW117222   4.018   3.439  11.967  0.9811  1.3024  1.3885
 1921SOL    HW217223   3.876   3.479  12.001 -0.9462  0.8191  0.3394
 1922SOL     OW17224   2.460   1.673   4.400 -0.4462  0.5574  0.1891
 1922SOL    HW117225   2.373   1.680   4.441 -0.3494 -2.9075  0.9486
 1922SOL    HW217226   2.468   1.584   4.366  3.2998  0.1253  2.1486
 1923SOL     OW17227   2.198   3.660  14.220 -0.5489  0.3829  0.2068
 1923SOL    HW117228   2.223   3.597  14.152  0.2618  0.1097  0.7564
 1923SOL    HW217229   2.102   3.667  14.215 -0.5961  1.1751  2.1984
 1924SOL     OW17230   0.508   3.917   4.487 -0.1175 -0.0485 -0.0984
 1924SOL    HW117231   0.447   3.874   4.547  0.0812 -1.1780 -0.7010
 1924SOL    HW217232   0.489   3.874   4.404 -2.8130 -0.0236  0.5068
 1925SOL     OW17233   2.726   2.743  14.298 -0.5217  0.0556  0.1869
 1925SOL    HW117234   2.772   2.685  14.359  0.5899 -0.7136 -1.3700
 1925SOL    HW217235   2.746   2.829  14.334  0.6552 -0.7671  1.5138
 1926SOL     OW17236   0.639   1.586   0.567 -0.8946  0.0788 -0.1184
 1926SOL    HW117237   0.564   1.639   0.538 -0.8233  1.7317  2.7553
 1926SOL    HW217238   0.708   1.586   0.500 -0.4976 -2.4285  0.2978
 1927SOL     OW17239   3.368   4.012   1.836  0.2307 -0.8427  0.0183
 1927SOL    HW117240   3.438   4.077   1.827 -0.9914  0.5465  0.4921
 1927SOL    HW217241   3.406   3.931   1.802  1.6579 -0.2639  0.2183
 1928SOL     OW17242   1.473   2.210   6.672 -0.0616  0.2154  0.0202
 1928SOL    HW117243   1.547   2.153   6.651 -2.1410 -2.4878  0.0689
 1928SOL    HW217244   1.520   2.294   6.672  1.6178 -0.7061  1.6315
 1929SOL     OW17245   0.331   0.542   3.652 -0.5300  0.1745 -0.1439
 1929SOL    HW117246   0.375   0.458   3.638 -2.0044 -0.5015 -0.6546
 1929SOL    HW217247   0.335   0.577   3.563 -0.7535 -0.8014 -0.5320
 1930SOL     OW17248   3.283   1.686   7.578 -0.2074 -0.7876 -0.2273
 1930SOL    HW117249   3.216   1.702   7.644  0.4352 -0.9648  0.4639
 1930SOL    HW217250   3.264   1.600   7.540  0.6746 -2.1526  2.4642
 1931SOL     OW17251   1.664   4.236   4.773 -0.2230 -0.3441 -0.4785
 1931SOL    HW117252   1.677   4.211   4.865 -0.6226 -0.8764 -0.5633
 1931SOL    HW217253   1.568   4.232   4.770 -0.2472  0.5788 -0.9527
 1932SOL     OW17254   4.582   2.835   4.708  0.3282  0.1718  0.1526
 1932SOL    HW117255   4.509   2.852   4.649  0.8199  0.3599 -0.4002
 1932SOL    HW217256   4.552   2.745   4.725  1.0151  0.3136  2.1746
 1933SOL     OW17257   4.033   3.024   5.337  0.1149  0.3414  0.0854
 1933SOL    HW117258   4.067   2.936   5.350 -0.7134  0.2476  1.7421
 1933SOL    HW217259   4.098   3.069   5.390  2.0083 -0.9777 -1.1299
 1934SOL     OW17260   0.784   3.252  14.964 -0.0320  0.2462 -0.6038
 1934SOL    HW117261   0.704   3.223  15.008  2.1791 -1.2019  2.4097
 1934SOL    HW217262   0.755   3.311  14.894 -1.3541  0.3625  0.0388
 1935SOL     OW17263   3.449   1.850   7.760 -0.4008 -0.0082 -0.3907
 1935SOL    HW117264   3.463   1.796   7.838 -0.3783 -0.5890 -0.7947
 1935SOL    HW217265   3.468   1.787   7.691  1.2107  0.0804 -0.0331
 1936SOL     OW17266   1.090   4.433   5.642 -0.4461  0.5874  0.3630
 1936SOL    HW117267   1.163   4.461   5.696 -0.5303 -0.2535  0.9080
 1936SOL    HW217268   1.131   4.444   5.557 -0.2072 -0.9110  0.2835
 1937SOL     OW17269   3.350   4.652   8.048  0.4177 -0.1126  0.5615
 1937SOL    HW117270   3.411   4.586   8.080 -0.0326 -0.2361  1.1667
 1937SOL    HW217271   3.277   4.623   8.103  0.6567 -1.9125 -0.0605
 1938SOL     OW17272   0.902   4.545   4.367  0.2289  0.0279  0.3009
 1938SOL    HW117273   0.846   4.546   4.444  2.5546  1.2225  1.9409
 1938SOL    HW217274   0.845   4.512   4.297 -1.0465  1.7608  0.5324
 1939SOL     OW17275   2.017   4.583   9.459  0.4936  0.0738  0.0057
 1939SOL    HW117276   2.028   4.561   9.551 -1.4942 -2.0470 -0.2536
 1939SOL    HW217277   2.104   4.564   9.423  0.7181  0.6986  0.2225
 1940SOL     OW17278   3.546   4.057   0.404  0.3364 -0.0361 -0.1599
 1940SOL    HW117279   3.452   4.066   0.392  0.3082  0.1269  0.1892
 1940SOL    HW217280   3.545   3.972   0.449 -0.9139  0.7454  1.2742
 1941SOL     OW17281   3.152   1.822   4.510 -0.4069 -0.0053 -0.1463
 1941SOL    HW117282   3.191   1.858   4.430  0.6494 -0.8726 -0.0240
 1941SOL    HW217283   3.202   1.870   4.576  1.7492 -0.7494 -1.2253
 1942SOL     OW17284   3.277   2.260   3.191 -0.2515 -0.0511  0.3999
 1942SOL    HW117285   3.258   2.195   3.124  1.3754 -0.3167  0.2031
 1942SOL    HW217286   3.282   2.206   3.270 -0.6417 -0.6722 -0.0043
 1943SOL     OW17287   2.982   2.630   2.789 -0.2446  0.2066  0.0341
 1943SOL    HW117288   2.906   2.687   2.793  1.0872  1.8928  1.1362
 1943SOL    HW217289   3.002   2.641   2.696  0.8985  2.0194  0.5027
 1944SOL     OW17290   3.474   2.561   0.361 -0.9432 -0.0205 -0.2128
 1944SOL    HW117291   3.471   2.550   0.456  0.6060 -0.5324 -0.2408
 1944SOL    HW217292   3.552   2.614   0.346 -1.9028  1.5828  0.5172
 1945SOL     OW17293   1.009   2.714   5.379  0.3798  0.2695  0.0392
 1945SOL    HW117294   0.974   2.664   5.453 -0.3843  0.6901 -0.0369
 1945SOL    HW217295   0.989   2.659   5.304  4.2005 -0.1903 -0.6475
 1946SOL     OW17296   0.533   1.585   9.428  0.0048 -0.2793  0.2168
 1946SOL    HW117297   0.482   1.666   9.427 -0.2800 -0.4326  3.0001
 1946SOL    HW217298   0.606   1.587   9.366 -0.1008  1.9538  0.1638
 1947SOL     OW17299   0.114   3.827   5.480  0.9227 -0.0426 -0.1242
 1947SOL    HW117300   0.206   3.840   5.502  0.8825  2.2657 -1.3114
 1947SOL    HW217301   0.080   3.914   5.502  0.3129 -0.2618 -0.2073
 1948SOL     OW17302   1.396   2.751   5.718 -0.3775  0.0082  0.0829
 1948SOL    HW117303   1.354   2.673   5.680 -0.3062  0.1904 -0.3791
 1948SOL    HW217304   1.342   2.779   5.792 -1.1273  0.6892 -0.7153
 1949SOL     OW17305   4.644   0.871   2.906 -0.1443 -0.0123  0.0541
 1949SOL    HW117306   4.639   0.948   2.850  0.5250 -1.5727 -2.1556
 1949SOL    HW217307   4.688   0.804   2.853  0.3963 -0.4670  1.0734
 1950SOL     OW17308   3.862   4.686   9.664  0.6494 -0.0033 -0.5177
 1950SOL    HW117309   3.901   4.671   9.578  0.2255 -0.5713 -0.6147
 1950SOL    HW217310   3.936   4.695   9.723 -0.1952  0.5659  0.4495
 1951SOL     OW17311   4.094   4.663   0.090 -0.0447 -0.2598  0.2691
 1951SOL    HW117312   4.166   4.601   0.100  1.3814  1.0984 -1.6222
 1951SOL    HW217313   4.126   4.706   0.011  0.9921 -0.5804  0.5178
 1952SOL     OW17314   0.462   0.023   7.508 -0.4173 -0.3046 -0.1918
 1952SOL    HW117315   0.498   0.102   7.549  0.7733 -0.9669  0.0262
 1952SOL    HW217316   0.473   0.042   7.414 -2.8134  0.5699 -0.3069
 1953SOL     OW17317   4.024   1.027  15.978  0.2374 -0.1239 -0.6355
 1953SOL    HW117318   4.107   1.045  16.021  0.4734  0.3856 -1.3094
 1953SOL    HW217319   3.969   1.064  16.048  1.0026 -0.2274  0.0225
 1954SOL     OW17320   2.150   3.801   9.050  0.5224  0.3306 -0.2944
 1954SOL    HW117321   2.086   3.869   9.072 -0.8265 -1.0267 -0.0204
 1954SOL    HW217322   2.090   3.727   9.048 -0.0772  0.7738  0.8554
 1955SOL     OW17323   2.565   1.283   6.879 -0.4291 -0.3239 -0.4194
 1955SOL    HW117324   2.522   1.302   6.796  1.8760 -0.4612 -1.6419
 1955SOL    HW217325   2.575   1.373   6.910 -0.8819 -0.0154 -1.1765
 1956SOL     OW17326   1.959   1.724   9.667 -0.1593  0.1862  0.0326
 1956SOL    HW117327   1.899   1.713   9.741 -0.0189  0.3639  0.1722
 1956SOL    HW217328   1.910   1.669   9.606 -2.6757  2.5757 -0.1082
 1957SOL     OW17329   0.186   3.977   4.537 -0.2044  0.3867 -0.4519
 1957SOL    HW117330   0.206   3.884   4.549 -2.1643 -0.3866 -3.0980
 1957SOL    HW217331   0.218   3.987   4.448  0.1339 -1.1606 -0.5146
 1958SOL     OW17332   3.391   3.898   8.508 -0.7664  0.0805 -0.0732
 1958SOL    HW117333   3.390   3.868   8.417 -1.4210  0.2351 -0.1156
 1958SOL    HW217334   3.322   3.843   8.544 -1.2629 -0.2974 -1.5931
 1959SOL     OW17335   4.082   2.472   3.500  0.5248 -0.2666 -0.0763
 1959SOL    HW117336   4.101   2.548   3.556  0.7991 -1.9982  2.1802
 1959SOL    HW217337   4.025   2.426   3.561  1.0377  0.4323  0.9506
 1960SOL     OW17338   3.956   3.299   3.913 -0.7772 -0.0831 -0.0888
 1960SOL    HW117339   4.035   3.332   3.870 -0.9175 -0.9811 -1.0374
 1960SOL    HW217340   3.932   3.253   3.832  2.0531  0.2808 -1.1397
 1961SOL     OW17341   0.137   0.724   2.447  0.2440  0.0862 -0.3069
 1961SOL    HW117342   0.140   0.796   2.384  1.0414  0.1169 -0.2380
 1961SOL    HW217343   0.052   0.739   2.488  2.4381 -0.6939  4.4620
 1962SOL     OW17344   3.330   2.301   2.841  0.3022  0.1231  0.0324
 1962SOL    HW117345   3.271   2.247   2.893 -2.5987  2.6953 -0.6146
 1962SOL    HW217346   3.311   2.388   2.874  1.1856  0.2411  0.2336
 1963SOL     OW17347   3.662   3.465  12.402  0.4341  0.5589 -0.7658
 1963SOL    HW117348   3.741   3.427  12.439 -0.1102  2.5968  2.5299
 1963SOL    HW217349   3.591   3.429  12.457 -0.2804  1.4444 -1.1021
 1964SOL     OW17350   2.337   0.204   9.456 -0.0272 -0.4457 -0.4154
 1964SOL    HW117351   2.423   0.195   9.415  0.2350  1.7281 -0.3633
 1964SOL    HW217352   2.343   0.140   9.527 -0.8720 -0.9990 -0.8379
 1965SOL     OW17353   1.354   0.324   7.170 -0.2350  0.2651 -0.9144
 1965SOL    HW117354   1.413   0.249   7.159  0.0327  0.3149  0.1396
 1965SOL    HW217355   1.413   0.398   7.154  2.4256 -1.7143 -0.4182
 1966SOL     OW17356   2.993   1.290   3.572  0.1689  0.1868  0.4531
 1966SOL    HW117357   3.079   1.307   3.533  0.1407  2.1045  1.2334
 1966SOL    HW217358   2.971   1.208   3.528  1.9573 -0.8678  1.5386
 1967SOL     OW17359   1.112   1.308   4.057  0.2025 -0.0248 -0.2100
 1967SOL    HW117360   1.098   1.398   4.026 -2.2745 -0.0356  0.8279
 1967SOL    HW217361   1.021   1.278   4.067 -0.4109  2.1137  0.7289
 1968SOL     OW17362   4.270   3.691   1.221  0.3092  0.0478  0.2830
 1968SOL    HW117363   4.263   3.637   1.142 -2.3717 -0.7132  1.0618
 1968SOL    HW217364   4.217   3.766   1.192  2.6925  1.2704 -0.9195
 1969SOL     OW17365   4.664   1.043   7.648 -0.6099  0.0160 -0.1541
 1969SOL    HW117366   4.593   1.107   7.650  0.2928  1.0225 -0.2544
 1969SOL    HW217367   4.719   1.073   7.576 -0.4113  0.0843  0.0264
 1970SOL     OW17368   2.566   1.246   8.126  0.2412 -0.1126 -0.0258
 1970SOL    HW117369   2.657   1.254   8.155  0.5370 -0.6952 -0.7841
 1970SOL    HW217370   2.512   1.257   8.204  0.7475  0.4806  0.2411
 1971SOL     OW17371   4.500   3.250  16.167  0.2310 -0.1865 -0.0401
 1971SOL    HW117372   4.544   3.233  16.250  2.0179 -2.4553 -1.4454
 1971SOL    HW217373   4.581   3.250  16.116  0.6913  2.8646  0.6650
 1972SOL     OW17374   2.718   3.449   3.394 -0.2235 -0.1414 -0.7233
 1972SOL    HW117375   2.765   3.495   3.463 -0.4003 -1.7867  0.4840
 1972SOL    HW217376   2.644   3.508   3.379 -0.7564 -0.0534  2.4427
 1973SOL     OW17377   2.352   0.106  13.170 -0.1929 -0.1827 -0.4555
 1973SOL    HW117378   2.404   0.141  13.098 -0.5191  0.9215 -0.1610
 1973SOL    HW217379   2.351   0.014  13.145 -0.8723 -0.2292 -0.2628
 1974SOL     OW17380   0.622   1.328  16.762 -0.2591 -0.1960  0.0987
 1974SOL    HW117381   0.713   1.304  16.773 -0.5541 -1.1698  0.4332
 1974SOL    HW217382   0.616   1.291  16.674 -1.2313 -2.5336  1.1489
 1975SOL     OW17383   0.840   0.654   6.718 -0.4802  0.3984 -0.7741
 1975SOL    HW117384   0.834   0.711   6.795  0.9906 -1.6814  0.8936
 1975SOL    HW217385   0.868   0.571   6.757 -1.5162 -0.0837 -1.0709
 1976SOL     OW17386   0.508   0.571  13.924  0.1381  0.4499 -0.2679
 1976SOL    HW117387   0.461   0.539  13.847  0.2128  0.4745 -0.3238
 1976SOL    HW217388   0.596   0.559  13.890  1.5773  0.6252  3.3357
 1977SOL     OW17389   2.367   2.941   4.487 -0.1700  0.3189  0.1557
 1977SOL    HW117390   2.364   2.962   4.581 -0.1007  2.2290 -0.2564
 1977SOL    HW217391   2.452   2.979   4.465  0.2346 -0.6195  0.0967
 1978SOL     OW17392   2.204   1.468  11.882 -0.2149 -0.1703 -0.2273
 1978SOL    HW117393   2.171   1.556  11.864 -1.7294 -0.6651  0.0985
 1978SOL    HW217394   2.159   1.443  11.963  0.7732  2.4667  1.1254
 1979SOL     OW17395   2.937   2.708   4.734  0.3385 -0.6781  0.0113
 1979SOL    HW117396   2.926   2.640   4.800  1.6161  0.6761  1.6250
 1979SOL    HW217397   2.854   2.750   4.756  0.3471  0.3302 -1.9282
 1980SOL     OW17398   3.375   3.765   8.275 -0.0675  0.1791  0.5969
 1980SOL    HW117399   3.452   3.731   8.230 -1.6058 -0.1944 -1.7274
 1980SOL    HW217400   3.335   3.688   8.315  3.3123 -0.7500  2.2180
 1981SOL     OW17401   3.678   1.858   8.181  0.2235 -0.1618 -0.6915
 1981SOL    HW117402   3.599   1.864   8.126  0.6905  0.4603 -1.2943
 1981SOL    HW217403   3.637   1.814   8.256  0.3806  0.0380 -0.4885
 1982SOL     OW17404   3.274   3.351  14.450  1.0772  0.6732  0.6946
 1982SOL    HW117405   3.368   3.332  14.451  0.8705 -0.3286  1.8567
 1982SOL    HW217406   3.251   3.326  14.361  0.7802 -0.5322  1.1062
 1983SOL     OW17407   1.264   0.765   5.722  0.3920  0.0117 -0.4016
 1983SOL    HW117408   1.216   0.682   5.712 -2.6455  1.7780 -0.4604
 1983SOL    HW217409   1.194   0.812   5.768 -0.3323 -1.1063 -0.3534
 1984SOL     OW17410   3.591   2.579   5.636 -0.3249  0.6106 -0.2795
 1984SOL    HW117411   3.531   2.644   5.672 -2.7778 -1.0346 -1.4208
 1984SOL    HW217412   3.608   2.532   5.718 -0.7323 -0.9555 -1.0961
 1985SOL     OW17413   4.563   0.534   2.971 -0.0475 -0.0007 -0.0762
 1985SOL    HW117414   4.619   0.611   2.965  0.7940 -0.6914 -1.0076
 1985SOL    HW217415   4.576   0.523   3.065 -2.1718 -1.5677  0.0345
 1986SOL     OW17416   0.441   4.465   8.066 -0.0381 -0.0395 -0.0400
 1986SOL    HW117417   0.451   4.490   8.157  0.9064 -1.6185  0.3028
 1986SOL    HW217418   0.531   4.436   8.049 -0.4426 -1.3742  0.0864
 1987SOL     OW17419   1.333   0.196  15.693 -0.2133 -0.0496  0.2449
 1987SOL    HW117420   1.279   0.274  15.706  2.3921  2.0320 -1.4558
 1987SOL    HW217421   1.284   0.169  15.615 -0.6596 -0.0718  0.5335
 1988SOL     OW17422   1.822   3.277   5.584  0.0418  0.3222 -0.3508
 1988SOL    HW117423   1.916   3.270   5.570 -0.2620 -1.2853 -1.6512
 1988SOL    HW217424   1.803   3.298   5.492  3.6676  1.6231 -0.8268
 1989SOL     OW17425   2.730   2.745   2.879  0.7243  0.0126 -0.4000
 1989SOL    HW117426   2.771   2.807   2.819 -3.1959  2.8773 -0.1367
 1989SOL    HW217427   2.660   2.785   2.930 -0.1023  1.2107 -2.4685
 1990SOL     OW17428   0.178   1.716   3.557  0.1249  0.4093  0.2847
 1990SOL    HW117429   0.246   1.774   3.592  2.2202 -0.1306 -2.8512
 1990SOL    HW217430   0.117   1.737   3.628 -0.2644 -0.0463  0.0842
 1991SOL     OW17431   2.210   1.011  14.076  0.1412 -0.8578  0.0400
 1991SOL    HW117432   2.144   1.072  14.045 -1.7662 -1.4212  3.0393
 1991SOL    HW217433   2.216   1.052  14.162  1.4395  1.4944 -1.1682
 1992SOL     OW17434   0.802   3.285   4.923 -0.3330 -0.2489 -0.8008
 1992SOL    HW117435   0.752   3.268   4.843  0.8001 -0.7920 -1.3828
 1992SOL    HW217436   0.828   3.197   4.948 -1.3023  0.0177  1.1523
 1993SOL     OW17437   0.128   1.694  17.294 -0.7433 -0.8678  1.0923
 1993SOL    HW117438   0.077   1.711  17.373  0.3861 -0.9626  1.8512
 1993SOL    HW217439   0.210   1.739  17.316 -0.2684 -0.3340 -1.7230
 1994SOL     OW17440   1.055   3.340   5.419  0.3809 -0.0022  0.3500
 1994SOL    HW117441   1.049   3.273   5.351  1.4213 -0.5640  0.8132
 1994SOL    HW217442   1.136   3.383   5.393 -0.5563  1.3984 -0.2465
 1995SOL     OW17443   2.869   0.971   8.107 -0.1128 -0.3599 -0.2916
 1995SOL    HW117444   2.846   1.058   8.139  0.2726 -1.2786  2.4718
 1995SOL    HW217445   2.825   0.909   8.165 -2.2405 -0.5207 -2.0308
 1996SOL     OW17446   3.601   3.510   6.315  0.0697  0.3414  0.0710
 1996SOL    HW117447   3.562   3.429   6.348  1.2660  0.4304  1.7169
 1996SOL    HW217448   3.560   3.515   6.229  0.6210 -1.3416 -0.2778
 1997SOL     OW17449   2.254   1.017   4.434  0.7623  0.0716 -0.5169
 1997SOL    HW117450   2.230   0.927   4.452 -0.9495  0.8239  0.9440
 1997SOL    HW217451   2.277   1.053   4.519 -1.1619  0.4987 -0.1651
 1998SOL     OW17452   0.763   3.334   7.823 -0.3922  0.3688  0.6353
 1998SOL    HW117453   0.749   3.289   7.740  1.5186  0.9771 -0.0335
 1998SOL    HW217454   0.764   3.420   7.782  1.5427 -0.0292 -0.1562
 1999SOL     OW17455   0.998   0.489   2.836  0.4327  0.4179 -0.5022
 1999SOL    HW117456   0.904   0.470   2.830  0.4781  0.2911 -0.8073
 1999SOL    HW217457   1.011   0.498   2.742  0.0999  2.3648 -0.3658
 2000SOL     OW17458   1.952   0.695   7.068  0.2125 -0.0138  0.4792
 2000SOL    HW117459   1.883   0.730   7.013  0.8953  1.3563  0.5074
 2000SOL    HW217460   1.960   0.754   7.143  0.3951  0.6904 -0.1075
 2001SOL     OW17461   0.490   2.780   9.961 -0.0747 -0.0674  0.4594
 2001SOL    HW117462   0.495   2.812  10.051 -0.7807 -0.0229  0.4842
 2001SOL    HW217463   0.444   2.698   9.977 -0.1529 -0.2208 -0.5683
 2002SOL     OW17464   4.396   3.592   5.495 -0.2576  0.0129  0.1369
 2002SOL    HW117465   4.311   3.631   5.476 -0.2432 -0.4435 -0.8864
 2002SOL    HW217466   4.401   3.614   5.588 -1.0798 -1.2607  0.4829
 2003SOL     OW17467   0.468   1.462   2.828 -0.1481 -0.1564 -0.2717
 2003SOL    HW117468   0.462   1.409   2.908 -1.1597  0.2117 -0.0921
 2003SOL    HW217469   0.520   1.404   2.773  1.4630  0.1403  0.9601
 2004SOL     OW17470   2.451   1.156   2.784 -0.4495 -0.2521 -0.0570
 2004SOL    HW117471   2.364   1.167   2.747  0.5742  0.3063 -2.2692
 2004SOL    HW217472   2.493   1.107   2.714  0.2672 -1.3173  1.1111
 2005SOL     OW17473   4.409   0.153   6.308  0.2937  0.2066 -0.2771
 2005SOL    HW117474   4.450   0.161   6.222  0.4806  0.9122 -0.1183
 2005SOL    HW217475   4.485   0.166   6.365  0.8158 -1.7623 -0.5068
 2006SOL     OW17476   3.361   4.209  13.768 -0.4479  0.6426 -0.4715
 2006SOL    HW117477   3.270   4.178  13.769  0.5915 -2.4852  1.3729
 2006SOL    HW217478   3.413   4.129  13.781  1.7314  2.3327  1.1300
 2007SOL     OW17479   3.447   2.403  14.005 -0.1213 -0.4676 -0.5184
 2007SOL    HW117480   3.507   2.396  13.931  2.2787  2.0852  1.1531
 2007SOL    HW217481   3.440   2.310  14.025  2.5876 -0.5016  0.3422
 2008SOL     OW17482   1.951   0.207   8.955  0.1922 -0.7982 -0.3262
 2008SOL    HW117483   2.028   0.263   8.955 -0.2252 -0.2164  0.3493
 2008SOL    HW217484   1.893   0.243   9.023  1.4743 -1.9590  1.3540
 2009SOL     OW17485   2.783   3.422   3.871 -0.4405 -0.1092  0.1701
 2009SOL    HW117486   2.691   3.403   3.853  0.1684 -2.3501 -0.5794
 2009SOL    HW217487   2.787   3.379   3.957  0.5801 -0.9739 -0.3101
 2010SOL     OW17488   3.164   4.639   0.931  0.0731 -0.0875 -0.3950
 2010SOL    HW117489   3.256   4.616   0.943  0.5773  0.0419 -4.1394
 2010SOL    HW217490   3.155   4.624   0.837 -0.7096 -0.3472 -0.2814
 2011SOL     OW17491   3.774   0.095   3.619 -0.1982  0.1249 -0.0839
 2011SOL    HW117492   3.761   0.187   3.595 -0.8708  0.0067 -0.1700
 2011SOL    HW217493   3.846   0.103   3.681  0.6575 -0.6499 -0.9814
 2012SOL     OW17494   3.809   2.356   1.204  0.5228 -0.2687 -0.5500
 2012SOL    HW117495   3.894   2.383   1.170  0.2073 -0.0449 -1.1533
 2012SOL    HW217496   3.789   2.429   1.263 -1.7703 -1.7825  0.5301
 2013SOL     OW17497   3.122   4.188   4.210 -0.6361  0.0444 -0.1089
 2013SOL    HW117498   3.060   4.242   4.160 -0.3294 -0.6623 -1.2702
 2013SOL    HW217499   3.191   4.181   4.144 -0.8437  2.7331 -0.5976
 2014SOL     OW17500   1.343   2.875   4.420 -0.5877 -0.4678 -0.2657
 2014SOL    HW117501   1.415   2.916   4.373 -0.9964  1.1155  0.4608
 2014SOL    HW217502   1.327   2.940   4.489  2.0634 -1.8863  1.6859
 2015SOL     OW17503   1.252   4.073   3.910  0.8741  0.5389  0.1041
 2015SOL    HW117504   1.292   3.994   3.872 -1.8262 -0.8943  0.2372
 2015SOL    HW217505   1.316   4.140   3.889  1.5115 -0.4164 -0.9618
 2016SOL     OW17506   3.747   1.373   4.544 -0.5664  0.0395 -0.3314
 2016SOL    HW117507   3.699   1.453   4.524 -1.2230  0.1766  1.7430
 2016SOL    HW217508   3.784   1.348   4.460  1.6634  1.7778  0.1400
 2017SOL     OW17509   3.982   3.162   5.798 -0.2912  0.0478 -0.2598
 2017SOL    HW117510   4.069   3.121   5.790 -0.0904  0.3703  0.2932
 2017SOL    HW217511   3.935   3.079   5.810  2.5858 -1.6260 -0.5238
 2018SOL     OW17512   0.760   4.296   7.147 -0.7379 -1.2157 -0.4589
 2018SOL    HW117513   0.749   4.228   7.213 -3.9166 -0.6725 -0.4422
 2018SOL    HW217514   0.835   4.262   7.097 -1.3491 -3.4218  0.1559
 2019SOL     OW17515   0.163   1.801   4.917  0.1772 -0.2135  0.0936
 2019SOL    HW117516   0.189   1.714   4.949  1.6218  0.2662  0.2035
 2019SOL    HW217517   0.228   1.816   4.848 -0.5239  2.3283  0.0001
 2020SOL     OW17518   1.006   0.136   4.497 -0.1111  0.0400  0.6422
 2020SOL    HW117519   1.028   0.107   4.409 -2.3257  2.1855 -0.6107
 2020SOL    HW217520   1.074   0.196   4.527 -0.3324  1.9291 -2.7389
 2021SOL     OW17521   3.194   2.837  10.481 -0.3096 -0.1877 -0.2473
 2021SOL    HW117522   3.253   2.795  10.544 -0.3172 -2.4323 -1.7035
 2021SOL    HW217523   3.115   2.829  10.534  1.2103  2.5880  2.4302
 2022SOL     OW17524   1.301   2.014   5.983 -0.1852 -0.0534  0.1540
 2022SOL    HW117525   1.214   2.030   6.019  0.1232 -0.3953  1.0572
 2022SOL    HW217526   1.292   1.937   5.927  1.5573  0.2307 -0.5313
 2023SOL     OW17527   1.875   3.757  11.271 -0.4885 -0.1289  0.0867
 2023SOL    HW117528   1.962   3.794  11.255 -0.7244 -0.6468 -2.4529
 2023SOL    HW217529   1.832   3.826  11.221  0.2965  3.2232  4.0966
 2024SOL     OW17530   4.610   3.390   6.860  0.7684  0.2946  0.6483
 2024SOL    HW117531   4.552   3.349   6.797  0.4167  1.4134  0.2531
 2024SOL    HW217532   4.544   3.430   6.916 -0.0992  1.7408 -1.4578
 2025SOL     OW17533   3.755   3.962   6.917 -0.4869  0.0526  0.4865
 2025SOL    HW117534   3.803   4.036   6.955  0.9481 -0.0441 -1.1223
 2025SOL    HW217535   3.819   3.892   6.933 -0.4435 -0.6295 -2.6184
 2026SOL     OW17536   0.100   1.484  15.117 -0.0769  0.0910  0.1378
 2026SOL    HW117537   0.134   1.520  15.035 -0.5342 -0.0323 -0.1063
 2026SOL    HW217538   0.177   1.478  15.173  0.1766  0.4590 -0.1644
 2027SOL     OW17539   3.569   3.192   3.622  0.1890 -0.0070 -0.6744
 2027SOL    HW117540   3.505   3.134   3.664  2.0747 -1.6913 -0.1340
 2027SOL    HW217541   3.510   3.239   3.563 -0.2153 -0.3421 -0.5413
 2028SOL     OW17542   0.225   2.739  16.957 -0.2316 -0.1753 -0.0879
 2028SOL    HW117543   0.320   2.743  16.964 -0.3563 -2.1272  2.7948
 2028SOL    HW217544   0.198   2.729  16.866  2.6302 -2.0057 -0.7120
 2029SOL     OW17545   4.691   2.831  12.206  0.4745  0.0165 -0.4062
 2029SOL    HW117546   4.723   2.773  12.275 -1.0008  0.2361  0.4560
 2029SOL    HW217547   0.031   2.902  12.201 -1.1477  1.5463  0.3866
 2030SOL     OW17548   3.182   4.186  12.364 -0.3723 -0.5432  1.1489
 2030SOL    HW117549   3.190   4.262  12.306  1.5068 -1.0803  0.7027
 2030SOL    HW217550   3.087   4.173  12.365 -0.1733 -1.9340  1.1622
 2031SOL     OW17551   3.451   4.587   6.699 -0.1642 -0.1242  0.2638
 2031SOL    HW117552   3.476   4.604   6.608  2.2856 -0.4005  0.8845
 2031SOL    HW217553   3.535   4.575   6.743  1.0284  0.2844 -1.8594
 2032SOL     OW17554   1.484   2.232  15.171 -0.6128 -0.0425  0.5118
 2032SOL    HW117555   1.466   2.288  15.095 -0.7350  1.2462  1.4966
 2032SOL    HW217556   1.407   2.251  15.225 -1.0693 -0.4461 -0.0018
 2033SOL     OW17557   0.567   1.005   3.703 -0.2108  0.0471 -0.0913
 2033SOL    HW117558   0.597   1.017   3.613 -1.2472  0.3382 -0.3995
 2033SOL    HW217559   0.560   1.097   3.730  0.8784 -0.0240  0.4640
 2034SOL     OW17560   4.052   4.205   3.160  0.0526  0.4357  0.6563
 2034SOL    HW117561   3.999   4.139   3.206  0.9930  0.7100  2.1544
 2034SOL    HW217562   4.022   4.276   3.218 -0.9226  0.2360  0.3994
 2035SOL     OW17563   1.046   0.775   2.412  0.2886 -0.1989 -0.1820
 2035SOL    HW117564   1.060   0.836   2.339  0.1072 -0.2585 -0.2669
 2035SOL    HW217565   0.999   0.701   2.374  0.0092  0.4860 -1.1663
 2036SOL     OW17566   0.523   4.502   2.347 -0.2298  0.1547 -0.2613
 2036SOL    HW117567   0.601   4.450   2.333 -0.2000 -0.1089  0.8247
 2036SOL    HW217568   0.518   4.545   2.262 -0.8758  1.4845  0.4304
 2037SOL     OW17569   2.731   2.764   8.755  0.2360  0.3730  0.1345
 2037SOL    HW117570   2.815   2.748   8.797  1.5402  1.6188 -1.9751
 2037SOL    HW217571   2.766   2.768   8.666 -1.4700 -1.0900 -0.5948
 2038SOL     OW17572   0.911   0.394   8.242  0.5122  0.1576 -0.0060
 2038SOL    HW117573   0.872   0.411   8.328  0.3084  4.2746 -0.9252
 2038SOL    HW217574   0.860   0.322   8.206 -0.6916  0.9847  0.0308
 2039SOL     OW17575   2.001   3.406   1.124  0.3170  0.2879 -0.4186
 2039SOL    HW117576   1.993   3.322   1.169 -0.3196  0.6627  0.1840
 2039SOL    HW217577   2.096   3.416   1.130  0.7180 -3.4996 -0.5448
 2040SOL     OW17578   2.795   3.708  14.682 -0.3767 -0.3074  0.1031
 2040SOL    HW117579   2.888   3.724  14.666 -0.4453 -1.9261 -1.8930
 2040SOL    HW217580   2.750   3.787  14.651 -0.2267  0.7234  2.5994
 2041SOL     OW17581   1.643   1.681   8.519 -0.0848  0.3009 -0.5503
 2041SOL    HW117582   1.604   1.702   8.604  1.2188  0.0415  0.1216
 2041SOL    HW217583   1.735   1.673   8.545 -0.7829 -0.6091  1.6646
 2042SOL     OW17584   2.962   0.978   3.217 -0.4403 -0.1990  0.2008
 2042SOL    HW117585   2.882   0.928   3.202 -0.8275  0.6198 -0.5141
 2042SOL    HW217586   2.962   1.031   3.137  0.7347  0.8637  0.8804
 2043SOL     OW17587   3.194   1.762   9.435 -0.2500  0.1218  0.0106
 2043SOL    HW117588   3.172   1.670   9.421  1.5738 -0.2710 -0.3169
 2043SOL    HW217589   3.285   1.756   9.404 -0.2671 -0.4175  0.0691
 2044SOL     OW17590   2.331   4.561  15.291 -0.0083 -0.4545  0.5344
 2044SOL    HW117591   2.416   4.520  15.305  1.5531  2.1894 -1.3007
 2044SOL    HW217592   2.352   4.649  15.261 -1.0178  0.1054  1.4700
 2045SOL     OW17593   4.099   3.630   4.060  0.3154  0.4515  0.1822
 2045SOL    HW117594   4.103   3.541   4.094  0.2979  0.0150 -0.9324
 2045SOL    HW217595   4.006   3.644   4.072  0.5619  2.1591  0.1929
 2046SOL     OW17596   1.526   2.116   5.865  0.5213 -0.6424  0.3651
 2046SOL    HW117597   1.484   2.176   5.803 -0.5780  0.7471  2.4515
 2046SOL    HW217598   1.453   2.106   5.926  0.2426 -1.6778 -0.1414
 2047SOL     OW17599   3.225   4.252  17.671 -0.6050 -0.4204 -0.0770
 2047SOL    HW117600   3.200   4.268   0.063  1.0116 -0.5875  0.3863
 2047SOL    HW217601   3.272   4.169  17.676  1.1175  0.4815 -1.2695
 2048SOL     OW17602   3.246   1.308   2.492  0.1085 -0.7520 -0.4315
 2048SOL    HW117603   3.155   1.289   2.469 -0.0800 -1.2139  0.6620
 2048SOL    HW217604   3.286   1.225   2.467  2.0957 -0.3401  1.3075
 2049SOL     OW17605   0.622   1.687   4.466 -0.1769  0.5267 -0.1805
 2049SOL    HW117606   0.598   1.612   4.521  0.1775 -1.1366 -2.3341
 2049SOL    HW217607   0.670   1.638   4.400 -0.9675 -0.5240  0.0267
 2050SOL     OW17608   3.243   1.362   7.837  0.0252 -0.3478 -0.0337
 2050SOL    HW117609   3.182   1.293   7.861  1.6262 -2.2920 -1.5977
 2050SOL    HW217610   3.218   1.359   7.744  1.5625  0.7438 -0.4771
 2051SOL     OW17611   3.848   2.961   3.228 -0.1005  0.0763 -0.0401
 2051SOL    HW117612   3.938   2.950   3.198  0.1483  0.6592  0.5020
 2051SOL    HW217613   3.821   3.049   3.202  2.1677  0.8592  0.2995
 2052SOL     OW17614   0.724   0.461   2.680 -0.0796  0.0052 -0.0270
 2052SOL    HW117615   0.799   0.476   2.623 -1.9095  0.1111 -2.3947
 2052SOL    HW217616   0.689   0.376   2.653 -1.1019  0.1588  0.7653
 2053SOL     OW17617   2.493   1.099   6.333  0.5811  0.2075  0.0701
 2053SOL    HW117618   2.416   1.043   6.319  1.2460 -0.3606 -1.3274
 2053SOL    HW217619   2.470   1.166   6.269  1.1763 -1.4263 -1.8628
 2054SOL     OW17620   2.702   0.890  12.990  0.1432  0.1262  0.3218
 2054SOL    HW117621   2.705   0.817  12.928  1.8759  1.0984 -0.7448
 2054SOL    HW217622   2.689   0.965  12.931  2.4519  1.0588  0.9795
 2055SOL     OW17623   3.823   2.070  17.384  0.3007 -0.3845 -0.0362
 2055SOL    HW117624   3.735   2.051  17.417  0.4021  0.9412  0.9937
 2055SOL    HW217625   3.875   2.084  17.463 -0.7178 -2.1784  0.9429
 2056SOL     OW17626   4.221   2.319  15.671  0.1600 -0.0543  0.1260
 2056SOL    HW117627   4.262   2.316  15.585 -1.8818  1.0279 -0.8671
 2056SOL    HW217628   4.262   2.398  15.709 -0.6084 -1.0841  3.1012
 2057SOL     OW17629   4.440   2.135   7.836  0.6926  0.0234 -0.0432
 2057SOL    HW117630   4.361   2.080   7.837  0.5728  0.1831 -0.8990
 2057SOL    HW217631   4.452   2.158   7.928 -3.1726 -2.1078  1.0005
 2058SOL     OW17632   3.173   0.756   5.349 -0.1184  0.0740 -0.2690
 2058SOL    HW117633   3.144   0.847   5.339 -1.8281 -0.5305 -0.6802
 2058SOL    HW217634   3.159   0.728   5.258 -2.4632  0.8039 -0.1176
 2059SOL     OW17635   4.155   3.997   4.395 -0.1082  0.1034  0.0804
 2059SOL    HW117636   4.123   4.054   4.325 -2.5886 -1.6064 -0.2013
 2059SOL    HW217637   4.204   3.937   4.339  1.4890  2.0002 -0.5319
 2060SOL     OW17638   2.389   0.225  12.894  0.4298  0.0596 -0.1378
 2060SOL    HW117639   2.294   0.236  12.889  0.6587  1.3076 -1.6038
 2060SOL    HW217640   2.414   0.317  12.895  3.3274 -0.7098 -1.5838
 2061SOL     OW17641   2.569   4.410   5.666 -0.0503 -0.2828  0.6558
 2061SOL    HW117642   2.502   4.471   5.695  1.2006  1.8658 -0.9865
 2061SOL    HW217643   2.603   4.450   5.586 -0.1766 -1.9526 -0.2357
 2062SOL     OW17644   4.492   2.336   5.982  0.2016  0.1628  0.1374
 2062SOL    HW117645   4.503   2.325   6.077  0.1225  1.7920  0.3376
 2062SOL    HW217646   4.581   2.313   5.956 -0.4794 -1.2282 -0.9848
 2063SOL     OW17647   3.207   2.979  10.061 -0.2809 -0.1812  0.7060
 2063SOL    HW117648   3.199   2.907   9.999  0.6232 -0.5143  0.9705
 2063SOL    HW217649   3.302   2.986  10.068 -0.2577 -0.4860  0.7074
 2064SOL     OW17650   4.638   3.370   4.549  0.3883 -0.4532 -0.6280
 2064SOL    HW117651   4.550   3.373   4.511  0.6515 -1.2623 -1.2914
 2064SOL    HW217652   4.609   3.351   4.638  0.7727  2.7846  0.2010
 2065SOL     OW17653   0.526   1.827   6.697  0.4076 -0.0324 -0.2382
 2065SOL    HW117654   0.496   1.906   6.742 -2.2759 -0.9779 -0.3692
 2065SOL    HW217655   0.580   1.794   6.768  0.0904  0.0366  0.0374
 2066SOL     OW17656   0.210   1.434   1.548 -0.8911 -0.2987  0.1380
 2066SOL    HW117657   0.205   1.476   1.462  2.3043  0.1737  0.1681
 2066SOL    HW217658   0.119   1.450   1.574 -1.2675 -2.2756  0.0715
 2067SOL     OW17659   3.269   1.256   5.397 -0.1610 -0.7184 -0.4753
 2067SOL    HW117660   3.195   1.301   5.437  1.3361  0.2970  1.1587
 2067SOL    HW217661   3.302   1.331   5.348 -3.4705  1.3072  0.4019
 2068SOL     OW17662   4.388   3.598   6.688  0.4126 -0.8419 -0.4804
 2068SOL    HW117663   4.472   3.643   6.677  0.2623 -0.5709 -0.5303
 2068SOL    HW217664   4.397   3.547   6.768 -2.0228  1.0142  0.9786
 2069SOL     OW17665   3.494   0.163  11.844  0.3028 -0.5482 -0.5309
 2069SOL    HW117666   3.526   0.091  11.791 -0.1933 -2.6218  2.0063
 2069SOL    HW217667   3.517   0.238  11.789  1.9469 -0.0573  0.8328
 2070SOL     OW17668   2.354   0.457   5.155 -0.1410  0.2064 -0.1545
 2070SOL    HW117669   2.355   0.471   5.250  0.7807 -0.2649 -0.0890
 2070SOL    HW217670   2.277   0.511   5.137 -1.0727 -1.6622 -1.8328
 2071SOL     OW17671   1.798   3.775  14.788  0.6200 -0.3273 -0.2537
 2071SOL    HW117672   1.802   3.763  14.883  1.3630  0.7442 -0.1583
 2071SOL    HW217673   1.886   3.751  14.761  0.9807  0.4360  0.2534
 2072SOL     OW17674   3.740   4.628  15.527 -0.2678  0.6488  0.4042
 2072SOL    HW117675   3.755   4.617  15.621 -0.8052  0.1924  0.4354
 2072SOL    HW217676   3.691   4.548  15.507  1.0829  0.1714 -1.0347
 2073SOL     OW17677   1.265   2.878   5.943 -0.3250 -0.1217  0.0248
 2073SOL    HW117678   1.221   2.958   5.915  1.0929  1.3562  2.0350
 2073SOL    HW217679   1.279   2.886   6.037  1.0749 -1.3851 -0.0649
 2074SOL     OW17680   0.261   2.340   1.361 -0.3565 -0.0791 -0.1330
 2074SOL    HW117681   0.319   2.414   1.383 -2.0778  1.3728 -0.4690
 2074SOL    HW217682   0.226   2.368   1.277 -1.1353 -0.9365 -0.0818
 2075SOL     OW17683   3.019   3.810   5.168 -0.0910  0.5786 -0.9757
 2075SOL    HW117684   2.979   3.880   5.219 -0.5348 -0.9971  0.8389
 2075SOL    HW217685   3.112   3.831   5.170  0.4976 -1.9634 -1.2696
 2076SOL     OW17686   2.418   1.903  16.178 -0.2441 -0.0206 -0.1789
 2076SOL    HW117687   2.353   1.877  16.244  1.0745  0.4372  1.2918
 2076SOL    HW217688   2.413   1.998  16.188 -0.7889  0.0911 -1.5395
 2077SOL     OW17689   4.015   0.523   1.599  0.3732 -0.6004  0.4669
 2077SOL    HW117690   4.069   0.476   1.535  2.1502  1.6499  0.3005
 2077SOL    HW217691   3.954   0.454   1.625  0.7921 -0.5261  1.6248
 2078SOL     OW17692   3.984   0.771   8.842  0.4277  0.1500 -0.4324
 2078SOL    HW117693   4.070   0.774   8.799 -0.0896  1.8738 -1.3823
 2078SOL    HW217694   3.988   0.854   8.891 -0.9281  0.2134 -0.4322
 2079SOL     OW17695   4.642   1.949   6.132  0.0330 -0.4420 -0.1258
 2079SOL    HW117696   4.578   1.957   6.060  0.3585 -2.3317 -0.6397
 2079SOL    HW217697   4.722   1.973   6.085 -0.7657  1.2475 -0.6373
 2080SOL     OW17698   1.213   4.482  11.616 -0.3298 -0.1564  0.0754
 2080SOL    HW117699   1.129   4.441  11.595 -0.2001 -1.6792  2.5200
 2080SOL    HW217700   1.260   4.399  11.628  1.3655  0.5489 -1.6162
 2081SOL     OW17701   4.493   0.785   4.223 -0.5677  0.1012 -0.1056
 2081SOL    HW117702   4.544   0.706   4.209 -0.1674  0.5462 -1.2071
 2081SOL    HW217703   4.555   0.850   4.191 -1.9712  1.9530  0.9215
 2082SOL     OW17704   1.019   1.129   1.315  0.0879  0.1378  0.5376
 2082SOL    HW117705   1.063   1.077   1.382 -0.9414  1.2713  2.0743
 2082SOL    HW217706   0.973   1.199   1.361 -1.2245  1.0341 -2.1606
 2083SOL     OW17707   1.100   3.964   0.466 -0.1212 -0.1897 -0.7966
 2083SOL    HW117708   1.069   3.878   0.440  0.9115 -1.0898  0.9500
 2083SOL    HW217709   1.192   3.940   0.478 -0.3166 -1.6026 -2.3017
 2084SOL     OW17710   3.979   2.002  11.325 -0.4348  0.0956  0.8044
 2084SOL    HW117711   3.964   2.013  11.419 -0.5979 -0.8662  0.8907
 2084SOL    HW217712   3.957   2.088  11.291 -1.4337 -1.0531 -1.4251
 2085SOL     OW17713   3.262   3.509   4.368  0.3344  0.6530 -0.3810
 2085SOL    HW117714   3.225   3.426   4.337  0.5274  0.2294  0.5467
 2085SOL    HW217715   3.215   3.582   4.327  0.8249  1.6014  0.7543
 2086SOL     OW17716   3.791   2.021   8.637 -0.1938 -0.2175  0.0733
 2086SOL    HW117717   3.849   1.945   8.636  0.2823  0.1877 -2.7982
 2086SOL    HW217718   3.825   2.084   8.701  0.9584  0.3235 -1.0663
 2087SOL     OW17719   0.817   1.294   5.934  0.0692  0.4422  0.8509
 2087SOL    HW117720   0.827   1.212   5.982  2.5148 -1.1108 -2.2598
 2087SOL    HW217721   0.810   1.353   6.009  1.6627 -0.1319  1.4438
 2088SOL     OW17722   1.385   4.264   4.481  0.9318 -0.3381 -0.0693
 2088SOL    HW117723   1.473   4.300   4.485  1.7116 -2.0757 -1.6277
 2088SOL    HW217724   1.381   4.220   4.396  1.5470 -1.4784  0.4833
 2089SOL     OW17725   1.385   0.170  11.264 -0.0580 -0.1466  0.7148
 2089SOL    HW117726   1.433   0.138  11.340  1.5629 -0.0943 -0.2719
 2089SOL    HW217727   1.295   0.153  11.289 -0.5018 -0.1367 -0.8497
 2090SOL     OW17728   1.490   1.918   3.868 -0.3937 -0.2703 -0.0024
 2090SOL    HW117729   1.396   1.905   3.881 -0.5688  0.3337 -0.6046
 2090SOL    HW217730   1.534   1.834   3.874  1.0388  0.6293  2.1207
 2091SOL     OW17731   3.324   4.442   3.766  0.2001  0.3263 -0.8098
 2091SOL    HW117732   3.323   4.359   3.718  3.7545  0.8798 -1.8425
 2091SOL    HW217733   3.418   4.450   3.784  0.0536 -1.1810  0.6634
 2092SOL     OW17734   3.055   0.997   9.981 -0.2692  0.0039 -0.3880
 2092SOL    HW117735   3.003   1.077   9.969  0.8111  0.9408  1.1226
 2092SOL    HW217736   3.119   1.028  10.046  0.3979 -0.1257 -0.9801
 2093SOL     OW17737   4.586   3.203  16.422  0.3057  0.0864 -0.5381
 2093SOL    HW117738   4.539   3.230  16.501  1.0652 -1.8761  0.5828
 2093SOL    HW217739   4.562   3.111  16.422 -0.3021  0.2452 -0.3822
 2094SOL     OW17740   0.889   2.204   9.341 -0.2564  0.1557 -0.6595
 2094SOL    HW117741   0.845   2.185   9.258 -0.6772 -1.7363  0.0008
 2094SOL    HW217742   0.835   2.280   9.365 -0.1077  0.1487 -0.2963
 2095SOL     OW17743   2.757   2.882   7.143  0.2817 -0.5205  0.1179
 2095SOL    HW117744   2.797   2.892   7.229  2.6072 -0.3737 -0.9708
 2095SOL    HW217745   2.729   2.971   7.124  1.4362 -0.5961 -2.0014
 2096SOL     OW17746   2.840   3.604   2.195  0.0301 -0.3496  0.0351
 2096SOL    HW117747   2.844   3.556   2.112 -1.9627 -1.2159  0.4442
 2096SOL    HW217748   2.898   3.678   2.178  0.4234 -0.7494 -0.3493
 2097SOL     OW17749   1.494   1.886  10.751 -0.9520 -0.0604 -0.3595
 2097SOL    HW117750   1.552   1.839  10.811 -0.5924 -0.8326 -1.3149
 2097SOL    HW217751   1.543   1.880  10.669 -1.1332  2.2740 -0.6422
 2098SOL     OW17752   2.064   0.639  16.628  0.6397  0.4058 -0.9945
 2098SOL    HW117753   2.044   0.577  16.699 -2.5861  0.7285 -1.6221
 2098SOL    HW217754   2.036   0.592  16.550  2.0653 -0.0273 -1.2424
 2099SOL     OW17755   3.453   0.993   4.567  0.2334 -0.2969  0.4209
 2099SOL    HW117756   3.441   0.988   4.472 -3.7394 -2.1509  1.0372
 2099SOL    HW217757   3.370   1.030   4.599  1.0344  1.6034  0.3244
 2100SOL     OW17758   3.124   3.380  17.594  0.5084 -0.0854 -0.3820
 2100SOL    HW117759   3.038   3.348  17.568  1.1936 -1.8719 -0.4672
 2100SOL    HW217760   3.141   3.327  17.672 -2.4216  0.2451  0.4695
 2101SOL     OW17761   4.582   3.273  11.248  0.8302  0.4810  0.5317
 2101SOL    HW117762   4.491   3.272  11.277  0.4949  0.0120 -0.5404
 2101SOL    HW217763   4.590   3.357  11.203 -1.3530  0.7417  0.6203
 2102SOL     OW17764   3.923   2.081   2.556 -0.3550 -0.1401  0.2248
 2102SOL    HW117765   3.891   2.063   2.468  1.3364 -0.5840 -0.3142
 2102SOL    HW217766   4.019   2.086   2.552 -0.3994  1.2876  0.7702
 2103SOL     OW17767   2.634   3.560   4.322 -0.3365  0.0460  0.2338
 2103SOL    HW117768   2.713   3.572   4.271 -0.1474 -0.4426  0.4130
 2103SOL    HW217769   2.579   3.514   4.258 -0.1605  1.6320 -1.0627
 2104SOL     OW17770   1.359   1.486   3.593  0.0676  0.1961 -0.2716
 2104SOL    HW117771   1.444   1.507   3.555 -1.1435  2.5734 -1.6644
 2104SOL    HW217772   1.345   1.567   3.642 -0.1724 -0.2953  0.4682
 2105SOL     OW17773   1.973   3.335   8.159  0.0078 -0.6032 -0.4499
 2105SOL    HW117774   2.032   3.339   8.084  0.3526  1.6440 -0.0433
 2105SOL    HW217775   1.914   3.265   8.132 -0.0685 -0.1291 -1.5111
 2106SOL     OW17776   3.849   2.609  14.469 -0.0038 -0.2302  0.6130
 2106SOL    HW117777   3.766   2.652  14.449  0.4446  0.4061  0.1227
 2106SOL    HW217778   3.871   2.657  14.549 -1.0585  2.3863 -0.6672
 2107SOL     OW17779   3.705   3.540   7.457  0.1198 -0.1243 -0.2100
 2107SOL    HW117780   3.773   3.513   7.519  1.6375 -1.9933 -2.6751
 2107SOL    HW217781   3.719   3.635   7.447  0.8118 -0.1967  0.0430
 2108SOL     OW17782   3.140   2.570  12.803 -0.2429  0.3194 -0.0992
 2108SOL    HW117783   3.200   2.631  12.759 -0.2072  0.1280 -0.3199
 2108SOL    HW217784   3.185   2.548  12.884 -0.8140 -0.3067  0.0483
 2109SOL     OW17785   1.488   1.955   3.273 -0.3013 -0.0771  0.1421
 2109SOL    HW117786   1.556   1.959   3.206 -0.3190 -0.1452  0.1208
 2109SOL    HW217787   1.436   2.035   3.259 -0.7704 -0.6997 -1.6931
 2110SOL     OW17788   1.844   0.004   4.910  0.1905 -0.0923  0.8245
 2110SOL    HW117789   1.815   0.036   4.995 -2.8519  4.1806 -1.8231
 2110SOL    HW217790   1.762   0.017   4.863  2.2780 -1.2300 -3.1258
 2111SOL     OW17791   3.942   1.549   7.800  0.1782  0.1990 -0.2542
 2111SOL    HW117792   3.853   1.539   7.767 -1.0387  1.4521  2.5803
 2111SOL    HW217793   3.925   1.583   7.888 -0.1550 -0.5828 -0.0190
 2112SOL     OW17794   1.885   3.628   4.913  0.8734  0.2911 -0.0605
 2112SOL    HW117795   1.972   3.627   4.874  0.3970 -0.2731 -1.1173
 2112SOL    HW217796   1.844   3.646   4.828  0.3945  3.1802  0.7847
 2113SOL     OW17797   1.747   3.356   9.365  0.0840  0.6296 -0.4594
 2113SOL    HW117798   1.727   3.283   9.305 -0.4912 -0.0438  0.5541
 2113SOL    HW217799   1.681   3.421   9.341 -0.3656  0.1720 -0.4612
 2114SOL     OW17800   0.727   0.863   2.153 -0.0929 -0.1873 -0.1856
 2114SOL    HW117801   0.688   0.776   2.152  2.3271 -1.2428 -2.4877
 2114SOL    HW217802   0.806   0.846   2.103 -0.8062 -1.6265 -0.8213
 2115SOL     OW17803   1.750   0.922   2.870  0.5210  0.1095 -0.5623
 2115SOL    HW117804   1.662   0.927   2.907  0.9800  2.2071  0.1975
 2115SOL    HW217805   1.729   0.869   2.793  2.7048 -2.2059  0.4137
 2116SOL     OW17806   0.793   1.722   6.138 -0.0868  0.2119 -0.0335
 2116SOL    HW117807   0.762   1.794   6.192 -1.2062 -0.2978  0.0111
 2116SOL    HW217808   0.759   1.746   6.052  2.1504  1.1994 -0.6377
 2117SOL     OW17809   0.682   0.010  17.232  0.0836  0.6657  0.0843
 2117SOL    HW117810   0.776   4.715  17.230 -0.1554 -0.3933 -1.1276
 2117SOL    HW217811   0.690   0.065  17.154  0.1977 -0.4960 -0.7334
 2118SOL     OW17812   3.432   3.910   3.575 -0.3839  0.0360 -0.3014
 2118SOL    HW117813   3.420   3.933   3.483  2.0976  0.3610 -0.5372
 2118SOL    HW217814   3.517   3.948   3.594 -1.3502  1.6083  0.8737
 2119SOL     OW17815   0.389   2.464   7.737 -0.3715 -0.2048 -0.4950
 2119SOL    HW117816   0.335   2.540   7.718  1.8605  1.2411 -1.1068
 2119SOL    HW217817   0.374   2.466   7.831  1.1983 -0.1381 -0.2421
 2120SOL     OW17818   3.883   3.368   6.688 -0.5847  0.7366 -0.2639
 2120SOL    HW117819   3.792   3.373   6.718 -1.1511  1.9186 -2.1682
 2120SOL    HW217820   3.868   3.402   6.600  0.3125  0.0551 -0.6698
 2121SOL     OW17821   1.931   1.477   7.215  0.6532 -0.5558 -0.0533
 2121SOL    HW117822   1.864   1.493   7.149 -0.0170 -0.8919  0.5413
 2121SOL    HW217823   1.944   1.382   7.205  0.1289 -0.2234 -3.8102
 2122SOL     OW17824   2.233   2.248   4.684 -0.3293 -0.9350 -0.6258
 2122SOL    HW117825   2.233   2.290   4.770  0.4469 -0.0131 -1.0739
 2122SOL    HW217826   2.286   2.314   4.639  0.1528 -1.1922 -0.4266
 2123SOL     OW17827   2.459   1.716   9.564 -0.0798 -0.3993  0.3454
 2123SOL    HW117828   2.371   1.691   9.589 -0.2153 -0.9154 -0.6353
 2123SOL    HW217829   2.465   1.799   9.611 -0.4583 -0.0678 -0.1882
 2124SOL     OW17830   1.030   0.425   8.805  0.1438 -0.2300 -0.1539
 2124SOL    HW117831   1.091   0.495   8.829  1.8607 -1.7027 -0.2451
 2124SOL    HW217832   1.088   0.356   8.773 -0.2924 -0.2194 -0.9715
 2125SOL     OW17833   2.104   2.581   5.642 -0.0074 -0.1001  0.0771
 2125SOL    HW117834   2.018   2.591   5.681  0.1739  0.7127  0.2740
 2125SOL    HW217835   2.114   2.486   5.652  1.6487  0.0136 -0.4426
 2126SOL     OW17836   1.754   0.793  16.378  0.0158 -0.2211 -0.1937
 2126SOL    HW117837   1.679   0.825  16.427 -0.1954 -0.2690 -0.4864
 2126SOL    HW217838   1.829   0.826  16.428  0.6412 -2.2498  0.2355
 2127SOL     OW17839   3.303   1.573   4.731 -0.6030  0.6268  0.1423
 2127SOL    HW117840   3.297   1.667   4.748 -0.6472  0.9563 -1.8050
 2127SOL    HW217841   3.209   1.556   4.741 -0.2950 -1.3773 -0.4711
 2128SOL     OW17842   2.809   1.807   7.785  0.2835 -0.2136 -0.4129
 2128SOL    HW117843   2.846   1.718   7.780  1.0811  0.1337 -0.6348
 2128SOL    HW217844   2.738   1.785   7.725  0.1454  1.0129 -0.6937
 2129SOL     OW17845   4.278   2.327   3.359  0.3025  0.2828  0.7283
 2129SOL    HW117846   4.190   2.363   3.369  0.7383  1.4704  0.2858
 2129SOL    HW217847   4.293   2.346   3.267 -0.8252 -1.3693  0.2057
 2130SOL     OW17848   3.244   4.485   7.188  0.3164 -0.1203 -0.3880
 2130SOL    HW117849   3.221   4.557   7.128  0.3860 -0.9534 -1.4198
 2130SOL    HW217850   3.212   4.404   7.148  1.1482 -0.4823 -0.3274
 2131SOL     OW17851   1.290   3.114   6.342  0.4636 -0.2938  0.0432
 2131SOL    HW117852   1.274   3.037   6.398 -1.1512  0.0513  0.0494
 2131SOL    HW217853   1.371   3.152   6.377  0.3839 -1.0816  1.0770
 2132SOL     OW17854   0.615   0.210   3.271 -0.3197  0.2494 -0.2710
 2132SOL    HW117855   0.652   0.291   3.307 -1.3616  0.3104  0.6356
 2132SOL    HW217856   0.602   0.232   3.179  0.1651 -0.3444 -0.4788
 2133SOL     OW17857   0.615   3.616   6.249 -0.3505 -0.1697  0.2464
 2133SOL    HW117858   0.544   3.569   6.293 -2.6291  1.4287 -1.7343
 2133SOL    HW217859   0.606   3.591   6.157 -1.8525 -1.3860  0.7205
 2134SOL     OW17860   0.894   0.447   6.865 -0.3440 -0.0982 -0.8680
 2134SOL    HW117861   0.822   0.432   6.926 -1.0580 -2.2767 -2.2513
 2134SOL    HW217862   0.971   0.413   6.911 -0.9970  0.0454  0.3300
 2135SOL     OW17863   0.036   1.516   8.000 -0.7872 -0.3469  0.1679
 2135SOL    HW117864   0.125   1.535   7.971  0.2274  1.1276  4.3079
 2135SOL    HW217865   0.028   1.421   8.006  0.8509 -0.4489  0.8360
 2136SOL     OW17866   0.921   3.216   1.416  0.0876 -0.3985  0.3052
 2136SOL    HW117867   0.931   3.224   1.321  1.5016  0.5081  0.5248
 2136SOL    HW217868   0.978   3.145   1.443  0.1306 -0.7802 -0.8089
 2137SOL     OW17869   0.116   1.079   4.406 -0.2386  0.7327  0.2003
 2137SOL    HW117870   0.173   1.002   4.403 -0.8248  0.3060 -0.0708
 2137SOL    HW217871   0.101   1.101   4.314  1.1431 -0.3500 -0.2904
 2138SOL     OW17872   1.640   0.519   1.002 -0.2116  0.4695 -0.3386
 2138SOL    HW117873   1.695   0.497   1.077 -3.2072  0.6391  1.9042
 2138SOL    HW217874   1.677   0.605   0.981  1.5970 -0.4849 -1.0579
 2139SOL     OW17875   1.039   4.295   4.038 -0.1917 -0.5479 -0.1323
 2139SOL    HW117876   0.962   4.317   3.985 -1.1676 -1.1494  1.0114
 2139SOL    HW217877   1.104   4.301   3.969 -0.6525  1.4018 -0.4031
 2140SOL     OW17878   1.997   0.141  17.382 -0.0344  0.1436 -0.2115
 2140SOL    HW117879   1.993   0.052  17.417 -1.0854 -0.1802 -1.1699
 2140SOL    HW217880   1.922   0.175  17.430  1.0949  1.1037  0.8802
 2141SOL     OW17881   0.031   3.967   7.458  0.3298 -0.6436 -0.6850
 2141SOL    HW117882   4.699   4.019   7.515 -0.5591 -2.3747  0.0338
 2141SOL    HW217883   4.709   3.971   7.374  0.5552 -1.7637 -0.8591
 2142SOL     OW17884   2.984   3.634   3.887  0.8824  0.2152 -0.2010
 2142SOL    HW117885   3.064   3.584   3.872  0.9782 -0.1705  1.6117
 2142SOL    HW217886   2.920   3.564   3.871 -0.1710  1.4128 -1.2239
 2143SOL     OW17887   1.405   2.360   4.768 -0.4941  0.3576  0.2914
 2143SOL    HW117888   1.316   2.326   4.763 -0.7885  1.1263  0.3071
 2143SOL    HW217889   1.397   2.408   4.850  1.3604  0.7488  0.2599
 2144SOL     OW17890   3.177   1.526  13.299  0.0980  0.5854  0.4531
 2144SOL    HW117891   3.151   1.487  13.216 -0.0884  4.5933 -1.3518
 2144SOL    HW217892   3.266   1.555  13.276 -0.1172  0.0981 -1.0117
 2145SOL     OW17893   1.723   2.183   6.816  0.1875  0.1936 -0.0478
 2145SOL    HW117894   1.762   2.099   6.839  2.7215  1.6027  0.7886
 2145SOL    HW217895   1.666   2.210   6.888 -1.1385  0.5190 -1.2178
 2146SOL     OW17896   0.181   1.421  11.006  0.3301 -0.3187 -0.0584
 2146SOL    HW117897   0.098   1.388  11.039  0.3168 -1.3594 -1.1250
 2146SOL    HW217898   0.207   1.483  11.073 -3.5211 -0.2873  1.3889
 2147SOL     OW17899   4.054   4.658   6.586 -0.6977  0.3560  0.7831
 2147SOL    HW117900   4.027   4.569   6.566 -1.3538  0.4789  1.1570
 2147SOL    HW217901   4.059   4.655   6.681 -0.4043  2.2868  0.8355
 2148SOL     OW17902   3.855   4.571   3.985  0.5999  0.0133 -0.7244
 2148SOL    HW117903   3.921   4.616   3.932  2.4221 -0.8851  0.7736
 2148SOL    HW217904   3.792   4.567   3.913 -2.3041  0.2826  1.8542
 2149SOL     OW17905   0.704   4.247   1.629  0.4567  0.1045 -0.5724
 2149SOL    HW117906   0.641   4.314   1.599 -0.0925 -0.0500  0.2199
 2149SOL    HW217907   0.688   4.188   1.556  0.7801  1.4694 -1.7443
 2150SOL     OW17908   4.275   0.497   8.481 -0.2239  0.3430  0.8078
 2150SOL    HW117909   4.353   0.446   8.502 -1.8201 -2.2862  0.3185
 2150SOL    HW217910   4.208   0.430   8.492  0.0383 -0.3632 -1.8240
 2151SOL     OW17911   0.717   4.264   4.785  0.6072 -0.5539 -0.1218
 2151SOL    HW117912   0.746   4.182   4.825  1.2711 -1.0959 -1.7397
 2151SOL    HW217913   0.683   4.226   4.704  0.0082  0.0858 -0.1705
 2152SOL     OW17914   1.030   3.140   2.338  0.0570  0.1581 -0.1999
 2152SOL    HW117915   1.053   3.223   2.295 -1.2300  1.2989  1.3267
 2152SOL    HW217916   0.947   3.122   2.293 -0.9883  2.0646  0.9301
 2153SOL     OW17917   4.595   1.386   5.370  0.4974  0.2958  0.3585
 2153SOL    HW117918   4.614   1.393   5.277  0.6968  1.7106  0.4978
 2153SOL    HW217919   4.505   1.352   5.372  0.3609  0.7434  1.6440
 2154SOL     OW17920   0.640   3.048   2.784  0.1038  0.1742 -0.3558
 2154SOL    HW117921   0.638   2.990   2.708 -2.4810 -0.4954  0.1977
 2154SOL    HW217922   0.691   3.121   2.749  0.8630 -0.9641 -1.6331
 2155SOL     OW17923   2.416   0.372   0.383 -0.1771  0.0077  0.5433
 2155SOL    HW117924   2.429   0.357   0.289  2.1017 -0.8647  0.9899
 2155SOL    HW217925   2.356   0.302   0.409 -1.1480  0.4263 -0.5568
 2156SOL     OW17926   0.783   0.129  16.848  0.2216  0.5136 -0.1014
 2156SOL    HW117927   0.836   0.064  16.894 -0.3316 -0.3595 -0.6774
 2156SOL    HW217928   0.855   0.176  16.806  2.0680 -0.3695  2.0498
 2157SOL     OW17929   2.182   0.862   3.247  0.1566  0.2613 -0.4747
 2157SOL    HW117930   2.194   0.775   3.286 -0.5919  0.5097  0.3108
 2157SOL    HW217931   2.221   0.857   3.159 -0.8461 -1.0984 -0.8520
 2158SOL     OW17932   2.634   1.364   2.878  0.2725 -0.3462 -0.2809
 2158SOL    HW117933   2.580   1.340   2.803 -1.7323  0.8144  0.7807
 2158SOL    HW217934   2.654   1.282   2.925 -1.0942 -0.9749 -0.7981
 2159SOL     OW17935   0.105   2.013   1.828 -0.1458  0.1172  0.0963
 2159SOL    HW117936   0.033   1.953   1.810  0.8906 -0.7044 -1.3045
 2159SOL    HW217937   0.047   2.083   1.859 -1.0577 -0.3168 -0.6374
 2160SOL     OW17938   0.127   1.984  11.481 -0.3123 -0.4569 -0.1504
 2160SOL    HW117939   0.124   1.962  11.387  3.2001  0.4237 -0.4672
 2160SOL    HW217940   0.072   1.917  11.521  0.1457 -0.2770  0.7624
 2161SOL     OW17941   4.007   4.142   8.678  0.1913 -0.2368  0.5516
 2161SOL    HW117942   3.999   4.052   8.647 -3.2192  0.7263 -1.4364
 2161SOL    HW217943   3.927   4.144   8.732 -0.3717  0.0143 -0.2897
 2162SOL     OW17944   1.787   2.288   7.922  0.0822  0.6003  0.2417
 2162SOL    HW117945   1.725   2.216   7.932 -0.0667  0.4898 -1.5551
 2162SOL    HW217946   1.742   2.355   7.973 -1.9904 -1.3651  0.9920
 2163SOL     OW17947   3.720   3.040   8.402 -0.2179  0.4789 -0.8798
 2163SOL    HW117948   3.712   2.945   8.405 -0.1654  0.5002 -0.0139
 2163SOL    HW217949   3.659   3.060   8.331 -0.9499  0.9681 -0.1162
 2164SOL     OW17950   2.054   3.460  13.004  0.1610 -0.0283 -0.5206
 2164SOL    HW117951   1.998   3.437  12.930  0.4660  1.6456 -1.2729
 2164SOL    HW217952   2.056   3.381  13.057 -1.4169  0.6100  0.5071
 2165SOL     OW17953   0.793   4.375   6.622  0.1586  0.1014 -0.2897
 2165SOL    HW117954   0.745   4.316   6.680  0.7897  2.6740  2.8779
 2165SOL    HW217955   0.796   4.317   6.546 -0.9802 -1.4898  0.8674
 2166SOL     OW17956   0.000   2.928  10.557  0.2938 -0.4762  0.0852
 2166SOL    HW117957   4.712   2.869  10.483 -1.1158  0.1630 -0.1962
 2166SOL    HW217958   0.093   2.916  10.577  0.0561 -1.7895  0.4030
 2167SOL     OW17959   1.519   2.573   5.433 -0.0125  0.2723  0.3422
 2167SOL    HW117960   1.423   2.571   5.441  0.0591  0.5409  1.2404
 2167SOL    HW217961   1.526   2.661   5.396 -0.3967  0.0189 -0.3420
 2168SOL     OW17962   0.947   3.052   4.999  0.0738  0.1146  0.5020
 2168SOL    HW117963   0.989   3.044   4.913 -0.8829  2.1041 -0.1417
 2168SOL    HW217964   1.018   3.014   5.052 -0.5191 -1.6936 -0.0110
 2169SOL     OW17965   1.277   1.481  15.575  0.3688  0.6263  0.1599
 2169SOL    HW117966   1.335   1.406  15.584 -2.7836 -1.5036  2.9951
 2169SOL    HW217967   1.301   1.523  15.658 -2.9653 -0.6492  1.7790
 2170SOL     OW17968   2.536   4.240   7.999 -0.1038  0.0909  0.1634
 2170SOL    HW117969   2.471   4.292   7.952 -1.3480 -1.0086  0.6714
 2170SOL    HW217970   2.551   4.296   8.075  0.0542  0.4299 -0.1148
 2171SOL     OW17971   3.906   1.395  14.695 -0.2318 -0.1874  0.2748
 2171SOL    HW117972   3.931   1.305  14.675  1.4468  0.4237 -0.3623
 2171SOL    HW217973   3.987   1.423  14.738  1.6456  1.6308 -4.4522
 2172SOL     OW17974   3.273   1.312  12.006  0.0859 -0.1798  0.0851
 2172SOL    HW117975   3.214   1.349  11.941 -0.3940 -0.9199  0.1113
 2172SOL    HW217976   3.346   1.277  11.954  1.8397 -2.6007  4.2363
 2173SOL     OW17977   0.566   0.372   8.123 -0.2721 -0.1217  0.1005
 2173SOL    HW117978   0.569   0.390   8.217 -3.8619 -0.9760  0.3740
 2173SOL    HW217979   0.542   0.279   8.131 -0.7000  0.0267  0.5503
 2174SOL     OW17980   1.488   4.265   7.410  0.8586 -0.1550 -0.5043
 2174SOL    HW117981   1.529   4.322   7.475  2.8165 -0.7899 -1.2059
 2174SOL    HW217982   1.506   4.298   7.322 -1.1926  0.6880 -0.6130
 2175SOL     OW17983   1.850   3.281  15.071 -0.2467 -0.2226 -0.4241
 2175SOL    HW117984   1.915   3.348  15.091  2.3251 -2.7044 -0.3695
 2175SOL    HW217985   1.886   3.216  15.131  1.2084 -0.1242 -1.1730
 2176SOL     OW17986   4.144   0.592   8.259  0.1791  0.1820  0.1901
 2176SOL    HW117987   4.222   0.610   8.207 -0.1193 -0.1841 -0.3836
 2176SOL    HW217988   4.182   0.552   8.337  1.4973 -0.6729 -0.9056
 2177SOL     OW17989   2.265   4.469  14.241 -0.1507 -0.3537  0.4838
 2177SOL    HW117990   2.230   4.466  14.152  0.6854  1.0118  0.1105
 2177SOL    HW217991   2.274   4.377  14.267  0.3457 -0.0331  1.4668
 2178SOL     OW17992   0.094   0.490   5.831  0.7778 -0.4141  0.2128
 2178SOL    HW117993   0.182   0.526   5.835  1.0319 -0.8339 -2.0854
 2178SOL    HW217994   0.081   0.490   5.737  1.6148  0.2774  0.0965
 2179SOL     OW17995   3.195   1.580  14.134  0.2002  0.2746 -0.2881
 2179SOL    HW117996   3.116   1.626  14.162 -0.3537 -1.1997  0.5922
 2179SOL    HW217997   3.167   1.555  14.046 -1.1066  2.1322 -0.3911
 2180SOL     OW17998   2.235   3.772   2.790  0.6722 -0.6320 -0.5430
 2180SOL    HW117999   2.298   3.844   2.795 -1.2849  1.1477 -1.6916
 2180SOL    HW218000   2.262   3.713   2.861  2.9373 -0.6404 -1.4006
 2181SOL     OW18001   1.307   1.317   2.774 -0.5586 -0.9868  0.1905
 2181SOL    HW118002   1.288   1.225   2.793 -0.0405 -0.9546  0.8797
 2181SOL    HW218003   1.368   1.343   2.843 -0.8989 -2.4305  1.0401
 2182SOL     OW18004   4.418   2.189   8.102 -0.7490 -0.4451 -0.4070
 2182SOL    HW118005   4.353   2.162   8.167 -1.8851  2.0436 -0.5130
 2182SOL    HW218006   4.485   2.120   8.102  0.0136  0.2937  0.2310
 2183SOL     OW18007   4.266   2.747   1.988 -0.0749 -0.1702 -0.8341
 2183SOL    HW118008   4.306   2.834   1.993 -2.2812  0.7803  0.4397
 2183SOL    HW218009   4.180   2.769   1.954  0.1916 -1.6690 -2.4474
 2184SOL     OW18010   0.641   3.232   8.987  0.2674  0.2186  0.3263
 2184SOL    HW118011   0.572   3.168   9.003 -0.9284  0.9084 -2.0139
 2184SOL    HW218012   0.642   3.277   9.072  1.6707 -0.0430  0.4556
 2185SOL     OW18013   2.207   2.566  11.203  0.2604  0.2574 -0.2351
 2185SOL    HW118014   2.209   2.471  11.200  3.5816  0.3821 -2.3805
 2185SOL    HW218015   2.272   2.582  11.134  2.1615 -0.9245  1.2885
 2186SOL     OW18016   4.257   4.704  12.590 -0.0160  0.6739 -0.0126
 2186SOL    HW118017   4.258   4.613  12.619  0.4692 -0.3246 -3.2344
 2186SOL    HW218018   4.225   0.020  12.671 -1.8343 -0.5896 -0.1155
 2187SOL     OW18019   2.556   3.358   6.434  0.5438 -0.0767  0.0777
 2187SOL    HW118020   2.490   3.342   6.502 -0.6942 -1.0405 -1.3401
 2187SOL    HW218021   2.602   3.276   6.450  0.6510 -0.2414 -1.0774
 2188SOL     OW18022   1.384   3.910   0.470 -0.2169 -0.2997 -0.3988
 2188SOL    HW118023   1.386   3.856   0.391  0.4678 -1.3122  0.3016
 2188SOL    HW218024   1.405   4.000   0.446  0.4989 -0.4832 -0.4576
 2189SOL     OW18025   3.641   3.893  16.676 -0.4792 -0.2012  0.2462
 2189SOL    HW118026   3.570   3.921  16.617  0.4517 -0.4141 -0.9707
 2189SOL    HW218027   3.711   3.947  16.638 -0.4734 -0.9856 -0.8496
 2190SOL     OW18028   1.848   0.457  12.177  0.0080 -0.1574  0.0852
 2190SOL    HW118029   1.836   0.469  12.272 -0.8180  1.2544 -0.1963
 2190SOL    HW218030   1.942   0.443  12.172  0.4452  3.2372 -1.1151
 2191SOL     OW18031   0.474   2.000   4.208 -0.2189  0.2518  0.5657
 2191SOL    HW118032   0.545   1.941   4.181 -0.4625 -0.5235  1.6416
 2191SOL    HW218033   0.461   1.954   4.291 -4.4973  0.0893 -0.2417
 2192SOL     OW18034   2.142   3.391   5.932  0.1343  0.1136  0.3536
 2192SOL    HW118035   2.113   3.436   5.852 -1.5332 -1.8318 -0.1304
 2192SOL    HW218036   2.087   3.316   5.909  0.9434 -0.5431  0.5871
 2193SOL     OW18037   1.658   1.405   5.013  0.0413 -0.5592  0.3872
 2193SOL    HW118038   1.673   1.423   4.920 -1.2992  2.2223  0.7017
 2193SOL    HW218039   1.684   1.489   5.051 -1.6401  0.9421 -1.7907
 2194SOL     OW18040   2.935   2.791  15.355 -0.2082 -0.4457  0.0635
 2194SOL    HW118041   2.842   2.768  15.363  0.5713 -2.9796  1.9357
 2194SOL    HW218042   2.968   2.779  15.266  0.1468  0.8833  0.0178
 2195SOL     OW18043   0.599   3.753   7.223 -0.4513  0.1420  0.1390
 2195SOL    HW118044   0.537   3.683   7.203 -0.6208 -0.1320  1.6434
 2195SOL    HW218045   0.676   3.707   7.256 -3.2331 -3.0452  2.2745
 2196SOL     OW18046   0.552   0.021   9.566  0.2606  0.3913 -0.4140
 2196SOL    HW118047   0.526   4.654   9.579 -0.4249  0.0650 -3.8922
 2196SOL    HW218048   0.625   0.031   9.627 -0.2436 -0.8859  0.3966
 2197SOL     OW18049   3.542   2.310   6.300 -0.2510  0.4505 -0.2888
 2197SOL    HW118050   3.631   2.276   6.316 -0.7007 -0.9343 -0.7527
 2197SOL    HW218051   3.486   2.236   6.324  0.1863  0.8883  2.0754
 2198SOL     OW18052   2.873   0.388   3.540  0.6368  0.2693  0.1638
 2198SOL    HW118053   2.934   0.460   3.527 -1.9588  2.4156 -0.0867
 2198SOL    HW218054   2.910   0.330   3.607  2.6565  1.7925  0.3699
 2199SOL     OW18055   1.598   1.914  15.174  0.3136  0.2973 -0.0925
 2199SOL    HW118056   1.582   1.828  15.136  2.0236 -0.2987  0.5189
 2199SOL    HW218057   1.521   1.923  15.229  0.3970  1.1965 -0.1196
 2200SOL     OW18058   2.434   2.301   7.020  0.5318 -0.0491 -0.6018
 2200SOL    HW118059   2.387   2.349   7.088 -2.2815 -3.6720  0.0131
 2200SOL    HW218060   2.511   2.262   7.062  0.1120  0.4682  0.6558
 2201SOL     OW18061   2.831   4.640   4.461 -0.1988  0.5374 -0.1677
 2201SOL    HW118062   2.921   4.669   4.449  0.4448 -0.4292  2.3875
 2201SOL    HW218063   2.835   4.616   4.554  0.5478 -0.6875 -0.5175
 2202SOL     OW18064   1.256   2.403  14.591 -0.4653  0.1478  0.3317
 2202SOL    HW118065   1.228   2.494  14.601 -2.4342 -0.5217  0.9339
 2202SOL    HW218066   1.332   2.410  14.649  2.1445  1.1674 -3.1735
 2203SOL     OW18067   1.035   0.100   7.267  0.0731 -0.3407 -0.1289
 2203SOL    HW118068   1.092   0.149   7.327 -0.5321 -1.6288  1.5035
 2203SOL    HW218069   1.058   0.012   7.296 -1.3768 -0.5443  0.4080
 2204SOL     OW18070   2.322   3.894  14.249  0.1427  0.6023 -0.2050
 2204SOL    HW118071   2.262   3.960  14.283 -0.4905 -0.4702  0.7465
 2204SOL    HW218072   2.266   3.832  14.202 -0.1472  0.0290  0.8789
 2205SOL     OW18073   4.626   4.281   7.126  0.8847  1.2268 -0.9045
 2205SOL    HW118074   4.582   4.365   7.141  1.3524  1.2178  0.5778
 2205SOL    HW218075   4.641   4.276   7.032  0.6372  2.8483 -1.0374
 2206SOL     OW18076   1.674   0.138   8.162  0.5775 -0.1661  0.1974
 2206SOL    HW118077   1.715   0.069   8.214 -1.5864  0.7847  3.1117
 2206SOL    HW218078   1.609   0.167   8.225 -1.9007 -1.1683 -1.9101
 2207SOL     OW18079   3.991   3.721   7.619  0.3618 -0.5462  0.3570
 2207SOL    HW118080   3.982   3.630   7.591  2.8096 -0.3056 -1.2175
 2207SOL    HW218081   3.954   3.750   7.535  0.6928  0.0803  0.4284
 2208SOL     OW18082   0.633   0.854  15.918 -0.4538  0.4355  0.1318
 2208SOL    HW118083   0.671   0.935  15.951  0.2609 -0.0813  0.5793
 2208SOL    HW218084   0.632   0.883  15.827 -1.0539  0.4842  0.1534
 2209SOL     OW18085   3.341   4.059   4.667 -0.5359  0.6859 -0.7179
 2209SOL    HW118086   3.314   4.017   4.748  0.6095  1.8154  0.2450
 2209SOL    HW218087   3.434   4.080   4.682 -0.6565  0.6274  0.0919
 2210SOL     OW18088   4.004   0.175   3.782 -0.1305 -0.2638 -0.1328
 2210SOL    HW118089   4.052   0.182   3.864 -1.4046  1.1440  0.4849
 2210SOL    HW218090   3.954   0.257   3.788  0.0897  0.0658 -2.7095
 2211SOL     OW18091   3.415   4.108   2.786  0.2222 -0.2654  0.2875
 2211SOL    HW118092   3.327   4.107   2.823 -0.2843  1.5598 -0.8925
 2211SOL    HW218093   3.406   4.102   2.691 -1.9130 -2.3359  0.6080
 2212SOL     OW18094   2.672   2.734   7.514 -0.5914  0.1251 -0.4055
 2212SOL    HW118095   2.715   2.757   7.596 -1.4016 -1.2423  0.4020
 2212SOL    HW218096   2.728   2.777   7.450  0.1040  1.2536  0.9702
 2213SOL     OW18097   1.561   1.784   5.540  0.7390 -0.0081 -0.8318
 2213SOL    HW118098   1.612   1.775   5.621 -0.4964  3.4200  0.3505
 2213SOL    HW218099   1.520   1.868   5.560 -1.1929 -1.2200  0.2990
 2214SOL     OW18100   2.619   2.485   6.567  0.0758  0.0571  0.0413
 2214SOL    HW118101   2.576   2.539   6.634 -1.5539 -0.8187 -0.2955
 2214SOL    HW218102   2.596   2.393   6.577 -0.8556  0.3447  0.5017
 2215SOL     OW18103   2.796   3.974  17.665  0.0986 -0.5640 -0.0350
 2215SOL    HW118104   2.715   3.940   0.005 -0.1784  1.5371  1.1915
 2215SOL    HW218105   2.868   3.919  17.694  1.4416  0.1808 -1.9357
 2216SOL     OW18106   4.536   4.354  11.852 -0.6974 -0.3697 -0.0259
 2216SOL    HW118107   4.446   4.375  11.827 -0.6557  0.4018  0.4536
 2216SOL    HW218108   4.512   4.270  11.892  1.6095 -0.7340  0.5887
 2217SOL     OW18109   2.673   0.040   8.194 -0.2737  0.0577 -0.1521
 2217SOL    HW118110   2.718   0.078   8.119 -1.2424 -0.1517 -0.8449
 2217SOL    HW218111   2.622   0.119   8.215  0.4911  0.3438  0.6448
 2218SOL     OW18112   0.647   0.318   5.510  0.7613  0.1222 -0.5027
 2218SOL    HW118113   0.629   0.345   5.600  0.5184  0.2834 -0.5992
 2218SOL    HW218114   0.652   0.408   5.476  2.0373  0.1310 -0.2612
 2219SOL     OW18115   0.757   2.234   5.133 -0.2246  0.6273  0.0502
 2219SOL    HW118116   0.700   2.216   5.059 -0.3966  0.6259  0.1821
 2219SOL    HW218117   0.839   2.212   5.089 -1.2708 -2.0976 -0.5440
 2220SOL     OW18118   2.591   3.060   5.088  0.3020  0.1188  0.9399
 2220SOL    HW118119   2.631   3.141   5.056  2.0215 -1.0689  0.1158
 2220SOL    HW218120   2.630   3.059   5.176  1.1014 -0.3093  0.5814
 2221SOL     OW18121   3.996   4.468   3.552  0.4236  0.0279 -0.3345
 2221SOL    HW118122   3.973   4.513   3.633  0.5933 -0.7030  0.1234
 2221SOL    HW218123   4.084   4.436   3.570  0.7446  2.1901  1.9016
 2222SOL     OW18124   2.737   0.197   5.820 -0.5103 -0.3530  0.2189
 2222SOL    HW118125   2.760   0.245   5.740 -1.4666  1.1003  0.8200
 2222SOL    HW218126   2.644   0.180   5.809  0.0014 -3.0840  0.1378
 2223SOL     OW18127   2.724   3.021   8.579 -0.1649 -0.1923 -0.0938
 2223SOL    HW118128   2.679   3.005   8.496 -2.5263  1.7734  0.8057
 2223SOL    HW218129   2.647   3.002   8.633  1.4104  0.2569  2.2813
 2224SOL     OW18130   0.830   0.377   5.909  0.1830 -0.8455  0.0403
 2224SOL    HW118131   0.880   0.433   5.849  1.5270 -2.6451 -0.5105
 2224SOL    HW218132   0.898   0.385   5.976 -0.9558 -0.7068  1.1879
 2225SOL     OW18133   2.150   0.807   9.750  0.5588 -0.4113 -0.4860
 2225SOL    HW118134   2.165   0.873   9.817 -0.0783  1.1084 -1.8382
 2225SOL    HW218135   2.226   0.804   9.690 -0.6755 -0.5966 -2.0386
 2226SOL     OW18136   1.038   4.415   2.800  0.0620 -0.2380  0.6284
 2226SOL    HW118137   0.971   4.456   2.855  1.1727 -0.6261  2.2651
 2226SOL    HW218138   0.982   4.354   2.752  0.1159 -1.1295  1.6895
 2227SOL     OW18139   1.207   3.371   3.694  0.2697  0.0945  0.5431
 2227SOL    HW118140   1.145   3.316   3.646 -0.2683  1.7046 -0.5885
 2227SOL    HW218141   1.289   3.338   3.658  0.1201  0.7278 -0.3815
 2228SOL     OW18142   4.627   4.275   4.300 -0.6078 -0.2352 -0.4566
 2228SOL    HW118143   4.689   4.238   4.237 -1.7673 -0.6098 -1.3621
 2228SOL    HW218144   4.658   4.234   4.381 -0.8720  1.2983  0.4241
 2229SOL     OW18145   0.710   0.464   0.694 -0.4135 -0.2263  0.0354
 2229SOL    HW118146   0.627   0.499   0.727 -1.3402 -3.7175  1.4112
 2229SOL    HW218147   0.719   0.378   0.736 -0.4013 -0.5432 -0.6165
 2230SOL     OW18148   0.139   3.433  14.668  0.3116  0.1639  0.1241
 2230SOL    HW118149   0.210   3.370  14.687  2.0779  2.6217  1.6064
 2230SOL    HW218150   0.183   3.491  14.606  1.3658 -1.8210 -1.0295
 2231SOL     OW18151   2.754   3.180  11.591 -0.3094  0.4453 -0.4436
 2231SOL    HW118152   2.836   3.190  11.639  0.5870 -3.1532 -1.2274
 2231SOL    HW218153   2.781   3.202  11.502  1.8294  0.0839  0.1310
 2232SOL     OW18154   4.067   4.184  14.033  0.4194  0.0160 -0.0430
 2232SOL    HW118155   3.972   4.186  14.028  0.4271  0.4693 -0.0254
 2232SOL    HW218156   4.085   4.255  13.971 -0.3390  1.8331  1.7903
 2233SOL     OW18157   4.299   1.484   0.949 -0.3620 -0.1710 -0.2331
 2233SOL    HW118158   4.345   1.487   1.033 -0.7361  0.0437 -0.0348
 2233SOL    HW218159   4.290   1.389   0.950 -2.1895 -0.0026 -1.2067
 2234SOL     OW18160   0.764   2.471   6.978 -0.4057 -0.3810 -0.0113
 2234SOL    HW118161   0.703   2.460   7.051 -1.3295  0.7809 -0.5969
 2234SOL    HW218162   0.833   2.407   6.997 -0.6505 -1.3225 -2.2901
 2235SOL     OW18163   2.568   2.535  16.439 -0.5664 -0.4681 -0.2386
 2235SOL    HW118164   2.529   2.618  16.467 -0.6993 -1.0100  1.2224
 2235SOL    HW218165   2.571   2.478  16.517 -0.4322  0.3313  0.3384
 2236SOL     OW18166   0.443   1.919  13.303 -0.1746 -0.0769  0.3894
 2236SOL    HW118167   0.386   1.991  13.333  1.9843  4.0597 -5.3674
 2236SOL    HW218168   0.391   1.887  13.229  0.0112 -0.7530  0.5610
 2237SOL     OW18169   2.068   3.196   7.609 -0.3018 -0.2770  0.5637
 2237SOL    HW118170   2.164   3.200   7.602 -0.5219  0.6767 -1.7413
 2237SOL    HW218171   2.055   3.249   7.687 -3.0172 -0.5561  0.2799
 2238SOL     OW18172   3.443   3.354   6.626 -0.4177 -0.2375  0.3797
 2238SOL    HW118173   3.446   3.357   6.530  1.0834  1.7090  0.5033
 2238SOL    HW218174   3.353   3.373   6.651 -0.5171 -0.0896 -0.0925
 2239SOL     OW18175   2.380   0.914   2.485 -0.2534  0.1897  0.7038
 2239SOL    HW118176   2.352   0.999   2.452  0.4059  0.9012  1.9644
 2239SOL    HW218177   2.336   0.861   2.418  0.1380  2.3791 -1.2693
 2240SOL     OW18178   1.907   2.842   2.638 -0.0644  0.0928  0.4488
 2240SOL    HW118179   1.903   2.938   2.639  0.8940  0.1580 -2.2163
 2240SOL    HW218180   1.866   2.823   2.554 -0.3296 -0.5836  0.7338
 2241SOL     OW18181   4.582   3.652  17.513  0.7075  0.8593  0.1389
 2241SOL    HW118182   4.534   3.660  17.596  0.5324 -0.2977  0.1504
 2241SOL    HW218183   4.671   3.622  17.532  1.1864  1.5604 -1.0280
 2242SOL     OW18184   1.676   3.570  11.116 -0.4870  0.3330  0.6741
 2242SOL    HW118185   1.605   3.569  11.180 -1.2209 -0.5896 -0.1520
 2242SOL    HW218186   1.746   3.621  11.156  0.1690 -1.1221  1.3596
 2243SOL     OW18187   0.425   1.923   2.294  0.1688  0.0810 -0.3564
 2243SOL    HW118188   0.507   1.956   2.258  0.9751  0.5478  1.8876
 2243SOL    HW218189   0.389   1.993   2.348  0.2083  0.2409 -0.5412
 2244SOL     OW18190   2.452   4.695   4.347 -0.1858  0.4957 -0.2975
 2244SOL    HW118191   2.476   4.609   4.314 -0.7141  0.0322  0.5405
 2244SOL    HW218192   2.368   4.715   4.307 -0.6702 -1.0391 -0.0273
 2245SOL     OW18193   0.776   1.869  13.782  0.0860  0.3191  0.1087
 2245SOL    HW118194   0.803   1.928  13.852 -0.8474 -0.0185  0.7419
 2245SOL    HW218195   0.805   1.913  13.701 -0.9593  1.9584  0.6179
 2246SOL     OW18196   3.422   3.751   5.753  0.8078  0.0944 -0.1685
 2246SOL    HW118197   3.503   3.705   5.730  0.3489 -1.5113  1.3514
 2246SOL    HW218198   3.358   3.700   5.704 -0.4626 -0.5528  2.1986
 2247SOL     OW18199   2.791   3.178   3.985 -0.2593 -0.5282 -0.2226
 2247SOL    HW118200   2.814   3.228   4.063 -3.2471 -0.5865  0.7145
 2247SOL    HW218201   2.875   3.158   3.944 -0.7583  2.0596 -2.5511
 2248SOL     OW18202   3.970   2.706   5.315  0.2509  0.4453  0.4679
 2248SOL    HW118203   3.898   2.676   5.259 -0.0787  2.8820 -0.4512
 2248SOL    HW218204   3.927   2.694   5.399  0.3053 -0.6317  0.3361
 2249SOL     OW18205   3.761   4.404   5.382  0.0546 -0.2709 -0.8392
 2249SOL    HW118206   3.827   4.468   5.356  1.0053 -1.0735 -0.3599
 2249SOL    HW218207   3.812   4.327   5.407  0.0600 -0.5200 -1.5966
 2250SOL     OW18208   3.706   0.721   3.523  0.9253  0.0126  0.8345
 2250SOL    HW118209   3.771   0.656   3.496  0.1068 -0.5439  0.1910
 2250SOL    HW218210   3.761   0.798   3.515  0.4668  0.1878 -0.5276
 2251SOL     OW18211   2.367   0.107   1.847 -0.4941 -0.5696  0.1189
 2251SOL    HW118212   2.408   0.159   1.778  0.4269 -2.3285 -0.6483
 2251SOL    HW218213   2.441   0.101   1.907 -1.6788  0.3810  1.6861
 2252SOL     OW18214   0.492   1.178   2.278  0.1781  0.1308 -0.0911
 2252SOL    HW118215   0.455   1.094   2.249  1.5755 -0.6592  0.4258
 2252SOL    HW218216   0.435   1.204   2.350 -1.0963 -1.0048 -0.6784
 2253SOL     OW18217   0.500   1.368   6.609 -0.2544  0.6824 -0.1422
 2253SOL    HW118218   0.435   1.408   6.668 -0.0986  1.3766 -0.4335
 2253SOL    HW218219   0.582   1.400   6.645 -0.6883  1.2434  0.3575
 2254SOL     OW18220   1.902   2.985   7.639 -0.0614  0.1049  0.3231
 2254SOL    HW118221   1.976   3.046   7.633  0.6847 -0.6240  2.3872
 2254SOL    HW218222   1.834   3.053   7.646  2.3203  2.3860  1.3509
 2255SOL     OW18223   2.422   2.004   8.582 -0.0378  0.0514 -0.0914
 2255SOL    HW118224   2.482   1.935   8.553  2.1679  1.6376  0.6713
 2255SOL    HW218225   2.482   2.067   8.623 -1.0262  0.3090  0.9401
 2256SOL     OW18226   0.002   3.163  12.597 -0.6312 -0.2566  0.4126
 2256SOL    HW118227   4.722   3.256  12.574  0.2758  0.2230  2.1806
 2256SOL    HW218228   0.036   3.160  12.687  0.6643  0.8260 -0.0348
 2257SOL     OW18229   1.717   4.621  17.527  0.1614 -0.2329 -0.6396
 2257SOL    HW118230   1.699   4.532  17.555  2.5134 -0.8078 -0.9623
 2257SOL    HW218231   1.806   4.615  17.492 -0.5160  1.2595 -2.6188
 2258SOL     OW18232   0.729   2.326   4.837 -1.0479 -0.5177 -0.4447
 2258SOL    HW118233   0.688   2.330   4.751 -2.6976  0.1763  0.3706
 2258SOL    HW218234   0.650   2.290   4.878 -1.2627 -0.0467 -0.4368
 2259SOL     OW18235   4.318   1.020   4.772 -0.3012  0.2967  0.0291
 2259SOL    HW118236   4.305   1.111   4.746 -2.4604 -0.9279 -3.0529
 2259SOL    HW218237   4.348   1.037   4.862  0.3857 -0.8612  0.0275
 2260SOL     OW18238   3.247   3.763   4.597 -0.1563  0.3837 -0.1565
 2260SOL    HW118239   3.323   3.705   4.600  0.3446  0.9571 -1.8689
 2260SOL    HW218240   3.216   3.758   4.507  0.3631  0.2547 -0.3289
 2261SOL     OW18241   0.547   3.026   7.433  0.4935  0.2131 -0.1314
 2261SOL    HW118242   0.531   2.995   7.523  0.9218 -1.5358 -0.6494
 2261SOL    HW218243   0.612   2.968   7.394 -0.7366 -0.3283 -1.3590
 2262SOL     OW18244   2.381   3.473  10.509 -0.6476  0.4607 -0.1944
 2262SOL    HW118245   2.434   3.393  10.519 -2.3238 -0.9290 -2.4401
 2262SOL    HW218246   2.428   3.536  10.563  0.0495  1.1178 -1.5813
 2263SOL     OW18247   0.508   0.091   4.473  0.1043  0.5678  0.0703
 2263SOL    HW118248   0.523   0.038   4.551  0.2774  1.8383  0.9176
 2263SOL    HW218249   0.417   0.116   4.485 -0.3916 -0.6342 -1.2574
 2264SOL     OW18250   3.880   0.139   7.149 -0.2764 -0.6025 -0.2748
 2264SOL    HW118251   3.948   0.202   7.124 -1.2946  0.5365 -0.1706
 2264SOL    HW218252   3.937   0.068   7.180  3.1742  1.6630 -1.4634
 2265SOL     OW18253   3.474   1.207   3.155  0.6202 -0.0519 -0.4960
 2265SOL    HW118254   3.497   1.151   3.230 -0.4166  0.0267 -0.1274
 2265SOL    HW218255   3.384   1.179   3.138  0.1707  1.8401 -1.1429
 2266SOL     OW18256   1.175   0.322  14.180  0.3387  0.3731  0.0296
 2266SOL    HW118257   1.181   0.236  14.139  0.1830  0.3402  0.0747
 2266SOL    HW218258   1.117   0.307  14.255  1.4028  0.2552  0.8299
 2267SOL     OW18259   2.222   2.446   4.006  0.0572 -0.0270  0.3919
 2267SOL    HW118260   2.169   2.394   4.067  1.1862 -0.3480  1.1001
 2267SOL    HW218261   2.290   2.485   4.061 -0.0906 -0.1756  0.6765
 2268SOL     OW18262   2.007   4.258   3.722 -0.8217 -0.1846  0.3151
 2268SOL    HW118263   1.962   4.194   3.667  2.2774 -1.2109 -1.0323
 2268SOL    HW218264   1.973   4.235   3.808  1.2783 -1.3014  0.8358
 2269SOL     OW18265   3.896   4.219   6.508 -0.4123  0.0715  0.6900
 2269SOL    HW118266   3.908   4.124   6.517  1.2949  0.3112  0.8394
 2269SOL    HW218267   3.825   4.214   6.444 -0.0451 -1.5840  0.3952
 2270SOL     OW18268   3.066   3.789   3.604 -0.0915 -0.0879  0.1254
 2270SOL    HW118269   3.026   3.843   3.537  1.0656  0.3991 -0.1786
 2270SOL    HW218270   3.001   3.771   3.671  1.2602  0.7804  1.6630
 2271SOL     OW18271   0.386   3.319  10.432  0.4019 -0.5689 -0.1573
 2271SOL    HW118272   0.480   3.305  10.445  0.5483  0.8474  0.2736
 2271SOL    HW218273   0.385   3.401  10.482 -0.6512  0.3958 -1.7785
 2272SOL     OW18274   0.118   1.959  15.857 -0.2651 -0.2732  0.4192
 2272SOL    HW118275   0.186   2.026  15.858 -0.0999 -0.4410  0.4302
 2272SOL    HW218276   0.166   1.878  15.841 -1.3379 -0.7173 -0.5701
 2273SOL     OW18277   4.636   3.352  16.751  0.3675  0.2022  0.0795
 2273SOL    HW118278   4.659   3.445  16.750  2.2748 -0.2569  0.0731
 2273SOL    HW218279   4.544   3.359  16.725  1.1040  1.6389 -2.1017
 2274SOL     OW18280   3.916   3.059   1.711 -0.5032  0.7298  0.2384
 2274SOL    HW118281   3.982   3.034   1.646 -3.8236  2.6986 -3.8462
 2274SOL    HW218282   3.934   3.153   1.715 -0.6297  0.7833 -0.4046
 2275SOL     OW18283   3.830   2.266  13.069 -0.1332  0.2761  0.0206
 2275SOL    HW118284   3.841   2.175  13.097  1.2249 -0.3585 -2.5503
 2275SOL    HW218285   3.863   2.306  13.149 -0.4530 -1.0528  0.8168
 2276SOL     OW18286   4.246   4.479   2.880 -0.1775  0.0931 -0.2322
 2276SOL    HW118287   4.233   4.514   2.792  0.2826  2.9000  0.7922
 2276SOL    HW218288   4.183   4.536   2.925  0.6677  0.0916  0.9516
 2277SOL     OW18289   2.755   4.309   4.763 -0.1988  0.0220  0.1098
 2277SOL    HW118290   2.770   4.399   4.733 -0.7664 -0.3228 -1.2063
 2277SOL    HW218291   2.760   4.268   4.677  0.4304  2.0622 -0.8229
 2278SOL     OW18292   1.474   3.115   5.840  0.0916 -0.2743  0.0177
 2278SOL    HW118293   1.451   3.205   5.862 -0.6473 -0.7952  1.3925
 2278SOL    HW218294   1.410   3.067   5.893 -0.6559 -0.6201 -1.1900
 2279SOL     OW18295   3.165   2.204   3.621  0.5286 -0.1145  0.1343
 2279SOL    HW118296   3.122   2.188   3.705 -0.0639 -1.1589 -0.3655
 2279SOL    HW218297   3.107   2.272   3.588  0.8890  0.4590  0.6676
 2280SOL     OW18298   0.058   4.218   8.636 -0.2085 -0.1949  0.1722
 2280SOL    HW118299   0.079   4.310   8.648 -0.2574 -0.2971  1.0357
 2280SOL    HW218300   0.045   4.179   8.723 -1.7842  0.4277  0.2151
 2281SOL     OW18301   3.774   2.470   3.859  0.3286  0.3902 -0.1721
 2281SOL    HW118302   3.782   2.435   3.948 -0.2177  0.5869 -0.0461
 2281SOL    HW218303   3.850   2.528   3.855 -1.3723  2.6225 -0.1969
 2282SOL     OW18304   3.262   0.402  15.701  0.1409  0.6359 -0.5476
 2282SOL    HW118305   3.186   0.455  15.673 -0.0866  0.2656 -0.6313
 2282SOL    HW218306   3.223   0.316  15.715  1.3213 -0.0624 -1.5071
 2283SOL     OW18307   4.564   3.147   3.296  0.1245 -0.2034 -0.2100
 2283SOL    HW118308   4.657   3.125   3.291  0.0300 -0.1481 -2.0297
 2283SOL    HW218309   4.558   3.213   3.365  1.1903  0.0946 -0.4104
 2284SOL     OW18310   3.686   0.282   5.225  0.8038 -0.5355 -0.0176
 2284SOL    HW118311   3.769   0.245   5.197  2.4326  1.7185  1.8441
 2284SOL    HW218312   3.632   0.204   5.216 -1.5215  0.9581  0.9384
 2285SOL     OW18313   1.447   2.759   6.237  0.5138 -0.5749 -0.2615
 2285SOL    HW118314   1.418   2.745   6.327 -0.0676 -0.9363 -0.5041
 2285SOL    HW218315   1.496   2.684   6.205  0.4006 -0.2175 -1.2881
 2286SOL     OW18316   4.085   1.415   1.977 -0.1877 -0.7488 -0.6593
 2286SOL    HW118317   4.112   1.352   1.910  2.9715  0.3974 -0.4983
 2286SOL    HW218318   4.064   1.493   1.926  0.6236  0.9528  1.6074
 2287SOL     OW18319   3.025   0.668   7.908  0.6668  0.4846 -0.0956
 2287SOL    HW118320   3.120   0.684   7.902  0.3347  2.0615 -1.0043
 2287SOL    HW218321   2.995   0.755   7.934  1.4550  1.3218 -2.0096
 2288SOL     OW18322   2.270   2.805  11.329  0.0330  0.0769 -0.3719
 2288SOL    HW118323   2.264   2.855  11.248 -1.9839  1.1587  0.4526
 2288SOL    HW218324   2.261   2.715  11.297 -0.8695  0.6525 -1.7602
 2289SOL     OW18325   2.092   1.995   4.754 -0.9357  0.2185 -0.4787
 2289SOL    HW118326   2.043   1.949   4.686 -0.7496 -1.6913  0.6911
 2289SOL    HW218327   2.132   2.067   4.705 -0.2788  1.1514  1.4248
 2290SOL     OW18328   1.587   2.730   2.842  0.1216  0.1528 -0.1699
 2290SOL    HW118329   1.599   2.636   2.851  0.0766  0.2227  0.6105
 2290SOL    HW218330   1.635   2.752   2.762  1.0205  0.1120  0.3552
 2291SOL     OW18331   0.657   0.523   3.888  0.1113 -0.1358 -0.1839
 2291SOL    HW118332   0.565   0.539   3.910 -0.0541  0.4451 -1.2995
 2291SOL    HW218333   0.670   0.596   3.828 -1.9962  1.7161  1.5674
 2292SOL     OW18334   1.965   1.332   3.177 -0.9834  0.3264  0.9768
 2292SOL    HW118335   2.055   1.364   3.163 -1.8235  1.2993 -2.1464
 2292SOL    HW218336   1.951   1.270   3.106  1.9418 -1.1253  1.6555
 2293SOL     OW18337   3.677   0.955   7.995  0.0903  0.2797 -0.3298
 2293SOL    HW118338   3.740   0.977   8.063 -1.8312  0.8715  1.2855
 2293SOL    HW218339   3.689   0.861   7.987 -0.8261  0.1985 -0.8039
 2294SOL     OW18340   0.547   4.460  17.588 -0.2242 -0.0077 -0.6985
 2294SOL    HW118341   0.473   4.515  17.613  0.2574  0.2665  0.1246
 2294SOL    HW218342   0.587   4.448  17.674  1.4540  0.0051 -1.4793
 2295SOL     OW18343   2.584   0.472   8.371  0.0313  0.2060 -0.1084
 2295SOL    HW118344   2.524   0.512   8.433 -0.3748 -1.0533  0.2969
 2295SOL    HW218345   2.659   0.475   8.430  0.9226  1.6371 -1.3073
 2296SOL     OW18346   1.475   3.549   3.651 -0.4734  0.0175 -0.4039
 2296SOL    HW118347   1.423   3.544   3.571  0.2161 -0.1863 -0.8368
 2296SOL    HW218348   1.564   3.530   3.623 -0.4975 -1.3691  0.4877
 2297SOL     OW18349   3.940   1.043  13.374 -0.3579 -0.1214 -0.1383
 2297SOL    HW118350   3.961   0.953  13.349  1.0723 -0.4695  2.2470
 2297SOL    HW218351   3.909   1.089  13.296 -0.5623 -0.3750 -0.2072
 2298SOL     OW18352   1.937   3.692  14.150  0.5083 -0.4378 -0.0219
 2298SOL    HW118353   1.916   3.729  14.064  0.4187 -2.6039 -0.9462
 2298SOL    HW218354   1.874   3.721  14.216 -0.9983 -2.2885 -0.6501
 2299SOL     OW18355   2.461   2.805  11.551 -0.3088  0.2051 -0.3325
 2299SOL    HW118356   2.418   2.811  11.465 -0.8085 -1.0854 -0.1795
 2299SOL    HW218357   2.461   2.895  11.583 -2.3066  0.1234 -0.0948
 2300SOL     OW18358   1.568   1.579   1.278  0.2501 -0.0640 -0.1878
 2300SOL    HW118359   1.660   1.594   1.259  0.6017  0.7686  2.2031
 2300SOL    HW218360   1.535   1.667   1.294 -1.9227 -0.5739 -1.7889
 2301SOL     OW18361   2.891   1.412   7.165 -0.3243 -0.1420  0.4611
 2301SOL    HW118362   2.908   1.399   7.259  2.4852  0.1871 -0.0019
 2301SOL    HW218363   2.875   1.320   7.143 -1.8302  0.2599 -0.1010
 2302SOL     OW18364   0.538   1.977  12.947 -0.5197  0.1358 -0.0606
 2302SOL    HW118365   0.558   2.067  12.971  2.4522 -0.3111 -0.8894
 2302SOL    HW218366   0.625   1.945  12.923  0.4329  0.8689  2.3706
 2303SOL     OW18367   1.360   1.250   4.811  0.3954 -0.3186  0.2288
 2303SOL    HW118368   1.434   1.252   4.871  1.4718  0.2633 -1.0992
 2303SOL    HW218369   1.288   1.262   4.873  0.9624 -0.7551  0.9717
 2304SOL     OW18370   0.041   1.245   3.581  0.1184 -0.7110  0.3964
 2304SOL    HW118371   0.059   1.183   3.651 -4.2727 -1.3375  0.9402
 2304SOL    HW218372   0.020   1.329   3.622 -0.2895 -0.6438  0.0551
 2305SOL     OW18373   0.421   4.062  11.167 -0.7167 -0.5867  0.8175
 2305SOL    HW118374   0.349   4.027  11.115  1.7897 -3.9986 -0.3825
 2305SOL    HW218375   0.375   4.110  11.235 -1.3330  1.6637 -1.2057
 2306SOL     OW18376   4.382   4.167  11.952  0.1259  0.3383  0.0577
 2306SOL    HW118377   4.304   4.140  11.904  1.4656 -2.0132 -0.7894
 2306SOL    HW218378   4.354   4.182  12.042 -2.3066  1.5508 -0.8949
 2307SOL     OW18379   2.118   2.764   6.918 -0.0501  0.1800 -0.0077
 2307SOL    HW118380   2.048   2.704   6.892 -1.1796  1.3418  0.3434
 2307SOL    HW218381   2.104   2.764   7.013 -0.8335  0.4447 -0.1213
 2308SOL     OW18382   0.306   1.516   7.404 -0.2036 -0.2019 -0.3318
 2308SOL    HW118383   0.292   1.610   7.420  0.8069 -0.0416 -0.3960
 2308SOL    HW218384   0.226   1.486   7.446  0.2897 -1.5225 -0.3421
 2309SOL     OW18385   3.843   1.213   5.615 -0.1077 -0.3849  0.3056
 2309SOL    HW118386   3.805   1.159   5.685 -0.7593  0.3943  0.5521
 2309SOL    HW218387   3.926   1.165   5.622  0.2745  0.2754  0.2481
 2310SOL     OW18388   4.068   2.260   7.958 -0.4603 -0.3254 -0.7190
 2310SOL    HW118389   4.064   2.272   8.053 -1.4443 -0.9930 -0.6814
 2310SOL    HW218390   4.123   2.183   7.953  1.0022  0.7015 -0.3780
 2311SOL     OW18391   0.908   1.351   3.712  0.3485  0.7319  0.6372
 2311SOL    HW118392   0.913   1.403   3.632  1.4335 -1.0841 -0.4702
 2311SOL    HW218393   0.986   1.297   3.703 -1.3295 -1.0016 -3.3681
 2312SOL     OW18394   1.208   3.775   6.164  0.1887  0.3752  0.2126
 2312SOL    HW118395   1.236   3.686   6.184  1.8438  0.5966 -1.1404
 2312SOL    HW218396   1.284   3.829   6.184 -0.0793 -0.1140  2.5748
 2313SOL     OW18397   4.010   2.090   3.935  0.3111  0.5842  0.6732
 2313SOL    HW118398   4.023   2.148   3.860 -3.5948  0.7469  0.1087
 2313SOL    HW218399   4.098   2.062   3.960 -0.8826 -1.4369  2.5601
 2314SOL     OW18400   2.082   0.206   4.360 -0.2576 -0.3789 -0.2085
 2314SOL    HW118401   2.146   0.266   4.399  0.0864 -0.1937 -1.0709
 2314SOL    HW218402   2.035   0.269   4.307  0.9437 -1.6807 -2.8246
 2315SOL     OW18403   1.827   3.940   8.519 -0.3184 -0.2479  0.2832
 2315SOL    HW118404   1.806   3.943   8.613 -1.5008  0.6390 -0.0106
 2315SOL    HW218405   1.915   3.901   8.513 -0.9116 -1.4986 -0.2715
 2316SOL     OW18406   3.847   4.719   5.326 -0.2374  0.7092  0.1549
 2316SOL    HW118407   3.909   4.715   5.399 -1.9235 -0.8678  1.5022
 2316SOL    HW218408   3.787   0.048   5.378 -0.6482 -0.9962  1.4147
 2317SOL     OW18409   2.418   1.088   1.261 -0.3520  0.4895  0.2846
 2317SOL    HW118410   2.324   1.104   1.267 -0.6164 -1.3899  1.1413
 2317SOL    HW218411   2.443   1.146   1.332  0.4869  0.6089 -0.1056
 2318SOL     OW18412   1.358   3.701  13.042 -0.0990  0.2509  0.2305
 2318SOL    HW118413   1.427   3.638  13.022 -0.5507 -0.1926  0.0722
 2318SOL    HW218414   1.403   3.785  13.050  1.6951 -0.8230  1.7020
 2319SOL     OW18415   2.949   3.749   8.446 -0.5000  0.4944 -0.2363
 2319SOL    HW118416   2.920   3.793   8.366  1.1207  0.4505 -0.8503
 2319SOL    HW218417   2.876   3.763   8.506 -0.2799  1.3210 -0.1674
 2320SOL     OW18418   0.088   2.262  11.636  0.2672  0.5487  0.1267
 2320SOL    HW118419   0.105   2.325  11.566  0.4986  3.1598  2.5102
 2320SOL    HW218420   0.113   2.185  11.586 -0.1483  0.4106  0.1300
 2321SOL     OW18421   2.443   2.615  13.751 -0.4175  0.1533 -0.3576
 2321SOL    HW118422   2.457   2.649  13.662 -0.1274 -0.9572 -0.7274
 2321SOL    HW218423   2.511   2.549  13.762 -0.6248 -0.1765 -1.0546
 2322SOL     OW18424   0.350   2.726   3.643 -0.1653  0.3136 -0.1410
 2322SOL    HW118425   0.326   2.778   3.566 -0.0810  0.0881 -0.3207
 2322SOL    HW218426   0.296   2.648   3.632 -0.0754  0.0300  1.4109
 2323SOL     OW18427   1.813   0.700  10.837 -0.1166 -0.0818 -0.0610
 2323SOL    HW118428   1.803   0.741  10.923  2.1457  1.3795 -0.4768
 2323SOL    HW218429   1.778   0.613  10.857 -1.7137  0.6498  0.3133
 2324SOL     OW18430   2.248   0.236  11.370  0.2094  0.3422  0.1868
 2324SOL    HW118431   2.259   0.299  11.299 -1.7819 -1.6273 -1.8457
 2324SOL    HW218432   2.252   0.160  11.312  0.8307  0.0326  0.6344
 2325SOL     OW18433   3.609   2.797   5.032  0.0871  0.0547  0.0389
 2325SOL    HW118434   3.622   2.888   5.062  2.3632 -0.3938  0.4089
 2325SOL    HW218435   3.662   2.755   5.100  2.1701  2.9017  0.1846
 2326SOL     OW18436   2.487   2.513   6.857  0.4113 -0.3607  0.3819
 2326SOL    HW118437   2.471   2.422   6.882 -1.7524 -0.2247 -0.5751
 2326SOL    HW218438   2.557   2.536   6.919  1.9947  1.0049 -1.9184
 2327SOL     OW18439   4.524   3.046   4.122 -0.1587 -0.0476 -0.8959
 2327SOL    HW118440   4.498   2.973   4.066  3.0590 -1.2126 -0.9200
 2327SOL    HW218441   4.456   3.025   4.186  0.9567  0.7487  0.5730
 2328SOL     OW18442   2.800   1.819   5.271 -0.4204 -0.4250  0.0702
 2328SOL    HW118443   2.882   1.818   5.320 -0.0183  1.4372 -0.5746
 2328SOL    HW218444   2.745   1.861   5.338  0.5020 -0.4364  0.8326
 2329SOL     OW18445   4.039   3.751   1.598  0.1044  0.1346 -0.1158
 2329SOL    HW118446   4.058   3.747   1.692 -1.0139 -0.6661  0.0777
 2329SOL    HW218447   4.102   3.818   1.570 -1.6602  1.3861 -1.1158
 2330SOL     OW18448   1.201   1.384   7.368 -0.0766 -0.0513  0.6920
 2330SOL    HW118449   1.254   1.378   7.447  0.1341 -0.5389  0.5145
 2330SOL    HW218450   1.171   1.474   7.382  0.8825  0.5051 -0.8450
 2331SOL     OW18451   0.120   2.732  13.279  0.8636  0.3134 -0.5325
 2331SOL    HW118452   0.075   2.786  13.343  0.4595 -1.9252  1.0935
 2331SOL    HW218453   0.158   2.804  13.228  0.4604  0.6360 -0.3738
 2332SOL     OW18454   2.815   1.143   5.096 -0.3736 -0.1759 -0.2300
 2332SOL    HW118455   2.828   1.089   5.018  0.0564 -1.0050  0.4077
 2332SOL    HW218456   2.722   1.160   5.086 -0.4416 -0.6376 -0.3735
 2333SOL     OW18457   3.627   0.476   4.331  0.0446  0.5214  0.3699
 2333SOL    HW118458   3.689   0.442   4.397  0.8529 -0.3010 -0.8226
 2333SOL    HW218459   3.674   0.557   4.311 -0.4742  0.8438  0.4495
 2334SOL     OW18460   3.295   0.772   5.758  0.6426 -0.0211 -0.1569
 2334SOL    HW118461   3.239   0.849   5.754  1.2989  0.4952  0.6023
 2334SOL    HW218462   3.355   0.791   5.686  0.2206 -0.4277 -0.6160
 2335SOL     OW18463   0.750   3.888   4.639 -0.0071 -0.3297  0.0070
 2335SOL    HW118464   0.658   3.863   4.633 -0.4265  0.8397  1.4774
 2335SOL    HW218465   0.772   3.881   4.546  2.2841  3.3501  0.2592
 2336SOL     OW18466   3.902   3.952   4.914 -0.2148  0.2001  0.2034
 2336SOL    HW118467   3.880   3.961   5.007 -2.1940  2.7672 -0.5034
 2336SOL    HW218468   3.821   3.984   4.873  0.3090  0.8973 -0.2808
 2337SOL     OW18469   0.631   0.434   4.958 -0.0298  0.9652  0.1393
 2337SOL    HW118470   0.592   0.347   4.970 -1.7769  1.6739 -0.4425
 2337SOL    HW218471   0.656   0.429   4.866  1.4116  1.2476  0.5079
 2338SOL     OW18472   2.356   0.076  15.139 -0.2540 -0.5829 -0.4968
 2338SOL    HW118473   2.338   0.156  15.189 -1.0473 -1.7143  1.0404
 2338SOL    HW218474   2.285   0.080  15.075 -1.0177  1.8793  0.4882
 2339SOL     OW18475   1.327   1.568   3.972  0.0830 -0.7633  0.4235
 2339SOL    HW118476   1.408   1.577   3.922  0.7186  0.1587  1.6188
 2339SOL    HW218477   1.269   1.623   3.919  4.0468  1.4553 -1.5518
 2340SOL     OW18478   4.581   1.290   3.046 -0.0917  0.5410  0.0131
 2340SOL    HW118479   4.660   1.242   3.021 -0.1472 -0.1907  1.2052
 2340SOL    HW218480   4.533   1.283   2.964 -0.3419  0.2184  0.1863
 2341SOL     OW18481   0.822   3.777   3.090 -0.5064  0.4440  0.3187
 2341SOL    HW118482   0.833   3.787   3.184 -1.4564  2.1672  0.2674
 2341SOL    HW218483   0.906   3.745   3.057 -1.6262 -1.5048 -0.6393
 2342SOL     OW18484   1.649   4.656   4.728  0.1594 -0.2449  0.3213
 2342SOL    HW118485   1.599   4.586   4.688 -3.8642  2.9044 -0.2304
 2342SOL    HW218486   1.635   4.721   4.659  1.7527 -0.3561 -0.1001
 2343SOL     OW18487   1.455   0.332   9.870 -0.0680 -0.6209  0.2160
 2343SOL    HW118488   1.444   0.244   9.905 -4.2737  0.5134  1.8322
 2343SOL    HW218489   1.363   0.358   9.871 -0.5237 -2.2627  0.6878
 2344SOL     OW18490   4.553   2.845   3.277 -0.3975  0.2364  0.5743
 2344SOL    HW118491   4.542   2.936   3.251  1.8884  0.3027 -0.2156
 2344SOL    HW218492   4.635   2.831   3.229 -0.5478  0.0021  0.3897
 2345SOL     OW18493   3.164   3.826   4.335 -0.3180 -0.5391 -0.0639
 2345SOL    HW118494   3.227   3.887   4.374 -0.2961  0.6703 -1.9941
 2345SOL    HW218495   3.192   3.815   4.244 -3.8933 -0.8709 -1.1454
 2346SOL     OW18496   3.001   2.053   5.506  0.2967 -0.2111 -0.0639
 2346SOL    HW118497   2.943   2.044   5.581  1.0506  2.0794  0.8051
 2346SOL    HW218498   3.073   2.109   5.535 -1.6296  1.5350  1.3477
 2347SOL     OW18499   0.213   3.964   3.022 -0.1725 -0.2725  0.1657
 2347SOL    HW118500   0.125   3.972   3.060 -0.4994 -0.2291 -0.5767
 2347SOL    HW218501   0.268   3.935   3.094 -0.1797 -2.0509 -0.5352
 2348SOL     OW18502   4.398   0.105  17.179  0.0923  0.3052  0.1955
 2348SOL    HW118503   4.325   0.145  17.226 -1.1882 -1.9921  0.1563
 2348SOL    HW218504   4.451   0.178  17.147 -0.2900  0.2224 -0.6215
 2349SOL     OW18505   0.527   4.665   4.204  0.3418  0.3321  0.2605
 2349SOL    HW118506   0.594   4.688   4.139  1.2086 -0.3761  0.8867
 2349SOL    HW218507   0.563   4.578   4.225 -2.0758 -0.4970  1.0016
 2350SOL     OW18508   3.112   1.648   7.778  0.5746  0.0333 -0.5332
 2350SOL    HW118509   3.156   1.586   7.837  1.3588  0.9317 -0.1736
 2350SOL    HW218510   3.047   1.591   7.737 -0.4900  1.2365 -0.5159
 2351SOL     OW18511   3.351   1.105  16.611  0.0954  0.0821  0.0390
 2351SOL    HW118512   3.304   1.083  16.692 -0.0220  0.8601  0.1781
 2351SOL    HW218513   3.443   1.092  16.634  0.4669  0.2157 -1.3948
 2352SOL     OW18514   2.719   3.722   5.518 -0.1898 -0.1066 -0.5877
 2352SOL    HW118515   2.662   3.794   5.490  0.6457  0.5417 -0.6324
 2352SOL    HW218516   2.803   3.767   5.528 -2.3136  3.3625  1.9089
 2353SOL     OW18517   3.075   4.354   9.427  0.1455 -0.0044  1.0151
 2353SOL    HW118518   3.094   4.401   9.508 -1.1425  2.5503 -0.1677
 2353SOL    HW218519   3.163   4.343   9.393 -0.2149 -1.0334  0.4322
 2354SOL     OW18520   1.966   1.790   4.630  0.2951 -0.6050 -0.1412
 2354SOL    HW118521   1.901   1.800   4.560 -0.8960 -1.5866  0.8313
 2354SOL    HW218522   1.906   1.761   4.698 -0.5755  2.2683  0.3101
 2355SOL     OW18523   2.693   2.822   4.729  0.6222 -0.2653  0.1614
 2355SOL    HW118524   2.622   2.758   4.729 -0.8130  1.3177 -2.3430
 2355SOL    HW218525   2.666   2.877   4.656 -2.2463 -0.6349  0.9446
 2356SOL     OW18526   3.474   3.298   4.706 -0.1821  0.3230 -0.2234
 2356SOL    HW118527   3.397   3.247   4.680 -1.0101  1.0955  0.7043
 2356SOL    HW218528   3.447   3.382   4.667  0.7083  0.3181 -0.8400
 2357SOL     OW18529   0.876   4.091   3.532  0.2514  0.8484  0.7288
 2357SOL    HW118530   0.953   4.089   3.475 -0.7773 -1.1041 -0.5856
 2357SOL    HW218531   0.897   4.165   3.589 -0.0601 -0.0104  1.9617
 2358SOL     OW18532   4.047   0.960  11.740  0.1755  0.9045 -0.4111
 2358SOL    HW118533   4.089   0.939  11.823 -1.2085  1.1585  0.3497
 2358SOL    HW218534   3.960   0.922  11.755 -0.1112  0.7184 -2.5028
 2359SOL     OW18535   1.422   0.745   0.593 -0.3636 -0.3716  0.1544
 2359SOL    HW118536   1.348   0.737   0.654 -0.2401 -1.9873  0.0842
 2359SOL    HW218537   1.437   0.656   0.561  2.7071  0.7664 -1.5416
 2360SOL     OW18538   0.990   2.769   6.608  0.4068 -0.1447 -0.1254
 2360SOL    HW118539   1.030   2.702   6.553 -2.1132 -1.1720 -0.7285
 2360SOL    HW218540   1.046   2.842   6.583 -0.1139 -0.1190 -1.2356
 2361SOL     OW18541   0.691   1.851   7.403 -0.1090 -0.8516  0.0328
 2361SOL    HW118542   0.755   1.921   7.417 -0.5421 -0.6741  1.0888
 2361SOL    HW218543   0.619   1.910   7.422  0.0883 -0.4082 -0.5823
 2362SOL     OW18544   3.261   2.389   5.402  0.6743 -0.5156 -0.0423
 2362SOL    HW118545   3.244   2.475   5.365 -0.7688 -0.6460  0.2905
 2362SOL    HW218546   3.330   2.359   5.344  1.0507  1.0589 -0.3920
 2363SOL     OW18547   3.263   0.222  14.459 -0.3876 -0.3196 -0.0227
 2363SOL    HW118548   3.253   0.163  14.384 -0.2377  1.4481 -1.4541
 2363SOL    HW218549   3.320   0.163  14.508 -2.0196 -1.0010  1.0361
 2364SOL     OW18550   0.108   1.639   6.191  0.7052  0.2864  0.0519
 2364SOL    HW118551   0.127   1.553   6.227 -0.6602  0.0724  0.2917
 2364SOL    HW218552   0.015   1.623   6.172  0.4902  1.6102 -0.0691
 2365SOL     OW18553   3.155   0.257   8.530  0.7905 -0.0136  0.3222
 2365SOL    HW118554   3.192   0.178   8.489  1.3359 -0.0652  0.9140
 2365SOL    HW218555   3.158   0.319   8.457 -2.6941  1.4147  1.3998
 2366SOL     OW18556   4.018   2.400   6.748  0.2358 -0.0093 -0.8575
 2366SOL    HW118557   3.930   2.432   6.728 -0.3823  0.1408  2.0523
 2366SOL    HW218558   4.008   2.309   6.720  0.2485  0.1741 -1.4554
 2367SOL     OW18559   3.062   4.154   7.534  0.1195 -0.8562 -0.4318
 2367SOL    HW118560   2.999   4.192   7.595  1.9079  0.8698  0.3547
 2367SOL    HW218561   3.134   4.136   7.595 -0.2517  4.2850  1.5577
 2368SOL     OW18562   1.101   4.149   2.168 -0.2193  0.2268 -0.4738
 2368SOL    HW118563   1.052   4.092   2.109  0.8208 -2.1098  0.9227
 2368SOL    HW218564   1.190   4.149   2.133 -0.5166 -2.2030 -1.2609
 2369SOL     OW18565   1.900   2.711   2.892  0.4762 -0.0553  0.5729
 2369SOL    HW118566   1.864   2.712   2.803  2.2348  1.1816 -0.1342
 2369SOL    HW218567   1.928   2.802   2.905 -1.2205  0.6057 -0.2652
 2370SOL     OW18568   1.583   2.369   4.066 -0.0906  1.1467 -0.3474
 2370SOL    HW118569   1.663   2.380   4.117  0.5575  0.4013 -1.1950
 2370SOL    HW218570   1.562   2.279   4.092 -2.4077  2.2588  1.6362
 2371SOL     OW18571   2.824   4.275  10.553  0.0083 -0.0021  0.5662
 2371SOL    HW118572   2.914   4.278  10.518 -1.2655  2.5269 -2.6037
 2371SOL    HW218573   2.795   4.201  10.501  0.4336  1.0983 -1.2671
 2372SOL     OW18574   1.058   0.196  10.067  0.1119  0.1661  0.4499
 2372SOL    HW118575   1.087   0.265  10.127  0.6925  0.1128  0.2388
 2372SOL    HW218576   0.986   0.234  10.016 -1.0366 -1.5376  0.8087
 2373SOL     OW18577   4.692   2.429   1.420  1.1383 -0.0545  0.4705
 2373SOL    HW118578   4.632   2.473   1.480  0.8043  1.3428 -0.8889
 2373SOL    HW218579   0.045   2.411   1.474  2.2439 -2.0718 -1.7727
 2374SOL     OW18580   2.740   0.167   5.264 -0.5027 -0.5490  0.0203
 2374SOL    HW118581   2.710   0.235   5.203  0.5476  0.0856  0.1997
 2374SOL    HW218582   2.685   0.092   5.244 -1.2048  0.1998 -0.8749
 2375SOL     OW18583   2.236   1.179   7.759  0.3018 -0.1619  0.0653
 2375SOL    HW118584   2.260   1.176   7.852 -1.1395  0.1858  0.4486
 2375SOL    HW218585   2.279   1.101   7.725  0.4831 -0.1513  0.2722
 2376SOL     OW18586   0.049   0.134   7.440  0.2673  0.3565 -0.5179
 2376SOL    HW118587   0.108   0.151   7.366  0.2433  0.4215 -0.5221
 2376SOL    HW218588   0.106   0.153   7.515  0.1639  1.0291 -0.6121
 2377SOL     OW18589   2.166   0.853   7.981 -0.2073  0.1750 -0.2701
 2377SOL    HW118590   2.133   0.799   7.909 -2.5540  1.4157 -0.1271
 2377SOL    HW218591   2.251   0.817   8.007 -1.6896 -2.0975  1.4418
 2378SOL     OW18592   0.738   1.135   8.169  0.0596  0.3205  0.3290
 2378SOL    HW118593   0.813   1.096   8.124  0.5715 -0.4932  1.8859
 2378SOL    HW218594   0.683   1.160   8.095 -1.2664  0.5316  1.3845
 2379SOL     OW18595   1.776   4.405  12.588  0.0579 -0.0488 -0.8085
 2379SOL    HW118596   1.737   4.327  12.549 -0.5354  0.8658 -2.0394
 2379SOL    HW218597   1.713   4.477  12.580 -0.5206 -0.2538  1.6334
 2380SOL     OW18598   3.027   1.153  13.587 -0.7294  0.2814 -0.4662
 2380SOL    HW118599   2.975   1.217  13.635 -0.1003  0.7497 -0.4153
 2380SOL    HW218600   2.997   1.072  13.629  3.9916 -1.5551 -0.6030
 2381SOL     OW18601   0.290   2.165   5.931  0.4768  0.0819  0.6222
 2381SOL    HW118602   0.349   2.093   5.910 -1.3874 -0.9116 -1.2546
 2381SOL    HW218603   0.354   2.215   5.981  0.8967 -0.2168  0.3836
 2382SOL     OW18604   0.864   2.066  13.592 -0.8595  0.2019 -0.1541
 2382SOL    HW118605   0.929   2.133  13.610 -1.0218 -0.0459  1.3542
 2382SOL    HW218606   0.922   1.993  13.570 -1.3267  0.0454 -0.8979
 2383SOL     OW18607   2.227   0.234  16.433 -0.2759  0.1389 -0.1455
 2383SOL    HW118608   2.299   0.171  16.428 -0.4346  0.1451 -2.3798
 2383SOL    HW218609   2.231   0.262  16.525  0.8421  1.4566 -0.5910
 2384SOL     OW18610   0.003   2.952  16.666 -0.5394 -0.6222  0.0755
 2384SOL    HW118611   4.681   2.884  16.617  2.5176 -2.8589  0.3246
 2384SOL    HW218612   0.044   2.999  16.593  1.1178 -0.5340  1.0634
 2385SOL     OW18613   2.826   1.924   2.803  0.0606  0.1250  0.9002
 2385SOL    HW118614   2.841   1.885   2.717 -2.7917 -1.1829  0.9943
 2385SOL    HW218615   2.759   1.990   2.786  0.5172  0.0239 -1.3431
 2386SOL     OW18616   2.288   1.813   4.843 -0.4612  0.5065 -0.3105
 2386SOL    HW118617   2.367   1.867   4.851 -1.6064  2.0295  0.6924
 2386SOL    HW218618   2.217   1.870   4.813 -1.1507 -0.9400 -1.4162
 2387SOL     OW18619   3.011   1.536   6.677 -0.2784  0.3833  0.4034
 2387SOL    HW118620   3.037   1.561   6.765  0.2256  0.4062  0.2505
 2387SOL    HW218621   2.917   1.525   6.688 -0.4417  1.2583 -0.0780
 2388SOL     OW18622   2.757   1.380   3.143  0.1240  0.0434 -0.0109
 2388SOL    HW118623   2.714   1.428   3.072 -0.2188  0.8548  0.7407
 2388SOL    HW218624   2.684   1.349   3.197  0.5373 -1.4606 -0.3214
 2389SOL     OW18625   2.881   3.139   8.026  0.1745 -0.3319  0.3119
 2389SOL    HW118626   2.973   3.114   8.038  0.2606  0.1437  0.6433
 2389SOL    HW218627   2.876   3.192   8.105 -1.7339  0.9301 -0.6924
 2390SOL     OW18628   3.454   1.951   5.422 -0.5654 -0.2234  0.0370
 2390SOL    HW118629   3.359   1.936   5.419 -0.5324 -0.0278 -1.9360
 2390SOL    HW218630   3.482   1.903   5.345 -0.2051 -0.0550  0.0621
 2391SOL     OW18631   2.727   4.267   1.944 -0.1214 -0.4829 -0.0743
 2391SOL    HW118632   2.671   4.208   1.994  0.4316  0.0144  1.1348
 2391SOL    HW218633   2.704   4.352   1.983 -0.4868 -0.5260 -0.1971
 2392SOL     OW18634   4.119   4.378  16.920 -0.2897 -0.0902  0.3741
 2392SOL    HW118635   4.212   4.357  16.907 -0.5757  0.2715 -2.2603
 2392SOL    HW218636   4.093   4.332  16.840  2.5217 -0.5384 -0.2879
 2393SOL     OW18637   4.168   3.815   3.020 -0.5491 -0.2916 -0.1209
 2393SOL    HW118638   4.224   3.741   2.995  0.5185  0.0261  1.3228
 2393SOL    HW218639   4.226   3.890   3.009 -0.0195 -0.4703  1.4351
 2394SOL     OW18640   2.589   1.920   8.326  0.0470  0.1694 -0.1704
 2394SOL    HW118641   2.655   1.953   8.386  0.4696 -0.5271 -0.2514
 2394SOL    HW218642   2.643   1.872   8.263 -0.9335  2.0221 -2.4411
 2395SOL     OW18643   2.947   3.773   6.581 -0.2282 -0.2344  0.5750
 2395SOL    HW118644   3.002   3.695   6.584  1.3827  0.8100 -0.9824
 2395SOL    HW218645   2.984   3.826   6.651 -0.8193 -0.8411  1.3436
 2396SOL     OW18646   4.179   3.661   7.136 -0.1545  0.1170 -0.2627
 2396SOL    HW118647   4.268   3.697   7.132 -0.6764  1.5482  0.9589
 2396SOL    HW218648   4.119   3.735   7.133 -0.2426  0.1214  2.0168
 2397SOL     OW18649   2.065   3.751   8.218 -0.7804 -0.2317  0.2057
 2397SOL    HW118650   2.145   3.710   8.249  0.1538  1.2187 -0.2723
 2397SOL    HW218651   2.008   3.680   8.246 -1.6228  0.7836  1.0581
 2398SOL     OW18652   1.527   3.619  17.141  0.1826  0.0775  0.6726
 2398SOL    HW118653   1.461   3.627  17.072 -1.5962  0.6799  2.4703
 2398SOL    HW218654   1.553   3.528  17.128 -0.2667  0.0799 -0.2887
 2399SOL     OW18655   4.233   0.206   9.028 -0.2295 -0.1859  0.0082
 2399SOL    HW118656   4.210   0.298   9.016  0.2856 -0.2463 -1.4069
 2399SOL    HW218657   4.175   0.193   9.103  2.4952 -4.8324  1.3055
 2400SOL     OW18658   1.768   1.171   2.332 -0.0199 -0.6911  0.1244
 2400SOL    HW118659   1.735   1.215   2.253  0.5290 -0.5446 -0.0219
 2400SOL    HW218660   1.837   1.125   2.285  1.2828 -0.1167  1.4847
 2401SOL     OW18661   0.541   0.695   6.858  0.3420  0.7775  0.0698
 2401SOL    HW118662   0.609   0.730   6.916 -0.2819  0.7146  0.8250
 2401SOL    HW218663   0.513   0.628   6.919  2.1760  0.7108  0.8392
 2402SOL     OW18664   3.952   1.208  16.272 -0.6834 -0.2528  0.4941
 2402SOL    HW118665   3.869   1.255  16.287  0.1319  2.1388 -2.5796
 2402SOL    HW218666   3.919   1.123  16.300  0.5099 -0.7562  0.3713
 2403SOL     OW18667   4.010   3.463   7.096 -0.2123  0.4472 -0.1346
 2403SOL    HW118668   4.036   3.416   7.176 -1.3981 -2.5932 -1.5325
 2403SOL    HW218669   4.077   3.531   7.098  1.1613 -0.9637  1.4645
 2404SOL     OW18670   1.621   4.425  12.970  0.0618  0.4711  0.2928
 2404SOL    HW118671   1.584   4.369  12.902  1.1428  1.6778 -1.2687
 2404SOL    HW218672   1.686   4.468  12.915  1.1639  1.0009  1.9967
 2405SOL     OW18673   1.605   1.555   5.719 -0.1203  0.2469 -0.1503
 2405SOL    HW118674   1.548   1.504   5.660  1.2614  0.3225 -1.5366
 2405SOL    HW218675   1.592   1.504   5.799 -1.8595 -0.4676 -0.8733
 2406SOL     OW18676   3.065   4.270   9.124  0.3640 -0.2471  0.3585
 2406SOL    HW118677   3.123   4.207   9.082  0.0801 -0.2265 -0.0526
 2406SOL    HW218678   3.125   4.298   9.193  0.6331 -0.7049  0.3075
 2407SOL     OW18679   3.506   1.508   7.324  0.2254  0.5086  0.5225
 2407SOL    HW118680   3.485   1.588   7.276 -0.3916 -0.2756 -0.5024
 2407SOL    HW218681   3.597   1.526   7.349 -0.2884  1.9858  1.3557
 2408SOL     OW18682   1.461   0.027   2.369 -0.3982 -0.1530 -0.2159
 2408SOL    HW118683   1.443   4.670   2.417 -0.3835 -0.8836 -1.4325
 2408SOL    HW218684   1.413   0.091   2.421 -1.8691 -0.5628 -1.0721
 2409SOL     OW18685   3.667   0.213  14.776 -0.4435  0.3189 -0.5840
 2409SOL    HW118686   3.707   0.161  14.847 -1.4758  0.0572 -0.1914
 2409SOL    HW218687   3.645   0.295  14.821 -0.1898 -0.1967  0.4971
 2410SOL     OW18688   1.375   0.167   5.129  0.0103  0.2655  0.3241
 2410SOL    HW118689   1.333   0.205   5.206  2.7499  1.6296  1.1358
 2410SOL    HW218690   1.317   0.092   5.117  0.5264  0.3837 -2.8384
 2411SOL     OW18691   4.599   1.090   3.428  0.1874 -0.1191 -0.1349
 2411SOL    HW118692   4.615   1.138   3.347  4.5054 -0.5819  0.4444
 2411SOL    HW218693   4.673   1.121   3.480 -0.2005 -0.3819  0.5771
 2412SOL     OW18694   2.827   4.528   3.325 -0.0845 -0.4911 -0.3224
 2412SOL    HW118695   2.853   4.526   3.417  3.1531  0.0669 -1.2449
 2412SOL    HW218696   2.758   4.595   3.327  0.2479 -0.0746 -2.8398
 2413SOL     OW18697   1.958   1.319  14.661 -0.3661 -0.3522 -0.6185
 2413SOL    HW118698   1.900   1.258  14.707 -1.0215  0.8589  0.1886
 2413SOL    HW218699   1.916   1.404  14.676  1.9067  0.7047 -0.2189
 2414SOL     OW18700   3.432   3.103   4.919  0.3820 -0.1773  0.4932
 2414SOL    HW118701   3.461   3.165   4.852 -1.0420  0.2637  0.2900
 2414SOL    HW218702   3.452   3.156   4.996 -1.0388  2.2630 -0.8098
 2415SOL     OW18703   4.712   2.622   5.262  0.1393  0.6127 -0.4579
 2415SOL    HW118704   4.681   2.709   5.238 -0.0180  0.4246 -0.9318
 2415SOL    HW218705   0.071   2.647   5.302  0.1680 -1.0492  0.5185
 2416SOL     OW18706   4.313   2.439   3.080 -0.7086 -0.1387  0.7274
 2416SOL    HW118707   4.370   2.415   3.007 -0.2938  1.4192  0.5322
 2416SOL    HW218708   4.230   2.445   3.031 -2.7514  1.4235  4.3866
 2417SOL     OW18709   4.074   2.018   3.213 -0.0440  0.6648 -0.2607
 2417SOL    HW118710   4.046   2.108   3.197 -2.6817 -0.3830 -1.6232
 2417SOL    HW218711   4.084   1.997   3.120  0.7042  1.6010 -0.3913
 2418SOL     OW18712   2.286   0.030   9.668 -0.2519 -0.1202  0.2242
 2418SOL    HW118713   2.277   4.664   9.637 -0.9301 -0.3710  1.1341
 2418SOL    HW218714   2.262   0.036   9.760  3.2351  1.2805  1.0209
 2419SOL     OW18715   3.281   0.514   4.800 -0.3047  0.0892 -0.0273
 2419SOL    HW118716   3.363   0.563   4.791 -0.1989 -0.2063 -0.7008
 2419SOL    HW218717   3.220   0.581   4.768  2.4829  1.9839 -1.3590
 2420SOL     OW18718   0.937   2.345   4.617  0.2121 -0.1722  0.5903
 2420SOL    HW118719   0.874   2.385   4.678  0.4275 -0.5827  1.0784
 2420SOL    HW218720   0.884   2.358   4.538  0.4817 -0.8856  0.2944
 2421SOL     OW18721   1.524   1.104  15.445 -0.0055  0.1618  0.3780
 2421SOL    HW118722   1.556   1.024  15.487  1.1921 -0.5813 -1.9950
 2421SOL    HW218723   1.578   1.114  15.367  0.4953  0.7433  0.7977
 2422SOL     OW18724   1.919   1.679   2.355 -0.4702  0.3042  0.3509
 2422SOL    HW118725   2.014   1.682   2.344 -0.8502 -0.0380 -2.9881
 2422SOL    HW218726   1.918   1.593   2.397 -1.6653  0.8163  1.3696
 2423SOL     OW18727   3.814   3.686   4.039 -0.3482  0.2391  0.1905
 2423SOL    HW118728   3.766   3.665   3.958  0.9127  2.7892 -1.2296
 2423SOL    HW218729   3.833   3.780   4.031 -0.2763  0.2948  1.0195
 2424SOL     OW18730   3.607   3.407   2.747  0.1024 -0.3072 -0.5861
 2424SOL    HW118731   3.669   3.336   2.736 -1.1025 -1.2628 -1.1872
 2424SOL    HW218732   3.537   3.367   2.799 -1.0267  0.3240 -1.6127
 2425SOL     OW18733   1.545   3.216  15.098  0.3877  0.2297 -0.5569
 2425SOL    HW118734   1.556   3.276  15.171 -1.4325 -1.6164  1.2353
 2425SOL    HW218735   1.638   3.208  15.075  1.0895  0.1699  2.2244
 2426SOL     OW18736   0.828   3.912   3.709 -0.3252 -0.0252  0.0856
 2426SOL    HW118737   0.822   3.980   3.642 -0.7069  1.3867  1.5616
 2426SOL    HW218738   0.882   3.962   3.771 -1.1728  0.2879  0.5603
 2427SOL     OW18739   0.797   2.615  10.992  0.6908 -0.0349  0.0462
 2427SOL    HW118740   0.815   2.541  10.934 -1.5959 -0.1221 -0.5780
 2427SOL    HW218741   0.778   2.569  11.073  0.7727 -1.1822 -0.5877
 2428SOL     OW18742   1.435   2.322   7.624 -0.6097  0.2540 -0.4342
 2428SOL    HW118743   1.494   2.254   7.657 -2.7491 -1.9689 -1.1687
 2428SOL    HW218744   1.398   2.349   7.708 -0.0889 -0.5941  0.0647
 2429SOL     OW18745   2.851   1.042   3.524  0.1616 -0.2766  0.3921
 2429SOL    HW118746   2.885   1.006   3.442  0.0148 -1.6541  0.9395
 2429SOL    HW218747   2.791   0.971   3.547 -1.2723 -0.3560 -3.7075
 2430SOL     OW18748   4.146   1.657   4.914 -1.0163  0.4509 -0.1390
 2430SOL    HW118749   4.062   1.700   4.931  0.2990  3.9245 -2.4998
 2430SOL    HW218750   4.209   1.724   4.940 -1.2980 -0.3987  2.7731
 2431SOL     OW18751   4.641   3.119   6.048  0.1264 -0.0966 -0.0981
 2431SOL    HW118752   4.719   3.163   6.013  1.7305 -1.6848  1.4911
 2431SOL    HW218753   4.671   3.031   6.068  0.5166  0.4630  1.8233
 2432SOL     OW18754   0.658   3.821   5.051  0.4194  0.0462  0.2828
 2432SOL    HW118755   0.677   3.732   5.021  0.8190  0.6762 -1.3434
 2432SOL    HW218756   0.720   3.876   5.003 -1.0429  1.0691 -0.4408
 2433SOL     OW18757   3.427   2.448   7.092 -0.1794  0.7403  0.1292
 2433SOL    HW118758   3.456   2.479   7.178  0.1961 -0.0860  0.3056
 2433SOL    HW218759   3.504   2.409   7.050 -0.5121  0.5017 -0.2515
 2434SOL     OW18760   4.638   2.805   5.714 -0.5625  0.4934 -0.1884
 2434SOL    HW118761   4.649   2.721   5.668  1.6650  0.5612  0.2360
 2434SOL    HW218762   4.652   2.871   5.646  1.4198 -1.4265 -1.6883
 2435SOL     OW18763   2.331   0.427   5.664  0.3554 -0.1857 -0.5307
 2435SOL    HW118764   2.249   0.387   5.635 -1.0580  1.9470  0.5974
 2435SOL    HW218765   2.355   0.467   5.581 -1.0506  2.6489  0.4619
 2436SOL     OW18766   2.141   1.397   3.442  0.0536 -0.1972 -0.3899
 2436SOL    HW118767   2.124   1.491   3.452 -0.1931 -0.5486  2.6473
 2436SOL    HW218768   2.061   1.366   3.400  0.4887 -3.3397  1.1096
 2437SOL     OW18769   1.628   2.383   9.289  0.0922  0.0317 -0.0420
 2437SOL    HW118770   1.705   2.438   9.275 -0.2710  0.2792 -1.0343
 2437SOL    HW218771   1.602   2.421   9.372 -1.8687 -0.4171 -0.4521
 2438SOL     OW18772   0.722   1.028   1.314  0.1189  0.4860 -0.2329
 2438SOL    HW118773   0.801   1.059   1.270 -0.7497  1.3725 -1.1818
 2438SOL    HW218774   0.667   1.104   1.333 -1.1453 -1.3221  3.3558
 2439SOL     OW18775   4.427   3.330  14.256  0.2842  0.2180  0.3489
 2439SOL    HW118776   4.393   3.385  14.186  1.5301  3.7072  2.4703
 2439SOL    HW218777   4.521   3.346  14.264 -0.0899  4.3039 -3.4848
 2440SOL     OW18778   2.612   0.784   7.507  0.2824  0.5478 -0.5620
 2440SOL    HW118779   2.652   0.744   7.585  3.7142  0.7338 -2.2376
 2440SOL    HW218780   2.523   0.749   7.517 -0.4368  2.2215 -1.1298
 2441SOL     OW18781   2.040   4.644   8.697  0.4568  0.6727 -0.7626
 2441SOL    HW118782   2.129   4.614   8.715 -0.7716 -2.3208  0.1246
 2441SOL    HW218783   2.054   4.692   8.615  1.4518  2.4738  0.4580
 2442SOL     OW18784   4.469   1.242   1.805 -0.0796  0.5942  0.1617
 2442SOL    HW118785   4.434   1.181   1.740 -0.8185 -0.6045  1.7027
 2442SOL    HW218786   4.531   1.293   1.752 -0.6660  1.5070  0.3677
 2443SOL     OW18787   2.698   1.592   2.565  0.3032 -0.3784 -0.6534
 2443SOL    HW118788   2.629   1.616   2.503  0.9408  2.0391 -0.4028
 2443SOL    HW218789   2.663   1.508   2.594  1.9396 -0.9343 -0.3004
 2444SOL     OW18790   2.229   4.293   8.956 -0.5178 -0.6395 -0.4065
 2444SOL    HW118791   2.324   4.303   8.958 -0.4101 -1.3441 -1.8769
 2444SOL    HW218792   2.224   4.197   8.957  2.7810 -0.8436 -1.5731
 2445SOL     OW18793   0.855   2.532   0.907 -0.0711  0.0835 -0.6605
 2445SOL    HW118794   0.841   2.465   0.840 -0.9212 -0.6316  0.2246
 2445SOL    HW218795   0.860   2.472   0.981  0.1383  1.1478  0.1979
 2446SOL     OW18796   2.117   1.657   1.964 -0.1151 -0.4556 -0.5766
 2446SOL    HW118797   2.206   1.640   1.995 -0.0687  0.8154  0.0159
 2446SOL    HW218798   2.093   1.740   2.006 -0.0109 -1.2751  1.1042
 2447SOL     OW18799   3.097   2.353   4.839  0.3786  0.3082  0.0496
 2447SOL    HW118800   3.051   2.412   4.899  0.5932  1.2385 -0.7125
 2447SOL    HW218801   3.178   2.402   4.825  0.0693  1.1818  1.3533
 2448SOL     OW18802   0.802   1.112  11.108 -0.4534 -0.0926  0.2022
 2448SOL    HW118803   0.749   1.037  11.133  1.8973 -2.2337 -1.3335
 2448SOL    HW218804   0.736   1.174  11.140  0.6510  1.3481 -0.2871
 2449SOL     OW18805   3.478   2.788   1.671  0.0408 -0.0828  0.1072
 2449SOL    HW118806   3.529   2.869   1.670  0.6722 -0.4808 -1.0891
 2449SOL    HW218807   3.443   2.794   1.582  1.0568 -1.9465 -0.4305
 2450SOL     OW18808   1.727   1.342   5.370 -0.0668 -0.5579 -0.1883
 2450SOL    HW118809   1.783   1.398   5.317 -0.1636  0.0657  0.3730
 2450SOL    HW218810   1.784   1.328   5.446  1.9999  0.6358 -1.5392
 2451SOL     OW18811   1.720   1.482   4.530 -0.1531  0.0895 -0.2065
 2451SOL    HW118812   1.628   1.479   4.504 -0.3251  2.3449  0.1995
 2451SOL    HW218813   1.754   1.409   4.477  2.5742  1.1943  0.0249
 2452SOL     OW18814   2.979   4.065  16.819 -0.0251 -0.4203 -0.6860
 2452SOL    HW118815   2.991   4.159  16.810  1.0456 -0.2721  2.2394
 2452SOL    HW218816   3.069   4.037  16.834  0.4207  1.2743 -0.2591
 2453SOL     OW18817   2.149   1.687   6.965 -0.2339  0.1113 -0.4417
 2453SOL    HW118818   2.224   1.745   6.978  0.7867 -1.0749 -1.0800
 2453SOL    HW218819   2.195   1.609   6.936 -2.4737 -1.0844 -0.7844
 2454SOL     OW18820   0.818   0.578   6.231  0.0830 -0.5454 -0.3496
 2454SOL    HW118821   0.756   0.505   6.225  1.6406 -1.6283 -3.4785
 2454SOL    HW218822   0.887   0.553   6.170  2.6160  0.7604  1.9718
 2455SOL     OW18823   2.405   4.676  10.503  0.7860  0.0586 -0.1059
 2455SOL    HW118824   2.482   4.620  10.515 -0.7597 -2.1659 -0.6047
 2455SOL    HW218825   2.335   4.612  10.506  1.8255 -1.0270  1.6322
 2456SOL     OW18826   3.601   1.391   9.493 -0.4792  0.5224  0.6224
 2456SOL    HW118827   3.524   1.369   9.546 -0.6646  0.4819  0.3358
 2456SOL    HW218828   3.565   1.421   9.410  0.7526  1.9932  0.6183
 2457SOL     OW18829   3.974   3.774   2.807  0.3068 -0.1026 -0.1149
 2457SOL    HW118830   4.027   3.774   2.887  0.1325  2.3198  0.0042
 2457SOL    HW218831   3.975   3.683   2.779  0.7051 -0.4241  0.9183
 2458SOL     OW18832   0.401   3.552  16.303 -0.4028 -0.1404  1.0081
 2458SOL    HW118833   0.312   3.537  16.272 -0.0109 -1.2553  0.4150
 2458SOL    HW218834   0.455   3.547  16.223 -0.5252  0.9541  0.8582
 2459SOL     OW18835   2.217   1.351   1.959  0.0198  0.1918  0.5244
 2459SOL    HW118836   2.143   1.298   1.930  1.4942 -0.8273 -1.3039
 2459SOL    HW218837   2.210   1.350   2.055  0.5016  5.3017  0.6174
 2460SOL     OW18838   0.793   4.204   4.295  0.0686  0.4167  0.2832
 2460SOL    HW118839   0.882   4.219   4.326  0.3874 -1.6069  0.3566
 2460SOL    HW218840   0.741   4.191   4.374 -1.0735 -0.6064 -0.6307
 2461SOL     OW18841   3.855   4.166   7.224  0.0076 -0.0032 -0.0089
 2461SOL    HW118842   3.914   4.091   7.214 -1.8385 -1.7476  2.3781
 2461SOL    HW218843   3.774   4.121   7.245  0.9057 -1.6647 -0.0793
 2462SOL     OW18844   4.014   2.909  12.578  0.7290  0.4081  0.2379
 2462SOL    HW118845   4.025   2.815  12.588  2.7915  0.5695 -0.5481
 2462SOL    HW218846   4.066   2.924  12.500 -1.4138 -1.1792 -1.5090
 2463SOL     OW18847   3.703   2.684   6.472  0.0780  0.4742  0.1642
 2463SOL    HW118848   3.738   2.639   6.395  0.1391  0.7294  0.0431
 2463SOL    HW218849   3.772   2.750   6.481  1.9588 -1.2885 -1.3567
 2464SOL     OW18850   3.171   2.629   8.736 -0.5126 -0.1057 -0.2002
 2464SOL    HW118851   3.178   2.548   8.685  1.6571  2.6828 -4.3039
 2464SOL    HW218852   3.248   2.681   8.714 -0.6266  0.6309  1.1861
 2465SOL     OW18853   2.135   2.869   5.710  0.4025  0.2670  0.5649
 2465SOL    HW118854   2.160   2.791   5.660 -0.3916  0.6851 -0.4844
 2465SOL    HW218855   2.043   2.886   5.690 -0.0541 -1.6131  1.0099
 2466SOL     OW18856   1.634   2.373   2.255  0.3095  0.1467  0.0194
 2466SOL    HW118857   1.603   2.423   2.180 -3.7919 -1.1158  0.9018
 2466SOL    HW218858   1.704   2.434   2.281  0.3220 -0.0557  0.4624
 2467SOL     OW18859   1.619   4.454   7.567 -0.3801 -0.5542  0.5304
 2467SOL    HW118860   1.577   4.514   7.628  0.5178 -1.5090  2.0716
 2467SOL    HW218861   1.697   4.436   7.619 -0.1465 -1.6868 -0.2101
 2468SOL     OW18862   1.509   0.604   3.502 -0.4585  0.0905  0.1945
 2468SOL    HW118863   1.603   0.596   3.487 -0.0474  1.4037  2.1386
 2468SOL    HW218864   1.503   0.615   3.597 -2.0985 -0.6294  0.1781
 2469SOL     OW18865   2.846   4.406   7.873  0.5063  0.4638  0.1462
 2469SOL    HW118866   2.835   4.322   7.917  0.6228  1.0446  1.2654
 2469SOL    HW218867   2.930   4.416   7.918 -0.4809 -0.7090  2.2338
 2470SOL     OW18868   1.378   4.621   6.760  0.2278  0.6223  0.0889
 2470SOL    HW118869   1.428   4.664   6.690  1.7925  0.9830  1.4355
 2470SOL    HW218870   1.360   4.536   6.720 -2.3567  0.0761  2.4364
 2471SOL     OW18871   2.948   2.500   3.759 -0.0130 -0.1395 -0.1820
 2471SOL    HW118872   3.011   2.510   3.688 -0.7156  0.0783 -0.7784
 2471SOL    HW218873   2.873   2.467   3.710 -2.4436  0.5394  3.0688
 2472SOL     OW18874   3.624   1.718   7.539  0.3187  0.1547  0.6297
 2472SOL    HW118875   3.543   1.749   7.499  1.1984  0.4344 -0.9259
 2472SOL    HW218876   3.670   1.801   7.538  1.0326 -0.2775 -1.8570
 2473SOL     OW18877   0.931   3.608  12.910 -0.2642  0.4563 -0.0089
 2473SOL    HW118878   0.908   3.559  12.989 -0.8350  2.7339  1.2125
 2473SOL    HW218879   0.933   3.543  12.838 -1.5790 -0.3177  0.6412
 2474SOL     OW18880   1.845   3.568   9.191  0.8221  0.0269  0.5158
 2474SOL    HW118881   1.770   3.521   9.155  0.4795 -0.6078  2.0581
 2474SOL    HW218882   1.859   3.495   9.252  1.4433 -0.4109 -0.1538
 2475SOL     OW18883   2.640   0.658   3.835 -0.3798 -0.2699  0.1304
 2475SOL    HW118884   2.668   0.584   3.781  5.0450  0.9788  1.2500
 2475SOL    HW218885   2.638   0.622   3.924 -1.0788 -1.0484 -0.1941
 2476SOL     OW18886   0.844   3.297   1.992 -0.4791 -0.5441  0.7280
 2476SOL    HW118887   0.831   3.219   1.938  1.7518 -0.5661  0.2154
 2476SOL    HW218888   0.774   3.357   1.966 -0.4172 -0.2941  1.1267
 2477SOL     OW18889   2.126   1.523   3.779 -0.4771  0.1537 -0.1264
 2477SOL    HW118890   2.178   1.503   3.701 -0.8482 -1.1290 -0.0546
 2477SOL    HW218891   2.188   1.506   3.850  0.9469  2.0879 -0.9007
 2478SOL     OW18892   2.364   0.261   8.965 -0.1107 -0.0352 -0.0899
 2478SOL    HW118893   2.455   0.250   8.992  0.7145  1.1129 -2.4324
 2478SOL    HW218894   2.317   0.206   9.028 -1.0956  0.7137 -0.1704
 2479SOL     OW18895   4.114   0.050  10.719 -0.0716 -0.2767  0.0756
 2479SOL    HW118896   4.093   0.110  10.790 -0.7845 -0.8056  0.3142
 2479SOL    HW218897   4.044   4.713  10.742 -2.3040  2.3699  0.4035
 2480SOL     OW18898   0.630   2.922   2.565 -0.1842 -0.0867 -0.1392
 2480SOL    HW118899   0.594   2.980   2.498  0.9406 -0.5075 -1.1023
 2480SOL    HW218900   0.713   2.901   2.523 -0.6532  0.0337 -1.1172
 2481SOL     OW18901   2.830   3.712   6.983 -0.4230 -0.5275  0.6623
 2481SOL    HW118902   2.758   3.668   7.026 -0.4785 -1.0155  0.0754
 2481SOL    HW218903   2.811   3.706   6.889  0.0196 -0.4974  0.5706
 2482SOL     OW18904   3.260   1.845   2.935  0.3037 -0.3340  0.5311
 2482SOL    HW118905   3.351   1.817   2.930 -0.5076 -3.2634  2.1781
 2482SOL    HW218906   3.229   1.829   2.846 -0.1750  2.4717  0.1740
 2483SOL     OW18907   4.042   2.647  12.635 -0.9270 -0.3989 -0.4504
 2483SOL    HW118908   3.968   2.622  12.690 -2.8558  3.4129 -1.2759
 2483SOL    HW218909   4.108   2.595  12.678 -0.1941 -0.0249 -1.1132
 2484SOL     OW18910   0.950   0.320   9.657 -0.6802 -0.0191 -0.3515
 2484SOL    HW118911   0.907   0.353   9.578  0.6075 -2.5531 -2.0991
 2484SOL    HW218912   0.949   0.225   9.642  0.7360  0.0066 -0.5922
 2485SOL     OW18913   1.765   0.132  11.254 -0.8661  0.2106 -0.3684
 2485SOL    HW118914   1.713   0.053  11.272  0.8622 -0.4130  1.9146
 2485SOL    HW218915   1.707   0.193  11.300 -0.3620  0.1711  0.3222
 2486SOL     OW18916   0.539   1.567   1.027  0.4999  0.4108  0.0862
 2486SOL    HW118917   0.619   1.573   1.079  0.4604 -0.6573  0.2571
 2486SOL    HW218918   0.577   1.541   0.943  0.3990 -0.3632  0.2850
 2487SOL     OW18919   3.439   3.105   7.199  0.1383 -0.3009 -0.0803
 2487SOL    HW118920   3.509   3.052   7.237 -0.1580  0.1672  1.1097
 2487SOL    HW218921   3.494   3.175   7.164 -0.8741 -0.0652 -1.2065
 2488SOL     OW18922   0.496   2.200   3.849  0.0142  0.2503  0.2471
 2488SOL    HW118923   0.569   2.263   3.849  2.4292 -2.5224  2.0875
 2488SOL    HW218924   0.496   2.170   3.758  1.0490 -1.1016  0.6860
 2489SOL     OW18925   3.636   3.410  11.926 -0.4103  0.0336 -0.0031
 2489SOL    HW118926   3.656   3.496  11.891  0.8490  0.5305  1.8999
 2489SOL    HW218927   3.654   3.421  12.020  1.4798  0.0133 -0.3486
 2490SOL     OW18928   2.509   0.532   6.966  0.1421 -0.2419 -0.3269
 2490SOL    HW118929   2.529   0.625   6.976  0.5177 -0.4735  1.0805
 2490SOL    HW218930   2.525   0.504   7.056 -0.9422  0.7736  0.1866
 2491SOL     OW18931   0.399   1.060   6.996  0.1941  0.3499  0.5029
 2491SOL    HW118932   0.383   1.062   6.902  0.9133  0.4408  0.3756
 2491SOL    HW218933   0.493   1.079   7.000 -0.8595  5.4060  1.5738
 2492SOL     OW18934   0.755   1.514   6.618 -0.0144  0.0636  0.1573
 2492SOL    HW118935   0.753   1.600   6.578  4.3938 -0.2227 -0.6442
 2492SOL    HW218936   0.800   1.539   6.699  0.8226  1.8946 -0.8798
 2493SOL     OW18937   4.091   1.515  10.201 -0.1619 -0.1137  0.0550
 2493SOL    HW118938   4.027   1.483  10.265  1.1003 -2.4372  0.1639
 2493SOL    HW218939   4.067   1.607  10.190  0.3140  0.1919  1.6697
 2494SOL     OW18940   0.680   1.438  16.134 -0.3876  0.0005 -0.0884
 2494SOL    HW118941   0.643   1.386  16.063 -0.7724 -2.1670  1.7080
 2494SOL    HW218942   0.619   1.512  16.126 -0.3173  0.3336  2.3428
 2495SOL     OW18943   0.793   3.547   7.232  0.4012  0.3909 -0.2348
 2495SOL    HW118944   0.811   3.562   7.139  2.5865 -0.3529  0.0739
 2495SOL    HW218945   0.722   3.482   7.236  0.0116  0.9193  1.6095
 2496SOL     OW18946   4.681   0.595  17.525  0.4736 -0.2317  0.0086
 2496SOL    HW118947   4.617   0.662  17.548 -0.0293 -0.3475 -1.0782
 2496SOL    HW218948   0.015   0.612  17.599  0.1093  1.5853 -0.1185
 2497SOL     OW18949   2.261   1.327  17.629  0.0643  0.4409  0.4851
 2497SOL    HW118950   2.185   1.379  17.656 -0.1650 -0.1518  0.9902
 2497SOL    HW218951   2.265   1.258  17.695  0.9951 -1.9715 -2.0963
 2498SOL     OW18952   4.478   4.504   4.169  0.3724 -0.0367 -0.3617
 2498SOL    HW118953   4.551   4.456   4.209 -0.1700 -2.0655 -1.8022
 2498SOL    HW218954   4.493   4.476   4.079  2.2675 -1.0396  0.2622
 2499SOL     OW18955   3.620   4.086   0.693  0.3909 -0.4213  0.0253
 2499SOL    HW118956   3.527   4.107   0.698  0.3740 -0.7121  1.0259
 2499SOL    HW218957   3.653   4.128   0.772  1.5040  1.0595 -1.2195
 2500SOL     OW18958   4.188   0.355  14.032 -0.2144  0.0136  0.2186
 2500SOL    HW118959   4.264   0.321  13.985  0.2369  0.1544  0.8539
 2500SOL    HW218960   4.234   0.411  14.094  1.2627  0.9208 -1.7014
 2501SOL     OW18961   4.097   3.442   6.844  0.3680  1.0589  0.8617
 2501SOL    HW118962   4.042   3.438   6.922 -1.9888  3.5589 -0.6281
 2501SOL    HW218963   4.038   3.416   6.773  1.0036  1.4035  0.2044
 2502SOL     OW18964   4.639   2.686  10.389  0.3716  0.3719 -0.7951
 2502SOL    HW118965   4.579   2.629  10.341  0.4854 -1.5136  1.2465
 2502SOL    HW218966   4.721   2.639  10.371 -0.6420 -1.5051 -0.5645
 2503SOL     OW18967   3.455   1.363  14.755  0.0205  0.4552  0.1887
 2503SOL    HW118968   3.385   1.298  14.756  0.3385  0.1161  1.0396
 2503SOL    HW218969   3.411   1.432  14.804  0.5872  1.0562 -0.1556
 2504SOL     OW18970   0.688   3.789  16.388 -0.3039  0.1372 -0.0228
 2504SOL    HW118971   0.671   3.883  16.391 -0.2544  0.1534 -0.2103
 2504SOL    HW218972   0.703   3.778  16.294 -0.3237  1.7699 -0.2193
 2505SOL     OW18973   3.371   3.451   7.042 -0.1413  0.2418  0.0603
 2505SOL    HW118974   3.366   3.544   7.021 -2.6544 -0.3722 -1.9900
 2505SOL    HW218975   3.370   3.455   7.138  0.5080 -0.2990  0.0879
 2506SOL     OW18976   1.030   1.649   8.442  0.3757  0.4414 -0.1447
 2506SOL    HW118977   0.967   1.652   8.514  0.2780  2.5884 -0.3235
 2506SOL    HW218978   1.058   1.559   8.426  0.1259  0.7431 -2.2661
 2507SOL     OW18979   0.366   0.248   9.595 -0.0306 -0.1222 -0.1780
 2507SOL    HW118980   0.442   0.189   9.594  1.2264  1.4792  1.3015
 2507SOL    HW218981   0.387   0.314   9.529  0.1101  0.0432  0.0305
 2508SOL     OW18982   1.135   3.683   8.529 -0.2319 -0.5218 -0.2977
 2508SOL    HW118983   1.176   3.770   8.532  0.8950 -0.9735 -3.1818
 2508SOL    HW218984   1.121   3.661   8.621 -0.2890 -0.9021 -0.4002
 2509SOL     OW18985   1.592   3.323   2.850  0.2376 -0.4606  0.6884
 2509SOL    HW118986   1.648   3.366   2.914  0.4705  0.4923 -0.1565
 2509SOL    HW218987   1.566   3.248   2.903 -0.0260  0.2867  1.6183
 2510SOL     OW18988   4.671   4.380  16.092 -0.6572  0.1368 -0.2808
 2510SOL    HW118989   4.688   4.448  16.157  0.5027 -1.4058  1.0322
 2510SOL    HW218990   4.641   4.438  16.022 -1.1488  0.8191  0.4888
 2511SOL     OW18991   3.805   4.305  16.433 -0.0838  0.2618 -0.4166
 2511SOL    HW118992   3.856   4.371  16.480 -0.2514 -0.3400  0.6072
 2511SOL    HW218993   3.748   4.271  16.502  1.4291 -0.3131  0.5436
 2512SOL     OW18994   3.288   1.192   9.797 -0.8244  0.5267 -0.2955
 2512SOL    HW118995   3.285   1.248   9.874 -0.4818 -0.1819  0.2390
 2512SOL    HW218996   3.331   1.116   9.837 -0.2817  0.8364 -0.2976
 2513SOL     OW18997   4.058   1.535  15.784  0.1627  0.0131  0.1792
 2513SOL    HW118998   4.120   1.463  15.796  1.1040  0.6097 -1.1494
 2513SOL    HW218999   4.076   1.568  15.696 -0.1862  0.5397  0.3067
 2514SOL     OW19000   4.283   0.408   6.316 -0.2252  0.5233 -0.2952
 2514SOL    HW119001   4.308   0.375   6.229 -0.1929  0.5641 -0.3015
 2514SOL    HW219002   4.301   0.328   6.364 -0.8206  0.1103 -0.7597
 2515SOL     OW19003   0.215   0.158   7.243  0.4147  0.2447  0.2209
 2515SOL    HW119004   0.174   0.120   7.166 -1.3699  2.3204  0.1523
 2515SOL    HW219005   0.263   0.233   7.209  0.4570 -0.0351 -0.3404
 2516SOL     OW19006   2.741   3.308   2.053 -0.0004  0.6749  0.2024
 2516SOL    HW119007   2.790   3.373   2.003 -0.6345 -0.1710 -1.5210
 2516SOL    HW219008   2.816   3.261   2.090 -1.3346 -0.5140  1.3913
 2517SOL     OW19009   2.713   0.679   7.758 -0.1202 -0.5336  0.7529
 2517SOL    HW119010   2.702   0.626   7.837 -2.1236 -0.6051  0.4279
 2517SOL    HW219011   2.780   0.744   7.778 -0.1501 -1.0360  2.4648
 2518SOL     OW19012   3.091   0.634   5.596 -0.0773 -0.4034 -0.2672
 2518SOL    HW119013   3.139   0.706   5.636 -0.6289  0.4453 -1.1186
 2518SOL    HW219014   3.088   0.657   5.503 -1.2348 -0.3996 -0.2261
 2519SOL     OW19015   0.523   2.561   8.152 -0.4613 -0.0529  0.5540
 2519SOL    HW119016   0.457   2.566   8.083  1.6889  0.4951 -1.4573
 2519SOL    HW219017   0.520   2.650   8.187 -1.9999  0.8796 -1.9528
 2520SOL     OW19018   1.947   1.411   8.558  0.1037 -0.0028 -0.4348
 2520SOL    HW119019   1.962   1.460   8.639  1.2723 -0.1871 -0.5411
 2520SOL    HW219020   1.852   1.399   8.567  0.4674 -2.0775  0.6459
 2521SOL     OW19021   3.710   0.365  16.085  0.7561 -0.1870  0.2897
 2521SOL    HW119022   3.718   0.279  16.044 -0.3987 -0.2960  0.2948
 2521SOL    HW219023   3.676   0.423  16.017 -0.0096  0.1734  0.9850
 2522SOL     OW19024   4.601   1.521   4.317  1.4833 -0.2258  0.8862
 2522SOL    HW119025   4.668   1.572   4.272  0.9441 -0.9653 -0.7338
 2522SOL    HW219026   4.571   1.580   4.386 -1.0011  0.1629 -0.5254
 2523SOL     OW19027   1.074   3.361  17.268 -0.3352  0.1031  0.0159
 2523SOL    HW119028   1.031   3.291  17.316  1.3667 -1.0068 -0.0863
 2523SOL    HW219029   1.145   3.316  17.224  0.7657  1.4876  0.3546
 2524SOL     OW19030   3.335   3.100  10.764 -0.5699  0.5152  0.0927
 2524SOL    HW119031   3.276   3.070  10.833 -0.7672 -0.5121 -0.5244
 2524SOL    HW219032   3.387   3.020  10.762 -1.2352  0.1180 -0.9924
 2525SOL     OW19033   3.047   1.141   3.818  0.6830  0.0121 -0.1830
 2525SOL    HW119034   3.107   1.211   3.845  2.6930 -2.1667  1.0262
 2525SOL    HW219035   3.038   1.137   3.723  0.0526 -1.9079 -0.0430
 2526SOL     OW19036   4.427   0.445  10.328  0.0517 -0.7272 -0.1230
 2526SOL    HW119037   4.405   0.361  10.287 -1.5865  0.0120 -0.7486
 2526SOL    HW219038   4.485   0.404  10.392  0.3459 -1.1447 -0.6556
 2527SOL     OW19039   0.550   3.010   0.574 -0.3418 -0.1301 -0.2267
 2527SOL    HW119040   0.619   3.038   0.634  0.6823  0.0171 -1.5023
 2527SOL    HW219041   0.498   3.090   0.583 -1.7252 -1.0952  0.4723
 2528SOL     OW19042   4.619   1.352  11.052  0.1377 -0.2702 -0.4351
 2528SOL    HW119043   4.602   1.401  11.133  0.0451  0.7353 -1.0682
 2528SOL    HW219044   4.544   1.381  11.001 -1.4562 -0.5420  1.7207
 2529SOL     OW19045   4.154   3.374   3.186  0.0831 -0.5617 -0.1863
 2529SOL    HW119046   4.115   3.413   3.108 -0.2528 -1.6237 -0.5598
 2529SOL    HW219047   4.217   3.310   3.152  0.6728  1.0992 -2.1875
 2530SOL     OW19048   1.246   1.927  16.761 -0.1490  0.3912  0.3413
 2530SOL    HW119049   1.294   1.924  16.843  2.6071  0.4153 -1.2748
 2530SOL    HW219050   1.174   1.981  16.794  0.8106  1.3291  0.8825
 2531SOL     OW19051   4.036   1.392   2.262 -0.1699  0.2915  0.2116
 2531SOL    HW119052   3.993   1.306   2.261 -1.3807  0.9000 -1.5640
 2531SOL    HW219053   4.069   1.403   2.172 -0.3003 -0.5884  0.0523
 2532SOL     OW19054   1.563   0.777   8.193 -0.1143 -0.2392  0.4025
 2532SOL    HW119055   1.611   0.695   8.188 -0.0871 -0.1769 -0.4205
 2532SOL    HW219056   1.639   0.834   8.183 -0.9500  0.2304 -3.3767
 2533SOL     OW19057   3.802   2.973   8.153  0.1996  0.3958  0.0577
 2533SOL    HW119058   3.791   3.037   8.223  2.8674 -0.5649  1.3503
 2533SOL    HW219059   3.896   2.970   8.135 -0.2348  0.7265 -2.2525
 2534SOL     OW19060   3.192   4.172   6.681  0.1691 -0.1982  0.0849
 2534SOL    HW119061   3.173   4.106   6.615  0.6454 -1.4754  1.2374
 2534SOL    HW219062   3.286   4.193   6.681  0.1496 -0.1167 -1.8609
 2535SOL     OW19063   2.036   0.931   6.195  0.4209  0.1683 -0.4430
 2535SOL    HW119064   1.963   0.901   6.141  0.8368 -0.5044 -0.6369
 2535SOL    HW219065   1.992   0.999   6.246 -0.0756  2.1949 -3.5862
 2536SOL     OW19066   4.511   2.232   1.134  0.5643  0.0572 -0.1465
 2536SOL    HW119067   4.454   2.248   1.209  1.5042  1.6989  0.2268
 2536SOL    HW219068   4.570   2.307   1.135  0.0003  0.4837  1.1721
 2537SOL     OW19069   2.932   4.648  14.049 -0.2990 -0.0745 -0.4887
 2537SOL    HW119070   2.881   4.717  14.091 -2.9498 -2.2385 -0.1958
 2537SOL    HW219071   2.870   4.581  14.022 -1.5206  0.4251  1.0667
 2538SOL     OW19072   1.140   3.379   4.663 -0.4300 -0.2191  0.2130
 2538SOL    HW119073   1.210   3.444   4.676  0.9415 -1.5543 -0.5587
 2538SOL    HW219074   1.127   3.380   4.568  0.5124  1.4946  0.0897
 2539SOL     OW19075   1.195   3.693  12.842 -0.0378  0.0352  0.2748
 2539SOL    HW119076   1.107   3.706  12.876 -0.0131  2.2975 -0.5163
 2539SOL    HW219077   1.254   3.698  12.917  0.2829 -1.0462  0.1082
 2540SOL     OW19078   2.585   1.353   3.958 -0.3226 -0.0007 -0.6375
 2540SOL    HW119079   2.645   1.278   3.953  0.6209  0.8862 -2.4581
 2540SOL    HW219080   2.580   1.387   3.869 -1.7641  0.2295 -0.4655
 2541SOL     OW19081   0.317   2.241   4.532  0.6666  0.1088 -0.2500
 2541SOL    HW119082   0.250   2.299   4.495 -0.0237 -0.0566  0.7625
 2541SOL    HW219083   0.283   2.235   4.621  1.3002 -0.7000 -0.0605
 2542SOL     OW19084   1.547   0.929   4.973  0.4329  0.9705 -0.6919
 2542SOL    HW119085   1.459   0.895   4.963  1.4733 -1.6181 -1.0316
 2542SOL    HW219086   1.552   0.959   4.882  1.5679 -0.9113 -1.2477
 2543SOL     OW19087   2.880   1.151   2.971  0.3310 -0.0761 -0.0848
 2543SOL    HW119088   2.801   1.196   3.003 -0.1236 -0.3910 -0.7749
 2543SOL    HW219089   2.941   1.221   2.947 -1.9410  2.1582  0.5692
 2544SOL     OW19090   1.243   0.279   4.639  0.8681 -0.3541  0.4822
 2544SOL    HW119091   1.334   0.306   4.654  0.5084  0.1348  1.7643
 2544SOL    HW219092   1.235   0.309   4.549  1.2059  0.7058  0.8126
 2545SOL     OW19093   1.513   1.005   0.616  0.0595 -0.2463 -0.6775
 2545SOL    HW119094   1.595   1.047   0.590 -0.0147 -0.3253 -1.0380
 2545SOL    HW219095   1.493   0.934   0.556 -0.3092  0.6300 -1.5979
 2546SOL     OW19096   4.664   1.384  10.539 -0.8859 -0.0149 -0.3556
 2546SOL    HW119097   4.662   1.353  10.449 -0.0656 -1.4163  0.1166
 2546SOL    HW219098   4.587   1.440  10.535 -1.2322 -0.3526  1.4921
 2547SOL     OW19099   2.936   4.462  15.551  0.3775 -0.7225 -0.8865
 2547SOL    HW119100   2.904   4.392  15.608  2.0437 -1.8129 -1.2581
 2547SOL    HW219101   3.032   4.460  15.558  0.4443  2.3778 -1.1386
 2548SOL     OW19102   0.443   1.442  10.344  0.2267  0.1449 -0.8616
 2548SOL    HW119103   0.459   1.351  10.319  0.1272 -0.6667  1.9842
 2548SOL    HW219104   0.376   1.425  10.411 -1.4782  1.0397 -2.3400
 2549SOL     OW19105   3.048   0.228  16.025  0.1549 -0.5104  0.1304
 2549SOL    HW119106   3.075   0.156  15.968 -0.6828 -0.5959 -0.1514
 2549SOL    HW219107   2.966   0.247  15.980  0.6647  3.0500  0.7120
 2550SOL     OW19108   0.611   4.379   0.150  0.8446 -0.1615  0.1414
 2550SOL    HW119109   0.574   4.407   0.233  0.8491 -1.0328  0.4367
 2550SOL    HW219110   0.703   4.403   0.164  1.4462 -4.5465  3.5236
 2551SOL     OW19111   1.245   3.767   2.462 -0.1467  0.3300 -0.2145
 2551SOL    HW119112   1.301   3.691   2.481  0.8763  1.1515  0.0295
 2551SOL    HW219113   1.187   3.736   2.393 -0.6837  2.0155 -0.5158
 2552SOL     OW19114   4.238   0.067  15.381  0.4700 -0.2160  0.1332
 2552SOL    HW119115   4.150   0.029  15.386  0.2608  0.2518  0.0550
 2552SOL    HW219116   4.269   0.038  15.467  1.0672  0.2892  0.0855
 2553SOL     OW19117   0.120   4.529  14.586 -0.2119 -0.1084 -0.5581
 2553SOL    HW119118   0.090   4.456  14.639  0.2681 -0.6101 -0.9764
 2553SOL    HW219119   0.207   4.502  14.558  1.0932  2.0158  1.4322
 2554SOL     OW19120   0.288   3.239   0.097  0.2128 -0.5204 -0.3623
 2554SOL    HW119121   0.295   3.214   0.005  1.0760  0.3734 -0.5442
 2554SOL    HW219122   0.224   3.311   0.093  0.8651  0.2803  3.3458
 2555SOL     OW19123   3.551   2.289   9.978 -0.1470  0.3238 -0.0691
 2555SOL    HW119124   3.604   2.295  10.057 -2.3969 -4.2402  1.7566
 2555SOL    HW219125   3.599   2.227   9.923 -1.2668  0.1598 -0.8605
 2556SOL     OW19126   2.196   1.751  17.524 -0.5390 -0.5379 -0.8549
 2556SOL    HW119127   2.268   1.707  17.479  1.2358 -2.0908  3.5776
 2556SOL    HW219128   2.216   1.733  17.615 -0.6894 -1.0684 -0.9281
 2557SOL     OW19129   1.323   2.767  14.024 -0.0809  0.0268 -0.3179
 2557SOL    HW119130   1.251   2.818  14.062 -0.8166 -1.5659  0.4106
 2557SOL    HW219131   1.359   2.730  14.104 -1.0449 -1.1997 -0.4535
 2558SOL     OW19132   3.235   4.641  12.305 -0.4158  0.2282 -0.1955
 2558SOL    HW119133   3.263   4.681  12.222  0.7810 -1.1928 -0.4925
 2558SOL    HW219134   3.156   4.689  12.328 -0.6073  0.7265 -1.8374
 2559SOL     OW19135   1.414   3.836   7.009  0.2372 -0.2000 -0.3287
 2559SOL    HW119136   1.331   3.877   7.034  1.3142  1.0172  1.2805
 2559SOL    HW219137   1.382   3.747   7.022  0.7364 -0.6334 -2.2156
 2560SOL     OW19138   3.098   0.178  15.662 -0.0461 -0.1227  0.0269
 2560SOL    HW119139   3.153   0.144  15.591  0.9696  1.5201  0.0265
 2560SOL    HW219140   3.012   0.136  15.658 -0.2250  0.1280  1.6095
 2561SOL     OW19141   2.513   2.231   9.218 -0.2546 -0.0820 -0.8833
 2561SOL    HW119142   2.478   2.145   9.240 -1.1113  0.6382  0.5572
 2561SOL    HW219143   2.530   2.260   9.307 -2.5781  0.3434 -0.5749
 2562SOL     OW19144   2.405   0.867   9.640  0.2517  0.3395  0.2924
 2562SOL    HW119145   2.461   0.938   9.609  1.9095 -0.6433  0.9993
 2562SOL    HW219146   2.464   0.792   9.643  0.8167  0.7507 -0.3836
 2563SOL     OW19147   0.176   2.974  17.140 -0.3515 -0.0524 -0.1076
 2563SOL    HW119148   0.186   2.892  17.091  1.2260 -0.9628  1.7754
 2563SOL    HW219149   0.081   2.979  17.152 -0.2580 -2.0122  1.4881
 2564SOL     OW19150   0.275   0.983  10.357 -0.2844  0.0402 -0.3472
 2564SOL    HW119151   0.313   0.916  10.415  0.3010  1.3609  0.7866
 2564SOL    HW219152   0.356   1.027  10.332 -1.8400  1.6196 -2.5878
 2565SOL     OW19153   0.676   2.333   8.183 -0.4437  0.1417  0.5423
 2565SOL    HW119154   0.651   2.419   8.216 -1.8581 -0.0381 -0.0650
 2565SOL    HW219155   0.706   2.286   8.261  0.4345  0.1883  0.2339
 2566SOL     OW19156   3.078   2.925   0.702 -0.5210  0.1542 -0.0220
 2566SOL    HW119157   3.010   2.896   0.641 -3.3629  1.8386  2.4006
 2566SOL    HW219158   3.024   2.961   0.772  2.3719 -0.0425  2.3011
 2567SOL     OW19159   0.839   2.972   7.774  0.0367 -0.2587  0.6656
 2567SOL    HW119160   0.764   2.967   7.714 -0.6636 -0.7158  1.5936
 2567SOL    HW219161   0.811   3.017   7.853  0.0232 -0.9665  1.0595
 2568SOL     OW19162   3.601   1.697  11.374 -0.2870 -0.3479 -0.0770
 2568SOL    HW119163   3.635   1.699  11.464  1.8421 -0.5805 -0.8727
 2568SOL    HW219164   3.646   1.771  11.334  0.6685 -0.8633  0.0347
 2569SOL     OW19165   2.722   4.647   9.416 -0.0384 -0.5045 -0.3341
 2569SOL    HW119166   2.806   4.663   9.374 -0.4143  0.4225 -0.7403
 2569SOL    HW219167   2.748   4.603   9.497  1.0939 -0.1582 -0.5129
 2570SOL     OW19168   2.999   3.127  13.352 -0.0570 -0.1682 -0.2634
 2570SOL    HW119169   2.976   3.052  13.407 -0.1253  0.3239  0.3853
 2570SOL    HW219170   3.038   3.074  13.283  0.7526  0.5269 -0.3390
 2571SOL     OW19171   3.566   1.910   6.855 -0.0935  0.2224 -0.2057
 2571SOL    HW119172   3.473   1.930   6.862 -0.4475 -1.4742 -0.1131
 2571SOL    HW219173   3.566   1.851   6.779 -1.2984  0.9259 -0.7382
 2572SOL     OW19174   2.945   2.205   5.223 -0.3032 -0.3221  0.0161
 2572SOL    HW119175   2.941   2.159   5.307 -3.0945 -2.1852 -1.1032
 2572SOL    HW219176   2.921   2.290   5.258 -0.6329  0.7077 -2.7143
 2573SOL     OW19177   1.810   4.102   3.562 -0.3153  0.0696  0.2034
 2573SOL    HW119178   1.820   4.046   3.485  1.3681  0.5319  0.0849
 2573SOL    HW219179   1.743   4.056   3.612 -1.5677  0.2301 -1.3241
 2574SOL     OW19180   1.161   0.555   1.611  0.1140  0.1798  0.4905
 2574SOL    HW119181   1.090   0.503   1.649 -0.1419  1.3317  1.5989
 2574SOL    HW219182   1.236   0.513   1.654 -0.7152 -0.5628  1.2157
 2575SOL     OW19183   2.690   0.381   2.753  0.0244  0.6977  0.0355
 2575SOL    HW119184   2.739   0.448   2.801  0.1052  1.8423 -1.6790
 2575SOL    HW219185   2.756   0.313   2.747  0.0676  0.8466 -1.1877
 2576SOL     OW19186   0.810   3.410  14.427  0.1971  0.2508 -0.0245
 2576SOL    HW119187   0.796   3.339  14.363 -0.3722  2.7055 -2.6156
 2576SOL    HW219188   0.858   3.365  14.496 -1.9821 -0.3357  1.0892
 2577SOL     OW19189   3.217   1.832   3.250 -0.1556  0.3008  0.3520
 2577SOL    HW119190   3.279   1.847   3.178 -0.8293  0.7784 -0.1286
 2577SOL    HW219191   3.236   1.904   3.310 -3.7106  0.3529  1.3771
 2578SOL     OW19192   2.365   3.906  11.714 -0.3654  0.6899  0.2135
 2578SOL    HW119193   2.299   3.892  11.781  1.9406 -1.3311  2.0593
 2578SOL    HW219194   2.385   3.814  11.698 -2.8370 -0.0323  1.2477
 2579SOL     OW19195   1.615   1.724   9.389 -0.4280 -0.1620 -0.3492
 2579SOL    HW119196   1.656   1.686   9.467  1.6421 -1.0743 -1.8632
 2579SOL    HW219197   1.629   1.651   9.328 -0.1748  0.3030 -0.8466
 2580SOL     OW19198   1.019   1.507   9.482  0.4241  0.1584  0.6354
 2580SOL    HW119199   0.944   1.517   9.423  0.3243 -0.3584  0.6789
 2580SOL    HW219200   1.026   1.594   9.520  2.4712 -0.8507  2.5208
 2581SOL     OW19201   0.390   4.570   8.303 -0.1625  0.1833  0.4944
 2581SOL    HW119202   0.359   4.656   8.331  0.0068  0.2908  0.3527
 2581SOL    HW219203   0.427   4.544   8.387 -4.0683 -1.1055  1.8069
 2582SOL     OW19204   3.635   1.878   5.646  0.1647  0.6243  0.2345
 2582SOL    HW119205   3.605   1.932   5.573 -0.4726  1.1495  0.8797
 2582SOL    HW219206   3.712   1.837   5.608 -0.4909  0.9564 -1.4964
 2583SOL     OW19207   0.767   0.022   5.038  0.0289  0.1107 -0.1443
 2583SOL    HW119208   0.759   4.652   5.022 -2.7921 -0.2762  3.5021
 2583SOL    HW219209   0.680   0.055   5.015 -0.2155 -1.6015 -1.6708
 2584SOL     OW19210   2.753   2.763   4.039  0.1722  0.0190  0.4103
 2584SOL    HW119211   2.710   2.680   4.018 -1.2077  0.5433  1.1624
 2584SOL    HW219212   2.822   2.747   4.104  0.1497 -2.1920 -0.1137
 2585SOL     OW19213   3.706   1.307   1.935  1.0692  0.3784 -0.0872
 2585SOL    HW119214   3.686   1.379   1.994  3.1771 -0.0213  1.1173
 2585SOL    HW219215   3.633   1.247   1.945 -1.2872  3.3991  0.7786
 2586SOL     OW19216   4.337   2.659   7.384 -0.3486  0.2684  0.2985
 2586SOL    HW119217   4.259   2.678   7.331 -0.5172 -0.9981  0.0932
 2586SOL    HW219218   4.349   2.566   7.365  1.3832  0.7899 -1.1473
 2587SOL     OW19219   1.177   2.610   4.197  0.1503  0.1990 -0.1498
 2587SOL    HW119220   1.191   2.652   4.282  0.0267 -1.4573  0.6816
 2587SOL    HW219221   1.267   2.609   4.164  0.4391  1.6633  0.5656
 2588SOL     OW19222   2.477   2.259  11.332  0.2849 -0.0757  0.0447
 2588SOL    HW119223   2.470   2.212  11.415  0.9529  1.2462  0.8580
 2588SOL    HW219224   2.438   2.341  11.364  3.6746  1.4412  0.2627
 2589SOL     OW19225   1.311   3.763   3.830 -0.2454 -0.1438 -0.1457
 2589SOL    HW119226   1.385   3.706   3.806 -0.6089 -0.1553 -1.2356
 2589SOL    HW219227   1.252   3.748   3.756  1.2505  0.7200 -1.5350
 2590SOL     OW19228   4.646   3.909   8.010  0.2251 -0.1826 -0.2620
 2590SOL    HW119229   4.554   3.889   8.027  0.6189 -1.6328  0.1560
 2590SOL    HW219230   4.681   3.820   8.008 -0.7296 -0.5744  0.4323
 2591SOL     OW19231   1.952   0.427   4.289  0.0373  0.0969  0.0520
 2591SOL    HW119232   1.988   0.500   4.340 -0.2794  0.8421 -0.7991
 2591SOL    HW219233   1.863   0.418   4.324 -0.9018  3.1546 -1.5369
 2592SOL     OW19234   2.526   3.327   5.571  0.3514  0.5291 -0.1567
 2592SOL    HW119235   2.572   3.353   5.650  0.4980 -2.7506  0.8421
 2592SOL    HW219236   2.592   3.362   5.511  3.7070 -2.4905  1.7560
 2593SOL     OW19237   1.321   0.433   9.562 -0.0822  0.6386  0.4572
 2593SOL    HW119238   1.337   0.524   9.590 -0.0772  0.2156  1.8107
 2593SOL    HW219239   1.411   0.421   9.531  0.1307 -0.4724  1.5398
 2594SOL     OW19240   0.453   2.924   5.185 -0.4987 -0.4789 -0.8086
 2594SOL    HW119241   0.409   2.842   5.162 -0.7549  0.4276 -3.4839
 2594SOL    HW219242   0.390   2.980   5.141  1.1811  0.2217 -2.3420
 2595SOL     OW19243   1.855   2.612   4.580  0.2045  0.1502 -0.3294
 2595SOL    HW119244   1.772   2.612   4.627  1.4699 -3.2743  1.8811
 2595SOL    HW219245   1.893   2.537   4.625 -0.9409  1.1874  2.3546
 2596SOL     OW19246   0.588   4.281   0.865  0.3508 -0.7892  0.7050
 2596SOL    HW119247   0.520   4.344   0.890 -0.5038 -1.3254 -0.2421
 2596SOL    HW219248   0.542   4.197   0.873 -1.4553 -0.0460 -1.9962
 2597SOL     OW19249   0.816   3.076   8.847 -0.6122 -0.1272  0.3383
 2597SOL    HW119250   0.770   3.137   8.904  0.2659  0.8279  0.0349
 2597SOL    HW219251   0.839   3.136   8.775 -1.4185  0.1464  0.3167
 2598SOL     OW19252   3.681   0.533   8.947  0.4760 -0.2678  0.6008
 2598SOL    HW119253   3.600   0.541   8.997  0.4065  1.3686  0.2381
 2598SOL    HW219254   3.735   0.477   9.003 -0.8024  0.1161  2.2339
 2599SOL     OW19255   1.118   3.689   8.811 -0.0448 -0.4457  0.3771
 2599SOL    HW119256   1.155   3.617   8.862  2.2146 -0.5943 -1.4530
 2599SOL    HW219257   1.153   3.763   8.860 -0.9923 -1.2419  2.2369
 2600SOL     OW19258   0.369   0.368   4.870  0.1667  0.4778 -0.4677
 2600SOL    HW119259   0.407   0.304   4.930  1.2997  1.9081  0.3390
 2600SOL    HW219260   0.436   0.372   4.802  3.6148 -1.0012  2.8336
 2601SOL     OW19261   1.038   3.956   0.752  0.1295 -0.2624  0.4007
 2601SOL    HW119262   1.057   3.991   0.665 -0.7579  3.0261  1.5137
 2601SOL    HW219263   1.028   3.862   0.737 -0.8031 -0.4214  1.9876
 2602SOL     OW19264   3.492   1.885   5.993 -0.1238  0.2470 -0.1402
 2602SOL    HW119265   3.440   1.956   5.954  2.0062  0.3181 -2.8284
 2602SOL    HW219266   3.423   1.824   6.019  0.3216  0.4591  1.5214
 2603SOL     OW19267   1.228   0.996   3.515 -0.0639  0.2383  0.4133
 2603SOL    HW119268   1.254   0.981   3.606 -0.7052 -3.3060 -0.0120
 2603SOL    HW219269   1.233   0.907   3.480 -1.2795  0.5010 -0.4337
 2604SOL     OW19270   3.557   0.059   4.292  0.3449  0.1534 -0.4263
 2604SOL    HW119271   3.612   4.713   4.258  0.6017  0.0194  0.2741
 2604SOL    HW219272   3.595   0.135   4.248  2.9152 -1.3270 -0.7570
 2605SOL     OW19273   2.607   0.125   2.010 -0.2158  0.5802 -0.4218
 2605SOL    HW119274   2.561   0.167   2.083 -0.2956 -0.7511  0.2786
 2605SOL    HW219275   2.698   0.132   2.037  0.2048  0.2709 -1.7653
 2606SOL     OW19276   2.950   0.995   6.324 -0.1834  0.1050  0.0336
 2606SOL    HW119277   3.001   1.066   6.364 -1.9944  0.2228  2.1376
 2606SOL    HW219278   2.869   1.043   6.305 -0.6327 -0.1550  1.2702
 2607SOL     OW19279   2.725   2.062   1.238  0.1262  0.9408  0.9448
 2607SOL    HW119280   2.787   2.128   1.207 -0.1168  0.2934 -0.9162
 2607SOL    HW219281   2.645   2.113   1.251 -0.3626  0.8477 -1.5321
 2608SOL     OW19282   2.423   2.364  15.943  0.3967  0.1447  0.1895
 2608SOL    HW119283   2.393   2.275  15.925 -1.4757  0.2582  2.5951
 2608SOL    HW219284   2.390   2.375  16.033 -1.7112 -0.2490 -0.5294
 2609SOL     OW19285   0.725   3.595  12.368 -0.0658  0.0033  0.1320
 2609SOL    HW119286   0.728   3.578  12.462 -1.3065 -1.9258 -0.1916
 2609SOL    HW219287   0.691   3.509  12.346  1.2642  0.0381 -2.0385
 2610SOL     OW19288   1.284   1.599   6.185 -0.3896  0.2798  0.2450
 2610SOL    HW119289   1.246   1.545   6.253  0.6614 -1.3140 -0.4189
 2610SOL    HW219290   1.205   1.645   6.155 -1.1329 -1.3709 -0.3064
 2611SOL     OW19291   2.799   3.139   5.789  0.1280  0.0167 -0.3075
 2611SOL    HW119292   2.712   3.177   5.786  0.2064  0.0113 -2.8276
 2611SOL    HW219293   2.852   3.218   5.798  1.7012 -1.4160  2.8928
 2612SOL     OW19294   2.301   0.281  15.317 -0.3714  0.1847  0.3886
 2612SOL    HW119295   2.218   0.317  15.347  0.3076  2.2718 -0.2540
 2612SOL    HW219296   2.341   0.257  15.401 -1.4759  0.8961  1.1117
 2613SOL     OW19297   0.814   3.091   2.214  0.1309  0.5213 -0.2732
 2613SOL    HW119298   0.735   3.123   2.259 -1.6869 -0.2118 -2.8959
 2613SOL    HW219299   0.813   3.150   2.139  1.9377  1.8096  0.7230
 2614SOL     OW19300   0.540   4.310   5.512 -0.1202 -0.4993  0.2334
 2614SOL    HW119301   0.501   4.228   5.543 -0.4498 -0.1199  0.8143
 2614SOL    HW219302   0.542   4.296   5.417  2.0795 -2.0616  0.5008
 2615SOL     OW19303   0.575   2.333  13.423 -0.1766  0.3984 -0.6905
 2615SOL    HW119304   0.501   2.275  13.405 -0.4770  0.9247 -1.1583
 2615SOL    HW219305   0.594   2.307  13.513  2.8237 -0.7762 -1.6705
 2616SOL     OW19306   3.124   4.354   6.487 -0.2192 -0.4055 -0.0166
 2616SOL    HW119307   3.038   4.396   6.477  1.6268  3.4123  0.0900
 2616SOL    HW219308   3.108   4.302   6.566  0.1097  2.1413  1.7629
 2617SOL     OW19309   2.311   0.273   8.385  0.4077 -0.1067 -0.1305
 2617SOL    HW119310   2.263   0.353   8.363  1.2965  0.3005 -0.5498
 2617SOL    HW219311   2.237   0.228   8.426  1.2142  0.0475  1.5088
 2618SOL     OW19312   0.348   0.636   3.394 -0.3060 -0.2935 -0.0121
 2618SOL    HW119313   0.303   0.713   3.429  1.4918  0.3194  0.9992
 2618SOL    HW219314   0.329   0.638   3.300 -0.7567 -1.3972  0.0617
 2619SOL     OW19315   1.737   1.897   5.758 -0.4918 -0.4908 -0.1370
 2619SOL    HW119316   1.799   1.896   5.831 -1.2397 -0.3168  0.4987
 2619SOL    HW219317   1.681   1.970   5.783 -1.2343 -0.5159 -1.6941
 2620SOL     OW19318   3.042   1.328   5.836 -0.2945  0.6199  0.1714
 2620SOL    HW119319   2.950   1.309   5.818 -0.2249 -0.1251  0.6166
 2620SOL    HW219320   3.069   1.254   5.890  0.8288  0.7996 -0.1508
 2621SOL     OW19321   4.259   0.637   3.159 -0.1962 -0.0492 -0.0303
 2621SOL    HW119322   4.298   0.709   3.111  0.9913  0.2490  1.3526
 2621SOL    HW219323   4.206   0.682   3.224 -0.8227  2.2599 -2.1586
 2622SOL     OW19324   2.914   4.292  12.474 -0.1233 -0.7124  0.2561
 2622SOL    HW119325   2.827   4.254  12.477  0.3478 -1.9564 -1.3206
 2622SOL    HW219326   2.915   4.343  12.393  0.2290  0.6470  1.1248
 2623SOL     OW19327   1.844   4.701   3.559  0.1049 -0.1815  0.7757
 2623SOL    HW119328   1.889   0.057   3.588  0.8661 -0.4829  0.4208
 2623SOL    HW219329   1.814   4.713   3.469 -0.0103 -0.0137  0.8353
 2624SOL     OW19330   1.140   2.464   3.866 -0.1434 -0.0513 -0.4426
 2624SOL    HW119331   1.224   2.448   3.911  0.7474  1.5863 -1.5269
 2624SOL    HW219332   1.132   2.381   3.819  0.7723 -1.3764  1.7398
 2625SOL     OW19333   2.340   2.485  14.435  0.5541 -0.4020  0.2204
 2625SOL    HW119334   2.382   2.553  14.383 -1.1042 -1.7866 -2.9008
 2625SOL    HW219335   2.312   2.530  14.515 -1.0845 -1.4279  0.2361
 2626SOL     OW19336   2.015   3.577   8.976  0.0642  0.6408  0.3778
 2626SOL    HW119337   2.059   3.494   8.993 -0.5176 -0.0472 -1.4824
 2626SOL    HW219338   1.943   3.574   9.038  0.4869  2.4623  0.9614
 2627SOL     OW19339   2.440   0.550   6.685 -0.0169  0.3530 -0.2213
 2627SOL    HW119340   2.418   0.483   6.620  2.9091  0.5320 -1.3709
 2627SOL    HW219341   2.415   0.511   6.769  0.8348 -2.1065 -1.1092
 2628SOL     OW19342   3.366   3.080   4.170  0.3496 -0.3717  0.0614
 2628SOL    HW119343   3.310   3.002   4.164 -1.0675  0.7579 -1.1690
 2628SOL    HW219344   3.445   3.061   4.119  0.3058 -1.3411  0.3417
 2629SOL     OW19345   0.457   1.986   5.156 -0.5478  0.2827 -0.3513
 2629SOL    HW119346   0.448   2.072   5.197  0.1760  0.0005  0.3824
 2629SOL    HW219347   0.488   1.939   5.233 -3.2987 -1.3304 -0.2320
 2630SOL     OW19348   1.895   2.311   0.199 -0.2578  0.2787 -0.0751
 2630SOL    HW119349   1.870   2.278   0.114  0.9148 -0.7566 -0.0071
 2630SOL    HW219350   1.855   2.398   0.196  3.6837  2.0911 -0.5234
 2631SOL     OW19351   2.415   1.302  13.794 -0.4093  0.2920  0.1904
 2631SOL    HW119352   2.467   1.300  13.714 -1.3078 -0.7913 -0.3588
 2631SOL    HW219353   2.459   1.240  13.851  0.9876  2.0978  1.0679
 2632SOL     OW19354   1.918   4.512   0.526 -0.5467  0.1827 -0.1192
 2632SOL    HW119355   1.838   4.460   0.529 -0.1489 -0.4213  0.0748
 2632SOL    HW219356   1.928   4.537   0.618 -2.8267  0.5792  0.0135
 2633SOL     OW19357   2.997   3.451   2.425 -0.5489 -0.4214 -0.2924
 2633SOL    HW119358   3.040   3.527   2.465 -0.1010 -1.6095  1.4560
 2633SOL    HW219359   2.939   3.495   2.363 -0.1107  0.5309 -0.0355
 2634SOL     OW19360   1.246   2.319  15.715 -0.3028  0.3177  0.2218
 2634SOL    HW119361   1.158   2.297  15.748 -0.4393  0.4590 -0.0425
 2634SOL    HW219362   1.297   2.322  15.795 -0.7029 -0.1024  0.4907
 2635SOL     OW19363   2.872   3.644  10.473  0.1125 -0.4149 -0.0086
 2635SOL    HW119364   2.801   3.702  10.445  0.8087 -0.8621 -2.6501
 2635SOL    HW219365   2.826   3.574  10.520 -0.7996  0.0322 -0.2345
 2636SOL     OW19366   2.369   0.610   4.187 -0.0730  0.4662  0.4658
 2636SOL    HW119367   2.319   0.539   4.147  0.5144  0.4898 -0.3003
 2636SOL    HW219368   2.459   0.597   4.159 -0.2039 -2.5040  1.3707
 2637SOL     OW19369   4.500   0.233   2.974 -0.3084 -0.2772 -0.4470
 2637SOL    HW119370   4.552   0.186   2.909  2.0164  0.2178  1.0383
 2637SOL    HW219371   4.522   0.323   2.952  1.5575 -1.2211 -2.4672
 2638SOL     OW19372   0.983   0.765   3.807  0.4724 -1.0106  0.1709
 2638SOL    HW119373   0.993   0.740   3.898  3.8704 -1.0804 -0.2350
 2638SOL    HW219374   0.980   0.861   3.813 -0.3391 -0.9148 -1.5898
 2639SOL     OW19375   3.564   1.430   3.648  0.1614  0.7387 -0.5787
 2639SOL    HW119376   3.603   1.483   3.718  0.7891  0.0823 -0.4263
 2639SOL    HW219377   3.498   1.384   3.701  0.5456  1.1439  0.2402
 2640SOL     OW19378   0.797   0.989   5.092 -0.0751  0.0033 -0.2910
 2640SOL    HW119379   0.711   1.018   5.060  0.1503 -1.3015 -2.0867
 2640SOL    HW219380   0.764   0.970   5.180 -2.0469 -1.3697 -1.3060
 2641SOL     OW19381   3.075   2.960   1.679  0.1429 -0.4421  0.4582
 2641SOL    HW119382   2.994   2.909   1.682 -0.6299  0.7552 -0.1078
 2641SOL    HW219383   3.130   2.912   1.741 -0.4948 -4.4729 -2.0725
 2642SOL     OW19384   0.910   4.652   8.298 -0.1007 -0.0016 -0.0142
 2642SOL    HW119385   0.839   4.592   8.274  0.6541 -1.5256  1.5179
 2642SOL    HW219386   0.960   4.598   8.359  0.1164  1.1280  0.8108
 2643SOL     OW19387   0.669   1.997   2.723  0.0344  0.1682  0.5452
 2643SOL    HW119388   0.597   2.059   2.735 -2.5818 -2.9172  0.8881
 2643SOL    HW219389   0.630   1.936   2.659 -2.6307  1.2650  1.1127
 2644SOL     OW19390   0.624   4.170   8.903 -0.6081 -0.4899  0.4603
 2644SOL    HW119391   0.612   4.075   8.903  0.0323 -0.5694 -0.7452
 2644SOL    HW219392   0.535   4.194   8.878 -0.1097 -0.6325 -1.4617
 2645SOL     OW19393   1.142   0.417   2.597 -0.1891 -0.6145  0.1598
 2645SOL    HW119394   1.064   0.392   2.547 -0.0794 -2.6100  0.9686
 2645SOL    HW219395   1.198   0.339   2.596 -0.0078 -0.4812 -0.1264
 2646SOL     OW19396   4.071   0.958   1.125 -1.1965  0.0212  0.1303
 2646SOL    HW119397   4.160   0.990   1.111 -0.6329 -1.8149 -0.5572
 2646SOL    HW219398   4.030   1.023   1.182  0.0164  1.8925 -1.1551
 2647SOL     OW19399   3.430   3.989   5.897 -0.6436  0.6211 -0.5917
 2647SOL    HW119400   3.359   4.032   5.849 -0.3225  1.0734 -0.6663
 2647SOL    HW219401   3.415   3.903   5.858  0.7684  0.4179 -0.6930
 2648SOL     OW19402   3.095   2.919   4.875  0.1487  0.1355  0.2528
 2648SOL    HW119403   3.017   2.974   4.866 -0.6239 -0.8925  0.5952
 2648SOL    HW219404   3.068   2.828   4.865  1.7382 -0.2009 -0.9740
 2649SOL     OW19405   4.164   1.808   0.806 -0.0201  0.1852  0.6310
 2649SOL    HW119406   4.187   1.744   0.874  0.3574 -0.6461 -0.2744
 2649SOL    HW219407   4.200   1.885   0.849 -2.8510  0.8512  1.7730
 2650SOL     OW19408   3.611   1.229   7.443 -0.0115  0.1510 -0.2746
 2650SOL    HW119409   3.546   1.237   7.512 -0.6641  1.1046 -1.0002
 2650SOL    HW219410   3.637   1.321   7.441 -2.3267  0.8250  0.3285
 2651SOL     OW19411   1.746   0.167  17.532 -0.4744 -0.0558 -0.1469
 2651SOL    HW119412   1.733   0.189  17.624 -0.2158 -0.7125  0.0449
 2651SOL    HW219413   1.698   0.086  17.514  1.1585 -1.0359 -0.0731
 2652SOL     OW19414   2.962   2.728   8.904 -0.3352  0.3194  0.2477
 2652SOL    HW119415   2.953   2.668   8.978  1.4008  2.0833  1.9185
 2652SOL    HW219416   3.011   2.681   8.836 -0.2437 -1.1855  1.3775
 2653SOL     OW19417   2.114   1.989   0.771  0.2248  0.3690  0.3195
 2653SOL    HW119418   2.165   2.062   0.736 -0.3748  0.2442 -0.8348
 2653SOL    HW219419   2.143   1.916   0.717  3.6479  2.6216 -0.8399
 2654SOL     OW19420   3.280   1.569  14.841 -0.7905  0.1199  0.0396
 2654SOL    HW119421   3.279   1.616  14.758 -1.4582  1.3515  0.7469
 2654SOL    HW219422   3.189   1.559  14.867 -0.2467 -0.3306  1.8084
 2655SOL     OW19423   2.241   2.474   9.165 -0.3080 -0.6160  0.2565
 2655SOL    HW119424   2.236   2.440   9.076 -0.0725  2.0446 -0.7810
 2655SOL    HW219425   2.184   2.413   9.213 -1.1893 -0.3552 -0.4657
 2656SOL     OW19426   0.291   1.271   9.333  0.0230 -0.3306  0.1268
 2656SOL    HW119427   0.216   1.288   9.391 -0.8266  0.5384 -1.2160
 2656SOL    HW219428   0.363   1.267   9.395  0.7631  1.8126 -0.6308
 2657SOL     OW19429   4.036   3.732   0.822  0.1847  0.4796  0.1606
 2657SOL    HW119430   4.047   3.779   0.740  2.7066  0.8563  0.7066
 2657SOL    HW219431   3.947   3.759   0.844  0.1769 -0.9258  1.8749
 2658SOL     OW19432   3.226   4.387   2.246  0.4255 -0.0077 -0.0799
 2658SOL    HW119433   3.151   4.358   2.298  0.8426 -2.3359 -0.7791
 2658SOL    HW219434   3.182   4.370   2.163 -0.7861  0.2120  0.5129
 2659SOL     OW19435   3.535   3.505   0.171 -0.1029 -0.1584  0.2268
 2659SOL    HW119436   3.606   3.442   0.184  1.1492  1.3846  0.9550
 2659SOL    HW219437   3.463   3.468   0.221  0.6313 -3.2796 -1.0238
 2660SOL     OW19438   4.475   0.025   2.434  0.8441 -0.3766  0.0564
 2660SOL    HW119439   4.413   0.049   2.365  0.5397  2.9115  1.4806
 2660SOL    HW219440   4.529   0.104   2.437 -1.8449  1.5228 -2.2158
 2661SOL     OW19441   4.010   2.521   7.837 -0.0271  0.1160  0.7941
 2661SOL    HW119442   4.028   2.605   7.879  0.7944  0.7017 -0.7202
 2661SOL    HW219443   4.018   2.466   7.914  0.7273 -1.2371 -0.2585
 2662SOL     OW19444   1.771   2.597   4.854 -0.1338  0.3715  0.0265
 2662SOL    HW119445   1.856   2.638   4.841 -1.3441  2.4134 -1.5153
 2662SOL    HW219446   1.770   2.580   4.948 -0.1094  0.4432  0.0396
 2663SOL     OW19447   0.872   1.528   0.405 -0.1156  0.1157 -0.2288
 2663SOL    HW119448   0.958   1.569   0.418 -1.5586  2.7858  0.8812
 2663SOL    HW219449   0.887   1.439   0.437  1.8330  0.2822 -0.6645
 2664SOL     OW19450   4.552   2.590   9.921 -0.1021 -0.5012  0.3214
 2664SOL    HW119451   4.480   2.576   9.982 -2.9643  0.9571 -2.7403
 2664SOL    HW219452   4.618   2.632   9.977 -0.0767  0.4400 -0.4089
 2665SOL     OW19453   0.754   0.819   6.964 -0.5719  1.0630 -0.1161
 2665SOL    HW119454   0.803   0.806   7.046  2.0932 -0.7840 -2.0077
 2665SOL    HW219455   0.749   0.915   6.965 -1.4300  0.9943  2.6105
 2666SOL     OW19456   3.233   3.652  16.775  0.5319  0.0283 -0.0876
 2666SOL    HW119457   3.270   3.564  16.775  1.0762  0.2696  2.2021
 2666SOL    HW219458   3.305   3.712  16.794 -1.0043  2.2756 -1.2473
 2667SOL     OW19459   4.326   2.335   5.765  0.3000  0.0549 -0.0875
 2667SOL    HW119460   4.297   2.251   5.802  0.0553 -0.0949 -0.6177
 2667SOL    HW219461   4.398   2.348   5.827  0.9702  1.3220 -1.1517
 2668SOL     OW19462   0.745   3.853   8.832 -0.2759 -0.4051 -0.0356
 2668SOL    HW119463   0.814   3.883   8.773 -0.4567  0.7876  0.3627
 2668SOL    HW219464   0.680   3.917   8.803 -2.4715 -2.3278  0.6639
 2669SOL     OW19465   3.503   2.284   8.714 -0.4355  0.0025 -0.7543
 2669SOL    HW119466   3.434   2.316   8.772 -0.3097  0.1549 -0.6893
 2669SOL    HW219467   3.513   2.357   8.654  1.4129 -1.2666 -1.9974
 2670SOL     OW19468   3.585   2.913   8.038  0.1491  0.1879 -0.0220
 2670SOL    HW119469   3.665   2.924   8.090  0.1631 -1.2104  0.2395
 2670SOL    HW219470   3.516   2.964   8.080  0.9322 -0.1666  1.7177
 2671SOL     OW19471   4.106   0.946   1.938 -0.3375 -0.3295  0.4196
 2671SOL    HW119472   4.133   0.876   1.878 -1.1203  0.6438 -1.0748
 2671SOL    HW219473   4.042   0.995   1.886  0.8120 -2.0173 -2.6513
 2672SOL     OW19474   3.069   2.305   8.257  0.0023  0.1526 -0.1049
 2672SOL    HW119475   3.009   2.380   8.263  0.6200  0.4168  3.0030
 2672SOL    HW219476   2.999   2.244   8.232 -0.2362  1.2754 -2.1878
 2673SOL     OW19477   0.151   4.199   6.206  0.0930 -0.2136  0.0773
 2673SOL    HW119478   0.244   4.175   6.198  0.2897 -0.1750  2.3639
 2673SOL    HW219479   0.114   4.114   6.228  0.7729 -0.6393 -0.4088
 2674SOL     OW19480   2.557   2.001   6.365 -0.5618  0.1130 -0.3160
 2674SOL    HW119481   2.555   1.984   6.271  1.7327  0.7976 -0.4947
 2674SOL    HW219482   2.611   1.929   6.397  0.9069  1.3152 -0.0499
 2675SOL     OW19483   1.384   2.947   7.909  0.1562 -0.2680  0.5554
 2675SOL    HW119484   1.403   2.957   7.816  0.1014  2.1080  0.7840
 2675SOL    HW219485   1.466   2.921   7.952  0.1622  1.8154  1.8365
 2676SOL     OW19486   3.254   2.641   3.704  0.4768  0.0269  0.1223
 2676SOL    HW119487   3.341   2.604   3.716  1.2947  1.7550 -0.4889
 2676SOL    HW219488   3.237   2.687   3.786  0.0003 -0.2816  0.1962
 2677SOL     OW19489   4.066   1.868   0.536  0.1486  0.6569 -0.2703
 2677SOL    HW119490   3.978   1.830   0.541  0.0608  0.9351  0.2996
 2677SOL    HW219491   4.079   1.884   0.629  0.7599 -0.3001 -0.1995
 2678SOL     OW19492   4.254   3.834   5.669  0.4261  0.3521 -0.2018
 2678SOL    HW119493   4.202   3.787   5.604 -0.2650 -0.7132  1.1346
 2678SOL    HW219494   4.180   3.887   5.697 -0.5308 -1.0061 -0.1753
 2679SOL     OW19495   3.193   3.316  10.276  0.0979  0.0643  0.0803
 2679SOL    HW119496   3.181   3.230  10.316  3.6102 -0.9419 -0.9977
 2679SOL    HW219497   3.266   3.350  10.329 -1.5010  0.1116  2.2261
 2680SOL     OW19498   2.329   3.437  13.101  0.1169 -0.5432  0.5208
 2680SOL    HW119499   2.322   3.356  13.151  0.0303 -0.2972  0.9086
 2680SOL    HW219500   2.243   3.473  13.081  0.1380  0.0653  1.4753
 2681SOL     OW19501   2.266   2.273  13.556  0.0911  0.2297 -0.3397
 2681SOL    HW119502   2.214   2.271  13.476  2.2179 -1.5877 -1.6634
 2681SOL    HW219503   2.332   2.206  13.539  0.2617  1.0648 -2.8857
 2682SOL     OW19504   1.343   1.835   8.917  0.3283 -0.2315 -0.0537
 2682SOL    HW119505   1.321   1.785   8.996 -1.2227 -1.6649 -1.4182
 2682SOL    HW219506   1.411   1.894   8.950  0.2079 -1.1232  1.8388
 2683SOL     OW19507   2.872   2.052   0.413  0.1600 -0.0225  0.5133
 2683SOL    HW119508   2.957   2.069   0.454 -0.1089  0.5569  0.8405
 2683SOL    HW219509   2.893   2.067   0.321  1.1215  2.9353  1.2286
 2684SOL     OW19510   1.079   3.114   4.777 -0.4446 -0.3029  0.0542
 2684SOL    HW119511   1.069   3.194   4.726  2.0855 -1.0191 -1.5524
 2684SOL    HW219512   1.165   3.133   4.812 -0.6446  1.3658 -0.3792
 2685SOL     OW19513   0.326   4.484   6.101 -0.0789 -0.3209 -0.4118
 2685SOL    HW119514   0.267   4.466   6.174  0.6263  0.3318  0.3303
 2685SOL    HW219515   0.403   4.521   6.144 -0.1183 -1.0408  0.2629
 2686SOL     OW19516   0.625   0.451  14.325 -0.8803  0.1763 -0.1899
 2686SOL    HW119517   0.699   0.444  14.265 -1.1152  0.6372 -0.5299
 2686SOL    HW219518   0.570   0.503  14.266  1.1801  0.3539 -1.9666
 2687SOL     OW19519   3.504   3.006   2.926 -0.7213  0.3346 -0.4486
 2687SOL    HW119520   3.510   3.011   2.831  1.7039  0.5513 -0.2705
 2687SOL    HW219521   3.489   2.912   2.930  0.8102  0.0991 -0.4523
 2688SOL     OW19522   2.193   0.219  16.726 -0.4645  0.6809  0.3457
 2688SOL    HW119523   2.157   0.306  16.743  0.9482  1.0297  1.5171
 2688SOL    HW219524   2.120   0.161  16.702 -2.7246  3.7325 -0.2361
 2689SOL     OW19525   4.076   2.273   2.833  0.2159  0.1731 -0.2838
 2689SOL    HW119526   4.035   2.340   2.778 -1.2702  0.3999  1.1112
 2689SOL    HW219527   4.005   2.230   2.882  0.8122 -0.4237  0.0520
 2690SOL     OW19528   4.397   1.105  12.607  0.1767 -0.5995 -0.4298
 2690SOL    HW119529   4.348   1.052  12.544  0.7280  0.6419 -1.9173
 2690SOL    HW219530   4.336   1.174  12.631 -0.2939 -0.2956 -2.4617
 2691SOL     OW19531   2.462   0.332  17.266 -0.0337 -0.3259  0.4047
 2691SOL    HW119532   2.402   0.257  17.269  0.1740 -0.4282  1.7360
 2691SOL    HW219533   2.475   0.336  17.171 -0.3539  2.4510  0.4870
 2692SOL     OW19534   4.406   0.131   9.706 -0.1573  0.3473  0.7716
 2692SOL    HW119535   4.500   0.148   9.699  0.4401 -2.5166  1.9333
 2692SOL    HW219536   4.417   0.052   9.759  2.3032  1.1059  1.4005
 2693SOL     OW19537   1.231   0.483   6.538  0.3991 -0.7086 -0.0343
 2693SOL    HW119538   1.137   0.480   6.559 -0.1778  0.7713 -2.4075
 2693SOL    HW219539   1.247   0.577   6.532  0.2629 -0.6494  0.5418
 2694SOL     OW19540   1.971   0.170   8.256 -0.6820 -0.0942  0.0671
 2694SOL    HW119541   1.914   0.246   8.241  2.2938  2.1142  0.0650
 2694SOL    HW219542   1.921   0.088   8.248  0.5414 -0.6625 -1.6706
 2695SOL     OW19543   1.109   4.496   1.266  0.3668  0.7686 -0.1844
 2695SOL    HW119544   1.114   4.407   1.302 -1.2167  1.6880  2.3133
 2695SOL    HW219545   1.159   4.479   1.186  0.6059 -1.6383  0.4738
 2696SOL     OW19546   2.371   2.170  12.984 -0.4479 -0.2492  0.1769
 2696SOL    HW119547   2.422   2.152  12.905 -1.3386  0.0567 -0.4721
 2696SOL    HW219548   2.280   2.148  12.962 -0.7062  1.9399 -0.9249
 2697SOL     OW19549   0.881   0.999   4.189 -0.0323 -0.2306  0.1067
 2697SOL    HW119550   0.944   1.007   4.260 -1.5807  0.6783  1.3886
 2697SOL    HW219551   0.890   0.904   4.180 -2.8098 -0.6554  1.7460
 2698SOL     OW19552   0.109   4.126   6.917 -0.2116 -0.2716  0.1733
 2698SOL    HW119553   0.142   4.088   6.836 -0.7886  1.8167 -1.0226
 2698SOL    HW219554   0.035   4.172   6.878 -2.0992 -1.0811  2.8133
 2699SOL     OW19555   2.452   3.197   4.214 -0.2077  0.2207  0.1162
 2699SOL    HW119556   2.478   3.266   4.153 -0.1908 -1.3893 -1.6951
 2699SOL    HW219557   2.515   3.216   4.284  0.6973  0.3738 -0.7460
 2700SOL     OW19558   1.464   1.748   8.331  0.1356  0.3935  0.6879
 2700SOL    HW119559   1.457   1.843   8.332 -1.5440  0.2673 -2.2189
 2700SOL    HW219560   1.546   1.727   8.377  0.6825  0.7342 -0.1349
 2701SOL     OW19561   2.949   0.867   4.973  0.0265  0.4755  0.6766
 2701SOL    HW119562   2.941   0.927   4.899  0.6723 -0.6103 -0.2752
 2701SOL    HW219563   2.873   0.810   4.963  0.3406  0.0422  0.7469
 2702SOL     OW19564   1.567   2.861   5.141  0.0146 -0.5106 -0.1695
 2702SOL    HW119565   1.638   2.925   5.146 -0.6386  0.1566  0.5572
 2702SOL    HW219566   1.557   2.850   5.046 -0.5044  0.0715 -0.1813
 2703SOL     OW19567   2.881   0.122   2.064 -0.1360  0.4784  0.5676
 2703SOL    HW119568   2.930   0.192   2.021 -1.2880  0.1296 -1.3112
 2703SOL    HW219569   2.952   0.069   2.101 -3.1219 -1.4322  3.5302
 2704SOL     OW19570   3.300   1.419   0.948  0.4517 -0.3704  0.6261
 2704SOL    HW119571   3.326   1.369   1.025  0.4796 -0.2594  0.6882
 2704SOL    HW219572   3.212   1.454   0.962 -0.6117 -2.1579 -1.6836
 2705SOL     OW19573   0.189   1.671  13.364  0.0936  0.5696  0.6275
 2705SOL    HW119574   0.177   1.695  13.456 -1.2890  0.7392  0.3993
 2705SOL    HW219575   0.269   1.619  13.372  0.1568  0.5229 -0.3190
 2706SOL     OW19576   3.558   0.212  10.936 -0.1635  0.6225 -0.2096
 2706SOL    HW119577   3.550   0.138  10.997  1.5935  0.5631 -0.0507
 2706SOL    HW219578   3.506   0.282  10.975  0.2225  0.0607  1.3087
 2707SOL     OW19579   1.822   4.247   9.040 -0.2906  0.4514  0.0649
 2707SOL    HW119580   1.837   4.195   8.961 -2.3260 -1.5250  0.9665
 2707SOL    HW219581   1.856   4.195   9.113 -0.4010  0.0168 -0.1922
 2708SOL     OW19582   2.083   3.285   7.931  0.1658  0.2759 -0.4986
 2708SOL    HW119583   2.045   3.198   7.917  1.6024 -0.5965  1.0895
 2708SOL    HW219584   2.164   3.249   7.966 -0.3199 -1.4431 -1.1433
 2709SOL     OW19585   1.589   4.701   7.081 -0.2954  0.1277 -0.1847
 2709SOL    HW119586   1.669   0.022   7.053  0.3667  0.0474  1.5637
 2709SOL    HW219587   1.616   4.633   7.144 -1.3128  2.1390  2.4162
 2710SOL     OW19588   1.818   0.234  10.492 -0.0838  0.2563 -0.1285
 2710SOL    HW119589   1.753   0.189  10.547  1.6481 -0.4368  1.3580
 2710SOL    HW219590   1.903   0.205  10.525  0.7854  1.4419 -1.3300
 2711SOL     OW19591   3.900   1.459   5.752  0.0970 -0.0563  0.2306
 2711SOL    HW119592   3.839   1.449   5.825  0.8992 -0.1810  0.8747
 2711SOL    HW219593   3.878   1.387   5.693  0.3567  0.1513 -0.1197
 2712SOL     OW19594   0.097   3.564   8.217 -0.0777  0.1580  0.0481
 2712SOL    HW119595   0.026   3.606   8.265 -0.0656 -0.4295  0.5750
 2712SOL    HW219596   0.105   3.484   8.268  1.0137 -1.2226 -2.2728
 2713SOL     OW19597   0.887   4.210   7.448 -0.0290 -0.1514  0.0224
 2713SOL    HW119598   0.953   4.279   7.458  0.0480 -0.2079 -0.0980
 2713SOL    HW219599   0.897   4.143   7.516 -0.0526  0.3112  0.4814
 2714SOL     OW19600   2.369   3.841   8.136 -0.1183 -0.2862  0.1489
 2714SOL    HW119601   2.357   3.768   8.197  1.8903  0.8983  1.9963
 2714SOL    HW219602   2.316   3.806   8.065 -0.7553 -1.8887  1.4209
 2715SOL     OW19603   0.529   0.286   7.562  0.3670 -0.1673 -0.3059
 2715SOL    HW119604   0.531   0.380   7.579 -0.0077  0.0585 -1.4921
 2715SOL    HW219605   0.620   0.269   7.537  0.8334  2.0874 -0.0918
 2716SOL     OW19606   3.375   2.035   1.434  0.3695  0.0398 -0.9878
 2716SOL    HW119607   3.385   2.105   1.498 -1.0331 -1.8023  1.2594
 2716SOL    HW219608   3.399   1.958   1.486 -4.2109 -0.5762  0.1866
 2717SOL     OW19609   1.748   4.633   2.446 -0.3704 -0.6427  0.7510
 2717SOL    HW119610   1.701   4.632   2.362  1.0008 -2.1870 -0.0076
 2717SOL    HW219611   1.818   4.694   2.423  0.6887 -2.6264 -1.3631
 2718SOL     OW19612   0.800   1.967   1.871  0.5368 -0.0673  0.7244
 2718SOL    HW119613   0.873   2.001   1.923 -0.3047  2.6936  0.1454
 2718SOL    HW219614   0.813   1.873   1.868 -1.0212 -0.3364  2.6610
 2719SOL     OW19615   4.686   4.664   3.723 -0.3169 -0.4275  0.0365
 2719SOL    HW119616   0.005   0.012   3.678  1.4755 -1.0733  0.7044
 2719SOL    HW219617   4.605   4.680   3.675  2.1942  3.1548 -2.9536
 2720SOL     OW19618   1.647   4.365  15.098 -0.0995  0.4646  0.3929
 2720SOL    HW119619   1.683   4.305  15.033 -0.6164 -1.1622  1.6202
 2720SOL    HW219620   1.582   4.402  15.037 -0.1035  2.4243  1.5600
 2721SOL     OW19621   1.972   4.347   6.249  0.1366 -0.1228 -0.5251
 2721SOL    HW119622   1.912   4.387   6.311 -0.3622  0.4586 -1.3913
 2721SOL    HW219623   1.923   4.375   6.171 -0.3115  1.5169  0.3594
 2722SOL     OW19624   3.485   1.383   4.335 -0.5808  0.1419 -0.6990
 2722SOL    HW119625   3.541   1.308   4.354  2.9714  2.6140 -1.2646
 2722SOL    HW219626   3.513   1.421   4.251  0.4849 -1.9122 -1.2785
 2723SOL     OW19627   3.930   2.866   5.045 -0.4876 -0.0903  0.1958
 2723SOL    HW119628   3.942   2.960   5.033  1.1078 -0.4008 -0.6908
 2723SOL    HW219629   3.961   2.851   5.134 -4.2139  1.4013  1.7024
 2724SOL     OW19630   2.372   2.670   3.039  0.2402 -0.1153  0.3139
 2724SOL    HW119631   2.426   2.594   3.016  0.5137 -0.1378  1.0172
 2724SOL    HW219632   2.434   2.743   3.038  1.2917 -0.9826  2.1485
 2725SOL     OW19633   3.978   0.354   0.875  0.1563  0.1708  0.1092
 2725SOL    HW119634   4.025   0.272   0.857  0.1387 -0.1073  1.3753
 2725SOL    HW219635   4.031   0.389   0.946  0.1898 -0.7540  0.5449
 2726SOL     OW19636   0.585   0.068  10.869 -0.8669  0.1675  0.2690
 2726SOL    HW119637   0.544   0.053  10.954 -0.6893 -1.1827  0.1116
 2726SOL    HW219638   0.655   0.003  10.864 -1.4776 -0.4550 -0.1666
 2727SOL     OW19639   0.028   0.978  14.802 -0.2144 -0.1426  0.1061
 2727SOL    HW119640   0.113   0.973  14.758  0.5147 -1.9745  1.6689
 2727SOL    HW219641   0.052   0.958  14.893  0.4299 -0.6572 -0.1724
 2728SOL     OW19642   2.053   4.550   5.035 -0.0871 -0.5146 -0.1851
 2728SOL    HW119643   2.125   4.487   5.027  0.1223 -0.3292  0.2612
 2728SOL    HW219644   2.015   4.548   4.947  0.3024  0.9105 -0.3831
 2729SOL     OW19645   1.648   1.620  15.668 -0.6338 -0.1333  1.0392
 2729SOL    HW119646   1.694   1.654  15.591  0.6109  0.3618  1.9885
 2729SOL    HW219647   1.717   1.570  15.712 -0.0025  1.2884  1.6926
 2730SOL     OW19648   0.413   0.327   3.497  0.6169 -0.2820 -0.1018
 2730SOL    HW119649   0.483   0.346   3.434 -1.1497 -1.0901 -2.3111
 2730SOL    HW219650   0.372   0.256   3.448  1.6632 -0.9087 -0.0591
 2731SOL     OW19651   3.274   2.652   4.271 -0.4031 -0.8888 -0.5574
 2731SOL    HW119652   3.362   2.630   4.303 -1.0201 -2.0638  0.3358
 2731SOL    HW219653   3.237   2.565   4.287  0.6473 -1.5238 -1.5831
 2732SOL     OW19654   1.831   1.741   3.739 -0.1357 -0.1495 -0.1029
 2732SOL    HW119655   1.839   1.811   3.805  0.3891  0.0352 -0.3589
 2732SOL    HW219656   1.889   1.770   3.668  0.2476  1.1089  0.7314
 2733SOL     OW19657   2.243   2.701  16.239  0.2255 -0.0112 -0.5579
 2733SOL    HW119658   2.232   2.772  16.176 -1.1933 -2.4580 -3.0404
 2733SOL    HW219659   2.155   2.668  16.255 -0.5756  2.5608  0.4338
 2734SOL     OW19660   2.670   4.606   7.099  0.1086  0.0037  0.0313
 2734SOL    HW119661   2.698   4.663   7.171  0.1266 -0.3889  0.3314
 2734SOL    HW219662   2.683   4.520   7.139 -1.9785 -0.4924 -0.3544
 2735SOL     OW19663   0.954   3.975  16.655  0.4007  0.3602  0.0232
 2735SOL    HW119664   0.991   3.887  16.664 -0.6384 -0.1153 -0.3618
 2735SOL    HW219665   1.032   4.023  16.628 -0.4537  1.1636 -1.0237
 2736SOL     OW19666   4.303   3.869   7.944  0.3265  0.4875 -0.0663
 2736SOL    HW119667   4.296   3.809   7.870 -3.0958  0.8954 -0.0757
 2736SOL    HW219668   4.277   3.951   7.903 -0.0355  0.4381  0.0654
 2737SOL     OW19669   4.589   1.849   3.653 -0.2778 -0.7819 -0.3993
 2737SOL    HW119670   4.624   1.775   3.702  2.0196 -0.2070 -1.1584
 2737SOL    HW219671   4.516   1.803   3.612 -0.1099  1.6329 -3.4261
 2738SOL     OW19672   3.150   1.827   2.665 -0.3183  0.1436  0.4381
 2738SOL    HW119673   3.133   1.865   2.578 -2.1770  0.4932  0.9534
 2738SOL    HW219674   3.082   1.761   2.679  1.5308 -1.7553  0.5878
 2739SOL     OW19675   2.622   0.219   9.402  0.4920 -0.0808 -0.5054
 2739SOL    HW119676   2.674   0.270   9.465  1.6045 -0.7439 -0.8786
 2739SOL    HW219677   2.654   0.129   9.409 -0.3589 -0.3943 -0.6827
 2740SOL     OW19678   0.422   3.649   3.820  0.0962  0.2107  0.6678
 2740SOL    HW119679   0.373   3.729   3.841 -0.6385 -0.0206 -0.1546
 2740SOL    HW219680   0.409   3.659   3.725  2.8834  1.7672  0.4176
 2741SOL     OW19681   1.346   2.839   8.410 -0.0558 -0.1026  0.6296
 2741SOL    HW119682   1.316   2.775   8.345 -1.3942  1.4565 -0.2916
 2741SOL    HW219683   1.415   2.894   8.374 -0.3633  0.1865  0.4800
 2742SOL     OW19684   1.449   2.464   4.505  0.5355 -0.8634  0.0846
 2742SOL    HW119685   1.445   2.411   4.585  0.4875 -0.9277  0.0397
 2742SOL    HW219686   1.387   2.531   4.533  0.2546 -0.8548 -0.5691
 2743SOL     OW19687   3.492   2.520   4.111  0.2073 -0.4475  0.7970
 2743SOL    HW119688   3.508   2.556   4.199  0.6814 -1.7540  1.2440
 2743SOL    HW219689   3.520   2.430   4.123 -2.7720 -1.0608  3.3658
 2744SOL     OW19690   0.114   2.686   6.947  0.6168 -0.5839 -0.0741
 2744SOL    HW119691   0.031   2.696   6.902  0.8425  1.1620 -0.1195
 2744SOL    HW219692   0.130   2.771   6.988 -0.2433  0.9584 -2.9357
 2745SOL     OW19693   1.219   0.391   0.037  0.3161 -0.2569  0.2946
 2745SOL    HW119694   1.188   0.479   0.017 -1.0350 -0.0979  3.1549
 2745SOL    HW219695   1.273   0.367  17.660  1.4006 -1.2109  1.3690
 2746SOL     OW19696   2.367   1.862   5.481  0.5261 -0.1007 -0.9983
 2746SOL    HW119697   2.311   1.807   5.536  0.3888  0.8359 -0.2150
 2746SOL    HW219698   2.303   1.932   5.466 -0.7401 -1.1016 -0.2260
 2747SOL     OW19699   1.577   3.352  17.051  0.4524  0.3358  0.1143
 2747SOL    HW119700   1.531   3.288  16.996 -0.3924 -0.0837  1.3303
 2747SOL    HW219701   1.666   3.317  17.046 -0.3027 -1.4392 -1.0492
 2748SOL     OW19702   0.801   2.963   1.217 -0.4582  0.3711  0.7870
 2748SOL    HW119703   0.818   2.977   1.310 -1.3024 -0.1021  1.0047
 2748SOL    HW219704   0.881   3.001   1.181 -0.7703  0.3212  0.0447
 2749SOL     OW19705   1.203   0.764   9.779 -0.3455  0.7986  0.8694
 2749SOL    HW119706   1.270   0.712   9.825 -0.1733  0.9284  0.7675
 2749SOL    HW219707   1.216   0.743   9.687 -0.1634  0.9373  0.8634
 2750SOL     OW19708   0.423   1.439   1.232 -0.0481  0.1692 -0.2758
 2750SOL    HW119709   0.336   1.422   1.197  0.4998 -2.1323 -0.5322
 2750SOL    HW219710   0.461   1.489   1.160  2.4351  0.3332  1.1532
 2751SOL     OW19711   0.579   3.146  15.131 -0.0354 -0.7934  0.1805
 2751SOL    HW119712   0.599   3.108  15.216 -0.5181  0.8920  1.0390
 2751SOL    HW219713   0.537   3.229  15.154  2.1883  0.2750  0.3803
 2752SOL     OW19714   2.952   2.188   0.827  0.1364 -0.1834  0.0615
 2752SOL    HW119715   2.943   2.243   0.749  0.7980 -0.8388 -0.4770
 2752SOL    HW219716   2.893   2.228   0.891  1.3319 -2.8354  2.7599
 2753SOL     OW19717   0.808   3.718   6.553 -0.1023  0.5419  0.4004
 2753SOL    HW119718   0.733   3.675   6.594 -1.0490  0.9161 -0.9492
 2753SOL    HW219719   0.817   3.670   6.471 -1.7775  0.3933  0.2881
 2754SOL     OW19720   1.223   0.180   1.872 -0.1223  0.1421  0.2805
 2754SOL    HW119721   1.301   0.161   1.820 -0.8442 -1.5701 -0.1779
 2754SOL    HW219722   1.249   0.132   1.950  1.7462  0.3757 -0.2015
 2755SOL     OW19723   2.008   4.714   4.489  0.4278  0.3963 -0.1974
 2755SOL    HW119724   1.931   4.715   4.431  0.8345  1.5849 -0.7162
 2755SOL    HW219725   2.046   0.070   4.451  0.7553  0.8724  1.1393
 2756SOL     OW19726   2.216   1.133   0.118 -0.0759  0.5912  0.4691
 2756SOL    HW119727   2.122   1.112   0.119  0.2786 -1.0428 -0.4909
 2756SOL    HW219728   2.232   1.127   0.212  0.3386  1.2670  0.4390
 2757SOL     OW19729   3.018   1.584   4.782 -0.0818  0.2609 -0.1399
 2757SOL    HW119730   2.935   1.575   4.735 -0.4281 -1.5208  0.7864
 2757SOL    HW219731   2.988   1.644   4.850  0.1736  2.5725 -2.0979
 2758SOL     OW19732   4.271   4.651   9.228 -0.4456 -0.1962  0.2672
 2758SOL    HW119733   4.179   4.680   9.230 -1.1470 -2.5432  2.4895
 2758SOL    HW219734   4.295   4.685   9.314  0.1998 -1.9300  0.7692
 2759SOL     OW19735   1.140   2.287   9.221 -0.3094  0.0406 -0.2252
 2759SOL    HW119736   1.157   2.371   9.261  0.9880 -0.2908 -0.0993
 2759SOL    HW219737   1.067   2.249   9.270 -0.8858  0.0417 -1.0729
 2760SOL     OW19738   2.806   0.880   2.896  0.0279 -0.2478  0.0865
 2760SOL    HW119739   2.841   0.966   2.919 -0.1925  0.8639 -3.7452
 2760SOL    HW219740   2.797   0.851   2.987 -1.5538 -0.3032 -0.0921
 2761SOL     OW19741   0.235   0.366   6.161  0.1948 -0.5962  0.2036
 2761SOL    HW119742   0.169   0.374   6.092 -0.4698  1.1556  1.0408
 2761SOL    HW219743   0.266   0.276   6.155  0.4119 -0.3317 -3.0542
 2762SOL     OW19744   3.492   2.854   4.795  0.0958  0.4306 -0.7292
 2762SOL    HW119745   3.467   2.937   4.835  1.5823  0.5703 -0.0906
 2762SOL    HW219746   3.510   2.808   4.877 -1.6522 -1.8594 -1.6389
 2763SOL     OW19747   4.371   3.611   1.687  1.0768 -0.6310 -0.1591
 2763SOL    HW119748   4.317   3.607   1.608 -1.3477  2.5605  1.3072
 2763SOL    HW219749   4.359   3.525   1.727 -2.5500  0.2317  0.5994
 2764SOL     OW19750   4.552   0.822   5.324  0.6507  0.7272  0.1903
 2764SOL    HW119751   4.518   0.898   5.372  1.6171  1.4872 -0.3321
 2764SOL    HW219752   4.626   0.860   5.278 -0.0258  1.2535 -0.4592
 2765SOL     OW19753   3.280   1.745   6.086 -0.7027  0.5289 -0.7320
 2765SOL    HW119754   3.188   1.759   6.064 -0.5155  0.2874 -1.6900
 2765SOL    HW219755   3.288   1.650   6.077  0.2410  0.7401 -2.0878
 2766SOL     OW19756   1.144   0.788   7.726  0.1221 -0.4656 -0.3216
 2766SOL    HW119757   1.182   0.762   7.810 -1.2408 -2.1834 -0.2309
 2766SOL    HW219758   1.222   0.831   7.692  0.4089 -0.8412 -0.1246
 2767SOL     OW19759   0.447   4.240   7.718 -0.1639  0.3688 -0.3562
 2767SOL    HW119760   0.516   4.232   7.652  0.7264 -1.5176  0.8011
 2767SOL    HW219761   0.485   4.184   7.786 -2.2351 -0.0306  0.4807
 2768SOL     OW19762   2.390   4.186   2.590  0.4422 -0.2557 -0.5480
 2768SOL    HW119763   2.344   4.229   2.518  1.3398  1.1744 -0.2835
 2768SOL    HW219764   2.318   4.125   2.605  0.2471  0.4408  1.3973
 2769SOL     OW19765   4.689   0.047   4.904 -0.2397 -0.3729 -0.1409
 2769SOL    HW119766   4.718   0.012   4.820 -2.2371 -2.1785 -0.0846
 2769SOL    HW219767   0.045   0.047   4.956  0.1864  1.3764 -0.8086
 2770SOL     OW19768   0.543   0.393   2.438  0.4011  0.1687  0.9034
 2770SOL    HW119769   0.462   0.441   2.417  0.8720  0.9019  0.7496
 2770SOL    HW219770   0.535   0.370   2.530  0.1491  0.4565  0.9551
 2771SOL     OW19771   3.984   3.762   0.553  0.6472 -0.1055  0.3294
 2771SOL    HW119772   3.949   3.850   0.538  1.6352  0.3059  0.4479
 2771SOL    HW219773   3.936   3.724   0.480  1.2300 -0.7486  0.2829
 2772SOL     OW19774   2.038   1.377   2.662 -0.0808 -0.1520 -0.2573
 2772SOL    HW119775   1.977   1.392   2.589 -0.9617  2.2562  0.9731
 2772SOL    HW219776   1.981   1.400   2.735  0.4328 -2.3105  0.8073
 2773SOL     OW19777   4.097   0.781   6.611 -0.0388  0.6461  0.2074
 2773SOL    HW119778   4.167   0.831   6.569  1.4445 -1.5017  0.1244
 2773SOL    HW219779   4.024   0.803   6.554 -0.3892 -1.9073 -0.3021
 2774SOL     OW19780   3.103   3.986  15.999 -0.4128  0.0195 -0.0286
 2774SOL    HW119781   3.098   4.067  15.948  0.6511 -1.8294 -3.0583
 2774SOL    HW219782   3.088   4.023  16.085  0.1209  2.0323 -0.7978
 2775SOL     OW19783   1.099   0.947   6.550 -0.2050  0.3427  0.0413
 2775SOL    HW119784   1.057   0.881   6.496 -1.4483 -0.6587  2.2415
 2775SOL    HW219785   1.088   0.916   6.640 -1.6153  0.9017  0.0583
 2776SOL     OW19786   2.542   0.129   9.760  0.1851 -0.1248 -0.3585
 2776SOL    HW119787   2.472   0.081   9.716 -0.5104  0.2197  0.3660
 2776SOL    HW219788   2.555   0.081   9.842 -0.8064  1.4657  0.7449
 2777SOL     OW19789   0.888   3.555   5.503 -0.3074  0.0305 -0.2315
 2777SOL    HW119790   0.892   3.612   5.426  0.6917  0.8474  0.4235
 2777SOL    HW219791   0.936   3.476   5.477  2.2363  1.1477  1.0456
 2778SOL     OW19792   4.702   2.874  13.451  0.4547 -0.0454  0.4479
 2778SOL    HW119793   0.048   2.894  13.513 -0.7932 -0.5479  2.0520
 2778SOL    HW219794   4.636   2.843  13.514 -1.0533 -1.5623 -1.8881
 2779SOL     OW19795   1.895   3.654  12.830  0.3131  0.2509 -0.3039
 2779SOL    HW119796   1.962   3.681  12.892  0.6456 -1.3430  0.0513
 2779SOL    HW219797   1.935   3.572  12.798  2.3938  1.3971 -0.6244
 2780SOL     OW19798   0.514   1.141  17.524  0.6541 -0.2152 -0.3066
 2780SOL    HW119799   0.509   1.232  17.497 -3.8026 -0.1604  0.8146
 2780SOL    HW219800   0.440   1.099  17.481 -0.2878  0.9647  0.1958
 2781SOL     OW19801   3.311   1.482   6.066  0.1035  0.0594 -0.3481
 2781SOL    HW119802   3.331   1.422   5.994 -3.9774 -0.8669 -0.6713
 2781SOL    HW219803   3.246   1.432   6.115  0.0338 -0.1487 -0.6520
 2782SOL     OW19804   0.501   2.160   3.591  0.7086  0.3479 -0.2668
 2782SOL    HW119805   0.447   2.120   3.523 -0.4631  1.5984 -0.0508
 2782SOL    HW219806   0.501   2.249   3.558  0.4036 -0.9850 -3.8905
 2783SOL     OW19807   4.350   1.594   7.995  0.6615 -0.3621 -0.1812
 2783SOL    HW119808   4.275   1.555   8.040  0.5465 -1.2183 -1.1012
 2783SOL    HW219809   4.303   1.636   7.923  2.1817 -0.2656 -1.1355
 2784SOL     OW19810   1.555   0.445   3.051 -0.0122  0.1224 -0.7906
 2784SOL    HW119811   1.470   0.487   3.062  1.0248  2.0830 -0.2513
 2784SOL    HW219812   1.598   0.466   3.134  1.7523  0.5485 -1.8012
 2785SOL     OW19813   2.929   1.887   4.663  0.2164  0.0977 -0.0001
 2785SOL    HW119814   2.999   1.838   4.621 -0.1236  1.2627 -1.9324
 2785SOL    HW219815   2.852   1.846   4.623 -0.5199  1.1413  0.3622
 2786SOL     OW19816   1.484   4.064   3.577  0.0187  0.4918 -0.2235
 2786SOL    HW119817   1.434   3.990   3.543 -1.3408  1.7907 -1.0420
 2786SOL    HW219818   1.530   4.082   3.494  0.4002 -2.0497 -0.5844
 2787SOL     OW19819   1.378   1.677  12.086  0.2811 -0.7619  0.0831
 2787SOL    HW119820   1.361   1.681  12.180  0.3644 -0.9306  0.1055
 2787SOL    HW219821   1.412   1.588  12.075  1.8320 -0.0747 -0.8124
 2788SOL     OW19822   4.552   0.599   9.372 -0.5479 -0.0346  0.0726
 2788SOL    HW119823   4.463   0.566   9.363 -1.0603  1.3213  0.2130
 2788SOL    HW219824   4.604   0.522   9.393  1.1146  1.6083  2.0226
 2789SOL     OW19825   1.693   1.170  15.244  0.3510  0.2833 -0.5795
 2789SOL    HW119826   1.651   1.217  15.171  0.4565 -2.4119 -2.3799
 2789SOL    HW219827   1.761   1.121  15.199  0.2577  0.1900 -0.6195
 2790SOL     OW19828   3.232   2.902   5.639  0.2860 -0.1535 -0.8987
 2790SOL    HW119829   3.302   2.853   5.683 -0.0094 -0.9758 -1.3323
 2790SOL    HW219830   3.155   2.861   5.679  0.7528 -0.5692 -0.4212
 2791SOL     OW19831   3.671   0.821   6.909  0.0699 -0.4261  0.0137
 2791SOL    HW119832   3.644   0.730   6.904 -1.5309 -0.0027  0.8790
 2791SOL    HW219833   3.766   0.808   6.906  0.1548  0.4714 -1.4256
 2792SOL     OW19834   4.467   3.634   2.497 -0.0940  0.1643 -0.3157
 2792SOL    HW119835   4.379   3.612   2.467 -0.1521 -0.6214  0.4170
 2792SOL    HW219836   4.494   3.687   2.423  0.7188  2.1671  1.4415
 2793SOL     OW19837   0.256   2.548   7.277 -0.0218  0.8394  0.1959
 2793SOL    HW119838   0.291   2.625   7.233 -2.1082  0.7861 -1.5074
 2793SOL    HW219839   0.198   2.512   7.210  2.5320  0.6619 -1.9144
 2794SOL     OW19840   2.405   4.635   6.008 -0.2282  0.5606  0.4696
 2794SOL    HW119841   2.485   4.628   6.059  0.8198  1.4626 -1.0638
 2794SOL    HW219842   2.364   4.690   6.075 -0.6142 -0.6121  1.1952
 2795SOL     OW19843   4.553   0.121   6.734 -0.3792  0.0891  0.1029
 2795SOL    HW119844   4.468   0.165   6.726 -1.8734 -2.5807  1.2985
 2795SOL    HW219845   4.537   0.059   6.664  0.7159  1.5400 -1.4397
 2796SOL     OW19846   1.273   0.772   7.026  0.1167 -0.2154 -0.2017
 2796SOL    HW119847   1.354   0.743   7.068  0.3617  0.3693 -0.2766
 2796SOL    HW219848   1.215   0.760   7.101  1.8580 -1.9403  0.8511
 2797SOL     OW19849   0.878   4.086  14.727 -0.0213 -0.3609 -0.0810
 2797SOL    HW119850   0.883   4.076  14.822  2.4422 -1.3499 -0.3153
 2797SOL    HW219851   0.796   4.044  14.701  0.3565 -0.8616 -0.4686
 2798SOL     OW19852   1.744   3.461  16.057  0.2065  0.2318 -0.6634
 2798SOL    HW119853   1.710   3.517  16.127  0.0427 -1.9225  0.9958
 2798SOL    HW219854   1.806   3.517  16.011 -0.7634 -0.3539 -2.7007
 2799SOL     OW19855   0.959   1.252   7.438  0.0811 -0.0873  0.0054
 2799SOL    HW119856   0.941   1.345   7.421  0.6316  0.2938  1.4579
 2799SOL    HW219857   1.052   1.272   7.452  0.5077 -1.4257 -0.8981
 2800SOL     OW19858   4.689   3.607   6.182  0.4914  0.6778 -0.6992
 2800SOL    HW119859   4.689   3.576   6.091 -0.1856 -0.5622 -0.2802
 2800SOL    HW219860   4.699   3.701   6.166  0.8993  0.6005 -0.9066
 2801SOL     OW19861   1.845   3.587   4.373 -0.2150 -0.3878 -0.4627
 2801SOL    HW119862   1.790   3.517   4.408  2.1142 -1.6170  0.6755
 2801SOL    HW219863   1.923   3.587   4.428  1.1781  3.3274 -2.4260
 2802SOL     OW19864   1.974   1.099  15.127 -0.0457 -0.5906  0.3645
 2802SOL    HW119865   2.052   1.103  15.182 -0.7426  2.3154  1.1105
 2802SOL    HW219866   1.973   1.185  15.086  0.2219 -1.2036 -0.9547
 2803SOL     OW19867   2.355   3.482   2.699 -0.1339 -0.1304  0.2656
 2803SOL    HW119868   2.294   3.499   2.627  0.7587 -1.2146 -0.7534
 2803SOL    HW219869   2.434   3.456   2.651 -0.9000  1.9400 -2.1767
 2804SOL     OW19870   0.577   1.195   9.225  0.1132 -0.1155  0.2533
 2804SOL    HW119871   0.607   1.263   9.164  0.2045  0.7583  1.2582
 2804SOL    HW219872   0.572   1.251   9.303  2.1635  1.0268 -0.4252
 2805SOL     OW19873   2.492   0.741   2.721 -0.5092  0.0115  0.4737
 2805SOL    HW119874   2.449   0.782   2.796 -1.8091 -1.5712  0.5837
 2805SOL    HW219875   2.464   0.794   2.647 -0.9556 -1.2379 -0.2535
 2806SOL     OW19876   1.199   1.897  11.636  0.2624 -0.1384 -0.0763
 2806SOL    HW119877   1.198   1.883  11.731 -0.8988 -0.1057 -0.0762
 2806SOL    HW219878   1.286   1.928  11.612  0.2772  0.4527  0.7313
 2807SOL     OW19879   2.590   1.052   2.584 -0.6787 -0.2566  0.1545
 2807SOL    HW119880   2.516   1.013   2.537 -0.9217  0.5736 -0.1478
 2807SOL    HW219881   2.657   0.984   2.580 -1.1306 -0.7484  0.8960
 2808SOL     OW19882   1.648   2.786   5.713  0.1578  0.6518  0.0047
 2808SOL    HW119883   1.554   2.767   5.722  0.3195 -0.1933 -0.0274
 2808SOL    HW219884   1.654   2.870   5.758 -1.3824 -0.0310  1.4852
 2809SOL     OW19885   1.019   0.622   9.915 -0.2738  0.0176 -0.1646
 2809SOL    HW119886   1.037   0.655  10.003  0.3510  1.0818 -0.6935
 2809SOL    HW219887   1.076   0.678   9.863  0.6218  0.2177  1.0375
 2810SOL     OW19888   2.638   2.000  11.382 -0.3840  0.2907  0.7873
 2810SOL    HW119889   2.567   1.943  11.353  0.3686 -0.9948  1.4944
 2810SOL    HW219890   2.598   2.031  11.464 -1.5777 -1.4321  0.8511
 2811SOL     OW19891   1.829   2.320  10.303  0.0044  0.0868  0.2990
 2811SOL    HW119892   1.763   2.386  10.322  1.4229  1.4830  0.3365
 2811SOL    HW219893   1.905   2.376  10.316 -1.1173  1.4552  0.9375
 2812SOL     OW19894   3.064   2.248   1.607  0.0186 -0.2005 -0.2932
 2812SOL    HW119895   3.016   2.166   1.595  0.6420 -0.4088 -1.4411
 2812SOL    HW219896   3.134   2.220   1.666  0.1882 -2.5845 -1.5970
 2813SOL     OW19897   0.967   2.512   8.071  0.1750 -0.6309 -0.2189
 2813SOL    HW119898   0.990   2.556   8.153 -1.4866  0.6165 -0.4330
 2813SOL    HW219899   1.019   2.433   8.084  1.8031  0.6413  1.0285
 2814SOL     OW19900   3.177   1.372  10.768 -0.3022  0.4772  0.0286
 2814SOL    HW119901   3.149   1.280  10.763  2.4908 -0.5306  2.4379
 2814SOL    HW219902   3.232   1.374  10.690 -0.2977 -0.7454 -0.0002
 2815SOL     OW19903   0.356   2.910   3.425 -0.2715 -0.3242 -0.3337
 2815SOL    HW119904   0.280   2.967   3.417 -1.7602 -2.2693 -0.1378
 2815SOL    HW219905   0.403   2.950   3.498  1.0563 -0.2744 -1.2136
 2816SOL     OW19906   0.201   1.514   2.875 -0.1545  0.3072  0.0530
 2816SOL    HW119907   0.276   1.527   2.817  0.6877 -0.0511  1.0606
 2816SOL    HW219908   0.231   1.579   2.939  1.4305  0.9520 -1.3138
 2817SOL     OW19909   1.929   0.864   4.041 -0.4750 -0.2987  0.7802
 2817SOL    HW119910   1.876   0.927   3.993  0.9697 -0.0603 -0.5203
 2817SOL    HW219911   2.016   0.889   4.010 -0.7466  0.2774  0.4823
 2818SOL     OW19912   1.107   2.459   6.892  0.6379  0.1348 -0.2690
 2818SOL    HW119913   1.078   2.409   6.969 -0.6651  1.7481  0.2755
 2818SOL    HW219914   1.157   2.387   6.853 -0.9556 -1.6797  1.0669
 2819SOL     OW19915   2.180   4.410   2.944  0.6190 -0.1604  0.3678
 2819SOL    HW119916   2.189   4.452   3.029  0.8067  0.9971 -0.2278
 2819SOL    HW219917   2.251   4.450   2.894  1.3093 -3.0852 -1.0208
 2820SOL     OW19918   2.270   4.379   4.075  0.0880 -0.5568 -0.3895
 2820SOL    HW119919   2.282   4.446   4.008 -1.2766  0.0068 -0.0807
 2820SOL    HW219920   2.310   4.303   4.033 -0.5162 -1.5803  0.8729
 2821SOL     OW19921   1.635   0.318  11.430  0.3719 -0.2002 -0.5459
 2821SOL    HW119922   1.542   0.307  11.452  0.3699 -0.4185 -0.6663
 2821SOL    HW219923   1.665   0.326  11.520 -1.4722 -2.4884  0.2604
 2822SOL     OW19924   2.871   4.036  11.044 -0.1597  0.7615 -0.3869
 2822SOL    HW119925   2.953   4.076  11.015  0.0589  1.0032  0.5662
 2822SOL    HW219926   2.817   4.108  11.077 -0.7731  0.2540 -0.3028
 2823SOL     OW19927   4.461   1.970   5.281 -0.4098 -0.2479 -0.2084
 2823SOL    HW119928   4.435   1.893   5.330  0.9506 -0.1830  0.6022
 2823SOL    HW219929   4.503   1.928   5.206 -1.1429 -0.4100 -0.5320
 2824SOL     OW19930   0.520   2.706   1.269  0.0401  0.2205  0.2431
 2824SOL    HW119931   0.503   2.649   1.195 -2.7238  0.1453  0.9111
 2824SOL    HW219932   0.581   2.652   1.319 -0.6494  2.1618  3.2028
 2825SOL     OW19933   1.703   1.083   1.909  0.7870  0.2584  0.1494
 2825SOL    HW119934   1.687   1.164   1.861 -0.9662 -0.3640 -0.3392
 2825SOL    HW219935   1.614   1.047   1.902  1.5926 -1.9377  1.0830
 2826SOL     OW19936   4.689   2.730  10.121  0.3052  0.1093 -0.3233
 2826SOL    HW119937   0.011   2.673  10.181 -0.9154 -2.5312 -1.9060
 2826SOL    HW219938   4.668   2.811  10.168  1.7260  0.0726  0.3515
 2827SOL     OW19939   4.206   4.070  14.226  0.0586 -0.4516 -0.0396
 2827SOL    HW119940   4.172   3.981  14.210  0.7833 -0.7260 -0.0333
 2827SOL    HW219941   4.155   4.119  14.161 -0.2913  0.7086  1.1148
 2828SOL     OW19942   4.426   2.053   8.424 -0.2118  0.7545 -0.0412
 2828SOL    HW119943   4.395   2.015   8.507  2.7202  2.4749  1.8447
 2828SOL    HW219944   4.491   1.985   8.407  0.4546  1.6238 -0.9380
 2829SOL     OW19945   1.285   1.361   6.661  0.3644 -0.0530  0.1003
 2829SOL    HW119946   1.250   1.280   6.698 -0.3077  0.9274  1.5788
 2829SOL    HW219947   1.377   1.355   6.688 -0.0547  1.4514  1.8095
 2830SOL     OW19948   3.514   2.002  13.141  0.3437  0.3145 -0.3535
 2830SOL    HW119949   3.425   1.967  13.148  0.4980  0.7610  4.0164
 2830SOL    HW219950   3.504   2.096  13.157  0.7532  0.3284 -0.1793
 2831SOL     OW19951   3.025   0.995   2.704  0.0939  0.0216  0.4230
 2831SOL    HW119952   2.998   1.080   2.738 -0.0163  0.9175 -1.8737
 2831SOL    HW219953   2.993   0.940   2.775 -2.1323 -0.2274 -0.7582
 2832SOL     OW19954   1.242   0.269   8.771  0.1665  0.5584 -0.4750
 2832SOL    HW119955   1.280   0.188   8.737  1.8908  1.3635 -0.4503
 2832SOL    HW219956   1.318   0.314   8.808 -0.1857  1.7821 -1.2402
 2833SOL     OW19957   2.971   3.948   3.355  0.3914 -0.4766 -0.3142
 2833SOL    HW119958   2.891   3.909   3.320 -0.3686  1.5891 -0.8644
 2833SOL    HW219959   3.025   3.937   3.277  0.1509 -0.1564 -0.5263
 2834SOL     OW19960   3.442   2.361  11.514 -0.0155  0.3014 -0.2331
 2834SOL    HW119961   3.486   2.336  11.595 -1.5693 -2.5219 -0.2688
 2834SOL    HW219962   3.493   2.309  11.451  2.6954  0.4558  1.8437
 2835SOL     OW19963   1.460   4.697  17.572 -0.6715 -0.2434 -0.6576
 2835SOL    HW119964   1.445   4.716  17.664  0.0799  1.1677 -0.8376
 2835SOL    HW219965   1.547   4.658  17.581 -0.4727  0.1318 -0.9869
 2836SOL     OW19966   4.593   3.439   7.843 -0.0678  0.3889  0.1231
 2836SOL    HW119967   4.503   3.455   7.815  0.0599  0.6119 -0.1548
 2836SOL    HW219968   4.581   3.365   7.902 -0.3872  2.3393  2.5296
 2837SOL     OW19969   2.419   2.032  16.514  0.2456 -0.5465 -0.1018
 2837SOL    HW119970   2.466   2.078  16.445 -0.0076  1.2919  0.9331
 2837SOL    HW219971   2.491   2.029  16.578 -0.1389 -0.3741  0.3458
 2838SOL     OW19972   4.523   2.780  13.626 -0.2006 -0.0668 -0.9198
 2838SOL    HW119973   4.452   2.802  13.687 -1.3967  0.4300 -2.4909
 2838SOL    HW219974   4.543   2.690  13.651 -0.1090  1.1609  3.4427
 2839SOL     OW19975   4.242   3.865   6.451 -0.0232 -0.1335 -0.1188
 2839SOL    HW119976   4.316   3.864   6.391  1.7273 -1.2556  2.0606
 2839SOL    HW219977   4.173   3.836   6.391 -0.8972 -2.7986  2.1668
 2840SOL     OW19978   1.408   1.941   8.688 -0.3647  0.7941 -0.0848
 2840SOL    HW119979   1.356   1.897   8.756  2.1762  0.1074  1.4210
 2840SOL    HW219980   1.479   1.878   8.685 -0.4997  0.5663  1.2556
 2841SOL     OW19981   4.721   3.147  17.272 -0.4868  0.2530  1.0621
 2841SOL    HW119982   4.704   3.241  17.283 -1.2182  0.5465 -2.4448
 2841SOL    HW219983   0.049   3.143  17.352  0.5315 -1.4335  0.3004
 2842SOL     OW19984   0.830   3.585  15.594  0.4785 -0.0507  0.4095
 2842SOL    HW119985   0.835   3.679  15.579 -0.8282 -0.4256 -2.2661
 2842SOL    HW219986   0.830   3.547  15.507 -0.1647  0.5194  0.1647
 2843SOL     OW19987   0.687   0.429  15.252  0.5050 -0.0999  0.4134
 2843SOL    HW119988   0.729   0.426  15.166 -1.5787  1.4081 -0.6620
 2843SOL    HW219989   0.598   0.409  15.224  0.7681 -1.9993  0.9440
 2844SOL     OW19990   2.085   0.145   8.522  0.0956  0.6974  0.1946
 2844SOL    HW119991   2.030   0.192   8.585  1.9035 -0.2486  2.4687
 2844SOL    HW219992   2.023   0.130   8.451  0.9375  1.1382 -0.6400
 2845SOL     OW19993   1.184   1.347   0.457 -0.1733  0.0106  0.6316
 2845SOL    HW119994   1.186   1.339   0.552  0.1978  1.8047  0.7722
 2845SOL    HW219995   1.095   1.312   0.455  0.8378 -2.3704 -1.7386
 2846SOL     OW19996   3.997   1.371  10.663 -0.6975  0.2732 -0.5085
 2846SOL    HW119997   4.074   1.362  10.720 -1.1394 -1.0215 -0.1099
 2846SOL    HW219998   3.985   1.283  10.627 -1.2507 -0.1313  0.6691
 2847SOL     OW19999   0.320   2.156  13.346 -0.5341 -0.2402 -0.6548
 2847SOL    HW120000   0.283   2.200  13.423  2.9123  0.3542  0.6880
 2847SOL    HW220001   0.254   2.166  13.278 -1.9830 -1.1065  0.6273
 2848SOL     OW20002   0.307   1.790   1.128 -0.6024 -0.1923 -0.8077
 2848SOL    HW120003   0.364   1.733   1.077  0.2227 -1.6213  1.7587
 2848SOL    HW220004   0.301   1.863   1.066  3.4786  2.2037  1.6037
 2849SOL     OW20005   0.599   2.699  15.405 -0.3582 -0.0485  0.0713
 2849SOL    HW120006   0.576   2.782  15.448 -0.0981 -0.8924  1.8412
 2849SOL    HW220007   0.556   2.706  15.320  0.5505 -2.3391 -0.5695
 2850SOL     OW20008   0.779   0.988   3.134 -0.4800 -0.4126  0.1614
 2850SOL    HW120009   0.769   0.893   3.127  0.8764 -0.6558  1.3117
 2850SOL    HW220010   0.692   1.027   3.138  0.6064  2.2540 -1.6815
 2851SOL     OW20011   1.845   3.249  12.033 -0.5166  0.2878 -0.3155
 2851SOL    HW120012   1.823   3.234  11.941  1.1223 -2.5746 -0.2537
 2851SOL    HW220013   1.817   3.164  12.069 -1.3054  0.9864  0.7255
 2852SOL     OW20014   4.499   2.914   0.851 -0.2688  0.1171  0.2503
 2852SOL    HW120015   4.556   2.890   0.778 -0.8858  0.3363 -0.3027
 2852SOL    HW220016   4.515   3.008   0.861 -2.6236  0.5230  0.1924
 2853SOL     OW20017   0.576   1.842   2.521  0.4285 -0.8846 -0.0757
 2853SOL    HW120018   0.626   1.769   2.484  1.5559 -0.5878  0.8500
 2853SOL    HW220019   0.556   1.883   2.437  2.5376  0.6313  0.1590
 2854SOL     OW20020   1.554   1.758   7.658 -0.2572 -0.4907  0.1265
 2854SOL    HW120021   1.610   1.795   7.589  2.1821 -0.4619  2.1259
 2854SOL    HW220022   1.478   1.721   7.614  0.8986 -1.6504 -0.8846
 2855SOL     OW20023   0.431   1.343  14.614  0.3654  0.0804 -0.2496
 2855SOL    HW120024   0.487   1.266  14.627  2.3491  1.7061  0.9521
 2855SOL    HW220025   0.425   1.341  14.519 -1.4207 -0.2209 -0.1142
 2856SOL     OW20026   1.090   2.181  11.777 -0.3241 -0.9373 -0.4201
 2856SOL    HW120027   1.073   2.113  11.843 -1.6102 -0.0839  0.1256
 2856SOL    HW220028   1.186   2.177  11.771 -0.3298 -1.6152 -0.1347
 2857SOL     OW20029   0.602   1.237   2.650  0.2422 -0.1463  0.4913
 2857SOL    HW120030   0.675   1.234   2.588 -0.7627  0.3015 -0.7005
 2857SOL    HW220031   0.522   1.219   2.601  0.2553  1.1732 -0.0172
 2858SOL     OW20032   0.098   2.427   7.087 -0.1511  0.5118  0.0470
 2858SOL    HW120033   0.009   2.428   7.121 -0.1095 -0.6421  0.2041
 2858SOL    HW220034   0.092   2.491   7.017 -0.8608  0.0612 -0.3034
 2859SOL     OW20035   2.743   3.584   9.722  0.4127  0.0061  0.6008
 2859SOL    HW120036   2.812   3.636   9.764  0.2654  2.7634 -2.5572
 2859SOL    HW220037   2.756   3.506   9.775  0.1877  0.2354  0.9956
 2860SOL     OW20038   1.376   0.028   8.730  0.2856 -0.1462  0.0395
 2860SOL    HW120039   1.430   4.695   8.676 -0.5059  0.4887 -1.4180
 2860SOL    HW220040   1.447   0.050   8.790 -0.0850 -2.4119  1.3249
 2861SOL     OW20041   3.440   2.476   9.096  0.1665 -0.1245 -0.4308
 2861SOL    HW120042   3.399   2.545   9.148  1.3235 -1.0107  1.6125
 2861SOL    HW220043   3.390   2.461   9.015  0.9413 -0.6699 -0.8045
 2862SOL     OW20044   0.010   2.106   9.805 -0.9542  0.1676 -0.6551
 2862SOL    HW120045   0.012   2.088   9.899 -0.0211 -0.2763 -0.7502
 2862SOL    HW220046   4.688   2.025   9.783 -0.0014 -0.5118 -0.1522
 2863SOL     OW20047   2.654   3.994   3.466  0.4549  0.1455 -0.1829
 2863SOL    HW120048   2.566   4.029   3.478  0.1365 -1.0188  0.8581
 2863SOL    HW220049   2.698   4.010   3.549 -1.0088  0.8631  0.4573
 2864SOL     OW20050   4.708   2.485   8.589 -0.4886 -0.2111  0.2056
 2864SOL    HW120051   0.023   2.438   8.663  2.7246  0.3604 -1.1379
 2864SOL    HW220052   0.025   2.571   8.582 -0.1488 -0.1361  3.3369
 2865SOL     OW20053   4.136   3.468   3.441  0.0493  0.4152 -0.7047
 2865SOL    HW120054   4.140   3.479   3.346  0.2424 -0.7045 -0.8267
 2865SOL    HW220055   4.197   3.395   3.454  0.6298  0.8704 -0.8369
 2866SOL     OW20056   2.400   1.651   3.595 -0.1235  0.2282  0.1138
 2866SOL    HW120057   2.411   1.680   3.685 -3.3235 -1.2609  0.9718
 2866SOL    HW220058   2.482   1.602   3.587  0.0234  0.2906  1.2437
 2867SOL     OW20059   4.557   0.823   2.203 -0.2670 -0.6000 -0.7033
 2867SOL    HW120060   4.555   0.736   2.242 -1.6139  0.7869  2.3205
 2867SOL    HW220061   4.564   0.807   2.109  0.1976  0.9100 -0.9254
 2868SOL     OW20062   0.146   1.153   3.861  0.4205  0.6627 -0.3326
 2868SOL    HW120063   0.146   1.113   3.948  0.8604  0.3568 -0.4732
 2868SOL    HW220064   0.194   1.235   3.878 -1.7050  2.0784 -1.1914
 2869SOL     OW20065   0.626   0.385   9.297  0.1544 -0.3849  0.3418
 2869SOL    HW120066   0.712   0.352   9.321 -0.0404 -1.8841 -1.0136
 2869SOL    HW220067   0.636   0.398   9.202  0.8576  0.5259  0.5402
 2870SOL     OW20068   4.129   3.253   1.207 -0.1712 -0.5766  0.3492
 2870SOL    HW120069   4.115   3.335   1.255 -0.1313  0.9259 -2.2067
 2870SOL    HW220070   4.209   3.283   1.164 -0.4872  0.3772  0.4132
 2871SOL     OW20071   2.094   0.784   7.722 -0.1699  0.0616 -0.2647
 2871SOL    HW120072   2.002   0.811   7.717  0.0683  0.6319 -1.4708
 2871SOL    HW220073   2.104   0.732   7.643 -0.0541 -0.7625  0.2933
 2872SOL     OW20074   1.482   1.459   1.508  0.3184 -0.5919  0.2092
 2872SOL    HW120075   1.497   1.535   1.564  0.4034 -2.2244  2.3705
 2872SOL    HW220076   1.498   1.489   1.418  0.3614  0.0202  0.4268
 2873SOL     OW20077   1.824   1.169  13.152  0.3967  0.4732 -0.5393
 2873SOL    HW120078   1.846   1.238  13.089  1.6079 -0.3536 -1.0294
 2873SOL    HW220079   1.912   1.135  13.170 -0.3002 -2.2551 -2.1849
 2874SOL     OW20080   1.624   3.237  16.262  0.0756  0.1050  0.0876
 2874SOL    HW120081   1.596   3.182  16.335 -0.6783 -0.3608 -0.5458
 2874SOL    HW220082   1.713   3.257  16.289  1.6618 -2.2987 -3.3449
 2875SOL     OW20083   3.738   0.291   0.613 -0.6619 -0.3455  0.0320
 2875SOL    HW120084   3.742   0.197   0.635  0.6668 -0.3979 -0.4814
 2875SOL    HW220085   3.827   0.323   0.622 -0.4834 -0.6384 -0.7619
 2876SOL     OW20086   0.987   3.331   2.951  1.0065  0.4680  0.3279
 2876SOL    HW120087   0.951   3.387   3.020  0.8836  1.0589 -0.2214
 2876SOL    HW220088   1.078   3.316   2.977  2.1517  1.9980 -2.7464
 2877SOL     OW20089   4.546   2.863   3.545  0.4011 -0.2673 -0.1831
 2877SOL    HW120090   4.634   2.835   3.569 -0.6323 -2.0474  1.5321
 2877SOL    HW220091   4.544   2.863   3.449 -0.3251 -2.5374 -0.1529
 2878SOL     OW20092   4.586   0.199  15.127 -0.5026  0.0900 -0.0247
 2878SOL    HW120093   4.586   0.280  15.179 -0.1874 -0.6232  1.0750
 2878SOL    HW220094   4.680   0.202  15.105 -0.8382  0.0397 -1.4403
 2879SOL     OW20095   4.620   3.625   4.376  0.5195 -1.1982  0.6494
 2879SOL    HW120096   4.616   3.717   4.351  1.4844 -1.7148 -1.4123
 2879SOL    HW220097   4.545   3.623   4.436  2.0397  2.6742  2.6596
 2880SOL     OW20098   4.392   2.456   6.748 -0.2660  0.9256  0.2252
 2880SOL    HW120099   4.362   2.407   6.672 -2.4054  0.5527  1.3199
 2880SOL    HW220100   4.316   2.510   6.768 -0.0119  1.0219  0.9467
 2881SOL     OW20101   0.013   0.770   8.390  0.0644  0.4206 -0.2199
 2881SOL    HW120102   0.021   0.861   8.418 -0.1172  0.6841 -1.0249
 2881SOL    HW220103   4.667   0.780   8.325 -0.1168 -1.3915 -0.3010
 2882SOL     OW20104   1.026   3.241  12.471 -0.2344 -0.0464  0.2837
 2882SOL    HW120105   1.057   3.164  12.519  0.0998  0.3504  0.7093
 2882SOL    HW220106   0.968   3.197  12.409 -0.7919  1.8722 -0.5625
 2883SOL     OW20107   3.246   1.828   5.044 -0.3144 -0.0492 -0.5026
 2883SOL    HW120108   3.314   1.820   5.111  0.2989 -1.2956 -1.2657
 2883SOL    HW220109   3.232   1.740   5.008 -0.9092 -0.2733  0.2753
 2884SOL     OW20110   1.644   1.766  17.116  0.2033 -0.2174 -0.2406
 2884SOL    HW120111   1.704   1.822  17.164  0.8223  1.1394 -2.6181
 2884SOL    HW220112   1.658   1.787  17.024 -1.7205 -2.5221 -1.0789
 2885SOL     OW20113   3.434   1.728  12.858 -0.0755  0.0068  0.6661
 2885SOL    HW120114   3.497   1.727  12.930  1.5074 -0.7724 -0.7203
 2885SOL    HW220115   3.493   1.685  12.795 -1.3180  0.8591 -1.0870
 2886SOL     OW20116   2.980   0.981   9.322  0.2634 -0.4063  0.5125
 2886SOL    HW120117   2.914   0.924   9.285 -0.7852  0.5402  0.9138
 2886SOL    HW220118   3.050   0.920   9.347  0.7458 -0.8887 -2.0061
 2887SOL     OW20119   1.046   3.169   6.189 -0.0088  0.0743 -0.1944
 2887SOL    HW120120   1.138   3.169   6.213 -0.2003  0.0823  0.5246
 2887SOL    HW220121   1.036   3.078   6.217  0.3718  0.5755  1.5436
 2888SOL     OW20122   0.555   1.901  17.618  0.2319 -0.1566 -0.1361
 2888SOL    HW120123   0.548   1.864   0.007  1.8254 -2.0604 -0.8131
 2888SOL    HW220124   0.486   1.968  17.619 -0.6819 -1.1460  2.0696
 2889SOL     OW20125   1.166   1.840   5.839 -0.0392 -0.0096 -0.2764
 2889SOL    HW120126   1.078   1.864   5.808 -0.1698  1.1882  1.0343
 2889SOL    HW220127   1.145   1.760   5.887 -1.9739 -0.9975 -2.7551
 2890SOL     OW20128   0.255   2.609   2.619  0.5831 -0.1143  0.0200
 2890SOL    HW120129   0.253   2.624   2.525  0.9002 -0.6409 -0.0685
 2890SOL    HW220130   0.333   2.660   2.639  2.2901 -2.7794  0.0325
 2891SOL     OW20131   3.544   2.580  15.349 -0.1120 -0.3750 -0.4589
 2891SOL    HW120132   3.557   2.584  15.444  0.5549  0.5968 -0.5984
 2891SOL    HW220133   3.602   2.649  15.318 -2.0952  1.3931 -0.1935
 2892SOL     OW20134   2.469   3.663   5.600 -0.2516  0.0625  0.3975
 2892SOL    HW120135   2.471   3.745   5.650  1.1191  2.4227 -3.4516
 2892SOL    HW220136   2.561   3.645   5.580 -0.4097 -1.0982  0.7569
 2893SOL     OW20137   4.202   3.288   4.658  0.5929 -0.0821  0.0127
 2893SOL    HW120138   4.253   3.288   4.577 -0.4494  0.2842 -0.6519
 2893SOL    HW220139   4.188   3.383   4.659  0.0842 -0.1469 -0.9472
 2894SOL     OW20140   1.617   4.107   0.529 -0.0426  0.3611  0.1321
 2894SOL    HW120141   1.527   4.123   0.556  0.3828 -1.0541  2.4217
 2894SOL    HW220142   1.637   4.021   0.568  1.1101  0.9010  0.7312
 2895SOL     OW20143   0.512   1.921   6.234 -1.1227 -0.6963  0.6212
 2895SOL    HW120144   0.468   1.841   6.208  0.1649 -0.6512 -1.6445
 2895SOL    HW220145   0.560   1.889   6.311  1.9925  0.6458 -0.7721
 2896SOL     OW20146   3.345   3.094   8.723  0.2214 -0.3688 -0.0311
 2896SOL    HW120147   3.421   3.070   8.671  1.2542  1.0385  0.8205
 2896SOL    HW220148   3.384   3.088   8.811 -1.6420  0.2555  0.8447
 2897SOL     OW20149   4.179   3.373   2.032 -0.2945 -0.7925 -0.5489
 2897SOL    HW120150   4.249   3.320   1.994  0.4225  0.7419 -1.3846
 2897SOL    HW220151   4.222   3.454   2.058  0.9333 -0.9193 -2.1906
 2898SOL     OW20152   3.195   0.920  13.295 -0.4855  0.2682 -0.1799
 2898SOL    HW120153   3.216   0.904  13.203 -1.2527 -0.2180 -0.2760
 2898SOL    HW220154   3.155   1.006  13.298 -0.9092 -0.0112  1.9704
 2899SOL     OW20155   1.514   1.345  10.232 -0.5424 -0.1553 -0.2815
 2899SOL    HW120156   1.515   1.285  10.306  2.1337 -0.7923 -0.8390
 2899SOL    HW220157   1.449   1.411  10.252 -1.7045 -1.3210 -0.1751
 2900SOL     OW20158   1.239   2.668   8.264 -0.7587 -0.1005 -0.5958
 2900SOL    HW120159   1.147   2.683   8.285 -1.0567 -2.2261 -0.3784
 2900SOL    HW220160   1.240   2.652   8.169  1.6380 -1.1683 -0.3937
 2901SOL     OW20161   0.579   4.583  11.284 -0.0085  0.1033 -0.0686
 2901SOL    HW120162   0.640   4.532  11.231 -2.2060 -1.6189 -0.9440
 2901SOL    HW220163   0.548   4.520  11.349 -0.7590  1.2063  0.6582
 2902SOL     OW20164   4.658   0.696   4.585 -0.2492 -0.0427 -0.6964
 2902SOL    HW120165   4.710   0.717   4.663  0.6991 -0.3479 -1.2456
 2902SOL    HW220166   4.638   0.782   4.549  1.2317 -0.1464 -1.7979
 2903SOL     OW20167   1.219   3.408   8.132  0.0001 -0.6741 -0.2936
 2903SOL    HW120168   1.302   3.411   8.085  0.3958  2.5781  0.6122
 2903SOL    HW220169   1.219   3.324   8.177  2.8722  0.1928  1.3074
 2904SOL     OW20170   3.105   2.079   0.558  0.1748  0.0297 -0.0073
 2904SOL    HW120171   3.181   2.054   0.611 -0.4665 -0.2932  0.7578
 2904SOL    HW220172   3.088   2.166   0.592  0.8467 -0.1518  0.7801
 2905SOL     OW20173   1.294   2.139   7.183 -0.3002  0.8204  0.0366
 2905SOL    HW120174   1.308   2.231   7.160  0.8285  0.6833  0.2015
 2905SOL    HW220175   1.340   2.138   7.267  0.1112 -1.1603 -0.2034
 2906SOL     OW20176   1.740   0.185   6.170  0.3235 -0.2045 -0.1053
 2906SOL    HW120177   1.742   0.240   6.092 -0.3918 -2.0571 -1.4140
 2906SOL    HW220178   1.672   0.123   6.147 -0.1607  0.8151 -1.4080
 2907SOL     OW20179   2.218   3.451   5.098  0.4241  0.1078 -0.0216
 2907SOL    HW120180   2.231   3.509   5.023  1.8643 -0.4643 -0.2176
 2907SOL    HW220181   2.306   3.464   5.134  0.6591 -3.4680  0.7095
 2908SOL     OW20182   3.117   1.713   5.676  0.3051 -0.5333  0.6372
 2908SOL    HW120183   3.036   1.732   5.722 -0.6892 -1.1458 -0.8776
 2908SOL    HW220184   3.161   1.798   5.675 -1.1450  0.2150  0.6870
 2909SOL     OW20185   2.827   0.893   7.185  0.3572  0.7985  0.3294
 2909SOL    HW120186   2.845   0.840   7.108 -0.2700 -0.9111  1.3389
 2909SOL    HW220187   2.738   0.869   7.209  0.7153 -0.0450  0.8120
 2910SOL     OW20188   2.200   4.617  10.254  0.1816  0.4730 -0.1093
 2910SOL    HW120189   2.114   4.629  10.215  0.8163  0.1081 -1.6009
 2910SOL    HW220190   2.224   4.701  10.294 -0.4973  1.3481 -1.5256
 2911SOL     OW20191   1.391   0.447  14.587  0.1345  0.2295 -0.1266
 2911SOL    HW120192   1.306   0.475  14.553 -0.7897 -0.6751  1.4891
 2911SOL    HW220193   1.422   0.538  14.586 -0.5669  0.4454 -2.3473
 2912SOL     OW20194   0.346   4.681  12.504  0.0830  0.1464 -0.1262
 2912SOL    HW120195   0.319   4.716  12.589  1.9553 -1.4366  1.1283
 2912SOL    HW220196   0.273   4.622  12.488  0.0533  1.1282 -3.6954
 2913SOL     OW20197   0.150   2.623  14.984 -0.6308 -0.3135 -0.1445
 2913SOL    HW120198   0.153   2.698  14.924 -0.6752 -1.2617 -1.3217
 2913SOL    HW220199   0.243   2.606  14.996 -1.0148 -1.8220  0.6194
 2914SOL     OW20200   1.276   0.529  11.253 -0.2731  0.2196 -0.0072
 2914SOL    HW120201   1.289   0.577  11.171  1.5486  0.0479  0.2001
 2914SOL    HW220202   1.181   0.537  11.268 -0.5756 -2.4970 -0.4990
 2915SOL     OW20203   1.138   3.715   1.775 -0.1091 -0.1922  0.6715
 2915SOL    HW120204   1.159   3.795   1.823 -0.1256 -0.9926  1.9927
 2915SOL    HW220205   1.095   3.751   1.697  0.9543  1.1434  0.7072
 2916SOL     OW20206   0.776   1.664   3.291  0.0415  0.4801  0.0924
 2916SOL    HW120207   0.853   1.638   3.343  0.5468  1.5741 -0.1142
 2916SOL    HW220208   0.786   1.614   3.210 -2.9370 -0.3633  0.2688
 2917SOL     OW20209   3.407   4.424   5.844  0.2727  0.3135  0.2800
 2917SOL    HW120210   3.452   4.388   5.768  0.8257  0.2556  0.6364
 2917SOL    HW220211   3.328   4.467   5.811 -2.3199 -3.4199  1.6744
 2918SOL     OW20212   0.177   1.861   5.244  0.3513  0.0935 -0.3758
 2918SOL    HW120213   0.248   1.871   5.180  0.5964 -1.2344 -0.3271
 2918SOL    HW220214   0.196   1.930   5.307  1.9948 -0.6154 -0.1015
 2919SOL     OW20215   3.943   4.668  13.804  0.4651  0.4782  0.7880
 2919SOL    HW120216   4.032   4.649  13.774 -0.5476 -0.3178 -1.7754
 2919SOL    HW220217   3.895   4.594  13.768  0.1626 -0.0027  2.2066
 2920SOL     OW20218   2.740   0.046   4.145  0.2005 -0.0539 -0.2692
 2920SOL    HW120219   2.732   0.045   4.049  0.2351 -0.3321 -0.2705
 2920SOL    HW220220   2.710   4.681   4.163  1.7906 -0.6583 -0.6240
 2921SOL     OW20221   0.519   1.389  17.428 -0.3642 -0.2316 -0.0072
 2921SOL    HW120222   0.537   1.454  17.495  2.8162 -0.7172 -0.3980
 2921SOL    HW220223   0.517   1.448  17.353 -0.0771 -0.0603  0.1229
 2922SOL     OW20224   4.674   2.367   5.167 -0.1163  0.4662  0.8813
 2922SOL    HW120225   4.695   2.438   5.228  0.4709 -0.5675  1.8827
 2922SOL    HW220226   4.584   2.360   5.200 -0.0567 -0.6340  0.8065
 2923SOL     OW20227   1.813   1.940  13.939 -0.2175  0.6200 -0.5773
 2923SOL    HW120228   1.827   1.976  13.852 -0.9829  1.3029 -0.4208
 2923SOL    HW220229   1.784   2.010  13.997 -0.3018 -0.6468  0.9407
 2924SOL     OW20230   3.597   3.778   7.207 -0.0913  0.2483  0.4901
 2924SOL    HW120231   3.519   3.735   7.242  0.7667 -2.0010 -0.3955
 2924SOL    HW220232   3.646   3.711   7.161 -1.0791 -1.4762  1.9514
 2925SOL     OW20233   0.525   1.852  11.921 -0.3635  0.3210 -1.0228
 2925SOL    HW120234   0.436   1.818  11.914  0.5429 -2.7363  2.6163
 2925SOL    HW220235   0.572   1.816  11.845 -1.7912  1.8903 -2.6599
 2926SOL     OW20236   1.665   1.298   9.852 -0.4040  0.3481  0.3327
 2926SOL    HW120237   1.631   1.245   9.780  0.1610 -0.0723  0.3811
 2926SOL    HW220238   1.584   1.345   9.873  0.1921  2.4717 -2.1224
 2927SOL     OW20239   1.390   1.094   2.162 -0.2570  0.0217  0.0434
 2927SOL    HW120240   1.467   1.048   2.194  0.1186  0.2357 -0.5635
 2927SOL    HW220241   1.395   1.071   2.069 -0.6608  1.2086 -0.2621
 2928SOL     OW20242   3.351   1.693  14.351  0.1811 -0.0250  0.4157
 2928SOL    HW120243   3.419   1.649  14.401  1.4166  0.8023 -0.5195
 2928SOL    HW220244   3.299   1.620  14.316  0.7925 -1.0859  1.7583
 2929SOL     OW20245   1.598   4.533  11.786  0.5351 -0.2901  0.2487
 2929SOL    HW120246   1.528   4.598  11.791 -0.4795 -1.4707  1.2944
 2929SOL    HW220247   1.665   4.587  11.744  0.1274  0.4988  0.6134
 2930SOL     OW20248   1.541   2.565   2.029  0.1036 -0.4474  0.4867
 2930SOL    HW120249   1.466   2.566   1.970 -0.6811  1.3190  1.5313
 2930SOL    HW220250   1.601   2.604   1.966  0.8477 -0.4195  1.1950
 2931SOL     OW20251   3.718   2.845  12.592 -0.2055 -0.0695  0.2478
 2931SOL    HW120252   3.805   2.883  12.578  0.7788 -2.3367  0.3312
 2931SOL    HW220253   3.735   2.771  12.650 -3.3005 -0.7660  0.2649
 2932SOL     OW20254   0.534   4.450   3.652 -0.1752 -0.2974 -0.1495
 2932SOL    HW120255   0.597   4.502   3.602 -1.5937  1.3452 -0.2197
 2932SOL    HW220256   0.476   4.426   3.579 -1.2265 -0.5990  0.7926
 2933SOL     OW20257   3.013   1.857  10.299 -0.8742  0.4959  0.1838
 2933SOL    HW120258   3.047   1.831  10.385  0.7231 -0.3247 -0.6848
 2933SOL    HW220259   3.095   1.887  10.260 -2.5060  1.9368 -2.1173
 2934SOL     OW20260   3.902   3.342   1.707 -0.2833 -0.1856  0.0977
 2934SOL    HW120261   3.818   3.318   1.668 -0.0328  2.1608 -1.9176
 2934SOL    HW220262   3.952   3.379   1.634 -2.2255  0.2870 -1.0084
 2935SOL     OW20263   4.268   2.263  14.804  0.1740  0.0599 -0.3114
 2935SOL    HW120264   4.363   2.277  14.795 -0.2536  3.3220  0.3686
 2935SOL    HW220265   4.247   2.345  14.848 -2.9564 -0.2990 -1.1826
 2936SOL     OW20266   0.948   0.672   8.315  0.4209 -0.3106 -0.0095
 2936SOL    HW120267   0.901   0.593   8.287 -0.2401  0.3560 -0.7912
 2936SOL    HW220268   1.014   0.685   8.247  1.2960 -0.0153  0.9012
 2937SOL     OW20269   4.361   4.653  16.943  0.0988  0.3388 -0.1886
 2937SOL    HW120270   4.438   4.682  16.894  0.2021  0.5822  0.1197
 2937SOL    HW220271   4.355   0.001  17.004 -2.2434  0.2054 -0.2478
 2938SOL     OW20272   2.981   1.942   8.697 -0.4339  0.0126  0.3746
 2938SOL    HW120273   3.059   1.991   8.672 -0.7680  1.2450  1.7544
 2938SOL    HW220274   2.933   2.013   8.739 -0.8314  1.3451 -2.3196
 2939SOL     OW20275   3.065   1.154  14.545  0.4896  0.3911  0.1248
 2939SOL    HW120276   3.144   1.205  14.525  0.4181  0.6438  0.4961
 2939SOL    HW220277   3.027   1.200  14.619 -0.6926 -0.6708  0.1725
 2940SOL     OW20278   1.658   2.532  10.293  0.3656 -0.2802 -0.1355
 2940SOL    HW120279   1.566   2.547  10.315  0.5691 -0.9933  1.1892
 2940SOL    HW220280   1.668   2.582  10.212 -1.1073  0.3808  0.0858
 2941SOL     OW20281   0.822   3.469   3.998 -0.0228  0.1934  0.4724
 2941SOL    HW120282   0.865   3.418   3.930 -2.3760 -1.2471  0.0800
 2941SOL    HW220283   0.886   3.540   3.999  0.8017 -0.5487  0.0777
 2942SOL     OW20284   3.083   0.225   8.238 -0.1615  0.1050 -0.1515
 2942SOL    HW120285   2.999   0.229   8.285 -0.7161  1.1348 -1.2384
 2942SOL    HW220286   3.059   0.282   8.165  2.5471 -1.1504 -1.9907
 2943SOL     OW20287   3.454   3.503   6.047  0.2583  0.6121  0.0406
 2943SOL    HW120288   3.385   3.571   6.042 -0.1578  0.4395  3.5010
 2943SOL    HW220289   3.531   3.553   6.021  1.3005 -0.7826  0.4816
 2944SOL     OW20290   3.490   2.719   2.924  0.0695  0.4222 -0.0595
 2944SOL    HW120291   3.481   2.709   3.019 -2.0635 -1.7642 -0.4730
 2944SOL    HW220292   3.410   2.675   2.895  0.3977  1.2278 -2.1205
 2945SOL     OW20293   0.320   2.626   6.774 -0.3377 -0.8807  0.0565
 2945SOL    HW120294   0.236   2.624   6.820  0.4400  1.2142  1.5319
 2945SOL    HW220295   0.294   2.677   6.697 -0.2786 -0.8799  0.0374
 2946SOL     OW20296   2.992   2.620   9.159 -0.5546 -0.4207 -0.0496
 2946SOL    HW120297   3.087   2.616   9.156 -0.4876  0.1613  1.3499
 2946SOL    HW220298   2.977   2.637   9.252 -2.2046  1.3222 -0.6281
 2947SOL     OW20299   4.062   4.045  12.619 -0.0571 -0.1312 -0.0267
 2947SOL    HW120300   4.134   3.983  12.622  1.0821  1.2456  1.5329
 2947SOL    HW220301   4.083   4.098  12.697 -0.8699 -0.5013  0.4458
 2948SOL     OW20302   0.433   4.370   3.401  0.3430  0.0601  0.5153
 2948SOL    HW120303   0.505   4.390   3.341 -0.6755  2.4615  0.1040
 2948SOL    HW220304   0.362   4.405   3.347 -1.5820 -4.7408 -0.0953
 2949SOL     OW20305   3.077   1.994  16.916  0.4388  0.0760  0.0050
 2949SOL    HW120306   3.116   1.916  16.875  0.0563 -0.0585 -0.0963
 2949SOL    HW220307   3.041   1.967  17.001 -1.9924 -1.2067 -1.4571
 2950SOL     OW20308   2.730   2.325   7.668  0.4378  0.0991 -0.1587
 2950SOL    HW120309   2.743   2.236   7.636 -0.8270 -0.0678 -0.2203
 2950SOL    HW220310   2.748   2.312   7.761 -0.4227 -2.4076 -0.3370
 2951SOL     OW20311   3.090   0.683   7.060  0.7608 -0.4409 -0.3527
 2951SOL    HW120312   3.162   0.736   7.027 -0.9768  1.8125 -0.5731
 2951SOL    HW220313   3.064   0.621   6.991 -1.2490  0.7474 -0.6828
 2952SOL     OW20314   0.706   1.772   5.342 -0.0366 -0.1434 -0.2750
 2952SOL    HW120315   0.658   1.843   5.385  2.6438  0.4194  1.7620
 2952SOL    HW220316   0.770   1.755   5.410 -0.2515 -0.1281 -0.0676
 2953SOL     OW20317   2.469   2.257   7.426  0.3800 -0.9086 -0.9242
 2953SOL    HW120318   2.494   2.347   7.447 -0.9134 -0.8442  0.3885
 2953SOL    HW220319   2.530   2.238   7.355 -3.4905  0.2036 -4.5661
 2954SOL     OW20320   4.338   0.262   7.820 -0.0552  0.1743  0.1329
 2954SOL    HW120321   4.323   0.201   7.892  1.8741 -1.3216 -0.7277
 2954SOL    HW220322   4.431   0.246   7.805 -0.0707 -0.8464  1.1167
 2955SOL     OW20323   3.433   0.170   6.906  0.3521 -0.4115  0.1239
 2955SOL    HW120324   3.425   0.152   7.000  0.2097 -2.0390 -0.2018
 2955SOL    HW220325   3.525   0.195   6.894  0.4425 -1.2884 -1.0162
 2956SOL     OW20326   2.831   3.378   7.749  0.5774  0.1775  0.1602
 2956SOL    HW120327   2.779   3.411   7.676  2.9320 -0.0611 -1.6451
 2956SOL    HW220328   2.873   3.305   7.705 -0.5969 -1.1935  1.3247
 2957SOL     OW20329   0.476   2.987   4.178  0.0276  0.4209  0.2686
 2957SOL    HW120330   0.401   2.928   4.169  1.5717 -1.4153 -0.6265
 2957SOL    HW220331   0.544   2.948   4.124  0.3806 -0.3558  1.2744
 2958SOL     OW20332   4.525   4.384   6.125  0.3513  0.0814  0.2825
 2958SOL    HW120333   4.472   4.447   6.075  2.1751  1.0319 -0.4848
 2958SOL    HW220334   4.549   4.309   6.071  1.3823  0.2108  0.5607
 2959SOL     OW20335   4.234   0.195   1.351 -0.1402  0.2061 -0.5789
 2959SOL    HW120336   4.157   0.252   1.361 -0.5439 -0.4419 -0.0731
 2959SOL    HW220337   4.292   0.262   1.315  2.3201 -1.7302 -0.2010
 2960SOL     OW20338   3.181   0.187  11.782 -0.2553 -0.2050 -0.0793
 2960SOL    HW120339   3.165   0.132  11.858  0.7040  1.6300  1.4231
 2960SOL    HW220340   3.156   0.123  11.715 -0.6589  1.4566 -1.5164
 2961SOL     OW20341   4.345   2.892   2.521 -0.7033  0.0472  0.4216
 2961SOL    HW120342   4.433   2.856   2.524 -0.3746  0.9386  1.2967
 2961SOL    HW220343   4.307   2.824   2.465  1.5372 -0.2157 -0.7575
 2962SOL     OW20344   2.006   3.325   3.283  0.1086 -0.3451 -0.1294
 2962SOL    HW120345   1.950   3.380   3.338  1.1328  0.8370 -0.2566
 2962SOL    HW220346   1.967   3.238   3.286  0.8518 -0.6486  0.7301
 2963SOL     OW20347   0.556   0.115  11.146 -0.7075  0.3843  0.1722
 2963SOL    HW120348   0.557   0.028  11.186 -1.2348 -0.4114 -1.6018
 2963SOL    HW220349   0.640   0.147  11.180 -1.3441  0.8455  1.3070
 2964SOL     OW20350   0.583   4.312   6.247 -0.3559 -0.1182 -0.4601
 2964SOL    HW120351   0.654   4.316   6.311 -0.8508  0.3758  0.0586
 2964SOL    HW220352   0.508   4.285   6.301  0.5137 -1.0975  0.2512
 2965SOL     OW20353   2.545   3.692  16.295 -0.5707  0.2026 -0.1418
 2965SOL    HW120354   2.528   3.659  16.383 -0.6171  0.4579 -0.0545
 2965SOL    HW220355   2.501   3.627  16.239  0.0536 -1.6056  1.4614
 2966SOL     OW20356   2.053   0.403   0.763  0.1818 -0.0797  0.1305
 2966SOL    HW120357   1.995   0.329   0.744 -0.9162  1.1133 -1.0868
 2966SOL    HW220358   2.039   0.455   0.685 -1.4034  0.7251  0.9567
 2967SOL     OW20359   0.965   1.112  12.363 -0.2003  0.0353  0.4890
 2967SOL    HW120360   1.031   1.106  12.294 -0.7514 -0.3883 -0.0049
 2967SOL    HW220361   0.879   1.106  12.321 -0.3142 -1.9825  0.9766
 2968SOL     OW20362   2.765   3.197   2.390 -0.5217 -0.3168  0.3671
 2968SOL    HW120363   2.818   3.118   2.383 -0.0111 -0.0080  0.8587
 2968SOL    HW220364   2.811   3.267   2.343 -0.1816 -0.5031  0.4256
 2969SOL     OW20365   2.501   3.811   7.188 -0.3316 -0.1407  0.0978
 2969SOL    HW120366   2.455   3.818   7.271  1.1244 -1.9802  1.0710
 2969SOL    HW220367   2.587   3.843   7.217 -0.0681  0.8302 -1.7528
 2970SOL     OW20368   3.121   1.867   8.208 -0.0504  0.3331 -0.5904
 2970SOL    HW120369   3.065   1.862   8.285 -0.1125  0.1840 -0.6438
 2970SOL    HW220370   3.107   1.776   8.180  1.1912  0.6810 -2.3572
 2971SOL     OW20371   2.900   4.705   2.706  0.1990 -0.0030  0.2061
 2971SOL    HW120372   2.965   0.008   2.640  0.9661  0.0305  0.9695
 2971SOL    HW220373   2.899   0.057   2.764  1.2881  2.0346 -2.3989
 2972SOL     OW20374   2.757   4.273   1.662 -0.0806 -0.6127  0.1935
 2972SOL    HW120375   2.804   4.201   1.620  1.1654  0.0830  0.3989
 2972SOL    HW220376   2.785   4.278   1.753  2.1584  1.5369 -0.5954
 2973SOL     OW20377   3.689   3.644  15.906 -0.4720 -0.4705  0.1089
 2973SOL    HW120378   3.602   3.642  15.866  0.0404  2.1960 -1.1895
 2973SOL    HW220379   3.734   3.680  15.829 -2.1952 -0.9043 -1.1125
 2974SOL     OW20380   3.735   1.353   6.479  0.3167 -0.6897 -0.5295
 2974SOL    HW120381   3.666   1.419   6.477  2.8428  1.9907  1.3840
 2974SOL    HW220382   3.775   1.370   6.394  0.5530  1.6690  0.0728
 2975SOL     OW20383   2.961   3.606   4.467 -0.3426 -0.0646  0.0570
 2975SOL    HW120384   2.999   3.692   4.485  0.0934 -0.4834  1.1142
 2975SOL    HW220385   2.975   3.601   4.372  0.5119 -1.2860  0.2504
 2976SOL     OW20386   1.783   1.716  15.443  0.4827  0.2386  0.0545
 2976SOL    HW120387   1.875   1.694  15.428  0.1952 -1.7826  1.3625
 2976SOL    HW220388   1.785   1.802  15.401  1.0214 -0.5327 -1.4756
 2977SOL     OW20389   2.888   3.011   4.219  0.2147  0.0477 -0.0701
 2977SOL    HW120390   2.895   3.026   4.125 -0.1015 -1.1130 -0.2782
 2977SOL    HW220391   2.931   2.926   4.218  1.6869  0.7931  0.0046
 2978SOL     OW20392   2.515   3.421   3.817  0.1564  0.4770  0.1567
 2978SOL    HW120393   2.490   3.460   3.733 -0.0945 -0.0631 -0.0206
 2978SOL    HW220394   2.464   3.340   3.814  0.6686  0.1974 -0.9605
 2979SOL     OW20395   3.225   2.695   3.318  0.6021 -0.2813 -0.0012
 2979SOL    HW120396   3.178   2.626   3.272  2.1768 -1.9459  0.8785
 2979SOL    HW220397   3.308   2.684   3.271  0.5592  0.3243 -0.2175
 2980SOL     OW20398   1.610   0.418   9.559 -0.6347 -0.0749 -0.2272
 2980SOL    HW120399   1.623   0.398   9.466 -0.3939 -2.6726  0.3643
 2980SOL    HW220400   1.660   0.498   9.577  1.4371 -1.3829 -0.2314
 2981SOL     OW20401   4.020   3.410  17.303  0.3337  0.6128 -0.0170
 2981SOL    HW120402   4.110   3.437  17.284  0.7645 -0.0566  1.1041
 2981SOL    HW220403   3.980   3.497  17.313 -0.7028  0.1560 -0.1475
 2982SOL     OW20404   4.095   3.382  14.146 -0.3495  0.0014 -0.0788
 2982SOL    HW120405   4.028   3.449  14.132 -0.8134 -0.5552 -0.5581
 2982SOL    HW220406   4.051   3.313  14.095  1.1644 -0.7948 -0.3191
 2983SOL     OW20407   1.464   3.045   4.236  0.2484 -0.1406  0.1749
 2983SOL    HW120408   1.430   3.003   4.157 -0.8632 -1.1712  1.1940
 2983SOL    HW220409   1.434   3.135   4.225  0.3302 -0.1775 -0.3802
 2984SOL     OW20410   0.905   1.759   3.578 -0.5041 -0.0676 -0.5010
 2984SOL    HW120411   0.976   1.739   3.517 -0.0720  0.3673 -0.1318
 2984SOL    HW220412   0.866   1.829   3.525 -0.0377 -0.1728 -0.9865
 2985SOL     OW20413   2.630   1.945   6.723 -0.3548 -0.4523  0.4663
 2985SOL    HW120414   2.565   2.014   6.707  1.2494  0.6773 -1.2088
 2985SOL    HW220415   2.660   1.985   6.805 -2.0450  2.5673 -0.3667
 2986SOL     OW20416   2.858   3.963   0.459 -0.4375 -0.6357  0.3196
 2986SOL    HW120417   2.801   3.950   0.535 -1.3086 -0.8236 -0.3617
 2986SOL    HW220418   2.939   3.999   0.493 -0.0727 -1.3948  0.2601
 2987SOL     OW20419   1.354   4.707   3.540 -0.3963 -0.5189 -0.5830
 2987SOL    HW120420   1.381   4.629   3.491  1.8748 -0.3513  0.3806
 2987SOL    HW220421   1.340   0.052   3.476  1.6177  0.2449 -0.1834
 2988SOL     OW20422   1.160   4.223   7.827 -0.0971 -1.0820 -0.5946
 2988SOL    HW120423   1.236   4.278   7.846  0.0154 -0.8646 -1.6412
 2988SOL    HW220424   1.151   4.183   7.913 -1.0996 -0.1195 -0.2510
 2989SOL     OW20425   2.126   3.593   3.804  0.0378  0.4425  0.1256
 2989SOL    HW120426   2.060   3.661   3.796  1.7765  2.1300  0.0877
 2989SOL    HW220427   2.116   3.562   3.894  1.2379 -0.4694 -0.0558
 2990SOL     OW20428   3.067   0.765  13.879 -0.1689 -0.5700 -0.6387
 2990SOL    HW120429   3.022   0.796  13.800  1.0808 -0.9930 -1.5045
 2990SOL    HW220430   3.006   0.706  13.924 -0.4337 -0.3580 -0.7130
 2991SOL     OW20431   1.047   1.610   0.174  0.0541  0.2816  0.8347
 2991SOL    HW120432   0.982   1.547   0.145 -1.4761  1.6738  1.2030
 2991SOL    HW220433   1.002   1.692   0.195 -0.7112  0.4316 -1.3542
 2992SOL     OW20434   4.091   3.969  13.097 -0.3388 -0.0612 -0.1051
 2992SOL    HW120435   4.161   3.950  13.160  0.2791  2.7211  0.0461
 2992SOL    HW220436   4.149   3.993  13.024  0.1175  0.7293  0.5218
 2993SOL     OW20437   3.533   2.646  11.680  0.2219  0.3369  0.6796
 2993SOL    HW120438   3.524   2.660  11.774 -2.1776 -0.1697  0.5054
 2993SOL    HW220439   3.570   2.558  11.685  1.2726  0.7117 -0.5797
 2994SOL     OW20440   0.171   1.752  13.625  0.0186  0.2831  0.1543
 2994SOL    HW120441   0.261   1.783  13.635 -0.3110  1.8147 -1.6556
 2994SOL    HW220442   0.125   1.836  13.620 -0.1772  0.3294  2.8099
 2995SOL     OW20443   2.942   3.230   6.483  0.1926 -0.0798 -0.0505
 2995SOL    HW120444   2.890   3.300   6.522  0.3864 -0.7853  1.4752
 2995SOL    HW220445   2.963   3.185   6.564  1.8082 -0.1651 -0.5298
 2996SOL     OW20446   0.918   3.915   0.213 -0.3454 -0.1691  0.4062
 2996SOL    HW120447   1.013   3.920   0.201 -0.4559  0.0832 -0.3094
 2996SOL    HW220448   0.885   3.870   0.136 -2.0889  1.5403  0.1697
 2997SOL     OW20449   0.804   3.635   2.126  0.0174  0.2846  0.5155
 2997SOL    HW120450   0.777   3.620   2.035  2.3010  0.5328 -0.2017
 2997SOL    HW220451   0.785   3.728   2.139  2.1104  0.6664  0.8118
 2998SOL     OW20452   1.851   1.151   5.006 -0.0654  0.3543 -0.4408
 2998SOL    HW120453   1.800   1.229   5.025  0.7487  0.8871 -0.4442
 2998SOL    HW220454   1.905   1.154   5.085 -3.9078 -2.4771  2.2763
 2999SOL     OW20455   4.366   4.096  10.982  0.3266  0.1468 -0.3189
 2999SOL    HW120456   4.391   4.188  10.991  1.5438 -0.3017  0.8039
 2999SOL    HW220457   4.278   4.108  10.946  0.1048 -0.8416 -0.1074
 3000SOL     OW20458   0.225   0.701   5.374 -0.4061 -0.3044  0.2756
 3000SOL    HW120459   0.279   0.768   5.418 -1.2465 -1.8449  3.6522
 3000SOL    HW220460   0.187   0.739   5.295 -1.8569 -0.1169  1.0586
 3001SOL     OW20461   4.185   2.128   2.568  0.1744  1.1622 -0.8124
 3001SOL    HW120462   4.212   2.207   2.614 -0.1221  1.5163 -1.2399
 3001SOL    HW220463   4.205   2.060   2.632  0.6653  1.8364 -0.2489
 3002SOL     OW20464   2.366   0.601  15.026  0.4892  0.0125 -0.5268
 3002SOL    HW120465   2.422   0.526  15.050  0.9682  0.2976 -0.7462
 3002SOL    HW220466   2.299   0.593  15.093  0.3383  0.7169 -0.6016
 3003SOL     OW20467   0.560   1.546  17.636  0.3153 -0.7744  0.2732
 3003SOL    HW120468   0.594   1.604   0.006  1.6859 -0.3906 -0.7532
 3003SOL    HW220469   0.645   1.504  17.623  0.8223  0.3368  0.0540
 3004SOL     OW20470   1.779   2.545   5.371 -0.1779  0.1827  0.0821
 3004SOL    HW120471   1.771   2.519   5.279  2.3782 -0.9746  0.1914
 3004SOL    HW220472   1.690   2.521   5.395  1.4839 -4.2779  1.6312
 3005SOL     OW20473   2.643   0.553   4.684  0.2329 -0.0665 -0.3640
 3005SOL    HW120474   2.557   0.528   4.717 -0.6308  1.5741 -1.3289
 3005SOL    HW220475   2.674   0.475   4.638  0.8742 -0.1431  0.2100
 3006SOL     OW20476   0.966   4.175   4.575 -0.1151  0.1661  0.0243
 3006SOL    HW120477   0.939   4.200   4.663 -0.2475  0.1809 -0.0210
 3006SOL    HW220478   1.024   4.249   4.556  2.5146 -1.0781  3.2039
 3007SOL     OW20479   2.025   3.098   1.180 -0.0616 -0.4643  0.3553
 3007SOL    HW120480   1.982   3.058   1.105  3.4116  2.0692 -2.9952
 3007SOL    HW220481   1.955   3.106   1.244  2.0452  4.2199  2.1005
 3008SOL     OW20482   4.123   2.571   0.855  0.0473  0.1971  0.4074
 3008SOL    HW120483   4.211   2.607   0.843 -0.7140  2.8400  2.8748
 3008SOL    HW220484   4.151   2.515   0.928 -1.1576 -1.2477 -0.2397
 3009SOL     OW20485   4.637   0.065  16.871  0.2812 -0.0543 -0.4600
 3009SOL    HW120486   4.683   0.020  16.801 -0.8433 -3.7812  1.2309
 3009SOL    HW220487   4.712   0.097  16.923 -0.9558  0.4625  1.0179
 3010SOL     OW20488   3.108   1.997   9.109 -0.0238  0.0897 -0.6505
 3010SOL    HW120489   3.034   1.941   9.087  0.8992 -1.4452  0.2167
 3010SOL    HW220490   3.149   1.947   9.179 -0.0357  3.8142  2.0689
 3011SOL     OW20491   3.224   3.759   7.019 -0.5619  0.7145 -0.2050
 3011SOL    HW120492   3.153   3.794   7.074  1.7103  1.3117  2.3409
 3011SOL    HW220493   3.303   3.813   7.021 -0.5202  0.6716 -0.8548
 3012SOL     OW20494   0.706   4.439   4.162 -0.3392 -0.4096 -0.1302
 3012SOL    HW120495   0.728   4.433   4.069 -1.4565 -2.3492 -0.2689
 3012SOL    HW220496   0.707   4.345   4.181  0.7731 -0.3311  0.2069
 3013SOL     OW20497   2.379   1.103   3.153 -0.7030  0.0302  0.2440
 3013SOL    HW120498   2.295   1.068   3.124 -1.1003 -0.2155  1.6971
 3013SOL    HW220499   2.411   1.034   3.211  2.1103 -0.0797 -1.4377
 3014SOL     OW20500   2.525   2.189   6.564  0.9153  0.0663  0.0481
 3014SOL    HW120501   2.538   2.119   6.500  1.7538  1.1020 -0.9149
 3014SOL    HW220502   2.457   2.235   6.515  3.8859  4.5068  0.0753
 3015SOL     OW20503   4.413   2.638  16.089 -0.0793 -0.0791  0.5991
 3015SOL    HW120504   4.494   2.596  16.117  0.2923 -0.0598 -0.4410
 3015SOL    HW220505   4.440   2.689  16.013  0.1250  0.5607  1.0955
 3016SOL     OW20506   1.678   2.953   6.439 -0.5267  0.1574  0.2131
 3016SOL    HW120507   1.728   2.927   6.363 -1.7941 -1.8373  0.0591
 3016SOL    HW220508   1.749   2.998   6.486  0.0784 -0.2633 -0.3175
 3017SOL     OW20509   2.268   1.380   9.393  0.4429 -0.7371 -0.4575
 3017SOL    HW120510   2.349   1.403   9.347  0.8832  1.5765  1.4799
 3017SOL    HW220511   2.299   1.325   9.464 -0.6442  0.3287  0.8528
 3018SOL     OW20512   1.551   2.036   1.890 -0.2183 -0.2368  0.3461
 3018SOL    HW120513   1.543   2.021   1.796 -0.7326  2.5838 -0.0438
 3018SOL    HW220514   1.646   2.042   1.897 -0.0548  1.0961 -2.7984
 3019SOL     OW20515   0.906   3.722   5.280 -0.2409  0.1119  0.1457
 3019SOL    HW120516   0.948   3.712   5.195 -0.8134  2.6665 -0.4217
 3019SOL    HW220517   0.947   3.803   5.312 -0.9291  1.6188 -2.8048
 3020SOL     OW20518   1.342   3.960  12.831  0.0056 -0.2379  0.1122
 3020SOL    HW120519   1.395   3.964  12.911  0.3637 -2.4542 -0.0341
 3020SOL    HW220520   1.333   4.055  12.816  0.1128 -0.5342 -1.8031
 3021SOL     OW20521   4.439   2.985   6.293  0.7137  0.3060 -0.3532
 3021SOL    HW120522   4.408   3.053   6.234  0.1083  2.6338  2.6433
 3021SOL    HW220523   4.465   2.913   6.236  0.3845 -1.1535  1.3214
 3022SOL     OW20524   0.011   3.219   1.840 -1.0167  0.1164 -0.0178
 3022SOL    HW120525   4.695   3.270   1.911 -1.6607  0.1987 -0.4419
 3022SOL    HW220526   4.689   3.254   1.764 -2.1833 -1.6274 -0.1236
 3023SOL     OW20527   4.689   3.699   0.334 -0.5938  0.7022  0.2496
 3023SOL    HW120528   4.645   3.785   0.331  0.2232  1.0640 -1.2084
 3023SOL    HW220529   4.637   3.653   0.268  0.1937 -0.4084  0.4185
 3024SOL     OW20530   4.519   1.342   6.545 -0.7354  0.2596 -0.3468
 3024SOL    HW120531   4.560   1.330   6.459  1.1440  0.7533  0.4875
 3024SOL    HW220532   4.443   1.284   6.537 -0.2932 -0.0524 -2.2345
 3025SOL     OW20533   1.119   4.325   6.506 -0.5925 -0.2848  0.5085
 3025SOL    HW120534   1.079   4.351   6.589 -0.0133  0.3473  0.5932
 3025SOL    HW220535   1.079   4.385   6.443  0.1530  2.5553  2.7291
 3026SOL     OW20536   2.848   4.004   9.621 -0.2924 -0.1311  0.1020
 3026SOL    HW120537   2.759   4.041   9.618  0.3726  1.4900  0.4502
 3026SOL    HW220538   2.897   4.070   9.670 -0.1466 -0.2807  0.1538
 3027SOL     OW20539   0.992   0.734   5.823  0.1626 -0.4098 -0.4167
 3027SOL    HW120540   1.060   0.727   5.890  0.4687 -1.4454 -0.8350
 3027SOL    HW220541   0.993   0.645   5.787 -1.1092 -0.7745  0.4617
 3028SOL     OW20542   2.673   1.362   1.611 -0.9727 -0.3327  0.2157
 3028SOL    HW120543   2.632   1.431   1.662 -2.0526 -1.7950  1.3155
 3028SOL    HW220544   2.721   1.411   1.545  1.1126 -1.2410  1.0549
 3029SOL     OW20545   4.703   2.207  11.305  0.3382  0.0705  0.4351
 3029SOL    HW120546   4.670   2.162  11.382  1.4371  2.3032  2.2457
 3029SOL    HW220547   4.677   2.297  11.325  0.4790  0.5867 -1.7289
 3030SOL     OW20548   2.239   0.047   9.931  0.3726 -0.1648  0.7232
 3030SOL    HW120549   2.177   0.001   9.988 -3.6705  0.8247 -2.8376
 3030SOL    HW220550   2.237   0.136   9.967 -2.8035  0.2624 -0.5039
 3031SOL     OW20551   2.080   2.652   0.621 -0.8470 -0.1373  0.1065
 3031SOL    HW120552   2.166   2.613   0.637 -0.3339  0.4993 -1.0443
 3031SOL    HW220553   2.074   2.728   0.680  0.4101 -0.8860  1.1991
 3032SOL     OW20554   0.676   3.906   6.770 -0.0181  0.0068 -0.3119
 3032SOL    HW120555   0.753   3.859   6.801  2.1601  2.4365 -2.0534
 3032SOL    HW220556   0.617   3.908   6.845 -1.5659 -1.2516 -1.4896
 3033SOL     OW20557   1.403   1.481  16.999  0.9108 -0.1506  0.2259
 3033SOL    HW120558   1.328   1.427  17.025  1.3382 -1.2053 -0.7069
 3033SOL    HW220559   1.380   1.565  17.038  0.3085  1.4269 -3.4826
 3034SOL     OW20560   0.366   0.446   1.446  0.1151 -0.1465 -0.4256
 3034SOL    HW120561   0.313   0.370   1.422 -0.3989 -0.1475  0.6657
 3034SOL    HW220562   0.295   0.500   1.482  0.1097 -1.3217  1.3709
 3035SOL     OW20563   2.651   0.201   6.379 -0.4838 -0.2078 -1.1246
 3035SOL    HW120564   2.648   0.271   6.314 -1.2292 -0.8798 -1.8266
 3035SOL    HW220565   2.716   0.238   6.439 -1.2439 -3.1060  1.5060
 3036SOL     OW20566   3.128   2.288   9.070 -0.0791  0.0570  0.1268
 3036SOL    HW120567   3.044   2.326   9.095  0.8435  0.8353  2.0092
 3036SOL    HW220568   3.118   2.197   9.097  1.2532 -0.6535 -1.7450
 3037SOL     OW20569   1.694   4.317  13.784 -0.2594  0.0356  0.5763
 3037SOL    HW120570   1.610   4.283  13.814  0.9480  0.4010  4.3366
 3037SOL    HW220571   1.748   4.242  13.807  0.8949  0.1027 -1.9376
 3038SOL     OW20572   2.364   0.091  16.121 -0.3084 -0.0240 -0.4701
 3038SOL    HW120573   2.290   0.151  16.132 -0.0402  0.0712  0.7971
 3038SOL    HW220574   2.321   0.006  16.132  0.8015 -0.7895 -2.1029
 3039SOL     OW20575   3.502   4.395   9.111 -0.2962 -0.2270 -0.1883
 3039SOL    HW120576   3.587   4.376   9.072 -1.2265 -2.3441 -1.2104
 3039SOL    HW220577   3.452   4.439   9.043 -1.6315 -0.7091  0.4749
 3040SOL     OW20578   3.259   2.576   2.909 -0.1987 -0.2436 -0.2139
 3040SOL    HW120579   3.223   2.558   2.996 -1.0334 -0.9314 -0.7074
 3040SOL    HW220580   3.175   2.604   2.872 -0.0417 -0.6554 -0.8849
 3041SOL     OW20581   4.165   1.253   1.797 -0.0430 -0.3603  0.1957
 3041SOL    HW120582   4.171   1.270   1.703 -0.9288 -1.6204 -0.0736
 3041SOL    HW220583   4.249   1.209   1.810 -0.6276 -1.3300  0.6487
 3042SOL     OW20584   1.306   0.888   5.459 -0.5434  0.1246 -0.1114
 3042SOL    HW120585   1.266   0.859   5.541 -0.2218  2.0747  0.7336
 3042SOL    HW220586   1.393   0.851   5.478  0.0253  1.1376 -0.7266
 3043SOL     OW20587   3.871   1.677  17.084  0.1140  0.2824 -0.6406
 3043SOL    HW120588   3.820   1.745  17.128 -1.8308 -1.4035 -0.2683
 3043SOL    HW220589   3.894   1.617  17.155 -0.3540  0.8328 -0.0235
 3044SOL     OW20590   2.413   3.773  12.963  0.3021 -0.3159 -0.0960
 3044SOL    HW120591   2.503   3.742  12.976 -0.4133 -1.3666  2.4098
 3044SOL    HW220592   2.372   3.692  12.931  1.7512 -0.7952 -0.7612
 3045SOL     OW20593   0.384   4.060   6.210 -0.2492  0.1148  0.3470
 3045SOL    HW120594   0.435   4.064   6.129 -1.1283 -1.8231 -0.2904
 3045SOL    HW220595   0.415   3.981   6.253  0.8975  0.3871  0.0250
 3046SOL     OW20596   2.600   4.455   7.423 -0.3858  0.0497 -0.2208
 3046SOL    HW120597   2.531   4.411   7.373 -0.4350 -0.0191 -0.0921
 3046SOL    HW220598   2.554   4.466   7.507  0.0569 -1.3114  0.2081
 3047SOL     OW20599   1.568   0.470   8.063  0.3520  0.0398  0.1006
 3047SOL    HW120600   1.529   0.453   8.148  1.1778 -0.3436  0.3990
 3047SOL    HW220601   1.632   0.401   8.045  0.5529 -0.2456  1.9447
 3048SOL     OW20602   1.960   3.677   7.505  0.5214  0.4775 -0.4243
 3048SOL    HW120603   2.008   3.612   7.454 -2.8839 -0.8964 -1.8977
 3048SOL    HW220604   1.910   3.618   7.561 -2.3317  2.9057 -0.4386
 3049SOL     OW20605   3.607   2.449   9.705  0.1831  0.9415 -0.0577
 3049SOL    HW120606   3.698   2.418   9.704  0.0070  0.3947  0.4803
 3049SOL    HW220607   3.602   2.497   9.623  0.8708 -0.8634 -1.1570
 3050SOL     OW20608   0.298   0.876   3.794  0.1019  0.3579 -0.4560
 3050SOL    HW120609   0.343   0.956   3.823  0.3267  0.2469 -0.5005
 3050SOL    HW220610   0.223   0.869   3.853  0.9556  1.2651  0.7400
 3051SOL     OW20611   2.698   3.486   6.095  0.5959 -0.2066 -0.2202
 3051SOL    HW120612   2.748   3.529   6.165 -0.6687  0.6732  0.1446
 3051SOL    HW220613   2.668   3.416   6.153  1.9271  1.4771  2.5163
 3052SOL     OW20614   1.982   3.471  12.335 -0.5654  0.1745 -0.2945
 3052SOL    HW120615   1.943   3.559  12.337 -2.3858 -0.5976 -2.6270
 3052SOL    HW220616   1.991   3.459  12.430  3.2886 -0.4519 -0.7500
 3053SOL     OW20617   1.499   4.123   7.714  0.0247 -0.0129  0.5470
 3053SOL    HW120618   1.510   4.028   7.705  0.2960 -0.1158  1.9911
 3053SOL    HW220619   1.555   4.152   7.641  1.0333  0.5165  1.5338
 3054SOL     OW20620   1.909   3.631  15.917  0.0901 -0.3167 -0.0151
 3054SOL    HW120621   1.843   3.686  15.875  0.8241 -0.2696 -1.0950
 3054SOL    HW220622   1.939   3.591  15.836 -0.5980 -1.3275  0.2337
 3055SOL     OW20623   0.585   2.304   2.444 -0.6231 -0.0529  0.0135
 3055SOL    HW120624   0.512   2.365   2.457 -1.1997 -0.6872 -0.2494
 3055SOL    HW220625   0.656   2.357   2.408  2.2939 -1.5158  3.5094
 3056SOL     OW20626   3.791   4.388   8.959  0.5870  0.4771 -0.2425
 3056SOL    HW120627   3.747   4.368   8.876 -2.3432  2.3866  0.8556
 3056SOL    HW220628   3.864   4.326   8.958  1.0539  1.0040  3.1153
 3057SOL     OW20629   2.257   2.343   4.937 -0.5130  0.0962 -0.5549
 3057SOL    HW120630   2.204   2.419   4.961 -0.7323 -0.3088  0.2463
 3057SOL    HW220631   2.318   2.338   5.010 -0.0651 -1.4754 -1.0227
 3058SOL     OW20632   1.292   3.113   3.274 -0.3577  0.4643  0.2016
 3058SOL    HW120633   1.362   3.131   3.211 -1.6646 -0.3609 -1.4921
 3058SOL    HW220634   1.220   3.090   3.215  0.8242  1.9297 -1.8064
 3059SOL     OW20635   2.178   3.748   8.785 -0.0800  0.0428  0.2899
 3059SOL    HW120636   2.107   3.687   8.763 -1.4421  1.6781  0.0548
 3059SOL    HW220637   2.179   3.752   8.881 -2.7576  3.5221  0.1865
 3060SOL     OW20638   0.363   2.197   7.013  0.0898  0.1373  0.0654
 3060SOL    HW120639   0.327   2.221   7.098 -0.7822 -1.3166  0.1080
 3060SOL    HW220640   0.383   2.284   6.979  3.4678 -1.2855 -1.6109
 3061SOL     OW20641   1.895   3.176  17.406  0.1667 -0.3112  0.1824
 3061SOL    HW120642   1.818   3.145  17.454  0.4776 -1.5523 -0.1198
 3061SOL    HW220643   1.964   3.121  17.443 -1.8624 -3.2385 -0.3733
 3062SOL     OW20644   0.081   1.604   3.315 -0.2618  0.1363 -0.0396
 3062SOL    HW120645   0.126   1.646   3.388  0.9938 -2.9320  0.9254
 3062SOL    HW220646   0.129   1.644   3.243  1.2573 -1.3120  0.1807
 3063SOL     OW20647   0.089   3.662  16.672 -0.5298  0.7446  0.1277
 3063SOL    HW120648   0.097   3.644  16.579  0.4710  0.2029  0.3184
 3063SOL    HW220649   4.719   3.657  16.688 -0.5687 -0.5663 -0.5387
 3064SOL     OW20650   3.462   1.526  11.719 -0.5267  0.2556  0.6907
 3064SOL    HW120651   3.371   1.549  11.703 -0.3914 -0.4100 -1.1215
 3064SOL    HW220652   3.450   1.438  11.754 -0.4448  0.1481  0.4478
 3065SOL     OW20653   2.244   0.863   5.500  0.5946 -0.1966 -0.6697
 3065SOL    HW120654   2.247   0.949   5.458  0.8291  0.6523  1.1294
 3065SOL    HW220655   2.238   0.885   5.592 -0.0084 -1.7191 -0.3359
 3066SOL     OW20656   4.592   1.491  14.163 -0.4029 -0.5010  0.4906
 3066SOL    HW120657   4.546   1.552  14.105 -2.8152 -1.4911  1.3452
 3066SOL    HW220658   4.661   1.549  14.195  0.2736 -0.9113 -0.2441
 3067SOL     OW20659   1.398   4.456  13.155 -0.3856  0.2963 -0.2330
 3067SOL    HW120660   1.462   4.465  13.084 -0.4932 -2.1766 -0.6424
 3067SOL    HW220661   1.383   4.363  13.143 -0.1856  0.2469 -0.0867
 3068SOL     OW20662   1.714   1.113  16.137  0.3385 -0.0347 -0.0144
 3068SOL    HW120663   1.668   1.125  16.221  0.7571  1.0570  0.0578
 3068SOL    HW220664   1.657   1.158  16.075 -2.4451 -0.9088  1.8786
 3069SOL     OW20665   3.868   2.222  14.658 -0.0391  0.2465  0.3491
 3069SOL    HW120666   3.798   2.195  14.717 -1.9441  0.3604 -1.8489
 3069SOL    HW220667   3.832   2.181  14.579  0.0478  0.2686  0.2984
 3070SOL     OW20668   2.055   1.886   3.029 -0.1287 -0.0886  0.3057
 3070SOL    HW120669   2.063   1.849   2.942  0.1015 -0.1200  0.3393
 3070SOL    HW220670   2.144   1.867   3.061 -0.7226 -0.7239  1.5772
 3071SOL     OW20671   2.915   0.287  16.837  0.0173  0.1538 -0.2634
 3071SOL    HW120672   2.880   0.369  16.872  1.0161  0.3438  0.2932
 3071SOL    HW220673   2.990   0.266  16.894  0.4465  2.9423  0.2208
 3072SOL     OW20674   0.243   1.598  15.679  0.7873  0.3270 -0.1450
 3072SOL    HW120675   0.171   1.610  15.617 -0.3025  2.2323  1.5202
 3072SOL    HW220676   0.271   1.683  15.712  2.8449 -0.8675  1.2175
 3073SOL     OW20677   1.082   2.041  10.581 -0.1193  0.0007  0.5039
 3073SOL    HW120678   1.158   2.057  10.637  0.9836  0.3652 -1.0925
 3073SOL    HW220679   1.107   1.959  10.540 -1.0703  0.0953 -0.2817
 3074SOL     OW20680   1.206   4.706   5.225  0.2765 -0.2989  0.2548
 3074SOL    HW120681   1.223   4.613   5.241 -0.3734 -0.5187 -0.3314
 3074SOL    HW220682   1.122   4.713   5.272  0.1981 -0.7624  0.1860
 3075SOL     OW20683   2.845   1.849   7.151  0.3556 -0.2076 -0.2729
 3075SOL    HW120684   2.874   1.940   7.144  0.1062 -0.1385 -0.3905
 3075SOL    HW220685   2.902   1.819   7.222  0.2410 -2.8517 -1.2679
 3076SOL     OW20686   4.359   1.496   1.209 -0.8300  0.4102  0.0695
 3076SOL    HW120687   4.321   1.427   1.262  2.4370 -2.4000 -1.1809
 3076SOL    HW220688   4.303   1.569   1.235 -0.7536  1.0241 -1.4575
 3077SOL     OW20689   2.931   0.257   4.772 -0.4100  0.5800  0.0931
 3077SOL    HW120690   2.883   0.315   4.713 -1.8659  2.0634  2.7799
 3077SOL    HW220691   2.996   0.221   4.710 -1.8016 -2.7334  0.5398
 3078SOL     OW20692   1.751   0.144   5.139  0.2471  0.2634  0.2562
 3078SOL    HW120693   1.694   0.078   5.179 -1.2253  0.0931 -2.0954
 3078SOL    HW220694   1.808   0.161   5.214  0.3384  0.2004  0.2008
 3079SOL     OW20695   4.041   3.081   4.124 -0.2412  0.1307  0.1364
 3079SOL    HW120696   4.124   3.123   4.147  0.8110 -0.8888 -1.7812
 3079SOL    HW220697   4.027   3.122   4.039  3.4140 -0.0972 -0.5864
 3080SOL     OW20698   0.118   3.105  16.883  0.0486 -0.3194  0.1308
 3080SOL    HW120699   0.097   3.048  16.809 -0.6232 -0.1091  0.1519
 3080SOL    HW220700   0.209   3.080  16.897  0.8323  1.7369 -1.3628
 3081SOL     OW20701   2.071   2.976   4.041 -0.0659  0.2884 -0.5227
 3081SOL    HW120702   2.081   2.911   4.110  2.7706  0.0025 -1.1877
 3081SOL    HW220703   2.113   2.926   3.970  1.2269 -0.2970  0.6543
 3082SOL     OW20704   1.450   4.446   3.816  0.0530 -0.0274 -0.4909
 3082SOL    HW120705   1.516   4.449   3.747  1.5905  0.7952  1.0319
 3082SOL    HW220706   1.454   4.522   3.873  0.3288 -0.3470 -0.0814
 3083SOL     OW20707   2.453   3.168   9.324 -0.9770 -0.4201 -0.3868
 3083SOL    HW120708   2.377   3.220   9.350 -1.3554 -2.1097  1.8674
 3083SOL    HW220709   2.432   3.092   9.379  1.2661  0.5351  1.8039
 3084SOL     OW20710   4.020   3.659   3.581 -0.3695  0.3320  0.2200
 3084SOL    HW120711   4.044   3.572   3.550  2.4139  2.4321 -3.6002
 3084SOL    HW220712   4.076   3.668   3.658 -0.4642 -0.1571  0.3446
 3085SOL     OW20713   1.335   3.948   9.619 -0.4095 -0.1665 -0.1346
 3085SOL    HW120714   1.292   3.915   9.540  2.3235 -0.5040 -1.4852
 3085SOL    HW220715   1.374   3.865   9.647 -0.3337 -0.3379 -0.7462
 3086SOL     OW20716   0.215   1.692   3.115  0.0174  0.3353  0.1181
 3086SOL    HW120717   0.231   1.761   3.051 -0.4394  1.0718  0.7958
 3086SOL    HW220718   0.304   1.659   3.129 -0.3890 -0.8737 -0.1358
 3087SOL     OW20719   0.448   4.516   9.101  0.2404 -0.2184  0.5378
 3087SOL    HW120720   0.466   4.497   9.009 -2.9102 -1.2621  0.1244
 3087SOL    HW220721   0.421   4.608   9.092  0.9533  0.1615  2.3039
 3088SOL     OW20722   1.558   1.461   2.566 -0.1297  0.4800 -0.1491
 3088SOL    HW120723   1.621   1.527   2.595  1.2961 -2.5658  3.6088
 3088SOL    HW220724   1.580   1.473   2.473  0.0467 -2.2321 -0.4353
 3089SOL     OW20725   0.572   2.697  15.114  0.2239 -0.1302  0.8497
 3089SOL    HW120726   0.516   2.771  15.089  3.0981  2.1843  1.1681
 3089SOL    HW220727   0.556   2.638  15.041  0.4158  3.5357 -2.1476
 3090SOL     OW20728   2.824   3.388   4.570  0.1109  0.1492 -0.5955
 3090SOL    HW120729   2.850   3.480   4.560 -0.7163 -0.0436 -4.5326
 3090SOL    HW220730   2.889   3.341   4.517 -1.1228 -1.3714 -0.7304
 3091SOL     OW20731   1.604   4.247  11.031 -0.6108  0.3320 -0.2728
 3091SOL    HW120732   1.561   4.180  11.084  0.8426  0.9337  1.6678
 3091SOL    HW220733   1.682   4.201  11.002 -0.3317  0.5703  0.1095
 3092SOL     OW20734   4.302   0.127   3.714  0.2963 -0.3810  0.1207
 3092SOL    HW120735   4.301   0.203   3.772  2.9494 -0.9239  0.8596
 3092SOL    HW220736   4.284   0.172   3.632  0.7290 -0.3841  0.0293
 3093SOL     OW20737   0.516   2.036   3.225  0.4636 -0.1376 -0.1710
 3093SOL    HW120738   0.589   2.093   3.249 -0.7352  0.1436  2.6895
 3093SOL    HW220739   0.449   2.097   3.195  0.4104 -0.9442 -1.6912
 3094SOL     OW20740   4.540   2.478  10.551  0.2292 -0.5673 -0.0558
 3094SOL    HW120741   4.549   2.572  10.570  1.7442 -0.5448 -0.8762
 3094SOL    HW220742   4.479   2.477  10.477  1.4721  1.6228 -1.1274
 3095SOL     OW20743   4.426   1.826  12.142  0.2490 -0.5762 -0.5782
 3095SOL    HW120744   4.471   1.876  12.210  2.0437 -2.7447 -0.1586
 3095SOL    HW220745   4.503   1.802  12.091 -0.2541  1.7599 -2.4354
 3096SOL     OW20746   3.988   0.086   7.633 -0.2274 -0.3494 -0.2979
 3096SOL    HW120747   4.084   0.079   7.638 -0.2497  0.6581  1.6471
 3096SOL    HW220748   3.964   0.161   7.687 -1.5267 -2.0401  1.4634
 3097SOL     OW20749   2.951   4.220  12.154  0.3244  0.8063 -0.4807
 3097SOL    HW120750   2.976   4.163  12.226  2.4028  1.0620 -0.9918
 3097SOL    HW220751   2.921   4.148  12.098  0.2439  0.8914 -0.5476
 3098SOL     OW20752   4.472   1.569   9.667 -0.3070  0.0244 -0.5680
 3098SOL    HW120753   4.382   1.596   9.649 -0.4793  0.1051  0.3957
 3098SOL    HW220754   4.464   1.483   9.708  2.4015 -0.5679 -1.2751
 3099SOL     OW20755   4.611   2.807   2.530  0.2082  0.1223  0.1236
 3099SOL    HW120756   4.685   2.857   2.564 -0.1797  0.5918  0.2755
 3099SOL    HW220757   4.651   2.769   2.452 -0.3558 -1.9462  0.8463
 3100SOL     OW20758   2.049   2.858   5.403  0.2077  0.2000  0.1749
 3100SOL    HW120759   2.057   2.892   5.314 -3.7485  0.6301 -0.0379
 3100SOL    HW220760   1.955   2.841   5.406  0.4448 -1.2239 -0.4448
 3101SOL     OW20761   1.121   1.619   2.686 -0.0393 -0.1985 -0.0553
 3101SOL    HW120762   1.083   1.706   2.691  2.3358  0.9171 -1.4235
 3101SOL    HW220763   1.040   1.574   2.661 -0.6482  0.2784  1.0508
 3102SOL     OW20764   1.687   1.943   9.193 -0.2469 -0.2050  0.1773
 3102SOL    HW120765   1.659   1.893   9.270  0.6838 -0.4361  0.3697
 3102SOL    HW220766   1.607   1.944   9.139  0.4951  1.2227 -0.8945
 3103SOL     OW20767   1.435   4.187   9.658  0.7283  0.1171 -0.4410
 3103SOL    HW120768   1.472   4.183   9.570  0.4405 -0.5849 -0.5394
 3103SOL    HW220769   1.382   4.106   9.660 -1.4779  1.5284 -1.2161
 3104SOL     OW20770   0.014   2.096  17.138  0.0194  0.0887  0.2087
 3104SOL    HW120771   0.069   2.133  17.069  0.0328 -0.6812 -0.1941
 3104SOL    HW220772   0.070   2.090  17.216  0.3982 -1.2821 -0.1592
 3105SOL     OW20773   3.789   4.629   3.229 -0.5901 -0.0370 -0.5726
 3105SOL    HW120774   3.736   4.647   3.307  1.0787 -0.6859  0.7373
 3105SOL    HW220775   3.724   4.606   3.163 -0.1866  0.6902 -1.2224
 3106SOL     OW20776   0.145   3.962   9.154  0.1652 -0.7853 -0.7480
 3106SOL    HW120777   0.197   3.884   9.134 -1.0708 -1.0310 -3.0289
 3106SOL    HW220778   0.057   3.928   9.139  0.0955  0.1209 -2.3852
 3107SOL     OW20779   2.901   1.357   4.565  0.0275  0.7852 -0.5083
 3107SOL    HW120780   2.989   1.390   4.549  0.5253  0.3230  1.2802
 3107SOL    HW220781   2.849   1.377   4.487 -0.4670  1.0376 -0.1152
 3108SOL     OW20782   2.658   1.083  13.777  0.1315  0.1552 -0.5396
 3108SOL    HW120783   2.613   1.053  13.698 -2.3269 -2.5066  1.8731
 3108SOL    HW220784   2.599   1.064  13.850 -0.1035 -2.6743 -1.4338
 3109SOL     OW20785   3.005   0.377   7.962  0.3109  0.0758 -0.3993
 3109SOL    HW120786   3.071   0.321   7.921 -0.3656 -1.5514  0.7302
 3109SOL    HW220787   3.022   0.470   7.945  1.0305 -0.3977 -2.2211
 3110SOL     OW20788   4.138   3.694   5.944 -0.1961 -0.2057  0.0738
 3110SOL    HW120789   4.135   3.598   5.945  1.0408 -0.2442 -0.4194
 3110SOL    HW220790   4.215   3.716   5.892 -0.7946  0.4850 -0.5258
 3111SOL     OW20791   0.581   4.579   6.185 -0.2954 -0.2899  0.0428
 3111SOL    HW120792   0.592   4.488   6.212 -0.8653 -0.1516  0.7394
 3111SOL    HW220793   0.669   4.616   6.178  0.4570 -2.3443 -1.2145
 3112SOL     OW20794   1.078   0.349   7.049  0.0958 -0.6089  0.1415
 3112SOL    HW120795   1.163   0.386   7.075 -0.1287  1.3650 -1.8360
 3112SOL    HW220796   1.109   0.261   7.028  0.7223 -0.5894  0.9994
 3113SOL     OW20797   4.095   4.594   4.534 -0.2566 -0.3841  0.8499
 3113SOL    HW120798   4.165   4.643   4.491 -1.6404  0.9905  0.1787
 3113SOL    HW220799   4.021   4.629   4.485  0.9831 -0.3674 -1.0334
 3114SOL     OW20800   2.949   4.718  14.371  0.3953 -0.4518 -0.0093
 3114SOL    HW120801   2.900   0.075  14.365  0.1024 -0.6441 -0.1934
 3114SOL    HW220802   2.891   4.663  14.424  0.5035  1.5527  2.1841
 3115SOL     OW20803   3.900   2.894   5.821 -0.1844 -0.7639 -0.4272
 3115SOL    HW120804   3.902   2.845   5.904 -3.4618 -1.4126 -0.7382
 3115SOL    HW220805   3.819   2.862   5.780  0.4965 -0.6633 -1.8485
 3116SOL     OW20806   3.044   3.708  14.536 -0.5139  0.7720  0.1998
 3116SOL    HW120807   3.139   3.699  14.542 -0.3472  3.0115  1.0536
 3116SOL    HW220808   3.032   3.791  14.490 -0.0510 -0.4177 -2.0846
 3117SOL     OW20809   3.547   1.949   3.900  0.0896 -0.2360 -0.6690
 3117SOL    HW120810   3.526   2.016   3.835 -1.1922  0.3751  0.3775
 3117SOL    HW220811   3.545   1.873   3.841  2.0686 -0.5026 -0.3910
 3118SOL     OW20812   0.241   2.108   5.609  0.4806  0.5550 -0.2283
 3118SOL    HW120813   0.251   2.188   5.659  1.0265 -0.4213  1.2341
 3118SOL    HW220814   0.328   2.071   5.622  0.5557  1.2624  1.2014
 3119SOL     OW20815   2.301   0.749   3.617 -0.3532 -0.7435  0.2685
 3119SOL    HW120816   2.321   0.841   3.635  0.1222 -1.2510  2.3193
 3119SOL    HW220817   2.382   0.720   3.576 -1.7247  0.1255 -3.0862
 3120SOL     OW20818   1.673   0.792   0.983  0.4279  0.6281 -0.3430
 3120SOL    HW120819   1.704   0.794   0.893 -0.9626  1.2214 -0.8101
 3120SOL    HW220820   1.611   0.862   0.962  0.4513  0.2771 -1.5746
 3121SOL     OW20821   1.554   3.145   2.532  0.6766  0.1671 -0.2449
 3121SOL    HW120822   1.585   3.171   2.445  0.5188 -1.3851 -0.7659
 3121SOL    HW220823   1.473   3.195   2.539  0.7329  0.2719 -0.3439
 3122SOL     OW20824   3.564   4.111  17.380  0.3104 -0.3677  0.2703
 3122SOL    HW120825   3.612   4.030  17.398 -1.0371 -1.3946 -0.7298
 3122SOL    HW220826   3.636   4.165  17.348 -1.3649  1.7060 -0.0268
 3123SOL     OW20827   1.966   1.332   4.079 -0.8028 -0.0442 -0.9514
 3123SOL    HW120828   2.059   1.344   4.099 -0.8753  0.2717 -0.8057
 3123SOL    HW220829   1.980   1.280   4.000 -0.1432  2.8901 -2.7649
 3124SOL     OW20830   1.232   1.216   6.942  0.0167 -0.3631  0.4165
 3124SOL    HW120831   1.318   1.201   6.902  0.9259  0.9196  1.9163
 3124SOL    HW220832   1.192   1.131   6.925  0.9124  0.0785 -3.9219
 3125SOL     OW20833   0.135   3.226   5.290  0.1422  0.8660 -0.2017
 3125SOL    HW120834   0.115   3.149   5.239  1.0129  0.0610  0.6608
 3125SOL    HW220835   0.141   3.290   5.219  0.4228  2.6934  1.4493
 3126SOL     OW20836   3.161   1.060   9.574  0.1952 -0.0279  0.3662
 3126SOL    HW120837   3.124   0.985   9.620  0.8723 -0.2973  0.4714
 3126SOL    HW220838   3.194   1.110   9.649 -2.0801  1.2657  0.4942
 3127SOL     OW20839   1.335   3.746  13.821 -0.0939  0.8140  0.8135
 3127SOL    HW120840   1.406   3.713  13.876 -0.2616 -2.2705 -0.7984
 3127SOL    HW220841   1.289   3.783  13.897 -1.1182 -0.3623  0.7779
 3128SOL     OW20842   0.252   4.472  17.485 -0.2491 -0.0043 -0.3748
 3128SOL    HW120843   0.325   4.466  17.423  0.2310  0.1429  0.1783
 3128SOL    HW220844   0.273   4.556  17.525  1.8559 -0.9615  0.5159
 3129SOL     OW20845   4.637   4.564   0.957 -0.1650 -0.1309  0.0883
 3129SOL    HW120846   4.635   4.471   0.978 -0.7002 -0.3691 -1.0294
 3129SOL    HW220847   4.691   4.594   1.030  0.0993 -0.0268 -0.1483
 3130SOL     OW20848   1.786   2.587   6.362  0.4533  0.3193 -1.1022
 3130SOL    HW120849   1.838   2.619   6.435  2.1058 -0.1520 -2.0904
 3130SOL    HW220850   1.781   2.664   6.305 -1.3608  1.0269 -0.0118
 3131SOL     OW20851   3.327   1.793   8.529 -0.0301  0.2307  0.1900
 3131SOL    HW120852   3.299   1.884   8.537 -0.3324 -0.1225  3.2858
 3131SOL    HW220853   3.336   1.770   8.622 -1.1447 -1.3307 -0.0886
 3132SOL     OW20854   0.988   0.225  16.689  0.3435  0.6436 -0.2485
 3132SOL    HW120855   0.966   0.300  16.744 -2.0626 -1.5601  1.7306
 3132SOL    HW220856   0.959   0.257  16.603 -0.5476 -0.6885 -0.4365
 3133SOL     OW20857   1.175   3.395   4.393 -0.7293 -0.6179 -0.0173
 3133SOL    HW120858   1.178   3.488   4.371  0.5792 -0.6832 -0.1375
 3133SOL    HW220859   1.110   3.366   4.329  1.8674 -0.3772 -2.7493
 3134SOL     OW20860   2.970   1.885  17.580 -0.1383  0.9472  0.1606
 3134SOL    HW120861   3.012   1.960  17.539 -0.5437 -0.3062 -2.5165
 3134SOL    HW220862   2.894   1.878  17.523  0.9795 -2.5513 -0.8840
 3135SOL     OW20863   1.228   4.666  12.951 -0.1245  0.0413  0.2350
 3135SOL    HW120864   1.155   4.625  12.905  0.5352 -1.3761  0.4673
 3135SOL    HW220865   1.235   0.027  12.908 -0.0082  0.7462  1.6487
 3136SOL     OW20866   2.236   2.281  11.175 -0.5393 -0.1369  0.1117
 3136SOL    HW120867   2.317   2.233  11.159 -1.0362 -0.9857  0.1846
 3136SOL    HW220868   2.170   2.214  11.189  1.0159 -1.9020 -1.0300
 3137SOL     OW20869   1.026   0.727  17.136  0.0215  0.5441 -0.1853
 3137SOL    HW120870   0.977   0.805  17.164  0.5598  1.1174 -0.8547
 3137SOL    HW220871   0.957   0.700  17.075 -0.0523 -2.4532  1.2001
 3138SOL     OW20872   3.644   3.476  10.751  0.0944  0.3111  0.5170
 3138SOL    HW120873   3.692   3.433  10.822 -2.0080 -0.6944  1.3338
 3138SOL    HW220874   3.593   3.407  10.710  1.6746 -0.5185 -0.0152
 3139SOL     OW20875   4.435   2.113   2.379 -0.9347  0.3065  0.1516
 3139SOL    HW120876   4.514   2.124   2.433 -1.9556  1.3040  1.4355
 3139SOL    HW220877   4.366   2.117   2.445 -1.9495  0.6800 -0.9294
 3140SOL     OW20878   4.164   1.424  16.969  0.0159 -0.1824  0.1537
 3140SOL    HW120879   4.149   1.488  16.900 -2.4479  0.6027  1.4400
 3140SOL    HW220880   4.258   1.406  16.957  0.1232  0.7444 -0.3752
 3141SOL     OW20881   4.368   2.596   5.895 -0.2401  0.0121 -0.3514
 3141SOL    HW120882   4.376   2.535   5.969 -0.1241  0.8333  0.3204
 3141SOL    HW220883   4.304   2.552   5.840 -0.2665  0.0127 -0.3209
 3142SOL     OW20884   2.118   4.428  10.806 -0.2645 -0.4448  0.6150
 3142SOL    HW120885   2.046   4.487  10.826  0.4644  1.3648 -2.1935
 3142SOL    HW220886   2.194   4.482  10.830 -0.7341  0.3982  0.1881
 3143SOL     OW20887   2.724   0.328  11.444  0.3257 -0.3645 -0.0572
 3143SOL    HW120888   2.678   0.373  11.515  1.6524 -0.7053  1.0200
 3143SOL    HW220889   2.760   0.255  11.494 -0.7578 -2.2053 -1.9967
 3144SOL     OW20890   4.347   3.312   1.078 -0.3828 -0.0512  0.1166
 3144SOL    HW120891   4.441   3.331   1.086 -0.5134 -0.1128  1.8300
 3144SOL    HW220892   4.306   3.385   1.030 -0.3669 -0.6475 -0.7903
 3145SOL     OW20893   4.619   4.237   2.971 -0.4344 -0.2151 -0.1646
 3145SOL    HW120894   4.594   4.197   2.888 -1.0136 -1.6357  0.6913
 3145SOL    HW220895   4.708   4.271   2.962 -0.0573 -1.4347 -1.0518
 3146SOL     OW20896   1.055   0.111   8.089  0.4363  1.0276  0.9327
 3146SOL    HW120897   0.993   0.142   8.023  1.0335  1.0635  0.3914
 3146SOL    HW220898   1.000   0.087   8.164 -2.3796  0.4105 -1.3487
 3147SOL     OW20899   2.447   1.241   1.873  0.2997  0.0212  0.0842
 3147SOL    HW120900   2.376   1.287   1.918 -1.0413 -1.9627  0.0580
 3147SOL    HW220901   2.404   1.160   1.842  1.5322  0.5623 -3.0166
 3148SOL     OW20902   2.680   3.379   5.036 -0.2638 -0.4784 -0.0325
 3148SOL    HW120903   2.704   3.342   5.121  2.0894 -1.2534 -1.0624
 3148SOL    HW220904   2.724   3.464   5.033 -0.5693 -0.3829 -1.6065
 3149SOL     OW20905   0.833   4.670  10.933  0.6076 -0.2731  0.3316
 3149SOL    HW120906   0.897   4.661  11.004 -0.0260  0.9340  1.0694
 3149SOL    HW220907   0.843   4.590  10.882  1.9460  0.7729 -1.0381
 3150SOL     OW20908   0.905   4.600  17.408  0.3182 -0.0866 -0.1708
 3150SOL    HW120909   0.998   4.604  17.386  1.4556  0.9603  4.6768
 3150SOL    HW220910   0.901   4.659  17.484  3.0867 -0.4793  0.2860
 3151SOL     OW20911   3.114   4.058   6.412 -1.3865  0.3803  0.3613
 3151SOL    HW120912   3.041   4.115   6.388 -1.2582  0.1825 -0.4898
 3151SOL    HW220913   3.086   3.986   6.357 -1.7651  0.4022  0.5191
 3152SOL     OW20914   2.296   4.543   7.974 -0.2803  0.4289 -0.0763
 3152SOL    HW120915   2.384   4.525   8.009 -0.4826  2.5303  1.5086
 3152SOL    HW220916   2.267   4.628   8.008 -1.3806 -0.5867  1.4631
 3153SOL     OW20917   4.594   0.684   7.049  0.3812 -0.1823  0.1796
 3153SOL    HW120918   4.522   0.664   7.109  0.6446  0.4434  0.7079
 3153SOL    HW220919   4.650   0.723   7.116 -1.5435  1.3306  0.9099
 3154SOL     OW20920   1.765   0.589   3.495 -0.0782 -0.0030  0.0454
 3154SOL    HW120921   1.803   0.553   3.575 -1.6064 -2.5507 -0.3964
 3154SOL    HW220922   1.824   0.556   3.428 -0.2665  2.2922 -1.2428
 3155SOL     OW20923   0.107   1.775   6.474 -0.4636  0.1372 -0.0654
 3155SOL    HW120924   0.075   1.715   6.407 -1.1020 -1.2164  1.4298
 3155SOL    HW220925   0.120   1.724   6.554 -0.2556 -0.1690 -0.2953
 3156SOL     OW20926   3.850   4.110   3.330 -0.3923  0.4388  0.3528
 3156SOL    HW120927   3.784   4.089   3.397 -0.3030 -0.6165  0.1070
 3156SOL    HW220928   3.823   4.055   3.257 -1.1974  1.1247  0.1344
 3157SOL     OW20929   4.579   1.588  16.185  0.0855  0.1245 -0.2726
 3157SOL    HW120930   4.548   1.587  16.275  1.2526  0.0151  0.1364
 3157SOL    HW220931   4.535   1.669  16.160  0.0092  0.4630  0.9478
 3158SOL     OW20932   3.683   3.882   5.455  0.2716 -0.2270  0.8887
 3158SOL    HW120933   3.713   3.962   5.499  0.0482 -0.3220  1.2167
 3158SOL    HW220934   3.749   3.819   5.485 -1.3354 -1.8442  0.9885
 3159SOL     OW20935   1.699   4.363   0.521  0.4248 -0.2212  0.0765
 3159SOL    HW120936   1.665   4.364   0.610  1.5167  0.2291  0.4883
 3159SOL    HW220937   1.700   4.268   0.507  0.8152 -0.4341  1.5684
 3160SOL     OW20938   3.061   1.468  13.536 -0.0012  0.0802 -0.2785
 3160SOL    HW120939   3.091   1.502  13.452 -1.3050  1.5638 -0.1473
 3160SOL    HW220940   3.141   1.451  13.584 -1.1392  0.3963  1.7295
 3161SOL     OW20941   0.489   0.585   7.110 -0.3628  0.5480 -0.1416
 3161SOL    HW120942   0.517   0.626   7.191 -1.5755 -0.3209  0.7190
 3161SOL    HW220943   0.401   0.623   7.106 -0.7795 -0.7152 -3.9237
 3162SOL     OW20944   0.941   3.353   8.563 -0.1780  0.8104 -0.1922
 3162SOL    HW120945   0.865   3.355   8.622  1.2548 -0.6425  1.7155
 3162SOL    HW220946   0.913   3.428   8.512  2.8561  0.1614 -2.7520
 3163SOL     OW20947   3.333   2.532  12.994  0.0422 -0.3321  0.0475
 3163SOL    HW120948   3.390   2.455  12.998  0.6603  0.1858  1.3310
 3163SOL    HW220949   3.396   2.586  12.948  0.3321 -0.1651  0.6374
 3164SOL     OW20950   4.467   0.520   4.620 -1.2141  0.5292  0.6168
 3164SOL    HW120951   4.389   0.573   4.636 -0.5113  1.8201 -0.1863
 3164SOL    HW220952   4.536   0.587   4.618 -0.8036  0.0852 -0.1841
 3165SOL     OW20953   2.907   4.229   7.005 -0.1408  0.3928  0.4584
 3165SOL    HW120954   2.881   4.140   6.984 -1.1164  1.0053 -0.9178
 3165SOL    HW220955   2.929   4.219   7.097 -1.3553  0.6863  0.7737
 3166SOL     OW20956   1.130   2.528   2.537  0.2118  0.2421 -0.2936
 3166SOL    HW120957   1.225   2.532   2.528  0.1921  0.6982 -0.2985
 3166SOL    HW220958   1.107   2.621   2.540  0.3834  0.3230 -1.4020
 3167SOL     OW20959   3.149   2.367  12.600  0.0981 -0.1519  0.0465
 3167SOL    HW120960   3.106   2.412  12.527  0.6908  0.7019  0.2368
 3167SOL    HW220961   3.133   2.430  12.669 -2.0718 -3.7059  2.8093
 3168SOL     OW20962   1.192   3.668   3.568  0.6504 -0.2544  0.2604
 3168SOL    HW120963   1.119   3.699   3.622 -0.9154 -0.8536 -1.5338
 3168SOL    HW220964   1.176   3.575   3.581 -1.2115  0.2700  1.7112
 3169SOL     OW20965   1.616   3.705  13.242  0.0587 -0.4452 -0.1518
 3169SOL    HW120966   1.616   3.794  13.205 -1.6102 -0.0078  0.9430
 3169SOL    HW220967   1.668   3.656  13.177 -2.1124 -1.7686 -0.8730
 3170SOL     OW20968   1.561   2.759  15.099 -0.3646 -0.1529  0.2408
 3170SOL    HW120969   1.571   2.741  15.006 -0.7648  0.4513  0.0872
 3170SOL    HW220970   1.648   2.749  15.138 -0.5825  1.2165  1.0789
 3171SOL     OW20971   1.809   2.184   6.292 -0.7863 -0.0896 -0.0999
 3171SOL    HW120972   1.806   2.209   6.384  2.5083 -1.7592  0.4910
 3171SOL    HW220973   1.797   2.089   6.296 -0.9591 -0.0217  1.0054
 3172SOL     OW20974   0.112   3.041   3.632  0.2075 -0.2805 -0.1637
 3172SOL    HW120975   0.140   2.958   3.671  1.3320  0.1021 -0.1702
 3172SOL    HW220976   0.148   3.102   3.696 -0.9013 -1.0526  1.1808
 3173SOL     OW20977   3.317   2.006   2.083 -0.0146 -0.7334 -0.3482
 3173SOL    HW120978   3.229   1.969   2.089 -0.2978  0.2022  1.2032
 3173SOL    HW220979   3.355   1.969   2.163  0.0871 -0.0013 -0.0575
 3174SOL     OW20980   4.520   1.629  11.678  0.5112 -0.5065 -0.4131
 3174SOL    HW120981   4.514   1.535  11.661 -1.5181 -0.6749  1.2173
 3174SOL    HW220982   4.561   1.627  11.765  3.2077  1.4421 -1.6312
 3175SOL     OW20983   1.823   0.725   7.745 -0.5646 -0.0485 -0.4184
 3175SOL    HW120984   1.750   0.683   7.791 -0.3252  1.4671  1.3295
 3175SOL    HW220985   1.888   0.654   7.745 -0.1466  0.3406 -1.5072
 3176SOL     OW20986   3.246   2.848   4.102  0.2780 -0.0985 -0.6375
 3176SOL    HW120987   3.325   2.827   4.052  1.6066  1.4844  0.7890
 3176SOL    HW220988   3.251   2.775   4.163  1.0232  0.7964  0.3551
 3177SOL     OW20989   2.142   1.220  16.705 -0.0340 -0.0067  0.2370
 3177SOL    HW120990   2.136   1.172  16.622 -1.4237  1.6512 -0.6011
 3177SOL    HW220991   2.057   1.198  16.743 -0.9319  1.0319 -1.1952
 3178SOL     OW20992   2.246   1.066   6.596 -0.2577 -0.6059  0.5765
 3178SOL    HW120993   2.248   1.002   6.526  1.8437  3.1358 -2.7869
 3178SOL    HW220994   2.216   1.020   6.675  1.8964  0.6874  2.1436
 3179SOL     OW20995   2.035   2.953  11.190 -0.4423  0.1741  0.3486
 3179SOL    HW120996   2.118   2.996  11.169 -1.2116  0.1840 -2.7029
 3179SOL    HW220997   1.998   3.034  11.225  0.3778 -0.3103  2.3758
 3180SOL     OW20998   4.467   4.664   5.696 -0.4645  0.4118 -0.1303
 3180SOL    HW120999   4.399   4.648   5.631 -0.6462  0.1204  0.1284
 3180SOL    HW221000   4.544   4.662   5.639  1.2539 -0.7876  2.1883
 3181SOL     OW21001   4.329   3.944  12.844 -0.7036 -0.0888 -0.1195
 3181SOL    HW121002   4.253   3.886  12.843 -0.0244 -0.9758 -2.5537
 3181SOL    HW221003   4.353   3.925  12.753  3.9138  0.4465  0.9808
 3182SOL     OW21004   4.672   2.267  17.455  0.2386  0.2313 -0.2333
 3182SOL    HW121005   0.004   2.312  17.392 -0.6562  2.7861  0.7764
 3182SOL    HW221006   4.600   2.245  17.397 -0.1681  0.6654  0.1089
 3183SOL     OW21007   3.187   2.910   2.827  0.3401 -0.5296  0.0948
 3183SOL    HW121008   3.260   2.970   2.842  1.0388 -1.5390  0.8041
 3183SOL    HW221009   3.150   2.946   2.747 -1.0149  1.3234  1.5533
 3184SOL     OW21010   1.125   2.915   1.213 -0.3107 -0.0273  0.1557
 3184SOL    HW121011   1.090   2.852   1.151  1.4163 -0.1983 -0.6319
 3184SOL    HW221012   1.216   2.890   1.198 -0.2414  1.3624 -1.7626
 3185SOL     OW21013   4.440   2.729   1.462 -0.6699  0.5592  0.1035
 3185SOL    HW121014   4.394   2.807   1.493  0.4232  1.6899 -1.1380
 3185SOL    HW221015   4.530   2.760   1.454 -1.2395  2.1192 -0.1860
 3186SOL     OW21016   3.031   0.621   3.153 -0.0746  0.2398  0.5132
 3186SOL    HW121017   3.050   0.530   3.132 -1.0086  0.3376 -0.7389
 3186SOL    HW221018   3.095   0.644   3.221 -0.5955  0.6493  0.8667
 3187SOL     OW21019   0.902   1.299  13.014  0.5276 -0.4117 -0.1423
 3187SOL    HW121020   0.895   1.388  12.977 -1.1442 -0.6616 -0.4395
 3187SOL    HW221021   0.839   1.307  13.086  0.2986  0.4146 -0.4232
 3188SOL     OW21022   2.973   4.664   3.763  0.0037  0.1235 -0.5976
 3188SOL    HW121023   3.022   4.637   3.841  0.2971  3.1141  0.2530
 3188SOL    HW221024   2.964   4.580   3.719 -0.1551 -1.5029  2.5446
 3189SOL     OW21025   0.125   3.558   2.360 -0.2837  0.1331  0.4315
 3189SOL    HW121026   0.133   3.572   2.454  2.0351  0.8868  0.1210
 3189SOL    HW221027   0.216   3.571   2.333  0.2393 -2.0025  1.1253
 3190SOL     OW21028   4.089   3.801   9.371  0.3707 -0.1826 -0.1261
 3190SOL    HW121029   4.045   3.857   9.435  0.2033 -0.2809 -0.1581
 3190SOL    HW221030   4.182   3.813   9.393  0.0043  0.6541  0.9491
 3191SOL     OW21031   3.305   4.662   8.666 -0.1672 -0.0193  0.6534
 3191SOL    HW121032   3.295   4.600   8.738 -1.6314 -2.6042 -1.7674
 3191SOL    HW221033   3.238   4.641   8.601  1.7916 -2.0593 -0.7388
 3192SOL     OW21034   0.483   3.562   7.521 -0.2598  0.1739  0.4170
 3192SOL    HW121035   0.495   3.467   7.521 -0.9649  0.0996 -1.5755
 3192SOL    HW221036   0.434   3.585   7.443 -0.8508 -1.5658  0.2698
 3193SOL     OW21037   1.080   1.957   9.120  0.4388 -0.4405  0.0444
 3193SOL    HW121038   1.022   1.929   9.190  1.1719 -3.8858 -0.7497
 3193SOL    HW221039   1.166   1.947   9.159  0.8095  3.1611  0.1361
 3194SOL     OW21040   1.038   4.567   9.723  0.1543 -0.2155  0.2032
 3194SOL    HW121041   1.098   4.501   9.688  1.3757  0.9024  0.1652
 3194SOL    HW221042   1.033   4.619   9.643  0.7481 -1.3313 -0.5643
 3195SOL     OW21043   4.291   2.580   4.424  0.7331  0.0909 -0.5588
 3195SOL    HW121044   4.298   2.490   4.456  0.5575 -0.2386 -1.4442
 3195SOL    HW221045   4.207   2.585   4.378  0.9465  2.5663 -0.7001
 3196SOL     OW21046   3.244   1.169  14.793 -0.1139  0.2010 -0.1014
 3196SOL    HW121047   3.175   1.229  14.764  0.3216  1.2075  0.9368
 3196SOL    HW221048   3.223   1.080  14.764 -0.5830  1.8684 -4.7329
 3197SOL     OW21049   1.253   3.646   6.663 -0.4786  0.0080 -0.2270
 3197SOL    HW121050   1.250   3.555   6.692  0.4468  0.4078  1.1490
 3197SOL    HW221051   1.346   3.654   6.639 -0.6222 -0.8134 -1.0527
 3198SOL     OW21052   2.952   3.197   4.408  0.2835  0.4468  0.7241
 3198SOL    HW121053   2.922   3.143   4.335  1.0499  0.1597  0.6286
 3198SOL    HW221054   3.044   3.174   4.401  0.2259  1.2440 -2.4938
 3199SOL     OW21055   1.120   0.579   3.288  0.1999  0.0483 -0.0272
 3199SOL    HW121056   1.107   0.632   3.209 -0.0833 -0.3544 -0.2544
 3199SOL    HW221057   1.031   0.577   3.325  0.2742 -0.1774  0.1362
 3200SOL     OW21058   3.133   2.498  10.778  0.3866  0.8256  0.0496
 3200SOL    HW121059   3.220   2.460  10.775  0.3399  0.7556 -0.4294
 3200SOL    HW221060   3.109   2.492  10.685 -1.3882 -0.3845  0.5925
 3201SOL     OW21061   4.584   1.789   1.907  0.0355 -0.2135 -0.1456
 3201SOL    HW121062   4.498   1.770   1.944  0.8069 -1.7740  0.8627
 3201SOL    HW221063   4.634   1.798   1.988  1.1118 -0.2147 -0.8159
 3202SOL     OW21064   3.989   1.413   1.508  0.5495  0.4542 -0.6115
 3202SOL    HW121065   3.898   1.383   1.505  1.3614 -2.1720  0.5646
 3202SOL    HW221066   4.002   1.444   1.598  1.3926  1.2358 -1.0041
 3203SOL     OW21067   4.611   0.370  11.878  0.1177  0.0861  0.0270
 3203SOL    HW121068   4.640   0.280  11.863  1.0364  0.9775 -3.5930
 3203SOL    HW221069   4.595   0.390  11.786  1.3458  2.1456  0.2555
 3204SOL     OW21070   3.332   0.296   5.933 -0.2974  0.4182  0.1392
 3204SOL    HW121071   3.354   0.354   6.006  0.5015  0.6314 -0.2631
 3204SOL    HW221072   3.269   0.236   5.972 -1.1502  0.4707 -1.1719
 3205SOL     OW21073   1.573   4.569   3.070 -0.3163  0.1077  0.5128
 3205SOL    HW121074   1.663   4.601   3.075 -0.4373  0.5381 -0.1810
 3205SOL    HW221075   1.582   4.505   3.000 -0.4202  0.4082  0.2266
 3206SOL     OW21076   0.739   3.585  12.641  0.1128  0.1863 -0.6417
 3206SOL    HW121077   0.792   3.506  12.644  0.0179  0.1245 -0.5874
 3206SOL    HW221078   0.710   3.590  12.732 -0.8181  1.6471 -1.0151
 3207SOL     OW21079   4.537   4.051   4.700  0.2528  0.3413 -0.5200
 3207SOL    HW121080   4.445   4.035   4.678  0.7170 -1.2946 -1.2715
 3207SOL    HW221081   4.515   4.079   4.789  1.5693 -0.1685 -0.0275
 3208SOL     OW21082   0.679   0.000   3.998 -0.2420  0.2107  0.0718
 3208SOL    HW121083   0.729   4.643   4.003  0.2847  0.6538  1.9543
 3208SOL    HW221084   0.602   4.695   3.949  0.9667 -2.6342 -0.1107
 3209SOL     OW21085   2.070   0.618   3.544 -0.0718  0.2177  0.3760
 3209SOL    HW121086   2.153   0.647   3.584 -0.8385  1.1672  1.2836
 3209SOL    HW221087   2.011   0.612   3.619  1.7686  4.7951  2.1906
 3210SOL     OW21088   4.250   3.047   1.951  0.3420 -0.3240 -0.4030
 3210SOL    HW121089   4.259   3.027   2.044  1.2503  1.6008 -0.0946
 3210SOL    HW221090   4.293   3.130   1.934  1.5533 -1.1451 -1.3257
 3211SOL     OW21091   0.833   2.823   4.147 -0.0828 -0.0755  0.0173
 3211SOL    HW121092   0.847   2.729   4.158  1.2453 -0.2285 -2.9510
 3211SOL    HW221093   0.915   2.857   4.185 -0.9496 -0.2117  2.0181
 3212SOL     OW21094   3.110   4.686   2.150  0.1417  0.1914  0.2289
 3212SOL    HW121095   3.194   4.705   2.192  0.5849 -1.6618  0.1950
 3212SOL    HW221096   3.057   4.630   2.207  0.9072 -0.6865  0.0770
 3213SOL     OW21097   4.226   2.390  10.576 -0.0801 -0.0681  0.2351
 3213SOL    HW121098   4.147   2.441  10.557 -1.1574 -1.4511  0.9928
 3213SOL    HW221099   4.244   2.420  10.666  2.2050 -0.4689 -0.0825
 3214SOL     OW21100   1.378   1.291   6.323 -0.1271  0.4858 -0.5407
 3214SOL    HW121101   1.381   1.213   6.378 -0.0432  1.2788  0.5769
 3214SOL    HW221102   1.351   1.257   6.238  2.1691 -2.3212 -0.1627
 3215SOL     OW21103   0.376   2.921   3.864 -0.2443  0.9097 -0.4210
 3215SOL    HW121104   0.371   2.883   3.952  0.2080 -0.7052 -1.0970
 3215SOL    HW221105   0.355   2.837   3.823  1.5865 -0.0284  0.5595
 3216SOL     OW21106   0.283   3.506   6.442 -0.5105  0.0055  0.5177
 3216SOL    HW121107   0.308   3.510   6.534  2.0668  2.1170 -0.2837
 3216SOL    HW221108   0.238   3.589   6.427  0.1586  0.5598  1.6170
 3217SOL     OW21109   1.978   2.505   2.099 -0.2933  0.0852 -0.5310
 3217SOL    HW121110   2.002   2.416   2.071 -0.3436 -0.2167  0.3628
 3217SOL    HW221111   1.922   2.480   2.173 -0.3040  0.6568 -0.3440
 3218SOL     OW21112   0.569   0.961  12.190  0.1430 -0.1986 -0.1108
 3218SOL    HW121113   0.543   0.907  12.265 -1.9312 -1.2963 -1.6262
 3218SOL    HW221114   0.565   0.904  12.113 -0.8691 -0.5116  0.1698
 3219SOL     OW21115   0.748   3.822  11.577  0.1406  0.7172 -0.1184
 3219SOL    HW121116   0.808   3.893  11.600  1.9373 -0.6015 -0.7385
 3219SOL    HW221117   0.732   3.836  11.484 -1.2200 -1.6963 -0.2326
 3220SOL     OW21118   1.703   2.044   3.077 -0.0666  0.1335 -0.3013
 3220SOL    HW121119   1.791   2.058   3.043 -0.0176  0.1700 -0.1574
 3220SOL    HW221120   1.683   2.130   3.115 -3.0635 -0.3803 -0.7338
 3221SOL     OW21121   1.866   0.901  15.741 -0.1631 -0.0831 -0.0562
 3221SOL    HW121122   1.861   0.814  15.780  1.6692 -0.4250 -0.5597
 3221SOL    HW221123   1.925   0.944  15.803  0.2125  2.6046 -2.2842
 3222SOL     OW21124   4.635   0.375   0.215  0.4499 -0.0372  0.0956
 3222SOL    HW121125   4.706   0.314   0.234 -1.0022 -1.9115 -0.5104
 3222SOL    HW221126   4.564   0.311   0.218  1.7011 -1.4810 -0.8504
 3223SOL     OW21127   2.590   1.159   5.547 -0.5874  0.3072 -0.6450
 3223SOL    HW121128   2.577   1.097   5.475  0.9516 -1.2392  0.3897
 3223SOL    HW221129   2.501   1.178   5.573 -0.9313  0.1465 -1.6889
 3224SOL     OW21130   2.221   1.849  15.984 -0.3561 -0.1458  0.4254
 3224SOL    HW121131   2.158   1.786  16.018 -0.5308  0.6200  1.5177
 3224SOL    HW221132   2.297   1.853  16.042  1.4784  0.6146 -2.0176
 3225SOL     OW21133   1.418   4.563   1.822 -0.6986 -0.3390 -0.2884
 3225SOL    HW121134   1.346   4.509   1.789 -2.2241  1.3169  0.2710
 3225SOL    HW221135   1.493   4.513   1.792 -0.4237 -0.6247  0.8974
 3226SOL     OW21136   4.226   4.636  15.671 -0.8281 -0.0497 -0.3099
 3226SOL    HW121137   4.179   4.689  15.735  1.9957  1.8616  0.1546
 3226SOL    HW221138   4.316   4.669  15.676 -1.7924  2.7679 -1.8545
 3227SOL     OW21139   3.325   0.110   5.017  0.0173 -0.2615 -0.3707
 3227SOL    HW121140   3.297   0.196   5.049 -0.6555  0.1349 -2.0165
 3227SOL    HW221141   3.247   0.082   4.969 -0.4937 -1.0172  0.8734
 3228SOL     OW21142   1.367   2.433   6.084 -0.1309 -0.3716  0.3406
 3228SOL    HW121143   1.432   2.503   6.088  1.6830 -2.0896  1.2683
 3228SOL    HW221144   1.401   2.370   6.148  2.4858  0.9825  0.2948
 3229SOL     OW21145   0.208   4.345   2.632 -0.1412 -0.1094 -0.0426
 3229SOL    HW121146   0.239   4.287   2.701 -0.4127 -0.4872 -0.2347
 3229SOL    HW221147   0.145   4.288   2.587 -2.0731  1.0648  1.1610
 3230SOL     OW21148   1.557   2.680   8.499 -0.6840 -0.3701 -0.4950
 3230SOL    HW121149   1.527   2.609   8.556  1.8877  0.5162  1.9275
 3230SOL    HW221150   1.481   2.735   8.481 -0.9033 -0.6411 -0.4066
 3231SOL     OW21151   0.304   2.790  10.546  1.1167  0.7152 -0.0855
 3231SOL    HW121152   0.333   2.878  10.568 -0.6013  1.2630 -0.0230
 3231SOL    HW221153   0.330   2.783  10.454 -0.2917 -0.0579 -0.4289
 3232SOL     OW21154   2.558   4.053   9.852 -0.5963 -0.4164 -0.1593
 3232SOL    HW121155   2.551   4.080   9.761  1.7597  2.4325  0.4777
 3232SOL    HW221156   2.646   4.087   9.872 -0.3083 -1.4695  0.4161
 3233SOL     OW21157   0.545   1.016  17.089 -0.3996 -0.0148 -0.4463
 3233SOL    HW121158   0.633   1.041  17.060 -0.9310  0.7757 -1.3899
 3233SOL    HW221159   0.507   1.007  17.002  1.3718 -0.7903 -1.1472
 3234SOL     OW21160   2.679   4.536   2.657  0.1004  0.2174  0.0739
 3234SOL    HW121161   2.768   4.568   2.666  0.4062  0.5401 -3.9390
 3234SOL    HW221162   2.627   4.600   2.706 -0.7950 -0.2975 -0.1910
 3235SOL     OW21163   4.447   1.032   7.374 -0.2758 -0.3468 -0.0423
 3235SOL    HW121164   4.363   0.986   7.382  0.0807 -1.0919 -0.7229
 3235SOL    HW221165   4.427   1.125   7.385 -0.8768 -0.4195 -0.5014
 3236SOL     OW21166   3.660   1.809   2.843 -0.3350  0.1871 -0.5624
 3236SOL    HW121167   3.643   1.901   2.863  0.3760 -0.1213  1.5158
 3236SOL    HW221168   3.606   1.799   2.765 -1.9699 -0.1187  0.5981
 3237SOL     OW21169   1.960   2.649  16.953  0.0544 -0.5080 -0.0045
 3237SOL    HW121170   2.051   2.646  16.921  1.0867  0.7405  2.8808
 3237SOL    HW221171   1.907   2.611  16.883 -0.1145 -0.0335 -0.1375
 3238SOL     OW21172   1.002   0.818  10.395 -0.2549 -0.1504 -0.2630
 3238SOL    HW121173   1.020   0.791  10.305  0.6812  1.3611 -0.5255
 3238SOL    HW221174   0.920   0.772  10.413  0.2549 -1.1735 -0.5331
 3239SOL     OW21175   0.564   3.401  17.104  0.1631  0.3634 -0.2367
 3239SOL    HW121176   0.569   3.483  17.054  0.0628  0.5969  0.1279
 3239SOL    HW221177   0.525   3.422  17.190  2.5921  0.7675  0.7682
 3240SOL     OW21178   0.717   3.572   4.896 -0.0959 -1.0024  0.9941
 3240SOL    HW121179   0.795   3.608   4.855 -0.8661 -0.1460  0.2871
 3240SOL    HW221180   0.752   3.485   4.917  2.6735  0.4372  2.3007
 3241SOL     OW21181   1.875   2.423   6.151  0.0961 -0.2611  0.3750
 3241SOL    HW121182   1.834   2.337   6.144  1.4752 -0.9409  0.6089
 3241SOL    HW221183   1.820   2.453   6.224 -0.3691  1.0631 -0.5185
 3242SOL     OW21184   0.971   0.844  10.950 -0.2191 -0.8677 -0.1318
 3242SOL    HW121185   0.894   0.795  10.979  0.3809 -1.7868 -0.0828
 3242SOL    HW221186   0.931   0.930  10.941  1.8479  0.0653 -0.5812
 3243SOL     OW21187   1.050   0.694  13.713 -0.6983 -0.1938 -0.2825
 3243SOL    HW121188   0.997   0.749  13.771 -0.1999 -1.7851  1.6557
 3243SOL    HW221189   0.982   0.667  13.651  0.0906 -3.8202  0.4631
 3244SOL     OW21190   3.900   2.919   6.142  0.3162 -0.5898  0.2290
 3244SOL    HW121191   3.981   2.912   6.092  0.0877 -1.6647 -0.0014
 3244SOL    HW221192   3.881   3.012   6.153  0.8327 -0.3255 -1.1229
 3245SOL     OW21193   3.160   4.493   3.951  0.6982 -0.7636 -0.4344
 3245SOL    HW121194   3.223   4.522   4.016  0.5076  1.0069 -1.0445
 3245SOL    HW221195   3.214   4.474   3.875 -1.0977 -0.7791 -1.7190
 3246SOL     OW21196   4.530   0.875   3.887  0.5007 -0.2123  0.2142
 3246SOL    HW121197   4.578   0.811   3.940  2.2593  0.7209 -0.2364
 3246SOL    HW221198   4.451   0.835   3.852  1.2854 -2.1880  0.6839
 3247SOL     OW21199   0.728   4.448   5.682 -0.3169  0.9854  0.3859
 3247SOL    HW121200   0.671   4.396   5.625 -0.2166 -2.1981  3.1761
 3247SOL    HW221201   0.680   4.530   5.684  2.3860  2.5522  0.8576
 3248SOL     OW21202   1.406   0.757   0.923  0.4378  0.3935  0.5211
 3248SOL    HW121203   1.490   0.717   0.946 -0.7162 -1.3346  1.7062
 3248SOL    HW221204   1.374   0.776   1.011  0.6332  1.2057  0.4199
 3249SOL     OW21205   2.725   1.236   9.325 -0.0570 -0.0049 -0.1388
 3249SOL    HW121206   2.711   1.329   9.342 -0.1539 -0.0341 -0.0568
 3249SOL    HW221207   2.769   1.215   9.407 -2.3332  2.3722  1.6886
 3250SOL     OW21208   0.260   2.908   5.544 -0.5119 -0.3841  0.0114
 3250SOL    HW121209   0.230   2.998   5.557  0.8358 -0.1224  1.2618
 3250SOL    HW221210   0.348   2.927   5.576 -0.9737 -0.0565  1.0921
 3251SOL     OW21211   1.604   3.990   7.128 -0.6538 -0.3865  0.3865
 3251SOL    HW121212   1.537   3.922   7.132 -0.1700 -0.9000 -0.4410
 3251SOL    HW221213   1.550   4.069   7.132  0.3432  0.2204  1.8641
 3252SOL     OW21214   3.397   3.819   2.948  0.1251 -0.0944 -0.3446
 3252SOL    HW121215   3.459   3.770   2.894 -0.3131 -0.8550 -0.1639
 3252SOL    HW221216   3.418   3.907   2.919 -0.1039  1.3749  3.9262
 3253SOL     OW21217   3.462   2.170   3.789  0.1023 -0.5582  0.1514
 3253SOL    HW121218   3.409   2.249   3.796  0.5004 -0.1638 -1.2578
 3253SOL    HW221219   3.448   2.156   3.696 -0.5551 -1.0248  0.3239
 3254SOL     OW21220   4.645   3.239  15.484 -0.0283 -0.3049 -0.6809
 3254SOL    HW121221   4.647   3.165  15.423  2.8638 -0.4553 -0.4069
 3254SOL    HW221222   4.613   3.188  15.559  0.6901 -0.1760 -0.2835
 3255SOL     OW21223   3.468   3.299   9.983 -0.7090 -0.2972  0.0232
 3255SOL    HW121224   3.548   3.350   9.965 -0.0962 -2.2934 -3.0490
 3255SOL    HW221225   3.502   3.228  10.038 -0.5061  0.1399  0.4680
 3256SOL     OW21226   4.387   4.415  15.934  0.1961 -0.0545  0.4868
 3256SOL    HW121227   4.428   4.329  15.948 -0.1855 -0.2358  0.4911
 3256SOL    HW221228   4.456   4.480  15.922 -0.3784  0.8437  2.1334
 3257SOL     OW21229   4.024   1.214   4.125 -0.1908 -0.3072 -0.0447
 3257SOL    HW121230   4.055   1.152   4.191 -0.5305 -0.9878 -0.5192
 3257SOL    HW221231   4.001   1.160   4.049 -0.0875 -0.9979  0.4191
 3258SOL     OW21232   1.958   0.626   4.964 -0.1048  0.2088 -0.2989
 3258SOL    HW121233   1.924   0.707   4.926 -0.0728 -0.1692 -1.1131
 3258SOL    HW221234   1.887   0.613   5.027 -2.3941 -0.5911 -3.0734
 3259SOL     OW21235   1.040   2.031   7.168 -0.3689 -0.3323  0.0064
 3259SOL    HW121236   1.057   1.937   7.166  1.0973 -0.0267 -1.2762
 3259SOL    HW221237   1.128   2.068   7.175 -0.9739  1.2573 -0.8054
 3260SOL     OW21238   1.696   1.003   9.555  0.1640  0.3461 -0.2906
 3260SOL    HW121239   1.774   1.059   9.547  0.3868  0.3883  2.4088
 3260SOL    HW221240   1.741   0.928   9.593 -1.3448  0.1029  0.9893
 3261SOL     OW21241   2.584   0.175  16.008 -0.3945  0.1392  0.5151
 3261SOL    HW121242   2.593   0.115  15.933 -0.1564 -0.3888  0.9601
 3261SOL    HW221243   2.510   0.139  16.057 -1.5447  2.5217  0.4919
 3262SOL     OW21244   1.331   2.723   4.852  0.2679  0.3276 -0.1075
 3262SOL    HW121245   1.322   2.672   4.772 -0.2214  0.8125 -0.3603
 3262SOL    HW221246   1.413   2.771   4.841  0.1855  0.7144  0.9555
 3263SOL     OW21247   2.184   1.094  16.467 -0.4411  0.6630  0.7400
 3263SOL    HW121248   2.198   0.999  16.475 -1.3845  0.4392 -0.3221
 3263SOL    HW221249   2.273   1.130  16.460 -0.1313  0.1241  1.8650
 3264SOL     OW21250   1.805   0.900   2.504  0.6352 -0.0077 -0.0936
 3264SOL    HW121251   1.880   0.892   2.563 -0.7349 -2.6528  1.2942
 3264SOL    HW221252   1.799   0.811   2.468 -0.4266  0.1963 -0.4231
 3265SOL     OW21253   4.068   2.248   2.355  0.1046 -0.0384 -0.0114
 3265SOL    HW121254   4.142   2.300   2.326 -0.8665  2.6834  2.4057
 3265SOL    HW221255   4.109   2.210   2.433  1.4088  2.6192  0.5718
 3266SOL     OW21256   1.893   3.603  11.485 -0.1388  0.4290 -0.1064
 3266SOL    HW121257   1.918   3.664  11.554 -1.2323  0.9879 -0.2136
 3266SOL    HW221258   1.873   3.661  11.411 -0.9158 -0.6137 -0.7084
 3267SOL     OW21259   0.369   3.950  14.600 -0.3413 -0.1991 -0.3456
 3267SOL    HW121260   0.415   4.027  14.634 -1.0014  1.5460 -3.4451
 3267SOL    HW221261   0.277   3.975  14.594 -0.2867 -0.0045 -0.3890
 3268SOL     OW21262   1.473   2.260   9.128  0.8351 -0.2240 -0.1559
 3268SOL    HW121263   1.547   2.303   9.170  0.9663 -0.6514  0.0542
 3268SOL    HW221264   1.416   2.257   9.204  0.1989  0.0530 -0.6227
 3269SOL     OW21265   4.126   2.743  10.451 -0.6167  0.0244  0.0540
 3269SOL    HW121266   4.103   2.652  10.470 -2.6877  0.5736  0.1090
 3269SOL    HW221267   4.221   2.733  10.463 -0.8745 -2.1157  0.3371
 3270SOL     OW21268   2.339   2.770   8.071 -0.0148  0.3645 -0.6700
 3270SOL    HW121269   2.425   2.812   8.076  0.0902  0.0328  0.3295
 3270SOL    HW221270   2.368   2.680   8.079  0.9431  0.5916 -1.6010
 3271SOL     OW21271   3.553   0.138   9.471 -0.7572  0.2794 -0.5101
 3271SOL    HW121272   3.565   0.104   9.559 -1.4322  3.1272  0.6847
 3271SOL    HW221273   3.485   0.079   9.441 -0.6840 -0.6895  1.2695
 3272SOL     OW21274   0.461   4.360  10.476  0.4963 -0.2110 -0.1751
 3272SOL    HW121275   0.468   4.390  10.567 -1.3132  1.5615 -0.6323
 3272SOL    HW221276   0.554   4.365  10.453  0.9337  1.1558  1.9644
 3273SOL     OW21277   3.202   2.308   2.314 -0.3626 -0.2273  0.3681
 3273SOL    HW121278   3.198   2.361   2.393  0.8356  1.7082 -0.8733
 3273SOL    HW221279   3.200   2.375   2.246 -1.9220 -1.4283 -0.7706
 3274SOL     OW21280   0.500   4.663   0.963  0.4098  0.2577  0.0890
 3274SOL    HW121281   0.583   4.615   0.969  1.4751  1.8624 -1.5817
 3274SOL    HW221282   0.454   4.643   1.044  0.1094 -0.9670 -0.3882
 3275SOL     OW21283   4.561   4.262   6.350  0.0965 -0.3340  0.2425
 3275SOL    HW121284   4.557   4.298   6.262  0.2505  1.5321  0.9910
 3275SOL    HW221285   4.467   4.247   6.349 -0.3534  2.6510 -1.2378
 3276SOL     OW21286   4.330   1.690   7.390 -0.5745 -0.0533  0.3245
 3276SOL    HW121287   4.379   1.763   7.352 -1.2444  0.0402 -0.3546
 3276SOL    HW221288   4.392   1.617   7.383 -2.4812 -1.5884 -0.3240
 3277SOL     OW21289   1.729   0.418   6.865  0.0561  0.0706  0.2154
 3277SOL    HW121290   1.814   0.375   6.857 -0.1476 -0.5242  1.1884
 3277SOL    HW221291   1.694   0.397   6.778 -1.0432  0.0290  0.6628
 3278SOL     OW21292   2.097   2.937   3.568 -0.3200 -0.4117  0.5542
 3278SOL    HW121293   2.101   2.843   3.587  0.5324 -0.3523  0.6714
 3278SOL    HW221294   2.178   2.966   3.609 -0.3603  0.4960 -0.0213
 3279SOL     OW21295   1.770   0.718   0.433  0.5916  0.8263  0.2088
 3279SOL    HW121296   1.688   0.698   0.389  0.9277 -1.4476  0.6159
 3279SOL    HW221297   1.778   0.812   0.416  0.0105  1.4435  3.4126
 3280SOL     OW21298   0.396   4.425   4.760  0.2489 -0.1019 -0.2751
 3280SOL    HW121299   0.415   4.456   4.671  1.5179  1.5417  0.5550
 3280SOL    HW221300   0.378   4.333   4.743 -0.3765 -0.2903  1.4718
 3281SOL     OW21301   3.725   0.217   4.142  0.1081  0.4815 -0.3418
 3281SOL    HW121302   3.724   0.293   4.200 -2.6799 -1.1337  1.7189
 3281SOL    HW221303   3.803   0.172   4.174  1.0220  1.2092 -1.5718
 3282SOL     OW21304   4.353   1.292   5.318  0.9615  0.0209  0.3582
 3282SOL    HW121305   4.310   1.373   5.343 -0.7021 -1.3954  2.0450
 3282SOL    HW221306   4.341   1.290   5.223 -0.9150 -1.3296  0.6290
 3283SOL     OW21307   3.707   4.244  13.116  0.2061  0.3135 -0.5356
 3283SOL    HW121308   3.707   4.247  13.020 -0.5863 -1.2278 -0.5834
 3283SOL    HW221309   3.631   4.187  13.126  0.5800  0.3899  2.6038
 3284SOL     OW21310   2.984   3.370  13.259 -0.0651 -0.6451  0.5689
 3284SOL    HW121311   3.000   3.287  13.304 -0.1034 -0.1331  1.5084
 3284SOL    HW221312   2.998   3.439  13.323 -0.5196  1.6774 -1.8378
 3285SOL     OW21313   1.826   0.390   6.298 -0.1814 -0.5436 -0.1256
 3285SOL    HW121314   1.773   0.317   6.268 -0.8968 -1.0191  2.3228
 3285SOL    HW221315   1.824   0.450   6.223  3.4018 -0.0047  0.2146
 3286SOL     OW21316   2.152   0.400   8.871 -0.3812 -0.4613 -0.1741
 3286SOL    HW121317   2.234   0.360   8.898  0.8391  0.5732 -2.3522
 3286SOL    HW221318   2.195   0.482   8.845 -0.5603 -0.7256 -1.2806
 3287SOL     OW21319   1.755   2.251  17.642  0.1556 -0.8377 -0.2489
 3287SOL    HW121320   1.684   2.299  17.685 -1.8997 -3.3919 -0.7547
 3287SOL    HW221321   1.696   2.190  17.596 -0.6107 -1.5356  1.6272
 3288SOL     OW21322   3.441   1.641   5.646  0.0537  0.6089 -0.8174
 3288SOL    HW121323   3.364   1.691   5.672 -0.2458 -1.2809  1.8902
 3288SOL    HW221324   3.504   1.712   5.636  1.1995 -0.2604  0.1831
 3289SOL     OW21325   0.777   0.521   4.129  0.0419 -0.5700  0.1937
 3289SOL    HW121326   0.736   0.513   4.043  2.0473 -0.8899 -0.7462
 3289SOL    HW221327   0.869   0.505   4.109  0.0793 -2.0838  1.5617
 3290SOL     OW21328   0.615   3.605   5.292 -0.0936 -0.0685  0.4201
 3290SOL    HW121329   0.567   3.532   5.331  2.2652 -2.6309 -1.5058
 3290SOL    HW221330   0.687   3.550   5.262  2.1278  3.4969 -0.7721
 3291SOL     OW21331   3.801   1.356   4.277  0.0656  0.0083  0.1331
 3291SOL    HW121332   3.808   1.443   4.237  2.2112 -1.2440 -2.1648
 3291SOL    HW221333   3.886   1.320   4.253 -1.0314 -3.3585  1.3957
 3292SOL     OW21334   0.046   1.738   7.634 -0.3902 -0.3880 -0.0685
 3292SOL    HW121335   4.710   1.752   7.561  0.2182  0.4370 -0.4103
 3292SOL    HW221336   4.722   1.683   7.696 -2.5887  1.5319 -0.0566
 3293SOL     OW21337   0.740   3.894   5.481  0.0536 -0.1394 -0.2609
 3293SOL    HW121338   0.695   3.886   5.566  1.0082 -0.8059  0.1850
 3293SOL    HW221339   0.802   3.965   5.500 -1.8299  1.8428 -1.5144
 3294SOL     OW21340   3.180   4.266  15.489 -0.1137 -0.2520  0.3326
 3294SOL    HW121341   3.235   4.335  15.452 -0.8369 -0.6803 -1.5844
 3294SOL    HW221342   3.173   4.295  15.580  3.2640 -0.7872  0.7726
 3295SOL     OW21343   1.327   3.891   1.595  0.2860 -0.4035  0.2010
 3295SOL    HW121344   1.237   3.922   1.583  0.8109  0.7664 -0.6816
 3295SOL    HW221345   1.318   3.801   1.564  0.1788  0.3392 -1.8958
 3296SOL     OW21346   3.524   3.363   4.102 -0.4113 -0.3464 -0.1174
 3296SOL    HW121347   3.452   3.311   4.138  0.9455 -0.0850  2.9738
 3296SOL    HW221348   3.604   3.312   4.114 -0.3110  0.3269  2.1312
 3297SOL     OW21349   2.737   4.696   6.521 -0.3154  0.0265  0.4189
 3297SOL    HW121350   2.715   0.036   6.453  0.2515 -0.1005  0.1150
 3297SOL    HW221351   2.663   4.703   6.581  0.6004 -0.6628  1.6129
 3298SOL     OW21352   0.568   2.697   6.665  0.8567  0.0169  0.1693
 3298SOL    HW121353   0.492   2.673   6.718 -0.5995  2.0535 -1.0087
 3298SOL    HW221354   0.594   2.605   6.657  1.6052  0.1218  1.3733
 3299SOL     OW21355   2.936   3.559  12.106 -0.1372  0.2311  0.0131
 3299SOL    HW121356   2.977   3.498  12.168  0.3644  0.0966 -0.4447
 3299SOL    HW221357   2.977   3.529  12.025 -0.9232 -0.1155 -0.2517
 3300SOL     OW21358   4.093   2.883   5.638 -0.1479 -0.0420  0.4581
 3300SOL    HW121359   4.012   2.888   5.688 -0.1545  0.5759  0.3833
 3300SOL    HW221360   4.166   2.916   5.690  0.3777  0.0731 -0.3511
 3301SOL     OW21361   2.601   4.297   2.796  0.4117 -0.2982 -0.5328
 3301SOL    HW121362   2.642   4.353   2.730  0.2466  0.1864 -0.2234
 3301SOL    HW221363   2.522   4.350   2.795  0.9676  0.5155 -1.4563
 3302SOL     OW21364   2.279   1.112   1.645 -0.1643 -0.7666  0.0021
 3302SOL    HW121365   2.256   1.019   1.653 -1.9347 -0.4840 -1.7731
 3302SOL    HW221366   2.201   1.156   1.677 -0.3169 -4.3319  4.6516
 3303SOL     OW21367   4.656   0.078   4.469 -0.8233 -0.4435  0.2498
 3303SOL    HW121368   4.680   0.148   4.530  0.9685  0.0039 -0.9814
 3303SOL    HW221369   4.606   0.026   4.532 -1.3801 -2.1700 -1.6451
 3304SOL     OW21370   0.391   1.721   6.385  0.3595 -0.0635  0.2193
 3304SOL    HW121371   0.322   1.715   6.452 -1.5646 -1.1726 -1.8481
 3304SOL    HW221372   0.417   1.629   6.374 -4.2276 -1.0960 -2.3386
 3305SOL     OW21373   3.532   0.877   7.134  0.4383  0.1944  0.2749
 3305SOL    HW121374   3.583   0.863   7.054  2.1242 -1.1279  1.5692
 3305SOL    HW221375   3.568   0.957   7.172  1.1004  0.1999 -0.3557
 3306SOL     OW21376   3.314   3.473  10.495  0.1106 -0.8639  0.1109
 3306SOL    HW121377   3.380   3.438  10.555 -1.1347 -1.6842  0.9927
 3306SOL    HW221378   3.230   3.459  10.540 -2.3342  0.0312 -4.1603
 3307SOL     OW21379   3.601   3.575   3.919 -0.2983  0.2681  0.8756
 3307SOL    HW121380   3.593   3.504   3.982 -1.3606 -0.7232 -0.3617
 3307SOL    HW221381   3.562   3.536   3.841  0.9860 -1.6246  1.1910
 3308SOL     OW21382   3.381   4.012   6.468 -0.0867  0.2229 -0.0559
 3308SOL    HW121383   3.375   3.934   6.523 -1.4760  0.0244 -0.4862
 3308SOL    HW221384   3.286   4.024   6.461 -0.2690 -1.0601  0.2101
 3309SOL     OW21385   1.515   3.656   6.043  0.8784 -0.3073  0.0421
 3309SOL    HW121386   1.552   3.597   6.109  0.4049  0.8262  1.3254
 3309SOL    HW221387   1.500   3.733   6.097  0.6216  0.4023 -1.0387
 3310SOL     OW21388   3.509   3.508   9.602  0.9195  0.2658 -0.0686
 3310SOL    HW121389   3.539   3.582   9.548  1.5430  1.2779  1.6744
 3310SOL    HW221390   3.420   3.541   9.609  0.3650 -1.0105 -1.2216
 3311SOL     OW21391   0.255   0.766   2.693 -0.0275  0.2288  0.1768
 3311SOL    HW121392   0.341   0.725   2.685 -0.2591 -0.3914  0.7982
 3311SOL    HW221393   0.224   0.764   2.603  1.3165  2.3719 -0.3124
 3312SOL     OW21394   3.652   2.979   6.312 -0.1597  0.5203  0.3786
 3312SOL    HW121395   3.631   2.905   6.256  1.4651  1.2974 -1.2665
 3312SOL    HW221396   3.747   2.964   6.316 -0.1639  0.4644  0.2500
 3313SOL     OW21397   2.439   3.533   3.326 -0.4794 -0.2970 -0.3932
 3313SOL    HW121398   2.464   3.617   3.288 -1.4832 -0.1133 -0.6290
 3313SOL    HW221399   2.418   3.547   3.418  1.1469  0.6877 -0.1738
 3314SOL     OW21400   2.777   3.849   8.265 -0.3853 -0.0869 -0.0084
 3314SOL    HW121401   2.706   3.786   8.257 -1.1746  1.1182 -2.8288
 3314SOL    HW221402   2.739   3.924   8.311 -0.5415  0.9990 -1.8792
 3315SOL     OW21403   1.348   0.674   3.003  0.1924  0.1897  0.7333
 3315SOL    HW121404   1.374   0.750   3.055  0.3179  1.5938 -1.3702
 3315SOL    HW221405   1.253   0.679   3.009  0.1487  1.0834 -0.7695
 3316SOL     OW21406   3.840   3.647   2.430  0.6255 -0.6386 -0.4618
 3316SOL    HW121407   3.821   3.601   2.348 -1.9756 -2.4536  1.1949
 3316SOL    HW221408   3.799   3.731   2.408  0.3165 -0.4096  1.0344
 3317SOL     OW21409   1.905   3.992   3.311 -0.2365  0.2552 -0.6845
 3317SOL    HW121410   1.881   4.027   3.225 -0.1655  2.3389  0.1344
 3317SOL    HW221411   1.996   4.020   3.306 -0.1459 -0.1275 -1.2081
 3318SOL     OW21412   2.509   2.429   2.976 -0.2144  0.0958  0.1147
 3318SOL    HW121413   2.533   2.339   2.999 -0.2294 -0.3634 -1.6848
 3318SOL    HW221414   2.535   2.413   2.885 -1.8602 -0.4343 -0.2494
 3319SOL     OW21415   2.134   4.225   3.253  0.3523  0.2806  0.2255
 3319SOL    HW121416   2.060   4.284   3.267 -0.3512 -0.9241  1.5613
 3319SOL    HW221417   2.193   4.261   3.319  0.1577  3.6594 -1.4331
 3320SOL     OW21418   0.838   2.428   2.319 -0.0898  0.5080  0.5466
 3320SOL    HW121419   0.848   2.522   2.331  0.4270  0.9576 -3.6325
 3320SOL    HW221420   0.913   2.413   2.261 -1.2744 -3.0276 -0.0921
 3321SOL     OW21421   3.599   2.331  12.033  0.2400  0.2720  0.0042
 3321SOL    HW121422   3.526   2.376  12.076  1.1121 -0.7966  2.5891
 3321SOL    HW221423   3.668   2.334  12.100  0.1543  0.8548  0.0702
 3322SOL     OW21424   2.041   1.378   9.206 -0.0387  0.0664 -0.2617
 3322SOL    HW121425   2.115   1.366   9.265 -0.9791  4.3533  1.7822
 3322SOL    HW221426   1.969   1.368   9.268 -0.3937  0.3553 -0.6229
 3323SOL     OW21427   1.614   2.079  17.499  0.1694  0.3090 -0.0737
 3323SOL    HW121428   1.682   2.017  17.472  0.8889  0.6874  0.8766
 3323SOL    HW221429   1.527   2.052  17.469  1.0305 -2.9897  0.4148
 3324SOL     OW21430   4.513   4.644   0.414 -0.1817 -0.1776  0.3707
 3324SOL    HW121431   4.561   4.639   0.497 -2.3124  0.8142  1.6720
 3324SOL    HW221432   4.476   4.556   0.402 -0.9602 -0.1430  2.5110
 3325SOL     OW21433   4.223   0.240   7.497 -0.6428  0.2640 -0.2915
 3325SOL    HW121434   4.167   0.181   7.446  0.3161 -2.4884  1.8472
 3325SOL    HW221435   4.296   0.181   7.512 -0.3140  0.3838 -1.3961
 3326SOL     OW21436   1.491   1.289   5.540  0.1326 -0.1347  0.4633
 3326SOL    HW121437   1.441   1.242   5.473 -1.7533  1.5828  0.6617
 3326SOL    HW221438   1.579   1.301   5.504 -1.1512  4.4130 -1.1695
 3327SOL     OW21439   1.649   0.852   7.559 -0.3142 -0.0616  0.8066
 3327SOL    HW121440   1.715   0.793   7.597  0.1497 -0.7443 -1.0402
 3327SOL    HW221441   1.680   0.942   7.567 -0.1099 -0.1746  1.3135
 3328SOL     OW21442   3.894   2.538   3.279 -0.3298 -0.1049 -0.2002
 3328SOL    HW121443   3.947   2.541   3.199  1.9447  0.8495  1.3422
 3328SOL    HW221444   3.955   2.494   3.337  0.1261  2.0918  1.0028
 3329SOL     OW21445   4.114   0.121   0.841  0.1580 -0.2462  0.0146
 3329SOL    HW121446   4.138   0.155   0.755 -2.1059  2.2992  0.3599
 3329SOL    HW221447   4.186   0.060   0.856 -0.5505 -0.7518  1.4646
 3330SOL     OW21448   2.298   2.485   8.874  0.0724 -0.5042 -0.0584
 3330SOL    HW121449   2.239   2.559   8.887  0.2091 -0.3378 -0.3962
 3330SOL    HW221450   2.368   2.534   8.830  0.0699  0.0741  0.5711
 3331SOL     OW21451   3.773   1.988   7.539 -0.0832  0.0038  0.7934
 3331SOL    HW121452   3.852   2.040   7.557  0.3338 -0.1818 -0.5050
 3331SOL    HW221453   3.710   2.061   7.534 -0.2396 -0.1339  0.7667
 3332SOL     OW21454   2.931   4.378  10.027  0.1745  0.1185 -0.5822
 3332SOL    HW121455   2.889   4.464  10.031 -0.2628 -0.1272  0.0247
 3332SOL    HW221456   2.958   4.357  10.116 -0.0490  2.6844  0.0743
 3333SOL     OW21457   3.599   3.775  14.364  0.0179 -0.0709 -0.3302
 3333SOL    HW121458   3.554   3.857  14.384  2.3887  1.3451 -0.7648
 3333SOL    HW221459   3.674   3.770  14.424  0.5073 -1.8711 -1.0746
 3334SOL     OW21460   1.707   2.620  15.405  0.2462  0.4760  0.0477
 3334SOL    HW121461   1.712   2.656  15.317  2.6036  1.8161  0.7250
 3334SOL    HW221462   1.789   2.572  15.392  0.2611  0.9685 -1.5865
 3335SOL     OW21463   1.218   1.454   3.147  0.3388  0.1047  0.3220
 3335SOL    HW121464   1.131   1.456   3.187  0.7768 -0.6966  1.3281
 3335SOL    HW221465   1.238   1.548   3.143  3.0357 -0.5583 -1.3005
 3336SOL     OW21466   4.225   1.215   9.024  0.5367  0.2958 -0.5657
 3336SOL    HW121467   4.309   1.256   9.004  2.6209 -3.1001  1.2096
 3336SOL    HW221468   4.252   1.159   9.097 -2.5633 -2.3246 -1.4070
 3337SOL     OW21469   1.616   1.401   3.014  1.2048 -0.4652  0.2529
 3337SOL    HW121470   1.564   1.327   3.045 -0.1247  0.9056  1.2852
 3337SOL    HW221471   1.660   1.428   3.094  0.7376 -2.8675  1.3170
 3338SOL     OW21472   3.237   0.025  14.284  0.4001 -0.4461 -0.3223
 3338SOL    HW121473   3.287   4.677  14.247 -0.9492 -1.1503 -0.7847
 3338SOL    HW221474   3.152   4.708  14.302 -0.5476  0.7160 -2.1039
 3339SOL     OW21475   3.261   4.439   5.224  0.3446  0.5354  0.2779
 3339SOL    HW121476   3.312   4.387   5.287  1.1619  2.9447  1.5783
 3339SOL    HW221477   3.276   4.524   5.264  2.0887  0.6657 -0.6456
 3340SOL     OW21478   2.332   0.911  17.686 -0.4084  0.2570 -0.2926
 3340SOL    HW121479   2.301   0.994   0.025 -0.5248  0.8747 -1.7608
 3340SOL    HW221480   2.425   0.927  17.695 -0.4922  0.3606  0.3721
 3341SOL     OW21481   0.719   3.474   8.461 -0.6104  0.3603  0.3389
 3341SOL    HW121482   0.682   3.562   8.457  1.7010  1.2369 -1.6534
 3341SOL    HW221483   0.649   3.420   8.499  0.7783  0.3833  2.9680
 3342SOL     OW21484   1.994   0.673   0.924 -0.1390 -0.1965  0.0745
 3342SOL    HW121485   1.999   0.658   0.830  1.1121  0.3161  0.0587
 3342SOL    HW221486   2.054   0.747   0.933 -1.8384  1.3295 -0.9077
 3343SOL     OW21487   2.045   1.190   1.766  0.8651 -0.4389 -0.2853
 3343SOL    HW121488   1.990   1.211   1.841 -0.2216  0.9122 -1.4445
 3343SOL    HW221489   1.979   1.191   1.697  0.3059  2.5972  0.3039
 3344SOL     OW21490   1.099   2.431  11.872 -0.3146 -0.1780 -0.1737
 3344SOL    HW121491   1.096   2.341  11.839  0.7746  0.1442 -1.1299
 3344SOL    HW221492   1.187   2.427  11.910 -0.4349 -0.9640  0.0180
 3345SOL     OW21493   1.550   3.304   7.309 -0.0384 -0.5618 -0.1296
 3345SOL    HW121494   1.470   3.268   7.271 -0.0904  0.5206 -1.0650
 3345SOL    HW221495   1.520   3.299   7.400  2.8636 -0.2061  0.8541
 3346SOL     OW21496   0.697   3.481  16.407 -0.1466  0.0577  0.3122
 3346SOL    HW121497   0.672   3.436  16.487  1.5623  1.8392  1.8373
 3346SOL    HW221498   0.636   3.555  16.396 -1.8627 -1.5582 -1.0316
 3347SOL     OW21499   4.367   3.796   9.169  0.2162 -0.4955  0.1187
 3347SOL    HW121500   4.411   3.712   9.157  2.0335  0.2321  1.6404
 3347SOL    HW221501   4.367   3.806   9.265 -0.3646 -0.5363  0.1226
 3348SOL     OW21502   3.748   4.371   2.660  0.3014  0.0867 -0.0365
 3348SOL    HW121503   3.747   4.302   2.727 -0.0603  2.4305  2.3601
 3348SOL    HW221504   3.838   4.358   2.628  1.0702  2.0007  1.3213
 3349SOL     OW21505   1.291   0.413   3.175 -0.4136  0.6311  0.6624
 3349SOL    HW121506   1.329   0.400   3.261  2.4668  1.8004 -0.4167
 3349SOL    HW221507   1.216   0.466   3.203 -1.2069  0.1714 -0.5814
 3350SOL     OW21508   3.164   1.363   7.583  0.3591  0.2652  0.2802
 3350SOL    HW121509   3.218   1.326   7.513  0.7663  2.9046 -0.7735
 3350SOL    HW221510   3.093   1.404   7.534  0.3848 -0.4913 -0.3863
 3351SOL     OW21511   0.602   3.245  16.895 -0.6726  0.4634 -0.3824
 3351SOL    HW121512   0.681   3.194  16.913 -0.9791  0.3898  0.7931
 3351SOL    HW221513   0.582   3.284  16.980  1.5629 -0.8805  0.7504
 3352SOL     OW21514   2.579   0.504  11.925  0.3333 -0.4159  1.0342
 3352SOL    HW121515   2.607   0.421  11.963 -2.8604 -1.2027  1.6373
 3352SOL    HW221516   2.641   0.567  11.960  1.0946 -0.7292  0.2562
 3353SOL     OW21517   1.493   4.366   8.392  0.1907  0.0324  0.1510
 3353SOL    HW121518   1.478   4.461   8.397  0.7994  0.2196 -1.5429
 3353SOL    HW221519   1.482   4.351   8.298 -0.7378 -0.8972  0.4143
 3354SOL     OW21520   1.530   3.331   6.037  0.3144  0.0777 -0.1125
 3354SOL    HW121521   1.593   3.361   5.971  0.8727 -1.6280 -0.3386
 3354SOL    HW221522   1.582   3.274   6.093  1.5053  1.3373  0.0782
 3355SOL     OW21523   4.271   2.175   3.813  0.4512 -0.4300  0.0122
 3355SOL    HW121524   4.336   2.219   3.758  1.7512 -1.3920  0.8187
 3355SOL    HW221525   4.321   2.129   3.879 -0.1968  1.5941  1.9125
 3356SOL     OW21526   2.657   2.832   8.371 -0.0769 -0.2601  0.3709
 3356SOL    HW121527   2.577   2.878   8.395  1.1066  0.6200  2.5789
 3356SOL    HW221528   2.643   2.746   8.412 -2.0144 -0.5114 -0.8068
 3357SOL     OW21529   0.983   0.771   4.326 -0.3748  0.9254  0.3101
 3357SOL    HW121530   1.009   0.733   4.241  0.7040  1.0992  0.5547
 3357SOL    HW221531   0.955   0.697   4.380  1.0592 -0.3079 -0.6160
 3358SOL     OW21532   1.185   1.102   3.901 -0.2021 -0.0805  0.1957
 3358SOL    HW121533   1.130   1.123   3.825 -1.0202 -0.0557  0.7952
 3358SOL    HW221534   1.169   1.179   3.956 -0.8847 -0.6522  0.8133
 3359SOL     OW21535   2.600   3.854   4.292  0.0676 -0.2650  0.1310
 3359SOL    HW121536   2.676   3.911   4.298  0.3708 -0.5881 -0.6447
 3359SOL    HW221537   2.630   3.778   4.343  2.7384  0.0255 -1.0003
 3360SOL     OW21538   4.028   3.525   7.848 -0.7849  0.1183  0.5213
 3360SOL    HW121539   4.034   3.476   7.766 -0.7715  0.0303  0.5748
 3360SOL    HW221540   4.060   3.614   7.834 -1.3791  0.1364 -0.8083
 3361SOL     OW21541   1.597   2.275   7.060  0.1935 -0.2221 -0.4717
 3361SOL    HW121542   1.510   2.315   7.067 -0.8311 -2.6977  1.1615
 3361SOL    HW221543   1.645   2.346   7.101 -0.1293 -0.4982  0.3909
 3362SOL     OW21544   1.496   4.391   4.150  0.0856  0.0655  0.2107
 3362SOL    HW121545   1.584   4.359   4.172  1.0805  0.4353 -3.2126
 3362SOL    HW221546   1.499   4.403   4.055 -0.1818  0.8565  0.3025
 3363SOL     OW21547   0.651   1.479   0.250  0.3948  0.3482  0.0900
 3363SOL    HW121548   0.726   1.478   0.309  0.6353  2.1392 -0.1921
 3363SOL    HW221549   0.648   1.570   0.220 -1.4665  0.1905 -0.2195
 3364SOL     OW21550   2.753   2.374   1.356 -0.3314  0.8428 -0.0601
 3364SOL    HW121551   2.809   2.400   1.429 -1.1578 -1.4966  1.4018
 3364SOL    HW221552   2.819   2.327   1.306  0.1968  1.7421 -0.2031
 3365SOL     OW21553   2.269   4.413  10.421  0.1800  0.5337 -0.0154
 3365SOL    HW121554   2.241   4.475  10.354  0.5377  0.7950  0.0834
 3365SOL    HW221555   2.358   4.395  10.393  0.4331  1.0323  0.4915
 3366SOL     OW21556   3.634   4.502   9.372 -0.5662  0.2489  0.2701
 3366SOL    HW121557   3.636   4.427   9.312 -0.3649 -0.0812  0.6861
 3366SOL    HW221558   3.643   4.457   9.456  0.2153  0.9328  0.5494
 3367SOL     OW21559   1.517   4.045   1.733 -0.1734  0.6484 -0.3624
 3367SOL    HW121560   1.444   3.992   1.702  0.7796 -0.1069 -1.3521
 3367SOL    HW221561   1.591   3.988   1.709 -0.5574 -0.3954  0.9328
 3368SOL     OW21562   3.375   1.328   4.822 -0.1372  0.3156 -0.6463
 3368SOL    HW121563   3.358   1.411   4.776  0.4706  0.7249 -0.1363
 3368SOL    HW221564   3.291   1.303   4.860 -1.0426  1.6654 -1.7238
 3369SOL     OW21565   3.715   2.266  10.203 -0.4767  0.5552 -0.0628
 3369SOL    HW121566   3.647   2.243  10.267  0.7474  0.5532  1.2565
 3369SOL    HW221567   3.772   2.189  10.199 -1.1917  0.0079  0.2477
 3370SOL     OW21568   2.748   2.551   0.409 -0.0039 -0.1386 -0.3199
 3370SOL    HW121569   2.815   2.489   0.381 -0.1399 -0.2058 -0.4945
 3370SOL    HW221570   2.741   2.601   0.328 -0.8321 -1.4857 -1.0593
 3371SOL     OW21571   0.142   2.528   5.006 -0.1005  0.3369  0.2302
 3371SOL    HW121572   0.146   2.436   5.033  0.3483  0.2124 -0.2560
 3371SOL    HW221573   0.108   2.565   5.087 -0.1791  2.8756 -0.9712
 3372SOL     OW21574   1.617   0.201   4.250 -0.2272 -0.6923  0.1799
 3372SOL    HW121575   1.537   0.185   4.200 -0.2702 -3.5639  1.1744
 3372SOL    HW221576   1.612   0.296   4.258  1.0511 -0.5270 -0.9846
 3373SOL     OW21577   3.485   2.798  13.799 -0.7925  0.1525 -0.5338
 3373SOL    HW121578   3.433   2.878  13.789  3.1287  2.7761 -0.0307
 3373SOL    HW221579   3.416   2.744  13.837 -2.7654  3.8052  1.0775
 3374SOL     OW21580   2.360   4.450   2.017  0.1144  0.2090 -0.3628
 3374SOL    HW121581   2.437   4.475   2.068  0.2554  1.1235 -1.0239
 3374SOL    HW221582   2.364   4.495   1.933  1.8602 -2.2421 -1.5879
 3375SOL     OW21583   1.327   0.418   9.171 -0.0652  0.8177  0.6440
 3375SOL    HW121584   1.307   0.497   9.121  0.6184 -0.0718 -1.0213
 3375SOL    HW221585   1.256   0.422   9.234 -1.1201 -3.2134 -0.3193
 3376SOL     OW21586   1.446   1.450   4.466  0.1762 -0.2985 -0.1249
 3376SOL    HW121587   1.368   1.441   4.521  0.8252 -0.2296  0.8075
 3376SOL    HW221588   1.400   1.470   4.384  0.8431  1.4505 -0.0783
 3377SOL     OW21589   3.301   1.546   2.623 -0.1777 -0.0974  0.0863
 3377SOL    HW121590   3.207   1.554   2.607 -0.0199  0.8418 -0.3986
 3377SOL    HW221591   3.319   1.472   2.566  0.8702  0.9344 -0.9299
 3378SOL     OW21592   0.157   4.385   4.524 -0.0226 -0.0631 -0.0459
 3378SOL    HW121593   0.213   4.326   4.474  0.9608  2.6145 -2.0875
 3378SOL    HW221594   0.090   4.327   4.560 -0.8263  0.6851 -0.3564
 3379SOL     OW21595   0.539   1.203  14.047  0.4533  0.4038 -0.1758
 3379SOL    HW121596   0.563   1.289  14.083  0.3565  0.0791  0.6626
 3379SOL    HW221597   0.560   1.224  13.956 -1.5787  0.4229 -0.6356
 3380SOL     OW21598   0.780   0.631  11.002 -0.5461  0.0794  0.3783
 3380SOL    HW121599   0.693   0.590  11.005  0.1268 -1.2399  1.6081
 3380SOL    HW221600   0.838   0.561  11.033  0.5919 -1.2033 -4.6340
 3381SOL     OW21601   4.583   4.289   0.664  0.6711 -0.0651 -0.3080
 3381SOL    HW121602   4.593   4.238   0.584 -0.7661  0.7591 -0.9906
 3381SOL    HW221603   4.493   4.318   0.656  0.5606 -0.7280 -1.4077
 3382SOL     OW21604   3.955   3.732  16.277  0.7755 -0.6905  0.9233
 3382SOL    HW121605   4.003   3.790  16.218  1.0338 -2.1212 -0.2684
 3382SOL    HW221606   3.918   3.673  16.211 -0.0986 -1.9093  2.5130
 3383SOL     OW21607   1.984   4.238   2.922  0.3348 -0.3793  0.2992
 3383SOL    HW121608   1.951   4.240   2.832  1.9103 -1.1280 -0.2784
 3383SOL    HW221609   2.047   4.310   2.926 -2.2361  1.9027 -0.5742
 3384SOL     OW21610   2.711   1.477  17.258 -0.3264  0.3547  0.2026
 3384SOL    HW121611   2.754   1.460  17.174 -0.9451  0.1893 -0.0821
 3384SOL    HW221612   2.706   1.388  17.294  0.2400  1.2597  2.5185
 3385SOL     OW21613   0.308   3.748   4.593 -0.0163  0.0870 -0.0655
 3385SOL    HW121614   0.267   3.701   4.666  0.7753  0.7636  0.8077
 3385SOL    HW221615   0.309   3.677   4.529 -1.0562  0.6741 -0.7252
 3386SOL     OW21616   4.335   2.739   0.926 -0.4181  0.2264  0.4979
 3386SOL    HW121617   4.411   2.792   0.905 -2.2248  2.7330  0.3073
 3386SOL    HW221618   4.366   2.683   0.997  3.1849 -0.3068 -1.5009
 3387SOL     OW21619   3.401   0.028  12.483  0.0164  0.6077 -0.0126
 3387SOL    HW121620   3.345   4.694  12.431 -0.5693  1.0098  0.1763
 3387SOL    HW221621   3.480   0.049  12.433  0.4082  2.4190  1.3743
 3388SOL     OW21622   2.283   0.070   4.984  0.6390 -0.7357 -0.0083
 3388SOL    HW121623   2.224   0.071   4.909  1.7726  2.5500 -0.8801
 3388SOL    HW221624   2.237   0.001   5.032  0.1042  1.5761  2.7931
 3389SOL     OW21625   3.628   2.740   7.122  0.2017  0.1885  0.4608
 3389SOL    HW121626   3.580   2.700   7.195  0.5366  1.2489  1.2522
 3389SOL    HW221627   3.611   2.670   7.059 -1.6986  0.8279  0.2537
 3390SOL     OW21628   1.017   2.785   8.126 -0.5890 -0.3106 -0.4036
 3390SOL    HW121629   0.925   2.807   8.113 -1.3797 -2.2463  1.7988
 3390SOL    HW221630   1.046   2.737   8.048 -2.8727 -2.8540  0.2973
 3391SOL     OW21631   1.450   1.702   8.035 -0.4484  0.1794 -0.3117
 3391SOL    HW121632   1.405   1.639   7.979 -0.5745  0.8008 -0.9126
 3391SOL    HW221633   1.429   1.659   8.118 -3.2622  0.3597 -0.9158
 3392SOL     OW21634   2.075   2.085   2.777 -0.5859 -0.3582  0.6044
 3392SOL    HW121635   2.074   1.996   2.810  1.0709 -0.7789 -0.5142
 3392SOL    HW221636   2.159   2.114   2.813 -0.2214 -0.4120 -0.1957
 3393SOL     OW21637   4.073   1.047  11.496  0.1632  0.0368  0.6632
 3393SOL    HW121638   4.075   1.016  11.587  0.5369  0.0812  0.6697
 3393SOL    HW221639   3.985   1.021  11.469  0.7796 -1.6921  0.3214
 3394SOL     OW21640   2.954   2.456   1.507 -0.3069  0.4734  0.2650
 3394SOL    HW121641   2.999   2.381   1.545 -1.2562  0.5738  1.6280
 3394SOL    HW221642   3.005   2.521   1.556  0.5711  2.4079 -3.2771
 3395SOL     OW21643   2.133   3.932   3.082 -0.1746  0.3383 -0.4430
 3395SOL    HW121644   2.208   3.930   3.141  0.8524  1.6640 -1.6867
 3395SOL    HW221645   2.166   3.995   3.018  2.3549 -0.4691  0.0818
 3396SOL     OW21646   1.537   3.854   7.721  0.3625  0.4033 -0.7062
 3396SOL    HW121647   1.529   3.813   7.635  4.6727 -1.1596 -0.3196
 3396SOL    HW221648   1.615   3.811   7.755  1.4957  2.6379 -0.4552
 3397SOL     OW21649   2.211   2.058   9.162 -0.1922  0.2968  0.0546
 3397SOL    HW121650   2.132   2.010   9.189 -0.8349 -0.3759 -3.0463
 3397SOL    HW221651   2.190   2.107   9.082  1.3341  0.0991 -0.4590
 3398SOL     OW21652   0.721   0.303  10.845  0.0731  0.0939  0.4793
 3398SOL    HW121653   0.684   0.216  10.861 -2.3221  0.9942 -0.1295
 3398SOL    HW221654   0.787   0.282  10.779  0.6888  1.9723  0.5035
 3399SOL     OW21655   1.978   4.677   6.484  0.2979  0.3501  0.6675
 3399SOL    HW121656   1.997   0.024   6.422 -0.1384  0.9336  1.1986
 3399SOL    HW221657   1.937   0.004   6.554  0.5526  1.0717  0.3011
 3400SOL     OW21658   3.407   2.434   7.653  0.5615 -0.4101 -0.3167
 3400SOL    HW121659   3.332   2.484   7.684  0.7189 -0.4734  0.1623
 3400SOL    HW221660   3.468   2.444   7.726 -0.4041 -1.1214  0.5941
 3401SOL     OW21661   2.641   1.329   2.537 -0.2569 -0.3252  0.0739
 3401SOL    HW121662   2.549   1.340   2.514  0.1485  0.9741 -0.8645
 3401SOL    HW221663   2.635   1.238   2.567 -0.7702  0.4402  2.3407
 3402SOL     OW21664   3.469   1.085   8.130 -0.4526 -0.0917  0.1022
 3402SOL    HW121665   3.415   1.023   8.180 -0.2700  2.2647  3.2488
 3402SOL    HW221666   3.542   1.036   8.093 -1.3068 -1.6165  0.4191
 3403SOL     OW21667   2.305   2.280   8.052  0.4001  0.3160  0.1999
 3403SOL    HW121668   2.210   2.270   8.055  0.4699 -1.0511 -2.4215
 3403SOL    HW221669   2.334   2.223   8.123  1.2557  1.0312  0.4333
 3404SOL     OW21670   1.906   0.061  15.723  0.1851  0.0119 -0.1862
 3404SOL    HW121671   1.922   0.066  15.817 -1.4478  0.4013  0.0613
 3404SOL    HW221672   1.966   4.720  15.686 -1.3692 -1.1368 -0.6668
 3405SOL     OW21673   2.251   0.686   4.773 -0.3277 -0.3183 -0.6928
 3405SOL    HW121674   2.270   0.596   4.799 -0.4910  0.4381  2.0235
 3405SOL    HW221675   2.327   0.706   4.718 -1.0680 -0.8323 -1.9071
 3406SOL     OW21676   1.376   0.291   5.630 -0.8148 -0.6182  0.2211
 3406SOL    HW121677   1.414   0.304   5.717  0.9308 -0.9019 -0.4980
 3406SOL    HW221678   1.410   0.367   5.583 -1.3937 -0.6341 -0.2229
 3407SOL     OW21679   2.973   3.121   1.158 -0.2940  0.0049  0.2292
 3407SOL    HW121680   2.964   3.113   1.253 -2.5140 -1.3649 -0.0758
 3407SOL    HW221681   2.881   3.103   1.136 -0.4731 -0.8170  1.6517
 3408SOL     OW21682   3.770   4.083  12.588 -0.0743 -0.2297  0.6890
 3408SOL    HW121683   3.863   4.060  12.589 -0.1966 -0.6650  2.5606
 3408SOL    HW221684   3.747   4.063  12.497  0.9194  1.0182  0.1664
 3409SOL     OW21685   1.419   0.779   6.747 -0.4927 -0.6338  0.2816
 3409SOL    HW121686   1.364   0.818   6.815  0.1838  1.7590 -0.5291
 3409SOL    HW221687   1.430   0.691   6.783  2.1780 -0.8913 -1.2277
 3410SOL     OW21688   1.779   4.061  11.778 -0.0670  0.4031  0.1306
 3410SOL    HW121689   1.842   4.034  11.845 -1.2647 -1.8228  0.3788
 3410SOL    HW221690   1.754   4.144  11.818  3.7636  1.4801  0.2848
 3411SOL     OW21691   4.455   0.916   6.070 -0.0185 -0.4021 -0.0929
 3411SOL    HW121692   4.496   0.861   6.003  0.1483 -0.6626  0.2228
 3411SOL    HW221693   4.459   0.866   6.151  0.6607 -1.1354 -0.5795
 3412SOL     OW21694   2.147   0.146  10.372  0.3535  0.1897 -0.4615
 3412SOL    HW121695   2.177   0.234  10.351  2.7745 -0.9971 -1.9966
 3412SOL    HW221696   2.106   0.154  10.458 -0.8627  0.0649 -1.0255
 3413SOL     OW21697   2.145   2.853   0.969  0.3056 -0.0454 -0.5815
 3413SOL    HW121698   2.196   2.906   1.030 -1.3193  0.8477  0.0042
 3413SOL    HW221699   2.181   2.765   0.977  1.3969  0.4053 -0.6272
 3414SOL     OW21700   0.249   0.712  12.034  0.1579 -0.7227 -0.0280
 3414SOL    HW121701   0.261   0.782  11.970 -0.6306  0.1485  0.7737
 3414SOL    HW221702   0.242   0.639  11.972  1.7531  1.1658 -2.4281
 3415SOL     OW21703   2.640   1.679   9.056 -0.1477  0.3334  0.4381
 3415SOL    HW121704   2.618   1.717   9.141  1.6369 -1.8405  1.8487
 3415SOL    HW221705   2.554   1.649   9.026 -1.5078  3.0663  1.5545
 3416SOL     OW21706   4.691   0.370   9.395 -0.2650 -0.4594  0.2209
 3416SOL    HW121707   0.055   0.336   9.379 -0.7269 -1.1032 -0.9779
 3416SOL    HW221708   4.682   0.326   9.480  2.1382  0.6065  1.0063
 3417SOL     OW21709   1.729   0.756   8.464 -0.0369 -0.1426  0.1292
 3417SOL    HW121710   1.695   0.824   8.405  0.7653 -0.8839 -1.1924
 3417SOL    HW221711   1.709   0.792   8.550 -1.1692  1.7020 -0.9027
 3418SOL     OW21712   0.283   4.722   9.022  0.4385  0.0511 -0.0579
 3418SOL    HW121713   0.238   0.029   9.100 -0.9391  0.0906 -0.8600
 3418SOL    HW221714   0.305   0.077   8.972 -0.4877  1.1521  1.2920
 3419SOL     OW21715   0.298   2.121  11.173 -0.6710  0.4559 -0.7542
 3419SOL    HW121716   0.319   2.035  11.208  1.7586  1.1830 -0.4317
 3419SOL    HW221717   0.354   2.128  11.095  0.2951  1.2908  0.0299
 3420SOL     OW21718   3.427   1.075   6.078  1.0347 -0.0484 -0.2670
 3420SOL    HW121719   3.410   1.004   6.138  0.3355  0.5083  0.1949
 3420SOL    HW221720   3.467   1.134   6.142 -0.2043  0.0368  0.4207
 3421SOL     OW21721   2.465   0.410   0.099 -0.0964 -0.2895 -0.5767
 3421SOL    HW121722   2.480   0.478   0.034 -1.4624  2.5835  2.1515
 3421SOL    HW221723   2.552   0.371   0.095 -0.2966 -0.7731 -0.2537
 3422SOL     OW21724   0.873   0.024  11.490 -0.4269  0.9887  0.2373
 3422SOL    HW121725   0.860   0.008  11.584 -2.2172 -0.0592 -0.1880
 3422SOL    HW221726   0.867   4.659  11.456  2.5318  0.5376  0.8713
 3423SOL     OW21727   0.140   3.724   3.705  0.0356  0.0337  0.1439
 3423SOL    HW121728   0.203   3.692   3.640  1.1639 -0.8211  1.6581
 3423SOL    HW221729   0.064   3.744   3.650 -0.6160 -1.4641  0.5012
 3424SOL     OW21730   1.552   2.182   5.035 -0.5884 -0.1047 -0.7793
 3424SOL    HW121731   1.610   2.186   4.958 -0.1591  1.6721 -0.3504
 3424SOL    HW221732   1.587   2.105   5.080  2.0204  0.8267 -1.2239
 3425SOL     OW21733   1.707   0.970   4.405 -0.0568  1.3744 -0.0024
 3425SOL    HW121734   1.677   1.039   4.346  1.8093  1.7456 -0.5304
 3425SOL    HW221735   1.727   1.039   4.469 -2.0962  1.2123  0.7876
 3426SOL     OW21736   2.102   4.083  14.269  0.6163 -0.5559  0.7529
 3426SOL    HW121737   2.143   4.154  14.319  1.2581 -2.7508  3.3834
 3426SOL    HW221738   2.027   4.049  14.318 -1.9052  1.2337 -1.8634
 3427SOL     OW21739   2.057   1.480   1.359 -0.0921 -0.2671 -0.0459
 3427SOL    HW121740   2.093   1.392   1.371 -0.9770 -0.7875 -1.2505
 3427SOL    HW221741   2.007   1.493   1.439  0.5696  2.2855 -0.0257
 3428SOL     OW21742   3.333   3.859  11.678  0.3524 -0.1053 -0.0681
 3428SOL    HW121743   3.420   3.821  11.683  0.2876 -0.2364  0.0556
 3428SOL    HW221744   3.344   3.918  11.752 -0.9031 -0.0574  0.0799
 3429SOL     OW21745   2.579   1.304  15.180  0.2470 -0.3304 -0.1707
 3429SOL    HW121746   2.582   1.209  15.167 -1.7721 -0.6235  1.6049
 3429SOL    HW221747   2.490   1.310  15.146 -1.0469 -0.5228  3.2097
 3430SOL     OW21748   3.508   2.366  11.770 -0.2204  1.0487  0.7133
 3430SOL    HW121749   3.432   2.331  11.817 -0.7313  1.4138  0.1690
 3430SOL    HW221750   3.576   2.346  11.834 -0.2441 -0.3069  0.3062
 3431SOL     OW21751   2.461   4.029   1.013  0.1010 -0.0869 -0.2198
 3431SOL    HW121752   2.456   3.940   0.980  0.8721 -1.1386  2.4914
 3431SOL    HW221753   2.503   4.075   0.940 -0.4623  1.2890  0.3182
 3432SOL     OW21754   1.187   0.199   6.367  0.3505  0.1380 -0.3835
 3432SOL    HW121755   1.102   0.164   6.340  0.0398 -0.1257  0.9526
 3432SOL    HW221756   1.163   0.276   6.419 -1.4676  0.3709 -1.5436
 3433SOL     OW21757   3.417   1.029   8.801 -0.7257 -0.2219  0.5352
 3433SOL    HW121758   3.441   0.944   8.763  0.1580  0.2329  0.0850
 3433SOL    HW221759   3.325   1.031   8.775 -0.0464 -3.4789 -2.1258
 3434SOL     OW21760   1.569   0.951  16.531  0.1890  0.5773  0.4412
 3434SOL    HW121761   1.559   1.042  16.503 -0.2497 -0.1978 -1.8742
 3434SOL    HW221762   1.606   0.968  16.618  1.7611 -0.0335 -0.1063
 3435SOL     OW21763   4.078   0.596   6.343  0.3921  0.1649 -0.0378
 3435SOL    HW121764   4.170   0.574   6.332  0.2351 -0.6857  0.3566
 3435SOL    HW221765   4.094   0.687   6.365  4.2881 -0.9734  1.8052
 3436SOL     OW21766   0.733   4.343  10.549 -0.2684 -0.9703 -0.1602
 3436SOL    HW121767   0.793   4.333  10.622  1.8388  2.8095 -1.3976
 3436SOL    HW221768   0.737   4.438  10.547  2.1892 -1.0310  1.1392
 3437SOL     OW21769   3.929   4.431   8.528 -0.1500  0.2607  0.2060
 3437SOL    HW121770   3.962   4.362   8.586 -1.4756 -1.1771 -0.7598
 3437SOL    HW221771   3.944   4.507   8.583 -0.4284 -0.0810  0.7600
 3438SOL     OW21772   0.750   1.377   1.697 -0.4620 -0.0463 -0.8899
 3438SOL    HW121773   0.731   1.308   1.760  1.3943  2.6730  2.6865
 3438SOL    HW221774   0.664   1.396   1.660 -1.7399 -1.5077  1.3570
 3439SOL     OW21775   1.046   1.255   8.929 -0.2797 -0.6662 -0.1735
 3439SOL    HW121776   1.044   1.314   9.004  1.0729 -0.9007  0.0356
 3439SOL    HW221777   1.126   1.204   8.937 -0.2963 -0.8990 -1.4565
 3440SOL     OW21778   1.845   1.927   5.436 -0.1090  0.1443  0.8924
 3440SOL    HW121779   1.794   1.897   5.511  1.2470 -0.4289  1.5849
 3440SOL    HW221780   1.866   1.843   5.395 -0.4492 -0.8310  2.7227
 3441SOL     OW21781   2.380   3.050   9.871 -0.1675  0.1121  0.3450
 3441SOL    HW121782   2.399   3.099   9.951  0.9010 -2.3760  1.6439
 3441SOL    HW221783   2.454   3.070   9.813 -0.1802 -0.9536 -0.0388
 3442SOL     OW21784   4.415   2.490   5.260  0.0801  0.1536 -0.3710
 3442SOL    HW121785   4.422   2.474   5.354  2.4070 -0.4897 -0.6464
 3442SOL    HW221786   4.327   2.457   5.240  0.5445 -0.4254 -1.4440
 3443SOL     OW21787   4.417   1.110  17.055  0.3840  0.1933  0.0298
 3443SOL    HW121788   4.430   1.148  17.142 -1.0136  0.5953  0.0513
 3443SOL    HW221789   4.434   1.185  16.997  2.2389 -0.2205  0.0199
 3444SOL     OW21790   2.258   3.388  13.755  0.4760 -0.2202  0.6347
 3444SOL    HW121791   2.305   3.306  13.771  1.7559  0.6540  1.2920
 3444SOL    HW221792   2.248   3.415  13.846 -0.0433  0.8602  0.2576
 3445SOL     OW21793   2.024   2.033  13.463  0.0346  0.0382  0.4224
 3445SOL    HW121794   1.978   2.038  13.379 -0.4100 -3.1846  0.4922
 3445SOL    HW221795   2.092   1.969  13.445  0.4880  0.4795  0.5419
 3446SOL     OW21796   0.241   1.783   6.026  0.0471  0.3930  0.0173
 3446SOL    HW121797   0.175   1.846   6.055 -0.0787 -1.0284  2.8107
 3446SOL    HW221798   0.215   1.721   6.094  1.2366 -0.7338 -0.5641
 3447SOL     OW21799   1.399   4.019   2.812 -0.2734  0.1815  0.3297
 3447SOL    HW121800   1.490   4.015   2.840 -0.3424  1.3454  0.7644
 3447SOL    HW221801   1.383   4.114   2.805  2.5268  0.5362 -1.0256
 3448SOL     OW21802   0.905   0.756   1.996  0.1297 -0.2059  0.5571
 3448SOL    HW121803   0.996   0.727   1.999  0.0418 -0.6729 -1.2160
 3448SOL    HW221804   0.906   0.773   1.901 -0.3596  1.2436  0.8072
 3449SOL     OW21805   0.458   1.642   8.307 -0.0498 -0.1804  0.0867
 3449SOL    HW121806   0.452   1.652   8.402 -1.9178  0.4522 -0.1026
 3449SOL    HW221807   0.433   1.732   8.286  1.1572  0.3333  0.8657
 3450SOL     OW21808   0.988   2.338   3.196  0.3999 -0.6519  0.1700
 3450SOL    HW121809   0.963   2.283   3.270  0.6833  1.5137  1.8584
 3450SOL    HW221810   0.941   2.282   3.134 -1.1680  0.9181 -0.0660
 3451SOL     OW21811   2.475   2.211  16.258  0.4442 -0.6005 -0.0911
 3451SOL    HW121812   2.544   2.205  16.192 -0.3553  0.9459 -1.0636
 3451SOL    HW221813   2.453   2.302  16.240 -0.5127 -0.9868 -0.8875
 3452SOL     OW21814   3.133   3.154  14.204  0.1421 -0.5676 -0.5421
 3452SOL    HW121815   3.123   3.065  14.236  2.7660 -0.9906 -0.8519
 3452SOL    HW221816   3.053   3.199  14.233  0.8373  0.4816 -0.2226
 3453SOL     OW21817   3.748   1.835  16.856 -0.4014  0.5333 -0.2238
 3453SOL    HW121818   3.755   1.895  16.930 -0.5706 -0.5235  0.6689
 3453SOL    HW221819   3.798   1.759  16.888 -0.3870  1.1546  1.2156
 3454SOL     OW21820   2.268   3.016   1.141 -0.0677  0.6626 -1.2082
 3454SOL    HW121821   2.335   3.052   1.198  0.5180 -0.9232 -0.8881
 3454SOL    HW221822   2.189   3.042   1.188  0.3648  0.5037 -0.4004
 3455SOL     OW21823   4.554   0.180   8.480  0.1181 -0.0847  0.0409
 3455SOL    HW121824   4.608   0.102   8.489  1.4419  0.5782 -2.2819
 3455SOL    HW221825   4.615   0.241   8.439 -1.0770  1.2703  0.2751
 3456SOL     OW21826   0.258   4.342  13.030  0.0329  0.0266 -0.1231
 3456SOL    HW121827   0.291   4.421  12.987  1.0305 -0.5417 -0.3988
 3456SOL    HW221828   0.300   4.277  12.973  0.7289 -0.7941  1.3202
 3457SOL     OW21829   1.852   1.543   8.300  0.1320 -0.1292 -0.0209
 3457SOL    HW121830   1.914   1.498   8.242  0.9423  1.8643 -0.6772
 3457SOL    HW221831   1.857   1.487   8.378 -0.4561  2.1192  1.6278
 3458SOL     OW21832   2.759   4.595   8.636  0.5753 -0.1747  0.1242
 3458SOL    HW121833   2.834   4.604   8.577 -1.6487 -1.4698 -2.8677
 3458SOL    HW221834   2.697   4.623   8.569 -0.3576  0.5376  1.2808
 3459SOL     OW21835   3.368   0.015  12.085 -0.0893 -0.1062  0.0844
 3459SOL    HW121836   3.422   0.081  12.041  1.5895 -2.4445 -1.3500
 3459SOL    HW221837   3.301   0.002  12.018 -1.2089 -0.0933  1.2090
 3460SOL     OW21838   4.082   0.257  16.562  0.0661 -0.5226  0.0579
 3460SOL    HW121839   4.132   0.339  16.563 -0.9324  0.0891  0.2137
 3460SOL    HW221840   4.113   0.219  16.644 -0.3697 -1.2970 -0.1319
 3461SOL     OW21841   1.898   1.781   7.079 -0.1426 -0.1019  0.8565
 3461SOL    HW121842   1.986   1.771   7.042 -0.3440 -1.4526  0.7402
 3461SOL    HW221843   1.916   1.751   7.168  1.8435  1.4161  0.9653
 3462SOL     OW21844   4.545   1.508   7.810  0.4453 -0.4813 -0.1981
 3462SOL    HW121845   4.595   1.503   7.892 -0.6796 -1.7343  0.4165
 3462SOL    HW221846   4.457   1.533   7.839  0.9445  0.0306  0.8679
 3463SOL     OW21847   1.043   0.878   5.008  0.1977  0.3757  0.5895
 3463SOL    HW121848   0.955   0.906   5.035  0.2355  0.6399  0.4377
 3463SOL    HW221849   1.081   0.843   5.088  0.9800  3.1809  1.4232
 3464SOL     OW21850   0.043   3.189   2.518  0.0323  0.0706  0.4778
 3464SOL    HW121851   0.059   3.102   2.553  2.1774  0.1016 -0.4325
 3464SOL    HW221852   0.066   3.193   2.426 -1.2765  0.0286  0.1400
 3465SOL     OW21853   0.811   3.434   5.179  0.4008 -0.0266 -0.1902
 3465SOL    HW121854   0.790   3.341   5.183  1.1095 -0.1793 -0.0800
 3465SOL    HW221855   0.903   3.435   5.154 -0.0564  2.6093 -1.8643
 3466SOL     OW21856   3.801   2.908   5.479 -0.2105 -0.1975 -0.0170
 3466SOL    HW121857   3.880   2.954   5.451 -0.6513 -0.1979 -1.2613
 3466SOL    HW221858   3.740   2.910   5.405 -0.9645 -2.4837  0.5377
 3467SOL     OW21859   3.522   4.482   2.103  0.0122  0.1004  0.8208
 3467SOL    HW121860   3.616   4.495   2.104  0.0737 -0.3597  1.5771
 3467SOL    HW221861   3.495   4.552   2.044 -1.8134 -1.5893 -0.3445
 3468SOL     OW21862   3.765   1.473   5.029 -0.0351  0.3089  0.2289
 3468SOL    HW121863   3.741   1.418   4.954 -0.4017  0.0978  0.5030
 3468SOL    HW221864   3.813   1.543   4.985  1.1662 -1.7104 -1.7011
 3469SOL     OW21865   2.566   3.730   2.877 -0.2991 -0.0162  0.1421
 3469SOL    HW121866   2.625   3.708   2.805 -1.1898  0.4335 -0.7454
 3469SOL    HW221867   2.505   3.657   2.866  0.7828 -0.7136 -1.2721
 3470SOL     OW21868   0.640   1.207   0.324 -0.3382  0.2910 -0.0060
 3470SOL    HW121869   0.629   1.300   0.306 -1.6438  0.1156 -0.0986
 3470SOL    HW221870   0.675   1.170   0.243  0.7221  1.5477 -0.1157
 3471SOL     OW21871   3.012   1.898   0.917  0.1708 -0.4736  0.1172
 3471SOL    HW121872   2.966   1.970   0.873  0.4927 -0.5310 -0.3174
 3471SOL    HW221873   2.940   1.836   0.903 -0.2171 -0.4936  2.2838
 3472SOL     OW21874   2.604   0.022   4.737 -0.3606  0.3505 -0.1327
 3472SOL    HW121875   2.593   0.076   4.816  0.1161 -0.5160  0.5289
 3472SOL    HW221876   2.624   0.085   4.668  2.5405 -0.5913 -0.1739
 3473SOL     OW21877   1.392   0.123   7.471  0.1819 -0.2209  0.0978
 3473SOL    HW121878   1.450   0.174   7.528 -3.1480  1.1680  2.2446
 3473SOL    HW221879   1.313   0.124   7.524 -0.7159  1.3435 -1.2558
 3474SOL     OW21880   3.266   3.660   6.646  0.0371  0.4762  0.2784
 3474SOL    HW121881   3.317   3.665   6.727 -0.9334  1.2096  0.8495
 3474SOL    HW221882   3.219   3.578   6.660  0.5663  0.3130  1.1314
 3475SOL     OW21883   0.569   2.478   3.611  0.1736 -0.1605  0.0766
 3475SOL    HW121884   0.475   2.482   3.593  0.1531 -2.1801 -0.3488
 3475SOL    HW221885   0.609   2.530   3.542 -0.3932 -1.1084 -0.9691
 3476SOL     OW21886   0.521   3.308   5.137  0.2171  0.1152  0.3516
 3476SOL    HW121887   0.486   3.347   5.217  1.8394 -0.6064  1.4125
 3476SOL    HW221888   0.578   3.249   5.185  2.0982  0.7566 -1.1107
 3477SOL     OW21889   2.628   1.577  15.166 -0.5120  0.1924  0.0135
 3477SOL    HW121890   2.601   1.485  15.168 -2.6678  0.7718 -1.5860
 3477SOL    HW221891   2.713   1.563  15.126 -0.2018 -0.1528  0.8128
 3478SOL     OW21892   4.275   1.392   2.497  0.0926 -0.3861 -0.3748
 3478SOL    HW121893   4.199   1.446   2.476  0.4618 -0.3151 -1.5676
 3478SOL    HW221894   4.307   1.376   2.408 -2.5654 -1.0131 -1.1933
 3479SOL     OW21895   3.643   0.119   7.743  0.5394 -0.2366  0.0432
 3479SOL    HW121896   3.693   0.055   7.692  0.9492 -2.4105  3.1641
 3479SOL    HW221897   3.712   0.184   7.750  1.0869 -0.8333  0.1796
 3480SOL     OW21898   0.404   3.050  16.855 -1.1180  0.3992 -1.0250
 3480SOL    HW121899   0.481   3.097  16.888  1.3884 -3.0463 -1.9440
 3480SOL    HW221900   0.419   3.054  16.760  0.3613  1.6705 -0.7354
 3481SOL     OW21901   2.587   2.469   5.405 -0.0976  0.4476 -0.2506
 3481SOL    HW121902   2.540   2.515   5.474 -1.0859  0.0920 -0.6734
 3481SOL    HW221903   2.546   2.383   5.409 -1.2727  0.9761 -0.9264
 3482SOL     OW21904   2.089   0.316   7.448  0.4563 -0.0264 -0.1682
 3482SOL    HW121905   2.173   0.275   7.463  0.8069  0.2625 -1.2867
 3482SOL    HW221906   2.113   0.389   7.390  0.7341  0.5201  0.6309
 3483SOL     OW21907   4.449   4.667   6.544  0.5591  0.2685  0.0275
 3483SOL    HW121908   4.372   4.683   6.490 -1.3213 -3.7160  1.5413
 3483SOL    HW221909   4.426   4.582   6.581 -0.8499  0.7108  0.1516
 3484SOL     OW21910   1.271   0.185   9.674  0.1898  0.1099  0.4289
 3484SOL    HW121911   1.266   0.281   9.674 -1.0099  0.0312  1.5089
 3484SOL    HW221912   1.190   0.157   9.632 -0.3002  0.5157  1.1171
 3485SOL     OW21913   4.107   0.965   5.010 -0.0374 -0.3287  0.0443
 3485SOL    HW121914   4.200   0.982   4.997 -0.6288  2.0874 -1.0519
 3485SOL    HW221915   4.100   0.987   5.103  2.5560  1.0710 -0.0914
 3486SOL     OW21916   2.541   0.441   7.560  0.4711 -0.2560 -0.2885
 3486SOL    HW121917   2.590   0.395   7.628 -0.7943  2.3136  2.3550
 3486SOL    HW221918   2.615   0.449   7.499  1.6304 -0.0298  1.1398
 3487SOL     OW21919   2.477   2.516   9.942  0.0913  0.3529  0.9936
 3487SOL    HW121920   2.532   2.451   9.899 -0.3914  0.3009  0.4384
 3487SOL    HW221921   2.541   2.586   9.958 -0.7975  1.6350 -1.0255
 3488SOL     OW21922   1.664   2.543  12.027 -0.0870 -0.4409  0.2540
 3488SOL    HW121923   1.718   2.547  12.105 -1.3569 -0.7767  1.1531
 3488SOL    HW221924   1.625   2.631  12.027 -1.1964 -0.9370 -1.1036
 3489SOL     OW21925   2.543   2.790  10.175 -0.0202  0.3863  0.0608
 3489SOL    HW121926   2.584   2.754  10.096 -0.1320 -2.4602  1.3003
 3489SOL    HW221927   2.575   2.880  10.180  2.2418 -0.3974 -0.3238
 3490SOL     OW21928   4.533   1.172   9.607 -0.0501 -0.1381  0.0884
 3490SOL    HW121929   4.529   1.079   9.631 -1.9159  0.1920  1.0609
 3490SOL    HW221930   4.440   1.195   9.612 -0.0686  0.1551 -1.5054
 3491SOL     OW21931   0.767   2.870   7.270 -0.4010  0.1397 -0.4357
 3491SOL    HW121932   0.858   2.864   7.243 -0.6447 -1.8318 -0.8160
 3491SOL    HW221933   0.734   2.840   7.186  1.4306 -0.2817 -0.9985
 3492SOL     OW21934   3.432   3.600  15.866  0.6759  0.0178  0.6952
 3492SOL    HW121935   3.428   3.572  15.958 -1.6197  1.7241  1.1044
 3492SOL    HW221936   3.359   3.661  15.857  0.0964 -0.6919  0.5890
 3493SOL     OW21937   1.446   1.886   1.383  0.3442  0.0127  0.5023
 3493SOL    HW121938   1.474   1.950   1.448 -0.7195 -0.0501  1.0253
 3493SOL    HW221939   1.520   1.894   1.322 -0.7116 -0.0618 -0.8014
 3494SOL     OW21940   0.981   4.376   3.531 -0.5049 -0.5017  0.3630
 3494SOL    HW121941   1.072   4.386   3.505 -0.7510  0.3687 -0.1696
 3494SOL    HW221942   0.940   4.372   3.444 -0.9643 -2.3299  0.6645
 3495SOL     OW21943   3.246   0.742   8.689 -0.2248  0.2596  0.1755
 3495SOL    HW121944   3.340   0.761   8.691 -0.8992  3.3801  0.9956
 3495SOL    HW221945   3.215   0.767   8.775 -1.0448 -1.0854  0.2735
 3496SOL     OW21946   3.031   0.345   3.086  0.2018 -0.1105  0.1665
 3496SOL    HW121947   2.943   0.376   3.065 -0.0229  0.5297  2.0967
 3496SOL    HW221948   3.005   0.259   3.117 -0.8602  0.1899  0.1164
 3497SOL     OW21949   0.836   3.587   8.787 -0.1391  0.0535  0.1195
 3497SOL    HW121950   0.813   3.680   8.792 -1.0697  0.0173 -3.5977
 3497SOL    HW221951   0.932   3.585   8.786 -0.1257  0.2973  0.7071
 3498SOL     OW21952   3.462   1.740   5.227 -0.4206  0.7220 -0.3928
 3498SOL    HW121953   3.506   1.701   5.303 -2.9157  0.4439  0.8991
 3498SOL    HW221954   3.469   1.674   5.158 -1.9794 -1.2315  1.3431
 3499SOL     OW21955   0.114   1.132   5.703  0.1061  0.1202 -0.0430
 3499SOL    HW121956   0.202   1.167   5.718  1.0634 -3.0124  1.6246
 3499SOL    HW221957   0.121   1.071   5.777 -2.6839  1.0079  0.9588
 3500SOL     OW21958   0.591   3.432   1.970  0.1008 -0.0748 -0.4319
 3500SOL    HW121959   0.509   3.481   1.966  1.1460  1.5327 -2.2909
 3500SOL    HW221960   0.625   3.451   1.883  2.1734  1.0407  0.6029
 3501SOL     OW21961   0.146   1.255   6.860 -0.5302  0.4220  0.0950
 3501SOL    HW121962   0.210   1.192   6.826  0.4106  2.1789 -1.3763
 3501SOL    HW221963   0.118   1.289   6.775  0.2091  1.9482  0.4651
 3502SOL     OW21964   1.592   4.425   9.534  0.4214 -0.3205  0.2157
 3502SOL    HW121965   1.549   4.354   9.487 -0.9069  0.9043 -0.4457
 3502SOL    HW221966   1.617   4.381   9.615 -1.5913 -3.8417 -1.0713
 3503SOL     OW21967   4.217   4.255   5.343 -0.0154 -0.6082 -0.9920
 3503SOL    HW121968   4.209   4.167   5.305 -0.5766 -0.7523 -0.5538
 3503SOL    HW221969   4.245   4.305   5.267  0.2055  0.6731 -0.0790
 3504SOL     OW21970   1.271   2.513   2.908 -0.0274 -0.1771  0.3239
 3504SOL    HW121971   1.256   2.602   2.874  0.2308 -0.3447 -0.2193
 3504SOL    HW221972   1.358   2.494   2.873 -0.4535 -1.3652 -0.0695
 3505SOL     OW21973   0.070   4.055   4.877  0.6203 -0.2142  0.1513
 3505SOL    HW121974   0.022   3.997   4.818 -0.6463 -0.4640  1.4013
 3505SOL    HW221975   0.145   4.098   4.837 -0.0486  1.0856  0.2805
 3506SOL     OW21976   2.608   0.098   6.923  0.0036  0.2105  0.3309
 3506SOL    HW121977   2.655   0.015   6.937  0.3900  0.2701 -0.5996
 3506SOL    HW221978   2.544   0.090   6.993 -2.0224 -0.5734 -1.5907
 3507SOL     OW21979   4.596   0.896   9.138  0.1445 -0.3208 -0.0430
 3507SOL    HW121980   4.576   0.806   9.115 -1.5600 -0.2283  1.0223
 3507SOL    HW221981   4.638   0.886   9.223 -0.9415  0.1911  0.5624
 3508SOL     OW21982   1.394   0.927  11.126 -0.6623  0.0970  0.2601
 3508SOL    HW121983   1.483   0.891  11.132 -0.9396 -0.5696  0.2880
 3508SOL    HW221984   1.385   0.982  11.204 -1.1354  1.0460 -0.4506
 3509SOL     OW21985   0.151   4.482   8.221  0.0685  0.1529 -0.1383
 3509SOL    HW121986   0.239   4.519   8.232 -0.0474 -0.0129  1.3262
 3509SOL    HW221987   0.167   4.395   8.258  1.5717 -0.2597 -1.7506
 3510SOL     OW21988   2.218   0.674   8.248  0.8069  0.3186  0.1803
 3510SOL    HW121989   2.138   0.626   8.228  2.4438 -2.2395 -0.3378
 3510SOL    HW221990   2.190   0.762   8.226  0.0092  0.2525  0.9153
 3511SOL     OW21991   4.175   4.072   6.194 -0.1192  0.2588 -1.2306
 3511SOL    HW121992   4.105   4.033   6.141 -0.6866 -2.3274  1.4253
 3511SOL    HW221993   4.243   4.097   6.131  2.0463  0.0924  1.0489
 3512SOL     OW21994   3.826   3.993   0.568 -0.2746 -0.0780  0.0971
 3512SOL    HW121995   3.757   4.042   0.613 -1.2333 -1.1073 -0.2491
 3512SOL    HW221996   3.771   3.955   0.500 -1.1540 -1.9958  1.9049
 3513SOL     OW21997   3.635   0.358   7.915  0.0093  0.0581  0.5598
 3513SOL    HW121998   3.692   0.383   7.843  0.4587  0.1649  0.9448
 3513SOL    HW221999   3.554   0.349   7.866  0.2261 -0.7064  0.3359
 3514SOL     OW22000   2.335   0.109  14.043 -0.3936 -0.1377  0.5237
 3514SOL    HW122001   2.380   0.065  13.970 -0.5020 -1.2388  1.1287
 3514SOL    HW222002   2.376   0.195  14.037  1.1202 -0.7877  1.4372
 3515SOL     OW22003   3.120   3.558   8.111  0.7233  0.3083  0.4666
 3515SOL    HW122004   3.125   3.652   8.128  2.7473 -0.2018  2.6731
 3515SOL    HW222005   3.070   3.561   8.029  1.4698 -1.2137 -0.0411
 3516SOL     OW22006   2.515   3.241  10.012 -0.2563 -0.5163  0.1587
 3516SOL    HW122007   2.480   3.325  10.041  0.1098  0.5363 -2.4758
 3516SOL    HW222008   2.543   3.254   9.921  3.6439 -0.2742  1.3999
 3517SOL     OW22009   3.469   0.379   2.803  0.3527 -0.4702 -0.3268
 3517SOL    HW122010   3.389   0.382   2.855  2.0572 -1.0847  2.3425
 3517SOL    HW222011   3.506   0.298   2.838  0.0606 -2.2063 -3.9894
 3518SOL     OW22012   0.093   1.907  11.229 -0.9560 -0.2834 -1.0790
 3518SOL    HW122013   0.016   1.851  11.232  0.4303 -2.1195  0.0297
 3518SOL    HW222014   0.172   1.855  11.244 -0.4571  1.2815  1.6514
 3519SOL     OW22015   2.385   2.600   7.213 -0.2760  0.2915 -0.1598
 3519SOL    HW122016   2.368   2.693   7.194 -0.3897 -0.0679 -1.8778
 3519SOL    HW222017   2.312   2.575   7.270  1.0497  0.5072  1.6371
 3520SOL     OW22018   1.937   1.010  17.107 -0.1217 -0.0414  0.4188
 3520SOL    HW122019   1.870   0.968  17.161 -1.1080  1.1153  0.1005
 3520SOL    HW222020   2.019   0.990  17.152 -0.0973 -3.4426 -1.1628
 3521SOL     OW22021   0.227   2.785   4.047  0.0126  0.1817  0.7652
 3521SOL    HW122022   0.165   2.724   4.088 -0.7580  1.0024  0.8153
 3521SOL    HW222023   0.279   2.727   3.992 -1.1129  0.5940 -0.7360
 3522SOL     OW22024   4.023   2.090   7.593 -0.7022  0.1111 -0.1075
 3522SOL    HW122025   4.087   2.131   7.533 -0.0300 -3.0197 -1.5550
 3522SOL    HW222026   4.032   2.000   7.562 -0.7467 -0.7474  2.4060
 3523SOL     OW22027   0.949   1.460   2.465 -0.1559 -0.2358 -0.4508
 3523SOL    HW122028   0.952   1.543   2.419  0.7530  0.8488  1.5836
 3523SOL    HW222029   0.865   1.428   2.432  1.0814  0.1598 -3.9007
 3524SOL     OW22030   1.317   3.275   7.192 -0.3090 -0.4931 -0.1745
 3524SOL    HW122031   1.310   3.338   7.120  1.6432  0.7863  0.7480
 3524SOL    HW222032   1.228   3.291   7.224 -0.4019 -0.0210 -0.6648
 3525SOL     OW22033   1.806   1.586   3.370 -0.4536 -0.5877 -0.6007
 3525SOL    HW122034   1.798   1.680   3.353 -1.6409 -0.3983  1.0181
 3525SOL    HW222035   1.901   1.596   3.381 -1.1528  1.9927  2.9636
 3526SOL     OW22036   1.610   1.628   5.325  0.3092 -0.0029  0.6834
 3526SOL    HW122037   1.594   1.540   5.359 -3.8739  0.6774  0.4109
 3526SOL    HW222038   1.594   1.682   5.402 -0.0957  0.1070  0.5200
 3527SOL     OW22039   2.478   4.243   6.695 -0.4572  0.6242 -0.1836
 3527SOL    HW122040   2.557   4.270   6.742 -0.8018  1.8319 -0.3048
 3527SOL    HW222041   2.497   4.255   6.602  1.4145 -0.8128  0.0033
 3528SOL     OW22042   1.794   4.133  15.014 -0.3773  0.0357 -0.2177
 3528SOL    HW122043   1.887   4.153  15.030 -0.7373  1.0856  0.5507
 3528SOL    HW222044   1.778   4.062  15.076 -1.2916 -0.7681 -1.3875
 3529SOL     OW22045   2.450   2.481   2.415  0.1044 -0.4775 -0.2899
 3529SOL    HW122046   2.410   2.546   2.358  1.9816 -1.4519 -2.7077
 3529SOL    HW222047   2.528   2.533   2.435  1.4680 -2.4283 -0.5035
 3530SOL     OW22048   2.052   2.175   6.005 -0.4920  0.1153  0.2838
 3530SOL    HW122049   1.983   2.234   6.035 -1.1061 -1.6099  2.2664
 3530SOL    HW222050   2.130   2.217   6.041  0.3750  0.7123 -2.2553
 3531SOL     OW22051   1.165   0.667   1.997  0.1095  0.1223  0.2944
 3531SOL    HW122052   1.233   0.676   2.063  1.6515 -2.7458 -0.9080
 3531SOL    HW222053   1.218   0.635   1.924 -0.3060 -2.3894  1.0751
 3532SOL     OW22054   0.228   1.363  11.910 -0.1399 -0.1347  0.0608
 3532SOL    HW122055   0.293   1.322  11.853 -1.2822 -2.8202  0.6871
 3532SOL    HW222056   0.161   1.296  11.920 -0.0077 -0.1858  0.5554
 3533SOL     OW22057   2.753   1.931  13.700  0.6828  0.7354 -0.3004
 3533SOL    HW122058   2.827   1.987  13.676  1.7896 -0.8953 -0.6703
 3533SOL    HW222059   2.782   1.846  13.667  1.2687  1.5782 -1.9733
 3534SOL     OW22060   4.118   1.969  11.081 -0.2957  0.9671  0.1834
 3534SOL    HW122061   4.106   1.927  10.996 -0.7036  0.6544  0.3977
 3534SOL    HW222062   4.067   1.916  11.142  1.3086 -1.1595 -0.3419
 3535SOL     OW22063   4.318   0.954   8.177 -0.1982 -0.3144  0.4186
 3535SOL    HW122064   4.370   1.011   8.120 -0.5388  1.3316  1.7460
 3535SOL    HW222065   4.266   0.903   8.115 -0.8330  0.8601 -0.0073
 3536SOL     OW22066   3.720   4.434  13.326  0.1628  0.0396  0.1402
 3536SOL    HW122067   3.625   4.442  13.333  0.2775 -0.1713  1.8496
 3536SOL    HW222068   3.729   4.383  13.245  0.3879 -1.3085  1.0035
 3537SOL     OW22069   2.753   2.573  16.223  0.0108 -0.2137  0.5684
 3537SOL    HW122070   2.707   2.535  16.297 -0.6229 -1.5194 -0.5072
 3537SOL    HW222071   2.686   2.610  16.165  1.4435 -0.0417 -0.9936
 3538SOL     OW22072   0.158   2.950  13.096 -0.0806  0.2546 -0.0442
 3538SOL    HW122073   0.106   2.935  13.018 -1.7105  3.0515  0.5136
 3538SOL    HW222074   0.212   3.028  13.082 -1.1298  0.9582 -0.1702
 3539SOL     OW22075   0.603   3.166   4.365 -0.5864  0.2646  0.1941
 3539SOL    HW122076   0.554   3.248   4.374 -0.3453  0.5059 -0.6476
 3539SOL    HW222077   0.542   3.112   4.315 -2.0632  0.6140  1.6483
 3540SOL     OW22078   4.198   2.114   5.416 -0.1295 -1.0521  0.2520
 3540SOL    HW122079   4.292   2.134   5.424 -0.7693  2.0294  0.0476
 3540SOL    HW222080   4.200   2.082   5.326 -1.2289 -3.0724  0.9457
 3541SOL     OW22081   4.484   2.932  13.313 -0.0395  0.6331  0.7029
 3541SOL    HW122082   4.573   2.914  13.342  1.0775  2.8874 -1.2647
 3541SOL    HW222083   4.433   2.858  13.345  2.3083 -1.0593  0.5051
 3542SOL     OW22084   0.711   2.273   1.088 -0.5584 -0.3808 -0.5194
 3542SOL    HW122085   0.677   2.204   1.030  0.2764  0.1558 -1.6495
 3542SOL    HW222086   0.661   2.346   1.052  1.9150  0.6036 -1.9713
 3543SOL     OW22087   0.863   3.986   2.323  0.1333 -0.6346 -0.1116
 3543SOL    HW122088   0.831   3.935   2.249  1.7264 -1.2516 -0.3964
 3543SOL    HW222089   0.908   4.054   2.273 -1.6641  0.5876 -0.0331
 3544SOL     OW22090   3.682   2.643   2.247  0.1282 -0.3380 -0.0376
 3544SOL    HW122091   3.632   2.611   2.323  0.2395 -3.3554 -1.2368
 3544SOL    HW222092   3.659   2.573   2.186 -1.0737  0.8258 -0.9002
 3545SOL     OW22093   1.430   4.444  11.037 -0.4149  0.2012  0.1072
 3545SOL    HW122094   1.492   4.371  11.026 -0.9610 -0.4754  1.5764
 3545SOL    HW222095   1.484   4.506  10.988 -1.6223 -0.0832 -1.5731
 3546SOL     OW22096   3.478   3.208  11.841  0.6208 -0.4159 -0.0761
 3546SOL    HW122097   3.531   3.287  11.850  0.0819 -0.1110  0.4511
 3546SOL    HW222098   3.522   3.161  11.770  1.8952  2.3617 -1.1249
 3547SOL     OW22099   1.059   3.860  17.240  0.6313  0.3047  0.7544
 3547SOL    HW122100   1.119   3.793  17.272 -0.6684 -0.8776  0.7444
 3547SOL    HW222101   0.975   3.833  17.276 -0.4196 -0.5254 -2.2827
 3548SOL     OW22102   0.288   2.485  14.255  0.0067 -0.0581 -0.1020
 3548SOL    HW122103   0.339   2.531  14.188 -1.0669  0.6542 -0.4314
 3548SOL    HW222104   0.200   2.474  14.219  1.0114 -4.0328 -1.3209
 3549SOL     OW22105   3.123   1.341   2.819  0.0787  0.2853 -0.5780
 3549SOL    HW122106   3.059   1.313   2.754  0.7050 -0.3550 -0.9127
 3549SOL    HW222107   3.161   1.258   2.846  0.0309  1.0838  1.9672
 3550SOL     OW22108   4.453   3.404  10.481  0.3355  0.1355 -0.0392
 3550SOL    HW122109   4.407   3.485  10.504 -0.1499 -0.1647  0.0515
 3550SOL    HW222110   4.392   3.332  10.474 -1.2991  1.3219  1.9932
 3551SOL     OW22111   0.384   3.535   6.692 -0.5311 -0.0011 -0.3316
 3551SOL    HW122112   0.392   3.450   6.734  1.0407  0.2434 -0.1200
 3551SOL    HW222113   0.463   3.575   6.727  0.3121  0.3452 -2.6314
 3552SOL     OW22114   1.309   0.305   6.831  0.3951  0.1083  0.1431
 3552SOL    HW122115   1.362   0.234   6.797 -1.1587 -0.6928 -0.6057
 3552SOL    HW222116   1.232   0.253   6.854  0.4666 -0.1996 -0.3201
 3553SOL     OW22117   0.063   1.824  17.544  0.0013 -0.4849  0.1637
 3553SOL    HW122118   0.091   1.896  17.489  3.3823 -1.2427  0.8953
 3553SOL    HW222119   0.014   1.881  17.604  0.9117 -2.2609  2.6239
 3554SOL     OW22120   3.136   2.186   4.168 -0.3249  0.1427  1.2112
 3554SOL    HW122121   3.057   2.147   4.132  0.5813 -0.9740  0.4472
 3554SOL    HW222122   3.099   2.256   4.222 -0.9013 -2.4126  4.0990
 3555SOL     OW22123   4.055   0.116  15.881 -0.1000 -0.0338 -0.3552
 3555SOL    HW122124   3.969   0.117  15.838  0.3143 -2.2343 -1.2072
 3555SOL    HW222125   4.040   0.173  15.957 -3.6825 -2.3265  0.6777
 3556SOL     OW22126   2.818   0.599   2.863  0.1506 -0.3436  0.4636
 3556SOL    HW122127   2.865   0.599   2.779  0.1125  2.2864  0.4438
 3556SOL    HW222128   2.786   0.689   2.868  1.3756  0.0627  0.7772
 3557SOL     OW22129   3.222   0.901   3.991 -0.0256 -0.3148  0.5299
 3557SOL    HW122130   3.185   0.984   4.022  0.3936  0.1437 -0.1942
 3557SOL    HW222131   3.317   0.913   3.991  0.1036 -1.3732 -1.9924
 3558SOL     OW22132   3.257   2.787   7.959  0.2459  0.5263  0.1520
 3558SOL    HW122133   3.305   2.867   7.935 -1.4456  1.1103 -1.3470
 3558SOL    HW222134   3.170   2.817   7.987 -0.8234 -1.7665 -0.7197
 3559SOL     OW22135   4.061   0.316   8.100  0.4913  0.0932  0.3538
 3559SOL    HW122136   3.989   0.374   8.126  2.3538  1.6926  1.8828
 3559SOL    HW222137   4.137   0.374   8.099  0.2278  0.4534  1.0879
 3560SOL     OW22138   1.478   4.630   4.034 -0.0639  0.2588 -0.3680
 3560SOL    HW122139   1.509   4.714   4.068 -0.1488 -0.0340  0.4502
 3560SOL    HW222140   1.496   4.572   4.109  2.1266  0.0273 -1.0700
 3561SOL     OW22141   4.279   0.131   7.182  0.3474  0.8207  0.4254
 3561SOL    HW122142   4.230   0.054   7.211  1.0275  0.0606 -0.4382
 3561SOL    HW222143   4.208   0.171   7.131  0.6090  0.0199 -0.5705
 3562SOL     OW22144   0.638   0.518   7.888 -0.1537 -0.1420 -0.0783
 3562SOL    HW122145   0.624   0.462   7.964  1.5738 -0.7082 -0.1742
 3562SOL    HW222146   0.689   0.459   7.832 -0.7718  0.3367 -1.1519
 3563SOL     OW22147   3.295   0.406   6.202 -0.2559 -0.0484 -0.2903
 3563SOL    HW122148   3.377   0.448   6.176  0.5020 -1.0121  0.5609
 3563SOL    HW222149   3.253   0.481   6.245 -0.7813 -1.6743  2.0635
 3564SOL     OW22150   2.483   2.382   5.113  0.6282 -0.4672  0.0265
 3564SOL    HW122151   2.535   2.442   5.167 -0.0918  2.7288 -2.8673
 3564SOL    HW222152   2.493   2.299   5.161 -1.1233 -0.6005  0.1559
 3565SOL     OW22153   3.261   4.400  12.135  0.0168  0.2289  0.1312
 3565SOL    HW122154   3.327   4.334  12.114 -1.5288 -0.9518 -0.9666
 3565SOL    HW222155   3.317   4.450  12.195  0.3454 -1.3433  1.1367
 3566SOL     OW22156   3.026   2.821   0.997  0.0608  0.0804  0.9515
 3566SOL    HW122157   3.006   2.829   1.091 -1.3781 -1.4505  0.7580
 3566SOL    HW222158   3.102   2.879   0.985  0.7808 -0.7898  1.3061
 3567SOL     OW22159   3.257   2.299  11.872 -0.3774  0.0311 -0.0414
 3567SOL    HW122160   3.164   2.281  11.860 -0.1851 -1.6237  0.9988
 3567SOL    HW222161   3.275   2.307  11.966 -2.3754  0.5113  0.2975
 3568SOL     OW22162   1.903   4.484   4.570 -0.4044  0.2519  0.1410
 3568SOL    HW122163   1.970   4.428   4.532  0.1211  0.4203  0.8202
 3568SOL    HW222164   1.932   4.574   4.559  2.1333 -1.0306 -3.8379
 3569SOL     OW22165   4.445   1.233   8.322  0.1390  0.5755 -0.2155
 3569SOL    HW122166   4.527   1.244   8.370  0.1175 -4.3597  0.9852
 3569SOL    HW222167   4.474   1.199   8.238  1.3159  0.3353  0.2925
 3570SOL     OW22168   3.643   1.045   2.754  0.0158  0.3423  0.4033
 3570SOL    HW122169   3.653   0.951   2.738 -1.6635  0.0616  0.9835
 3570SOL    HW222170   3.701   1.075   2.684  0.9787 -1.0144  0.6028
 3571SOL     OW22171   1.061   1.999   1.957 -0.3003  0.6345  0.1926
 3571SOL    HW122172   1.081   2.029   1.868 -0.6382 -0.1404 -0.1501
 3571SOL    HW222173   1.142   2.027   1.998 -0.7972  1.3439  0.6829
 3572SOL     OW22174   4.198   1.776  16.145  0.0763  0.0646 -0.0144
 3572SOL    HW122175   4.114   1.769  16.099 -0.8149  0.3766  1.5800
 3572SOL    HW222176   4.225   1.685  16.153 -1.0049 -0.2336  0.1981
 3573SOL     OW22177   2.548   0.858   7.140  0.1535  0.1166  0.9323
 3573SOL    HW122178   2.475   0.873   7.201 -0.0828 -0.8086  0.8745
 3573SOL    HW222179   2.497   0.855   7.059 -1.1052 -0.2384  1.7276
 3574SOL     OW22180   4.039   3.824   8.864 -0.4474  0.5602 -0.0805
 3574SOL    HW122181   4.132   3.845   8.859 -0.2250 -0.0793  1.4163
 3574SOL    HW222182   4.027   3.770   8.942 -1.5531  1.0445  0.0816
 3575SOL     OW22183   2.926   1.267   2.651  0.0678  0.0889  0.4386
 3575SOL    HW122184   2.847   1.321   2.642  0.4922  0.5897 -0.2909
 3575SOL    HW222185   2.943   1.244   2.560  0.7445 -1.3480  0.9427
 3576SOL     OW22186   1.605   4.627   8.629 -0.4374  0.1074  0.0513
 3576SOL    HW122187   1.670   4.578   8.679 -0.8829  0.6571  1.1676
 3576SOL    HW222188   1.613   4.573   8.551  1.8086 -1.6642  1.5233
 3577SOL     OW22189   2.433   0.793  10.885  0.3154  1.0870  0.1442
 3577SOL    HW122190   2.476   0.757  10.808 -1.8057 -1.5608  0.1808
 3577SOL    HW222191   2.483   0.871  10.908  2.1034 -0.1644  0.4746
 3578SOL     OW22192   3.550   3.684  11.266 -0.1183 -0.5230 -1.0988
 3578SOL    HW122193   3.489   3.640  11.207 -0.0498 -1.4001 -0.5239
 3578SOL    HW222194   3.629   3.630  11.264 -0.3239 -0.8943  0.4801
 3579SOL     OW22195   4.271   1.730   2.093  0.3495 -0.5575  0.0117
 3579SOL    HW122196   4.286   1.740   2.187  0.5658 -0.3363 -0.0469
 3579SOL    HW222197   4.219   1.650   2.101 -0.1150 -0.1821  0.7524
 3580SOL     OW22198   2.420   0.510   2.281  0.1928 -0.4643 -0.3942
 3580SOL    HW122199   2.477   0.505   2.358  0.4147 -1.6892 -0.6323
 3580SOL    HW222200   2.494   0.506   2.219  0.1066  0.7834 -0.5637
 3581SOL     OW22201   1.123   4.602   0.267  0.2126 -0.2175 -0.4687
 3581SOL    HW122202   1.163   4.677   0.311 -0.0575 -2.2963  3.2674
 3581SOL    HW222203   1.101   4.653   0.189  0.3854  1.9429  0.9118
 3582SOL     OW22204   1.735   4.115   2.455  0.3759  0.2939  0.3384
 3582SOL    HW122205   1.720   4.027   2.488  1.8275  0.6751  2.0773
 3582SOL    HW222206   1.721   4.105   2.361  0.8674 -0.3798  0.3381
 3583SOL     OW22207   4.068   1.861  10.357  0.1978  0.4032 -0.2233
 3583SOL    HW122208   4.084   1.838  10.266 -0.0627 -0.9301  0.0610
 3583SOL    HW222209   3.992   1.809  10.383 -0.0670  1.7701  1.8032
 3584SOL     OW22210   2.190   4.521   3.201  0.2027 -0.3219  0.5351
 3584SOL    HW122211   2.237   4.470   3.267  1.0034  1.2234  1.1461
 3584SOL    HW222212   2.099   4.509   3.228 -0.3807  0.2301 -1.1895
 3585SOL     OW22213   0.439   3.183  14.056 -0.3456  0.1234  0.1363
 3585SOL    HW122214   0.485   3.243  13.998 -1.1219 -0.1927 -0.8193
 3585SOL    HW222215   0.478   3.098  14.035  0.4306  0.9073 -1.6398
 3586SOL     OW22216   3.293   4.284  11.733  0.1098  0.3076  0.5041
 3586SOL    HW122217   3.315   4.193  11.755  2.6716  0.8162  0.1082
 3586SOL    HW222218   3.198   4.288  11.722  0.1843 -0.2397 -0.3342
 3587SOL     OW22219   3.164   3.208   2.459  0.0416 -0.5878 -0.2501
 3587SOL    HW122220   3.233   3.257   2.503  0.3698 -0.4257 -0.9512
 3587SOL    HW222221   3.114   3.289   2.452  1.6296  0.1234 -3.2058
 3588SOL     OW22222   0.137   2.933   2.599  0.0639  0.2482 -0.2664
 3588SOL    HW122223   0.219   2.894   2.568 -0.3195 -1.3679  0.7137
 3588SOL    HW222224   0.175   2.981   2.673 -0.5459  1.3448 -0.6721
 3589SOL     OW22225   2.743   0.389   3.050 -0.0327 -0.5687  0.4896
 3589SOL    HW122226   2.674   0.404   3.114  0.6180  2.6426  0.4411
 3589SOL    HW222227   2.766   0.474   3.014 -2.1197  0.0524  0.6393
 3590SOL     OW22228   2.834   1.256  15.107  0.2223  0.1382  0.8501
 3590SOL    HW122229   2.798   1.281  15.022  0.9687  1.0499  0.8042
 3590SOL    HW222230   2.756   1.260  15.161  0.3181 -0.1296  1.0077
 3591SOL     OW22231   1.058   4.142  13.034 -0.0628  0.0548  0.7767
 3591SOL    HW122232   1.040   4.111  13.123  3.5890 -0.0708  1.4761
 3591SOL    HW222233   0.978   4.194  13.020 -0.6486 -0.6788  1.4079
 3592SOL     OW22234   3.358   0.307   9.020 -0.3479  0.3233  0.1672
 3592SOL    HW122235   3.390   0.239   8.961  2.2701  0.2270  1.6841
 3592SOL    HW222236   3.412   0.287   9.097  1.5429  2.4546 -0.5891
 3593SOL     OW22237   4.110   3.806  12.819 -0.1832  0.3755 -1.1750
 3593SOL    HW122238   4.024   3.845  12.833 -0.3803 -0.5109  0.1318
 3593SOL    HW222239   4.097   3.714  12.843 -0.8667  1.2729  1.8981
 3594SOL     OW22240   1.317   0.964   7.358  0.3664 -0.3937  0.3922
 3594SOL    HW122241   1.343   0.907   7.285 -0.7366  0.7326 -0.8791
 3594SOL    HW222242   1.268   1.038   7.321 -0.7428  0.1071  2.8653
 3595SOL     OW22243   3.200   2.530   1.015 -0.7426  0.0957  0.8536
 3595SOL    HW122244   3.222   2.442   0.984  1.6893  0.7499  0.6901
 3595SOL    HW222245   3.191   2.566   0.927 -1.1200  0.1977  0.9351
 3596SOL     OW22246   3.619   2.204   6.995 -0.3149  0.0936  0.3032
 3596SOL    HW122247   3.638   2.159   7.077  1.6128 -1.5812 -1.0568
 3596SOL    HW222248   3.559   2.151   6.942  1.8727 -0.7191 -1.3405
 3597SOL     OW22249   2.667   1.784   4.581 -0.4454 -0.0648  0.2920
 3597SOL    HW122250   2.596   1.762   4.522 -0.4457 -1.8421  0.9619
 3597SOL    HW222251   2.625   1.853   4.632 -1.3933  0.3384 -1.0588
 3598SOL     OW22252   1.834   3.026   1.015  0.1046 -0.1903 -0.4912
 3598SOL    HW122253   1.738   3.019   1.017  0.0853  0.4221  0.9513
 3598SOL    HW222254   1.850   3.054   0.925  2.3976 -2.2817 -0.7187
 3599SOL     OW22255   2.148   1.123   3.597 -0.5861  0.2586  0.6678
 3599SOL    HW122256   2.139   1.209   3.557  3.5057 -0.1311 -1.0636
 3599SOL    HW222257   2.179   1.070   3.524  0.4766  3.9842 -1.6020
 3600SOL     OW22258   3.409   4.033  10.418 -0.1635  0.0911 -0.3506
 3600SOL    HW122259   3.416   4.114  10.469  2.0672 -0.0032 -0.5045
 3600SOL    HW222260   3.502   4.013  10.406  0.2844  2.7055 -1.2757
 3601SOL     OW22261   4.586   1.984  15.935 -0.6438  0.0311  0.0292
 3601SOL    HW122262   4.595   1.992  16.030 -1.0919 -0.2734  0.1002
 3601SOL    HW222263   4.675   1.971  15.903  0.0862  1.8564  1.2821
 3602SOL     OW22264   0.563   2.187  10.426 -0.3276  0.3904  0.5003
 3602SOL    HW122265   0.584   2.102  10.387  0.1458 -0.6501  3.0331
 3602SOL    HW222266   0.569   2.248  10.353 -0.2674  0.3534  0.4743
 3603SOL     OW22267   1.300   0.093   9.941 -0.2245 -0.2199  0.1908
 3603SOL    HW122268   1.216   0.125   9.973  0.9897  4.4161 -1.2592
 3603SOL    HW222269   1.289   0.112   9.848 -1.4113 -1.7761  0.0126
 3604SOL     OW22270   0.039   1.670   5.363  0.8306  0.3363  0.4151
 3604SOL    HW122271   0.088   1.596   5.326  0.5680  0.3034  0.1305
 3604SOL    HW222272   0.076   1.743   5.312  0.7446 -0.5158 -0.8758
 3605SOL     OW22273   1.801   1.062   9.875 -0.1187  0.1354  0.1844
 3605SOL    HW122274   1.760   1.056   9.962  1.3680 -0.5594  0.8391
 3605SOL    HW222275   1.798   1.157   9.866 -1.4677  0.2302  1.5296
 3606SOL     OW22276   2.186   1.418   8.413 -0.1681 -0.6162  0.1122
 3606SOL    HW122277   2.117   1.415   8.479 -0.1599 -1.2389  0.0963
 3606SOL    HW222278   2.149   1.370   8.339 -0.3812  1.1140 -0.8886
 3607SOL     OW22279   4.471   2.013   5.888  0.0062 -0.3146 -0.1335
 3607SOL    HW122280   4.459   2.049   5.800  0.1616 -2.0358 -0.8569
 3607SOL    HW222281   4.409   2.065   5.939  0.8226  1.3387 -0.8369
 3608SOL     OW22282   3.085   3.644   5.630 -0.9656  0.2080 -0.0951
 3608SOL    HW122283   3.058   3.713   5.568  2.8597  0.4504 -1.4417
 3608SOL    HW222284   3.010   3.643   5.690 -1.5592 -0.9182 -0.8517
 3609SOL     OW22285   4.263   0.677   5.993 -0.5577 -0.4497 -0.1825
 3609SOL    HW122286   4.299   0.723   5.917 -0.5559 -0.7180 -0.3393
 3609SOL    HW222287   4.178   0.641   5.969 -0.7088 -0.6175  0.5997
 3610SOL     OW22288   3.896   0.180   7.912 -0.0266 -0.1657 -0.0520
 3610SOL    HW122289   3.982   0.220   7.928 -0.0556  0.6353 -1.9897
 3610SOL    HW222290   3.845   0.228   7.977  1.9408  1.1357  0.5274
 3611SOL     OW22291   2.197   4.393   7.021  0.0704  0.5469  0.1799
 3611SOL    HW122292   2.202   4.327   7.089 -1.7301 -2.6320 -2.7638
 3611SOL    HW222293   2.194   4.345   6.938 -1.0681  0.0700  0.5091
 3612SOL     OW22294   0.412   1.933   7.222  0.1703  0.0018  0.0610
 3612SOL    HW122295   0.463   1.861   7.185 -2.4406 -0.2837 -2.9221
 3612SOL    HW222296   0.485   1.994   7.235 -2.4962  3.0888  0.4317
 3613SOL     OW22297   2.885   2.444   5.314 -0.1670 -0.6213 -0.1991
 3613SOL    HW122298   2.799   2.485   5.322 -1.0512 -2.3829 -0.7151
 3613SOL    HW222299   2.922   2.447   5.402 -1.3388  1.3953  0.2474
 3614SOL     OW22300   1.992   2.589   5.964 -0.5560  0.4495 -0.0712
 3614SOL    HW122301   1.933   2.604   5.891  0.9342 -1.1428 -1.6095
 3614SOL    HW222302   1.939   2.531   6.019 -1.1813  2.4199  1.3897
 3615SOL     OW22303   1.779   3.683   2.046  0.3204 -0.1036 -0.0671
 3615SOL    HW122304   1.754   3.613   2.106 -1.2079  0.3234 -0.2024
 3615SOL    HW222305   1.722   3.749   2.085 -0.1253  0.6775 -2.0818
 3616SOL     OW22306   0.607   0.585   4.333 -0.7504 -0.0557  0.5572
 3616SOL    HW122307   0.563   0.667   4.311  1.6044  0.9564 -0.3438
 3616SOL    HW222308   0.667   0.576   4.259 -0.6165  0.5204  0.5931
 3617SOL     OW22309   3.871   0.512   8.131 -0.3503 -0.1666 -0.3572
 3617SOL    HW122310   3.808   0.546   8.194 -0.7699  1.0810 -1.4510
 3617SOL    HW222311   3.950   0.556   8.160  0.5579 -0.3875 -2.5015
 3618SOL     OW22312   0.882   2.304   5.639  0.1758  0.3375  0.6019
 3618SOL    HW122313   0.835   2.282   5.558  0.5398 -0.1869  0.5339
 3618SOL    HW222314   0.949   2.236   5.632 -0.8037 -0.2979 -2.9879
 3619SOL     OW22315   1.753   3.532   3.633 -0.3549 -0.0623  0.1686
 3619SOL    HW122316   1.794   3.539   3.719 -0.4004 -0.3946  0.2170
 3619SOL    HW222317   1.814   3.478   3.583 -1.3812 -2.4404  1.4836
 3620SOL     OW22318   0.255   4.103  10.620  0.2575 -0.1501 -0.0401
 3620SOL    HW122319   0.185   4.137  10.675 -0.2237 -0.8195 -0.2395
 3620SOL    HW222320   0.329   4.150  10.659 -0.9273  1.3056  0.4385
 3621SOL     OW22321   3.677   2.903   0.525 -0.2600 -0.2999 -0.2715
 3621SOL    HW122322   3.645   2.862   0.606 -1.3557 -0.1037 -0.6064
 3621SOL    HW222323   3.749   2.955   0.561 -1.3339  0.1543  1.2278
 3622SOL     OW22324   3.384   4.390   7.932  0.4195  0.6430  1.0389
 3622SOL    HW122325   3.478   4.410   7.930  0.3125  1.0547  0.3791
 3622SOL    HW222326   3.346   4.472   7.902 -0.7688 -0.9881 -1.9483
 3623SOL     OW22327   4.041   0.774   4.381  0.5378 -0.3663  0.6258
 3623SOL    HW122328   4.100   0.814   4.446  0.9833  1.8795 -1.1274
 3623SOL    HW222329   4.094   0.783   4.302  2.4251  1.4605  2.0773
 3624SOL     OW22330   1.256   4.073  13.957  0.5884  0.3697 -0.2636
 3624SOL    HW122331   1.225   4.091  14.046 -1.3790 -0.6945 -0.7326
 3624SOL    HW222332   1.199   3.999  13.934 -0.9840  1.8185 -0.9763
 3625SOL     OW22333   2.755   1.264   5.337 -0.2176  0.6180 -0.1979
 3625SOL    HW122334   2.727   1.204   5.406  2.1983 -1.1839 -0.7707
 3625SOL    HW222335   2.772   1.202   5.266  4.0027  1.7783 -0.2272
 3626SOL     OW22336   1.806   2.102   1.977 -0.1792 -0.5908  0.7168
 3626SOL    HW122337   1.812   2.188   1.935 -0.1277 -0.3815  1.1530
 3626SOL    HW222338   1.863   2.049   1.921  1.8850  0.0204  2.2398
 3627SOL     OW22339   0.299   2.075   3.988  0.4457 -0.0327  0.5714
 3627SOL    HW122340   0.376   2.117   3.952  1.5348 -1.0594  1.6727
 3627SOL    HW222341   0.346   2.047   4.067 -0.6746 -1.8075  0.6104
 3628SOL     OW22342   0.512   2.729  13.778  0.9947 -0.4287  0.6742
 3628SOL    HW122343   0.440   2.682  13.735  0.2810  1.3433 -0.0863
 3628SOL    HW222344   0.572   2.745  13.706 -0.7668 -0.2132 -0.7465
 3629SOL     OW22345   0.499   1.189   0.554 -0.4584  0.3987  0.0481
 3629SOL    HW122346   0.583   1.229   0.578  0.4652 -1.4672 -0.1172
 3629SOL    HW222347   0.511   1.188   0.459 -0.3898  1.8334  0.0287
 3630SOL     OW22348   1.974   4.671   7.618 -0.4108 -0.2680  0.7073
 3630SOL    HW122349   1.900   4.610   7.623 -0.7905  0.0322 -1.0000
 3630SOL    HW222350   2.050   4.622   7.649 -0.2629  0.2940  1.2305
 3631SOL     OW22351   4.103   1.112   3.371  0.0044  0.1795  0.2536
 3631SOL    HW122352   4.114   1.189   3.427  1.5676  0.1554 -0.0373
 3631SOL    HW222353   4.162   1.138   3.301 -3.7208 -1.6475 -3.5979
 3632SOL     OW22354   0.710   2.126   7.998  0.5815 -0.7524 -0.0667
 3632SOL    HW122355   0.761   2.162   7.925  1.4061  2.3148  2.0265
 3632SOL    HW222356   0.711   2.196   8.064  0.1128  1.5887 -2.5498
 3633SOL     OW22357   4.617   1.266  16.006 -0.0254  0.4229 -0.5039
 3633SOL    HW122358   4.699   1.316  16.008  0.9658 -1.1198 -2.4051
 3633SOL    HW222359   4.624   1.204  15.934  2.6867  1.3938 -1.0992
 3634SOL     OW22360   1.816   1.830   3.289 -0.0484 -0.2961 -0.1676
 3634SOL    HW122361   1.819   1.861   3.198 -0.3861 -1.8496 -0.6958
 3634SOL    HW222362   1.819   1.915   3.333  1.2453 -0.9564  1.0021
 3635SOL     OW22363   2.856   0.728   9.509  0.4666 -0.2575 -0.3796
 3635SOL    HW122364   2.943   0.713   9.473  0.5790 -3.2399  1.1577
 3635SOL    HW222365   2.866   0.809   9.560 -2.6256  0.0121 -0.1414
 3636SOL     OW22366   3.605   0.839   8.409  0.1559 -0.2160 -0.7711
 3636SOL    HW122367   3.694   0.875   8.403  0.8209 -2.0112 -1.8924
 3636SOL    HW222368   3.555   0.920   8.415 -0.2617 -0.4722 -0.7973
 3637SOL     OW22369   2.646   0.447  17.443 -0.2862 -0.0381 -0.0420
 3637SOL    HW122370   2.607   0.529  17.413 -1.4354 -0.3292  0.6570
 3637SOL    HW222371   2.593   0.387  17.391  0.6187 -0.5385 -0.3687
 3638SOL     OW22372   0.176   3.798   6.446  0.3313  0.1844  0.3186
 3638SOL    HW122373   0.254   3.845   6.474  1.0345  0.6263 -2.4580
 3638SOL    HW222374   0.135   3.859   6.386 -1.3469 -1.5398 -0.2986
 3639SOL     OW22375   2.518   0.008   6.654 -0.0051  0.5081 -0.1483
 3639SOL    HW122376   2.440   4.678   6.667  0.2723  0.1716  0.1241
 3639SOL    HW222377   2.528   0.044   6.742 -0.7372  1.3561 -0.4180
 3640SOL     OW22378   0.798   2.929   5.923  0.4980  0.5801  0.0262
 3640SOL    HW122379   0.854   2.879   5.982  0.0032  1.8757  1.5969
 3640SOL    HW222380   0.851   2.915   5.844 -0.3567  2.0485 -0.8196
 3641SOL     OW22381   3.914   1.404   3.526 -0.2066  0.2981 -0.4862
 3641SOL    HW122382   3.916   1.499   3.515 -2.2728  0.4363  0.3562
 3641SOL    HW222383   4.006   1.382   3.512 -0.1531  1.1477 -1.4681
 3642SOL     OW22384   2.989   0.754   7.566  0.3875  0.0125 -0.6804
 3642SOL    HW122385   3.066   0.805   7.590 -0.6394  1.6694 -0.9419
 3642SOL    HW222386   3.001   0.750   7.471 -0.2554 -3.9535 -0.5857
 3643SOL     OW22387   0.102   0.778   4.769 -0.5505 -0.8479 -0.9986
 3643SOL    HW122388   0.169   0.842   4.791  1.7845 -3.2819 -1.0491
 3643SOL    HW222389   0.120   0.704   4.827  1.2681  0.0827 -0.3893
 3644SOL     OW22390   4.145   3.691  16.612 -0.1598  0.3124  0.1484
 3644SOL    HW122391   4.092   3.614  16.595  0.1885  0.0535  0.2427
 3644SOL    HW222392   4.173   3.670  16.701  2.1389  0.2011 -0.5936
 3645SOL     OW22393   2.975   3.021   3.280  0.2866  0.3317 -0.3106
 3645SOL    HW122394   2.985   2.977   3.196 -2.9076 -0.6160 -0.2075
 3645SOL    HW222395   2.904   3.082   3.260  2.4568  2.7304 -0.5989
 3646SOL     OW22396   2.300   0.271   3.112 -0.3507  0.2544 -0.5325
 3646SOL    HW122397   2.263   0.342   3.164  2.5610  1.0338  0.4689
 3646SOL    HW222398   2.359   0.311   3.048  0.9190 -1.3974 -0.3959
 3647SOL     OW22399   1.705   4.410   5.541  0.3698 -0.1184 -0.1692
 3647SOL    HW122400   1.653   4.334   5.517  0.1336 -0.3080  0.9548
 3647SOL    HW222401   1.791   4.379   5.513  0.0058  0.0831 -1.5089
 3648SOL     OW22402   1.259   0.667  13.975  0.1243 -0.1194  0.3197
 3648SOL    HW122403   1.255   0.746  14.029 -0.9345 -1.0608  1.6085
 3648SOL    HW222404   1.327   0.620  14.023  0.1425 -0.2569  0.1568
 3649SOL     OW22405   4.206   0.710   9.179  0.1964  0.2466 -0.6053
 3649SOL    HW122406   4.233   0.794   9.215 -2.5546 -0.0770  2.1478
 3649SOL    HW222407   4.263   0.701   9.102 -0.0869 -1.1233 -0.6705
 3650SOL     OW22408   0.064   0.659   6.555  0.0231 -0.2306  0.0500
 3650SOL    HW122409   0.145   0.612   6.575  0.2485 -0.5710 -1.6652
 3650SOL    HW222410   0.014   0.603   6.495 -1.0821 -0.2185  0.9721
 3651SOL     OW22411   0.133   1.032  14.322 -0.1913  0.3031 -0.0505
 3651SOL    HW122412   0.183   0.967  14.371 -2.8412 -2.2328 -0.6923
 3651SOL    HW222413   0.093   1.092  14.385 -1.0363  0.9459 -1.2082
 3652SOL     OW22414   2.160   4.486   6.028  0.0155 -0.2849  0.9369
 3652SOL    HW122415   2.241   4.536   6.017 -0.5848  0.2844 -0.8745
 3652SOL    HW222416   2.191   4.403   6.064 -2.5437 -0.9011  1.7382
 3653SOL     OW22417   0.870   0.957  13.083 -0.4276 -0.2766 -0.0262
 3653SOL    HW122418   0.888   0.906  13.004  1.2494  0.2710  0.0057
 3653SOL    HW222419   0.779   0.980  13.063  0.1597  0.5537 -1.7958
 3654SOL     OW22420   3.231   3.716   8.704 -0.0783 -0.2678  0.3087
 3654SOL    HW122421   3.255   3.638   8.655  2.6911  0.2796  0.7438
 3654SOL    HW222422   3.236   3.687   8.795 -0.7088  1.8109  1.0021
 3655SOL     OW22423   0.792   2.129   7.021 -0.4632 -0.5186  0.1200
 3655SOL    HW122424   0.786   2.061   6.954 -0.9403  0.4582 -0.8256
 3655SOL    HW222425   0.879   2.111   7.056 -0.8630 -1.2703  0.7236
 3656SOL     OW22426   2.015   4.671   4.038  0.1745  0.9019 -0.0541
 3656SOL    HW122427   1.965   4.591   4.019  0.4422  0.5522  0.7181
 3656SOL    HW222428   1.979   0.011   3.977 -1.3556  0.6808  0.6073
 3657SOL     OW22429   0.532   2.897   7.954  0.5723 -0.5533  0.7267
 3657SOL    HW122430   0.457   2.850   7.992 -0.1189 -0.5713 -0.6510
 3657SOL    HW222431   0.591   2.865   8.022  1.3151 -1.1483 -0.1935
 3658SOL     OW22432   0.663   1.632   5.121 -0.2220 -0.2004  0.5344
 3658SOL    HW122433   0.640   1.576   5.195 -1.3549 -0.7520 -0.2332
 3658SOL    HW222434   0.706   1.704   5.168  1.2202 -2.3016  2.3922
 3659SOL     OW22435   4.615   2.003   8.125 -0.4332 -0.1742  0.0559
 3659SOL    HW122436   4.651   1.989   8.038  0.4959 -2.0814  0.7366
 3659SOL    HW222437   4.580   1.919   8.155 -1.0230  0.2451  0.5577
 3660SOL     OW22438   0.380   0.640  11.009  0.0661 -0.5195  0.0314
 3660SOL    HW122439   0.416   0.728  10.998  0.2079 -0.6840 -0.7973
 3660SOL    HW222440   0.436   0.587  10.952  3.0370  1.2576  1.2906
 3661SOL     OW22441   0.175   0.151   0.978 -0.0224 -0.5839 -0.5592
 3661SOL    HW122442   0.139   0.068   1.011  1.1721 -0.9947 -0.2860
 3661SOL    HW222443   0.262   0.159   1.018 -0.1024  2.2759 -0.9352
 3662SOL     OW22444   2.007   4.193   4.472 -0.7844 -0.4216 -0.2551
 3662SOL    HW122445   1.938   4.135   4.504  2.3349 -4.0745 -0.1441
 3662SOL    HW222446   2.038   4.146   4.395  0.4970  0.7354 -0.4508
 3663SOL     OW22447   4.339   2.993   4.343  0.2201 -0.0339  0.4742
 3663SOL    HW122448   4.329   2.901   4.366 -0.6193 -0.4076 -1.4301
 3663SOL    HW222449   4.351   3.024   4.433 -3.0522 -1.7609  1.5062
 3664SOL     OW22450   2.818   4.646  17.406 -0.1038  0.0214  0.5967
 3664SOL    HW122451   2.905   4.641  17.445 -0.0314  1.3878  0.6328
 3664SOL    HW222452   2.810   4.559  17.369 -0.7627 -0.2173  1.2929
 3665SOL     OW22453   2.375   0.437   1.001  0.2996  0.2147  0.3701
 3665SOL    HW122454   2.351   0.345   1.012 -2.5964  0.6578 -2.6931
 3665SOL    HW222455   2.376   0.444   0.906  1.1729 -2.1099  0.2188
 3666SOL     OW22456   2.901   0.950  13.732  0.1669  0.0044 -0.4332
 3666SOL    HW122457   2.844   0.887  13.687 -2.0384  1.6526  0.0128
 3666SOL    HW222458   2.839   1.016  13.765 -0.6774 -0.6281 -0.7520
 3667SOL     OW22459   3.248   2.168   5.143  0.3177  0.4349  0.7596
 3667SOL    HW122460   3.162   2.210   5.147  0.6901  1.3439 -0.7124
 3667SOL    HW222461   3.240   2.090   5.199  0.1249  1.5735  2.3076
 3668SOL     OW22462   0.117   3.722   7.418 -1.0372  0.3043 -0.0683
 3668SOL    HW122463   0.083   3.807   7.443 -0.6290 -0.2842  2.5087
 3668SOL    HW222464   0.075   3.666   7.483  0.4861 -1.2273 -0.3680
 3669SOL     OW22465   4.446   2.744   6.166  0.1295  0.8232 -0.1214
 3669SOL    HW122466   4.418   2.699   6.246  0.9934 -0.3613 -0.4959
 3669SOL    HW222467   4.512   2.686   6.128 -3.0732 -0.3936 -3.8431
 3670SOL     OW22468   0.739   3.186   6.051  0.1273 -0.0933 -0.1976
 3670SOL    HW122469   0.825   3.193   6.091  0.5966 -0.9877 -1.0527
 3670SOL    HW222470   0.740   3.106   5.998 -3.4637  0.4847 -1.1366
 3671SOL     OW22471   1.724   2.744   6.686  0.1554  0.1443  0.3984
 3671SOL    HW122472   1.752   2.698   6.765  0.2329 -1.0636 -0.3264
 3671SOL    HW222473   1.807   2.749   6.638  0.2168  0.1855  0.5101
 3672SOL     OW22474   4.430   1.028   5.436  0.1643 -0.2346  0.8750
 3672SOL    HW122475   4.387   1.111   5.416  0.9896 -0.6451 -2.6433
 3672SOL    HW222476   4.475   1.049   5.518  1.4278 -1.2950  0.4514
 3673SOL     OW22477   1.260   4.445   2.937  0.4078 -0.2404  0.4395
 3673SOL    HW122478   1.217   4.423   3.020  0.7035 -2.4996 -0.0039
 3673SOL    HW222479   1.182   4.444   2.882 -1.1550  0.0614  2.6350
 3674SOL     OW22480   1.926   1.703   6.284  0.1552  0.0201  0.3851
 3674SOL    HW122481   1.859   1.770   6.295  0.3830  0.1512  0.9369
 3674SOL    HW222482   1.947   1.695   6.377  1.6615  0.2788  0.0657
 3675SOL     OW22483   2.327   4.396   2.383  0.3730 -0.0326 -0.1262
 3675SOL    HW122484   2.266   4.406   2.456 -0.4942 -1.4448 -0.6669
 3675SOL    HW222485   2.271   4.390   2.306 -1.1652  0.2200  0.9629
 3676SOL     OW22486   1.521   0.522   3.998  0.1444 -0.0445  0.1998
 3676SOL    HW122487   1.551   0.528   4.089 -0.1775  0.9007  0.2434
 3676SOL    HW222488   1.561   0.599   3.957  0.4901  0.0234  0.6696
 3677SOL     OW22489   2.227   3.442  11.852  0.4377  0.0401  0.4933
 3677SOL    HW122490   2.182   3.478  11.776 -1.3848 -1.9732  0.6088
 3677SOL    HW222491   2.172   3.456  11.929  1.5226 -0.0365  1.3009
 3678SOL     OW22492   2.690   4.430  12.975  0.7598  0.0228 -0.0384
 3678SOL    HW122493   2.782   4.454  12.963  0.9642 -0.1520  1.1718
 3678SOL    HW222494   2.685   4.423  13.070 -0.3724  2.3067  0.0732
 3679SOL     OW22495   0.270   4.013   4.273  0.0101 -0.1407  0.3161
 3679SOL    HW122496   0.219   3.937   4.246 -0.2517  0.0564  0.2509
 3679SOL    HW222497   0.328   4.026   4.199  0.1184  0.7737  0.5632
 3680SOL     OW22498   0.341   2.715   4.937  0.2353 -0.3451 -0.5052
 3680SOL    HW122499   0.291   2.636   4.960 -0.7591  1.0395  2.0081
 3680SOL    HW222500   0.381   2.686   4.855  2.3522  0.6698  0.1681
 3681SOL     OW22501   4.594   0.515   2.270 -0.4964  0.2182  0.3774
 3681SOL    HW122502   4.580   0.420   2.270 -0.2258  0.1837  3.4185
 3681SOL    HW222503   4.671   0.524   2.214  0.6131 -1.1293  1.6914
 3682SOL     OW22504   4.691   2.500   6.745 -0.5910  0.0097  0.2455
 3682SOL    HW122505   4.718   2.553   6.671  0.4061  1.8461  1.9117
 3682SOL    HW222506   4.598   2.488   6.731 -0.5328 -0.9048  0.6237
 3683SOL     OW22507   1.737   3.659   4.659 -0.3553 -0.0635  0.0790
 3683SOL    HW122508   1.675   3.587   4.651 -1.2049  0.9418 -2.1792
 3683SOL    HW222509   1.725   3.706   4.577  0.7749  0.6809  0.3415
 3684SOL     OW22510   4.202   3.841   7.424 -0.4334 -0.8871  0.0156
 3684SOL    HW122511   4.186   3.836   7.518  0.4564  0.8911  0.2586
 3684SOL    HW222512   4.290   3.805   7.416 -0.5667 -0.8168 -1.7147
 3685SOL     OW22513   1.181   3.965   0.191  0.2295  0.1708 -0.0963
 3685SOL    HW122514   1.221   3.879   0.199  0.6687  0.3797 -0.0428
 3685SOL    HW222515   1.257   4.020   0.209  0.6970 -0.9435  1.3507
 3686SOL     OW22516   1.017   0.807   7.479 -0.1064  0.0576  0.2879
 3686SOL    HW122517   1.068   0.792   7.558  0.2368 -0.0213  0.0524
 3686SOL    HW222518   1.012   0.903   7.486 -1.2533  0.0782 -0.7101
 3687SOL     OW22519   3.903   1.913   7.831 -0.0977  0.2752  0.2894
 3687SOL    HW122520   3.976   1.860   7.798 -0.9227  0.8872 -2.5274
 3687SOL    HW222521   3.850   1.919   7.751  0.7271  1.0818 -0.1884
 3688SOL     OW22522   3.198   3.243   0.923 -0.0733  0.0066 -0.7081
 3688SOL    HW122523   3.114   3.200   0.905 -0.2584  0.4815 -0.9490
 3688SOL    HW222524   3.199   3.325   0.875  0.9933  0.7402  0.5438
 3689SOL     OW22525   4.348   3.352  16.697  0.0661 -1.0326  0.1700
 3689SOL    HW122526   4.283   3.308  16.643  0.1042 -0.1208 -0.6070
 3689SOL    HW222527   4.302   3.356  16.781  0.8309 -1.9160  0.6409
 3690SOL     OW22528   1.109   3.425  16.179  0.6966  0.4523  0.2281
 3690SOL    HW122529   1.197   3.455  16.204  1.3806  0.5165 -2.2390
 3690SOL    HW222530   1.131   3.395  16.090 -3.6164 -1.6424 -0.1346
 3691SOL     OW22531   1.818   3.964   4.344  0.4845 -0.0908 -0.5300
 3691SOL    HW122532   1.740   3.909   4.355 -1.0577  1.3212 -4.4513
 3691SOL    HW222533   1.873   3.944   4.420  0.5658  1.2103 -0.2486
 3692SOL     OW22534   4.674   2.203   1.932  0.2414 -0.0561 -0.1489
 3692SOL    HW122535   4.618   2.155   1.993 -0.4576  0.8205 -0.0922
 3692SOL    HW222536   4.605   2.255   1.890 -0.8578 -0.2437  1.4040
 3693SOL     OW22537   1.643   0.165  10.999 -0.2846 -0.0554 -0.7783
 3693SOL    HW122538   1.562   0.215  11.014  2.2836  2.7594  3.9653
 3693SOL    HW222539   1.680   0.149  11.086 -1.4377  1.1105 -0.0654
 3694SOL     OW22540   3.365   0.276   8.201  0.0771  0.1564 -0.0579
 3694SOL    HW122541   3.284   0.290   8.250 -0.1613 -0.4534 -0.2729
 3694SOL    HW222542   3.334   0.221   8.129  0.7661 -1.9167  1.2192
 3695SOL     OW22543   1.454   1.553   4.863  0.2541  0.9875 -0.2220
 3695SOL    HW122544   1.414   1.616   4.804  1.2182 -0.6581 -2.6166
 3695SOL    HW222545   1.482   1.492   4.795 -0.3588  0.3120  0.1217
 3696SOL     OW22546   1.814   1.905   1.653  0.5019  0.6398  0.3798
 3696SOL    HW122547   1.902   1.935   1.676  1.5392 -3.4567  1.7041
 3696SOL    HW222548   1.791   1.836   1.716  1.6147 -1.5420 -1.6086
 3697SOL     OW22549   1.689   0.878   3.684 -0.0192 -0.8097  0.0690
 3697SOL    HW122550   1.668   0.960   3.640 -2.3106 -0.9737  0.8550
 3697SOL    HW222551   1.684   0.817   3.610 -1.6040 -1.1252  0.4273
 3698SOL     OW22552   4.722   3.396  10.428 -0.8951 -0.3117  0.1975
 3698SOL    HW122553   4.628   3.409  10.439 -0.7558  0.7769  0.1013
 3698SOL    HW222554   0.016   3.490  10.424  0.6778 -0.5941  0.9392
 3699SOL     OW22555   2.208   0.622   9.196 -0.7949 -0.0527 -0.1726
 3699SOL    HW122556   2.185   0.699   9.248  0.4919  0.3530 -0.1923
 3699SOL    HW222557   2.270   0.660   9.133  1.0486 -2.1962  0.3293
 3700SOL     OW22558   1.926   1.851   7.457  0.1417  0.6475  0.2665
 3700SOL    HW122559   1.842   1.892   7.438 -0.0849 -0.1587 -0.4765
 3700SOL    HW222560   1.923   1.846   7.552 -0.3092 -1.6562  0.1305
 3701SOL     OW22561   1.496   2.338  13.810  0.6809 -0.0317  0.8267
 3701SOL    HW122562   1.540   2.385  13.881 -0.1114  0.4624  0.9946
 3701SOL    HW222563   1.510   2.405  13.743 -3.6114  1.4422  1.3908
 3702SOL     OW22564   4.385   2.669   3.751  0.0787  0.1042  0.1892
 3702SOL    HW122565   4.473   2.682   3.715  0.7798 -0.5642  1.6829
 3702SOL    HW222566   4.405   2.594   3.807 -1.7344 -0.3238  0.2703
 3703SOL     OW22567   1.370   0.861   7.615  0.0455 -0.3167 -0.9128
 3703SOL    HW122568   1.349   0.881   7.524  1.0925  0.4886 -0.9800
 3703SOL    HW222569   1.464   0.851   7.602  0.5364  2.0238  0.6869
 3704SOL     OW22570   4.035   4.548  10.206  0.2376  0.1003 -0.0726
 3704SOL    HW122571   3.962   4.536  10.267  0.3794 -0.6154 -0.0400
 3704SOL    HW222572   4.094   4.612  10.245 -1.3323  0.4593  1.7543
 3705SOL     OW22573   3.655   2.906   5.708  0.1258  0.4766 -0.6861
 3705SOL    HW122574   3.706   2.891   5.629 -0.2269  1.3816 -1.0815
 3705SOL    HW222575   3.632   2.999   5.706  0.9962  0.6759 -1.3015
 3706SOL     OW22576   1.195   0.254   7.687  0.0992  0.2454  0.3323
 3706SOL    HW122577   1.216   0.259   7.780 -2.5414  1.1472  0.8915
 3706SOL    HW222578   1.194   0.349   7.677  1.0112  0.3003  0.7556
 3707SOL     OW22579   1.778   3.498   2.244  0.2075  0.7294 -0.2372
 3707SOL    HW122580   1.747   3.441   2.315  0.5396 -0.1970 -0.8255
 3707SOL    HW222581   1.872   3.503   2.261 -0.4861  0.3965  3.6205
 3708SOL     OW22582   4.393   0.416   4.382 -0.0999 -0.4860 -0.3228
 3708SOL    HW122583   4.306   0.454   4.395  0.4758  1.0167 -0.8195
 3708SOL    HW222584   4.440   0.435   4.463 -0.1999 -2.4155  0.1953
 3709SOL     OW22585   2.599   1.860   8.739  0.1538 -0.4479  0.0376
 3709SOL    HW122586   2.504   1.850   8.738  0.1591 -0.3967 -1.4109
 3709SOL    HW222587   2.616   1.903   8.823 -1.5305  1.7218 -0.7190
 3710SOL     OW22588   2.994   2.514  11.665  0.2327  0.3098  0.4190
 3710SOL    HW122589   3.051   2.464  11.606 -0.4202  1.6814 -1.3682
 3710SOL    HW222590   3.053   2.553  11.729 -0.6005 -2.0021  2.5861
 3711SOL     OW22591   3.157   1.870   4.019  0.3516  0.5590 -0.0488
 3711SOL    HW122592   3.203   1.832   3.944 -0.0596 -0.0604  0.0220
 3711SOL    HW222593   3.222   1.937   4.042  1.5644 -0.1073 -1.5010
 3712SOL     OW22594   1.077   0.402   8.480 -0.1475  0.2606 -0.0406
 3712SOL    HW122595   1.025   0.326   8.504  1.4827 -0.5292  1.0253
 3712SOL    HW222596   1.015   0.474   8.471 -0.3442  0.2731  1.3789
 3713SOL     OW22597   4.039   0.119   6.081  0.1926  0.0757  0.1292
 3713SOL    HW122598   3.987   0.042   6.058 -1.3655  0.6092  1.8605
 3713SOL    HW222599   4.052   0.093   6.172 -0.7523 -0.0258  0.2319
 3714SOL     OW22600   0.181   3.624   2.622 -0.0802  0.3307 -0.4696
 3714SOL    HW122601   0.173   3.710   2.663 -0.1274  0.5964 -1.0437
 3714SOL    HW222602   0.257   3.578   2.657 -0.4442  0.2478  0.2168
 3715SOL     OW22603   1.080   1.674   4.370  0.0623 -0.0121 -0.5040
 3715SOL    HW122604   1.029   1.611   4.422  1.7377 -1.3224 -0.4504
 3715SOL    HW222605   1.013   1.711   4.312 -0.7436 -0.7640 -0.0594
 3716SOL     OW22606   0.630   0.211  14.042 -0.1910 -0.4376  0.3533
 3716SOL    HW122607   0.536   0.201  14.058 -0.4577  1.1053 -0.2866
 3716SOL    HW222608   0.640   0.297  14.001  1.2570 -0.2276  1.1428
 3717SOL     OW22609   1.548   1.086   0.940  0.2531  0.3039  0.5951
 3717SOL    HW122610   1.548   1.175   0.975 -1.9735  0.2216  0.7686
 3717SOL    HW222611   1.632   1.090   0.893 -0.0547  0.3870  0.0562
 3718SOL     OW22612   2.521   2.319   1.234 -0.4260  0.1407  0.1812
 3718SOL    HW122613   2.482   2.406   1.234  1.6322  1.0595  0.9268
 3718SOL    HW222614   2.611   2.334   1.262  0.4493 -0.1358 -2.5060
 3719SOL     OW22615   2.696   1.627   6.724  0.0270 -0.3191  0.0671
 3719SOL    HW122616   2.664   1.716   6.733  0.0670 -0.2625 -0.3261
 3719SOL    HW222617   2.718   1.604   6.814  0.2562 -0.9065 -0.1377
 3720SOL     OW22618   1.817   3.788  17.020 -0.8675 -0.0649  0.3995
 3720SOL    HW122619   1.843   3.737  16.943  0.3126  1.1504 -0.0169
 3720SOL    HW222620   1.733   3.753  17.048  0.0029 -1.6297  1.0048
 3721SOL     OW22621   3.112   1.225   4.905  0.0387 -0.7716  0.5289
 3721SOL    HW122622   3.037   1.173   4.879 -0.2248  0.1262 -0.5122
 3721SOL    HW222623   3.089   1.241   4.997  0.2711 -0.6469  0.5677
 3722SOL     OW22624   2.318   3.693   5.339  0.9760  1.0056  0.0421
 3722SOL    HW122625   2.363   3.616   5.303  0.9743  0.1025  1.9352
 3722SOL    HW222626   2.363   3.696   5.424  0.9077 -1.0000  0.1657
 3723SOL     OW22627   4.480   3.861   8.558  0.0265  0.3829  0.1807
 3723SOL    HW122628   4.385   3.852   8.564 -0.1155  1.6897 -0.2526
 3723SOL    HW222629   4.486   3.947   8.518  0.6347 -0.2984 -1.2088
 3724SOL     OW22630   4.484   4.173   8.378 -0.0247 -0.6349  0.1871
 3724SOL    HW122631   4.459   4.259   8.412  3.1807  1.1393 -2.0341
 3724SOL    HW222632   4.454   4.168   8.287 -0.5474  1.0284  0.2671
 3725SOL     OW22633   3.543   1.011  13.593  0.2273 -0.1065  0.6260
 3725SOL    HW122634   3.452   1.040  13.588  0.7055  0.6335 -3.3013
 3725SOL    HW222635   3.581   1.081  13.646 -1.6236  0.8107  0.7401
 3726SOL     OW22636   4.316   1.721   3.517 -0.5905 -0.0673  0.2294
 3726SOL    HW122637   4.323   1.806   3.473  0.6172  0.5821  1.6686
 3726SOL    HW222638   4.226   1.721   3.549 -0.1936 -0.2847  1.3337
 3727SOL     OW22639   0.369   3.545  17.312 -0.1061 -0.0949  0.3986
 3727SOL    HW122640   0.382   3.603  17.237  2.1349  0.4143  1.1745
 3727SOL    HW222641   0.282   3.515  17.286 -0.8109  2.3426 -0.0100
 3728SOL     OW22642   3.312   1.302   1.187  0.6126 -0.3853  0.1360
 3728SOL    HW122643   3.263   1.224   1.162 -0.6820 -0.1416  1.9342
 3728SOL    HW222644   3.243   1.340   1.241  0.3786 -0.6834  0.0478
 3729SOL     OW22645   3.689   1.818   5.037 -0.1174 -0.1067  0.2842
 3729SOL    HW122646   3.649   1.891   4.989 -0.6462 -0.2733  0.4718
 3729SOL    HW222647   3.619   1.753   5.045  0.1924 -0.5085 -0.3182
 3730SOL     OW22648   3.090   4.213   2.677  0.1651 -0.2588 -0.0492
 3730SOL    HW122649   3.058   4.136   2.724  0.9105 -0.4162  0.1925
 3730SOL    HW222650   3.092   4.179   2.587 -1.3591  1.7900 -0.8818
 3731SOL     OW22651   2.432   3.571  15.553 -0.3787  0.1657 -0.0576
 3731SOL    HW122652   2.476   3.515  15.616  0.8461  0.0572 -1.0133
 3731SOL    HW222653   2.399   3.649  15.599 -1.7574 -0.0324 -0.6961
 3732SOL     OW22654   2.414   2.028  13.411 -0.1827 -0.0969 -0.4910
 3732SOL    HW122655   2.441   1.937  13.423  0.3685  0.3810  1.9019
 3732SOL    HW222656   2.320   2.014  13.396 -0.1660  2.3762 -2.8755
 3733SOL     OW22657   4.495   1.516   4.949 -0.6512 -0.2210  0.0479
 3733SOL    HW122658   4.483   1.611   4.951  3.0579  0.2533 -0.7347
 3733SOL    HW222659   4.489   1.491   4.857 -2.7681 -0.8912  0.3657
 3734SOL     OW22660   0.672   0.907   8.351 -0.1885  0.5735  0.4272
 3734SOL    HW122661   0.681   0.826   8.301  2.8311  0.9826  0.2845
 3734SOL    HW222662   0.689   0.971   8.281  0.8601  1.8351  1.8238
 3735SOL     OW22663   3.034   3.887   7.149 -0.2955  0.1741  0.0967
 3735SOL    HW122664   3.006   3.973   7.116 -1.2943 -0.3511 -0.4254
 3735SOL    HW222665   2.956   3.863   7.199  0.2634 -1.0023  0.4031
 3736SOL     OW22666   0.047   2.266   6.864  0.3575 -0.5365 -0.7034
 3736SOL    HW122667   0.060   2.295   6.954 -2.9375 -3.7639  0.7877
 3736SOL    HW222668   0.034   2.351   6.822  2.1096 -0.4285 -1.0649
 3737SOL     OW22669   1.198   4.671   6.010 -0.1002  0.1770 -0.2837
 3737SOL    HW122670   1.178   0.033   6.047  0.6124  0.9419 -1.6613
 3737SOL    HW222671   1.273   4.690   5.953 -0.2720  0.2592 -0.4843
 3738SOL     OW22672   1.603   3.809   4.408 -0.6631 -0.1197  0.0297
 3738SOL    HW122673   1.553   3.733   4.377 -0.6522 -0.8535  1.7857
 3738SOL    HW222674   1.528   3.863   4.434  0.1879  0.4120  1.3581
 3739SOL     OW22675   2.875   1.040   8.911 -0.2496 -0.3818  0.2310
 3739SOL    HW122676   2.813   1.092   8.963  0.6469  0.5223  0.4055
 3739SOL    HW222677   2.880   0.957   8.957  2.2851 -0.4172 -0.1449
 3740SOL     OW22678   0.023   3.498  16.463 -0.0468 -0.2355  0.1986
 3740SOL    HW122679   0.077   3.427  16.498 -2.2907 -1.0797  1.9135
 3740SOL    HW222680   4.658   3.464  16.476 -0.1836 -0.0573 -0.2625
 3741SOL     OW22681   3.846   3.937   5.232  0.1934 -0.4125  0.2631
 3741SOL    HW122682   3.807   3.897   5.309 -1.1846 -0.6165 -0.5506
 3741SOL    HW222683   3.802   4.021   5.217  0.1801 -0.4991 -0.2079
 3742SOL     OW22684   3.095   4.131  10.105 -0.6051 -0.0498 -0.8363
 3742SOL    HW122685   3.033   4.166  10.040  0.9613  2.6270 -0.9086
 3742SOL    HW222686   3.081   4.194  10.175 -0.8530 -0.8296 -0.1892
 3743SOL     OW22687   0.270   1.624  16.267  1.0680  0.1364 -0.1031
 3743SOL    HW122688   0.306   1.592  16.184 -1.2332 -0.6215 -0.7876
 3743SOL    HW222689   0.243   1.541  16.304  0.7095 -0.3447 -1.4281
 3744SOL     OW22690   3.063   0.299  13.509 -0.0688  0.6614  0.1292
 3744SOL    HW122691   3.018   0.251  13.439  2.1217 -1.4614  0.1751
 3744SOL    HW222692   3.105   0.371  13.463 -2.4706  0.9424 -1.6670
 3745SOL     OW22693   0.778   1.548   2.719 -0.1547 -0.4592  0.5795
 3745SOL    HW122694   0.814   1.635   2.702  0.5557 -0.8332  0.1692
 3745SOL    HW222695   0.705   1.555   2.656  0.1835  3.1342  0.5788
 3746SOL     OW22696   2.734   0.814   3.606  0.6704  0.4814 -0.4879
 3746SOL    HW122697   2.658   0.786   3.555  1.6170 -0.7617 -1.2098
 3746SOL    HW222698   2.699   0.811   3.696 -1.7323  0.8756 -1.4120
 3747SOL     OW22699   2.195   2.316   5.609  0.0180  0.7871  0.1539
 3747SOL    HW122700   2.140   2.238   5.609  1.7942 -0.4701  1.2025
 3747SOL    HW222701   2.274   2.263   5.621 -0.5917  0.2919  2.0809
 3748SOL     OW22702   1.979   1.447  13.131  0.3978  0.0308  0.6093
 3748SOL    HW122703   2.051   1.392  13.099  0.0522 -0.9768  1.5600
 3748SOL    HW222704   1.931   1.468  13.051 -0.2582  1.2555  1.3357
 3749SOL     OW22705   3.046   0.800   7.303 -0.1378 -0.0765  0.1989
 3749SOL    HW122706   3.079   0.752   7.226 -0.2202 -1.8407  1.2487
 3749SOL    HW222707   2.969   0.840   7.263 -0.9660  0.5090  2.3805
 3750SOL     OW22708   1.374   4.440   1.064 -0.5704  0.3757 -0.2140
 3750SOL    HW122709   1.346   4.529   1.042  2.1139  1.3876  0.3766
 3750SOL    HW222710   1.468   4.451   1.078  0.1356 -3.4253 -2.1345
 3751SOL     OW22711   1.268   3.414   6.415  0.0162 -0.3988 -0.2307
 3751SOL    HW122712   1.176   3.437   6.405  0.3322  0.6489 -0.7367
 3751SOL    HW222713   1.289   3.406   6.322  0.0833  0.5251 -0.2969
 3752SOL     OW22714   2.862   1.366  12.073 -0.3922  0.4108  0.0741
 3752SOL    HW122715   2.802   1.435  12.103 -2.4253 -0.9647 -0.8758
 3752SOL    HW222716   2.895   1.403  11.991  0.9723  0.1635  0.5085
 3753SOL     OW22717   4.050   4.453  17.466 -0.0812 -0.4428  0.4691
 3753SOL    HW122718   4.009   4.539  17.481 -0.5004 -1.2070  3.8475
 3753SOL    HW222719   4.115   4.461  17.396 -1.2874 -2.1385 -0.8297
 3754SOL     OW22720   2.919   2.365  16.140 -0.2772 -0.5379  0.1424
 3754SOL    HW122721   2.970   2.389  16.063 -0.4090 -1.7740 -0.3286
 3754SOL    HW222722   2.857   2.438  16.137 -0.6667 -0.9625 -2.1605
 3755SOL     OW22723   2.489   0.260   2.571 -0.0019 -0.5861  0.6105
 3755SOL    HW122724   2.503   0.349   2.539  0.7449 -0.5249  1.1005
 3755SOL    HW222725   2.559   0.270   2.636 -0.8560  3.4915  0.9165
 3756SOL     OW22726   1.864   4.255   2.093  0.5869  0.0317  0.0527
 3756SOL    HW122727   1.857   4.318   2.165 -0.5954  0.1599 -0.1685
 3756SOL    HW222728   1.958   4.237   2.096  0.0898 -2.3570  1.4646
 3757SOL     OW22729   3.247   3.634   3.115 -0.5882  0.2423  0.3707
 3757SOL    HW122730   3.293   3.682   3.046 -3.1544  1.4209 -0.4954
 3757SOL    HW222731   3.317   3.576   3.145 -0.3752  0.2769 -0.0627
 3758SOL     OW22732   0.466   1.610   3.112  0.3403  0.1220  0.3426
 3758SOL    HW122733   0.553   1.635   3.082  0.4073  0.3219  0.6964
 3758SOL    HW222734   0.481   1.516   3.101  2.2057  0.2692  1.5301
 3759SOL     OW22735   2.612   3.942   0.645 -0.3144  0.6431 -0.4970
 3759SOL    HW122736   2.568   4.011   0.693 -0.3399 -1.7741  2.9526
 3759SOL    HW222737   2.563   3.870   0.686 -0.6591  0.0009 -2.0155
 3760SOL     OW22738   2.223   4.539   7.350  0.1619  0.4846  0.1447
 3760SOL    HW122739   2.299   4.499   7.308 -0.9589 -1.4903 -0.0104
 3760SOL    HW222740   2.152   4.477   7.334 -0.0034  0.7165 -0.0197
 3761SOL     OW22741   0.506   3.963  12.302  0.1892  0.0778  0.3506
 3761SOL    HW122742   0.546   3.935  12.220 -0.4357 -0.3646  0.1913
 3761SOL    HW222743   0.518   3.882  12.351 -0.0189 -0.1251  0.0646
 3762SOL     OW22744   3.169   2.586   7.074 -0.1543 -0.1565  0.0465
 3762SOL    HW122745   3.149   2.547   7.159 -1.5309 -1.5743 -0.9202
 3762SOL    HW222746   3.262   2.566   7.071  0.1257  1.2006 -0.0904
 3763SOL     OW22747   4.643   0.917  13.582 -0.9107  0.0040 -0.3639
 3763SOL    HW122748   4.698   0.841  13.597 -1.9336 -0.8388 -0.8753
 3763SOL    HW222749   4.685   0.959  13.507  0.3262 -0.6964 -0.0504
 3764SOL     OW22750   2.197   4.251   5.331 -0.1627 -0.1836  0.2160
 3764SOL    HW122751   2.199   4.279   5.239  1.8596 -0.2489  0.2215
 3764SOL    HW222752   2.198   4.158   5.306 -0.9032  0.0099 -0.5280
 3765SOL     OW22753   3.625   2.313  16.974 -0.3239 -0.3765 -0.0352
 3765SOL    HW122754   3.642   2.370  16.899 -0.8124  0.1865  0.2789
 3765SOL    HW222755   3.693   2.341  17.035 -2.4323  2.1206  1.1325
 3766SOL     OW22756   1.930   3.935   4.074 -0.2681 -0.2927  0.4116
 3766SOL    HW122757   1.897   3.845   4.072 -2.2228  0.4193  0.0427
 3766SOL    HW222758   1.902   3.966   4.160  0.0235 -3.2591  1.5653
 3767SOL     OW22759   3.721   0.161   8.554 -0.3188  0.0324 -0.6301
 3767SOL    HW122760   3.693   0.218   8.625  1.4683  0.6851 -0.4404
 3767SOL    HW222761   3.633   0.141   8.522 -0.7732  0.8585  0.1227
 3768SOL     OW22762   2.634   2.487  15.601  0.2434  0.3318  0.0198
 3768SOL    HW122763   2.642   2.494  15.696 -0.1596  0.5323  0.0404
 3768SOL    HW222764   2.688   2.411  15.581  0.5269  0.4902  0.1936
 3769SOL     OW22765   4.485   1.825   4.984 -0.1015  0.0169 -0.0133
 3769SOL    HW122766   4.580   1.815   4.981  0.1394  1.8193  2.1299
 3769SOL    HW222767   4.460   1.864   4.901 -3.2643  0.2631  1.0368
 3770SOL     OW22768   3.688   1.063   3.845 -0.4323 -0.0251  0.0098
 3770SOL    HW122769   3.682   1.086   3.752 -0.8179  1.4654  0.4153
 3770SOL    HW222770   3.680   1.148   3.888 -1.7617 -1.0129  1.7240
 3771SOL     OW22771   3.986   2.228  14.960 -0.8197 -0.0916  0.1914
 3771SOL    HW122772   3.924   2.207  14.890  0.7519 -1.2921 -0.8413
 3771SOL    HW222773   4.069   2.233  14.912 -0.2674  0.7593  1.2146
 3772SOL     OW22774   1.461   1.431   0.187 -0.3941  0.2973 -0.0285
 3772SOL    HW122775   1.407   1.475   0.252 -1.9146  3.2003 -3.2766
 3772SOL    HW222776   1.394   1.372   0.151 -0.7306  0.9556 -0.4663
 3773SOL     OW22777   3.936   2.040   6.948 -0.0262  0.4734 -0.0527
 3773SOL    HW122778   4.002   2.076   7.008  0.7171 -2.4540  0.8939
 3773SOL    HW222779   3.957   2.085   6.866 -2.1247 -0.7428 -1.2472
 3774SOL     OW22780   1.918   3.942   4.605  0.2294 -0.1725 -0.2002
 3774SOL    HW122781   1.883   3.874   4.662 -1.6223 -1.3559 -2.7542
 3774SOL    HW222782   1.946   4.006   4.671 -0.2874 -0.8322  0.6614
 3775SOL     OW22783   3.149   4.529   1.916  0.1138 -0.1790 -0.3373
 3775SOL    HW122784   3.107   4.448   1.946  1.0379 -0.0360  1.3419
 3775SOL    HW222785   3.146   4.587   1.991  1.0011  0.3187 -0.6823
 3776SOL     OW22786   1.520   1.148   9.671 -0.5107  0.1243  0.5274
 3776SOL    HW122787   1.585   1.092   9.629 -1.0094 -0.0645  0.0131
 3776SOL    HW222788   1.440   1.115   9.631  1.4426 -1.5418 -1.9969
 3777SOL     OW22789   3.755   0.759   6.286 -0.1561  0.1946  0.2482
 3777SOL    HW122790   3.766   0.664   6.296 -0.6360 -0.0031 -0.9750
 3777SOL    HW222791   3.667   0.774   6.322 -0.8129  1.6151 -1.9167
 3778SOL     OW22792   2.224   2.295  10.100 -0.1563  0.4892  0.1363
 3778SOL    HW122793   2.155   2.252  10.150 -1.5274  2.1182 -0.3787
 3778SOL    HW222794   2.189   2.316  10.014  0.0703 -2.6543 -0.7072
 3779SOL     OW22795   1.578   2.835   3.365  0.2640 -0.2073  0.0328
 3779SOL    HW122796   1.582   2.897   3.292  0.9096 -1.1513 -0.7395
 3779SOL    HW222797   1.505   2.779   3.337 -1.6662  2.4376 -0.1871
 3780SOL     OW22798   2.504   2.844  12.314 -0.7819  0.2328 -0.0934
 3780SOL    HW122799   2.464   2.892  12.241  0.0330 -0.9771 -1.3241
 3780SOL    HW222800   2.463   2.890  12.388  1.9855 -1.3363  2.4186
 3781SOL     OW22801   0.958   1.939   4.039  0.0539 -0.2389  0.2321
 3781SOL    HW122802   0.910   1.899   3.967 -2.4838  3.9165 -0.4043
 3781SOL    HW222803   0.986   2.027   4.013 -0.2621 -0.5506 -1.1761
 3782SOL     OW22804   3.194   1.418  14.335  0.0732  0.0032 -0.1110
 3782SOL    HW122805   3.285   1.393  14.318  0.0037  1.3155 -2.3641
 3782SOL    HW222806   3.190   1.467  14.253  1.1132 -0.6372 -0.5327
 3783SOL     OW22807   3.485   2.024   4.165  0.0855 -0.1456  0.2132
 3783SOL    HW122808   3.513   1.949   4.217 -0.5564 -0.7788 -0.3572
 3783SOL    HW222809   3.503   1.992   4.077  2.0466  0.3722  0.4316
 3784SOL     OW22810   4.445   2.790  11.105  0.0272 -0.0018 -0.1321
 3784SOL    HW122811   4.447   2.714  11.163 -1.0098  0.2834  0.2778
 3784SOL    HW222812   4.409   2.854  11.167  0.6249  1.2966 -1.1238
 3785SOL     OW22813   2.216   0.820   9.414  0.4622  0.6855 -0.2300
 3785SOL    HW122814   2.280   0.885   9.443 -1.0902  0.7281  3.1192
 3785SOL    HW222815   2.244   0.736   9.450  1.9147  1.7865  1.1649
 3786SOL     OW22816   3.380   1.265   6.489  0.4884  0.1692  0.2335
 3786SOL    HW122817   3.365   1.228   6.576 -0.5073 -0.2053 -0.0978
 3786SOL    HW222818   3.355   1.356   6.505  4.6148  1.4313 -0.6679
 3787SOL     OW22819   0.786   0.623  17.061 -0.5065 -0.1594 -0.9255
 3787SOL    HW122820   0.692   0.625  17.044 -0.5683 -0.0124 -0.5731
 3787SOL    HW222821   0.811   0.535  17.034  0.1034 -0.1524 -0.4077
 3788SOL     OW22822   1.481   2.575  14.182 -0.0735  0.5217 -0.1494
 3788SOL    HW122823   1.550   2.571  14.116  1.3694  0.6811  1.3406
 3788SOL    HW222824   1.427   2.498  14.162 -1.9411  1.9560 -0.6503
 3789SOL     OW22825   0.714   3.952  10.880 -0.4466  0.0943  0.0680
 3789SOL    HW122826   0.685   3.931  10.969 -2.3642  0.9527 -0.3542
 3789SOL    HW222827   0.789   4.010  10.896  0.9429 -1.0911 -2.2513
 3790SOL     OW22828   3.436   4.668   9.246  0.0117 -0.3171 -0.0861
 3790SOL    HW122829   3.501   4.608   9.281  0.3964  1.2984  1.9261
 3790SOL    HW222830   3.369   4.606   9.213 -0.0177 -1.2608  1.7510
 3791SOL     OW22831   4.192   1.578   6.786 -0.2038 -0.7496  0.0540
 3791SOL    HW122832   4.254   1.505   6.776  0.3040 -0.2749 -0.2743
 3791SOL    HW222833   4.115   1.534   6.822  2.7219 -4.1895  2.1884
 3792SOL     OW22834   0.812   0.729   7.936  0.3928  0.1855  0.3674
 3792SOL    HW122835   0.894   0.704   7.894  0.1388  0.3332 -0.2190
 3792SOL    HW222836   0.754   0.656   7.914  2.2817 -1.2424  0.1437
 3793SOL     OW22837   3.506   3.311   5.096  0.4337  0.0534 -0.2291
 3793SOL    HW122838   3.465   3.294   5.181  1.7023  1.0764  0.6026
 3793SOL    HW222839   3.509   3.406   5.087 -2.9725  0.2167  0.3835
 3794SOL     OW22840   2.200   1.501   6.606  0.0950  0.2674  0.2067
 3794SOL    HW122841   2.219   1.429   6.547  1.2025 -0.9324  2.0238
 3794SOL    HW222842   2.215   1.462   6.692  2.2249  1.5375  0.4067
 3795SOL     OW22843   1.864   0.320   2.976  0.5985  0.8527 -0.3305
 3795SOL    HW122844   1.781   0.306   3.022  0.1720  0.6869 -1.1515
 3795SOL    HW222845   1.837   0.389   2.915  0.6251  0.6248 -0.5989
 3796SOL     OW22846   1.092   4.222   4.307 -0.0313  0.0242 -0.7171
 3796SOL    HW122847   1.062   4.243   4.218 -0.3197  0.5751 -0.4905
 3796SOL    HW222848   1.182   4.249   4.290 -0.6047  1.5700 -1.2899
 3797SOL     OW22849   2.893   4.234   0.674  0.1596  0.3162  0.1669
 3797SOL    HW122850   2.893   4.275   0.587 -0.2131 -1.4914 -0.6780
 3797SOL    HW222851   2.961   4.168   0.663  1.1501  1.7774 -2.4113
 3798SOL     OW22852   4.166   3.580   4.443  0.0259  0.0970 -0.0310
 3798SOL    HW122853   4.154   3.585   4.538 -1.3763 -0.9383 -0.1554
 3798SOL    HW222854   4.126   3.664   4.421 -0.3082 -0.1767 -0.4664
 3799SOL     OW22855   0.986   3.712   3.724 -0.4149 -0.0152  0.3742
 3799SOL    HW122856   1.003   3.702   3.818 -0.0139 -2.3050  0.0561
 3799SOL    HW222857   0.926   3.786   3.714 -2.7754 -2.1101 -0.8914
 3800SOL     OW22858   2.376   2.613  11.001 -0.2835 -0.2665  0.2908
 3800SOL    HW122859   2.465   2.619  10.967 -1.6899  0.4538 -3.2643
 3800SOL    HW222860   2.314   2.620  10.929 -0.4345 -0.3203  0.4152
 3801SOL     OW22861   4.515   0.623   0.368 -0.1184 -0.6729 -0.1453
 3801SOL    HW122862   4.572   0.552   0.341  0.5675 -0.8255  1.7208
 3801SOL    HW222863   4.464   0.574   0.433  1.1630 -0.0858  1.3091
 3802SOL     OW22864   1.600   0.725   5.379  0.4643 -0.4420 -0.2629
 3802SOL    HW122865   1.684   0.749   5.418 -0.9151  3.8296  0.1430
 3802SOL    HW222866   1.588   0.805   5.327 -1.2054 -0.6088 -0.1603
 3803SOL     OW22867   1.132   2.658   7.297  0.0710  0.6503  0.1640
 3803SOL    HW122868   1.124   2.680   7.389 -0.8683 -2.5038  0.8569
 3803SOL    HW222869   1.192   2.583   7.300 -1.0024 -0.2104  0.2600
 3804SOL     OW22870   2.585   0.968   0.081  0.1257  0.1742 -0.0260
 3804SOL    HW122871   2.617   1.058   0.085 -1.0321  0.4485  2.9846
 3804SOL    HW222872   2.611   0.926   0.163 -1.2576 -2.4137 -0.8845
 3805SOL     OW22873   0.103   3.166  11.870  0.5139 -0.1690  0.4259
 3805SOL    HW122874   0.052   3.218  11.809  0.0439 -0.1126  0.8682
 3805SOL    HW222875   0.188   3.209  11.859  0.9322 -1.1664 -0.2988
 3806SOL     OW22876   3.261   2.566  11.814 -0.0151 -0.1916  0.1388
 3806SOL    HW122877   3.354   2.563  11.791 -0.6461  0.0569 -2.5220
 3806SOL    HW222878   3.239   2.476  11.835  0.4987 -0.7250 -1.6149
 3807SOL     OW22879   0.719   1.356   2.348  0.1374 -0.1016  0.4811
 3807SOL    HW122880   0.642   1.340   2.293  1.3620  1.4152 -1.7193
 3807SOL    HW222881   0.788   1.324   2.289 -1.1362 -1.0109 -0.5120
 3808SOL     OW22882   2.091   0.197  16.177 -0.1303  0.5867  0.2062
 3808SOL    HW122883   2.029   0.267  16.198 -0.5896 -0.2470  1.6744
 3808SOL    HW222884   2.131   0.181  16.262  0.1742  1.2147  0.1733
 3809SOL     OW22885   4.392   2.033  16.199 -0.0862  0.1667 -0.9133
 3809SOL    HW122886   4.365   1.942  16.215 -1.7647  1.0969  1.5973
 3809SOL    HW222887   4.303   2.067  16.214  0.4533  1.6516 -1.1656
 3810SOL     OW22888   3.927   3.970   6.081  0.5662 -0.0014 -0.0675
 3810SOL    HW122889   3.837   4.003   6.085  0.2326 -0.7060 -1.6200
 3810SOL    HW222890   3.924   3.906   6.010 -2.7473  0.7936 -0.6783
 3811SOL     OW22891   2.123   0.239  13.303 -0.8563 -0.0817  0.0789
 3811SOL    HW122892   2.175   0.300  13.356 -0.3510  0.5019 -1.0795
 3811SOL    HW222893   2.172   0.223  13.222 -1.9510 -1.7292 -0.2486
 3812SOL     OW22894   1.907   2.102   1.062  0.4416 -0.2415 -0.1836
 3812SOL    HW122895   1.900   2.082   1.155 -1.4011  0.6829 -0.1259
 3812SOL    HW222896   1.941   2.191   1.058 -0.0236 -0.1714 -2.7458
 3813SOL     OW22897   0.538   3.398  15.249  0.2536 -0.1489  0.0604
 3813SOL    HW122898   0.500   3.471  15.297  0.7281  1.4651 -1.9833
 3813SOL    HW222899   0.631   3.419  15.256 -0.3437  2.0369  1.4485
 3814SOL     OW22900   2.402   0.169   1.054  0.4200  0.3215  0.6006
 3814SOL    HW122901   2.388   0.181   1.148 -0.6905 -0.4695  0.5486
 3814SOL    HW222902   2.370   0.079   1.043 -2.5408  0.9402  4.1727
 3815SOL     OW22903   3.278   4.023  11.278 -0.2960  0.1432  0.4122
 3815SOL    HW122904   3.367   4.012  11.312  0.6478 -1.8189 -2.7786
 3815SOL    HW222905   3.223   3.994  11.351  0.6476 -0.9178  0.6962
 3816SOL     OW22906   2.187   2.507   9.833 -0.2771  0.0838  0.6716
 3816SOL    HW122907   2.186   2.597   9.802 -1.9675 -0.2853 -0.3334
 3816SOL    HW222908   2.280   2.502   9.854 -0.3468 -2.0983  0.4974
 3817SOL     OW22909   1.100   4.452   3.141 -0.8481 -0.4262  1.1900
 3817SOL    HW122910   1.098   4.533   3.191  0.0214  0.2229  0.1834
 3817SOL    HW222911   1.005   4.437   3.142 -1.0261  0.5869 -0.5891
 3818SOL     OW22912   0.230   0.938   1.952 -0.3747  0.6942 -0.4324
 3818SOL    HW122913   0.183   1.018   1.932  0.7385  0.9456 -2.0680
 3818SOL    HW222914   0.295   0.969   2.015 -0.9233 -2.1702  1.5804
 3819SOL     OW22915   2.431   1.802   3.367 -0.1447 -0.0033  0.4464
 3819SOL    HW122916   2.495   1.859   3.410  0.0218 -0.6751  1.0976
 3819SOL    HW222917   2.399   1.758   3.446  0.7917 -0.2843  0.6658
 3820SOL     OW22918   2.587   0.678   9.639 -0.0441 -0.3396  0.5315
 3820SOL    HW122919   2.665   0.685   9.583 -0.4578 -0.9038 -0.1183
 3820SOL    HW222920   2.616   0.632   9.717 -0.1842 -3.6058 -1.3497
 3821SOL     OW22921   4.262   1.445   4.415 -0.0653  0.2617 -0.4186
 3821SOL    HW122922   4.268   1.491   4.499  0.8773 -0.9895  0.1981
 3821SOL    HW222923   4.198   1.498   4.367  0.1356  0.2119 -0.7397
 3822SOL     OW22924   3.788   4.724   4.641 -0.2168 -0.5327  0.2717
 3822SOL    HW122925   3.695   4.705   4.625 -0.1692  0.4793 -1.1578
 3822SOL    HW222926   3.819   4.633   4.641  1.2612 -0.0166  0.8302
 3823SOL     OW22927   2.076   3.254   5.516 -0.1999  0.2035 -0.5268
 3823SOL    HW122928   2.133   3.331   5.506  1.0040 -0.8386 -1.7330
 3823SOL    HW222929   2.136   3.184   5.490  2.3650  1.6290  1.5352
 3824SOL     OW22930   1.177   3.018   8.551  0.1663  0.3908  0.3940
 3824SOL    HW122931   1.231   2.954   8.504 -1.1829  0.0735 -0.7174
 3824SOL    HW222932   1.170   3.079   8.478  0.9403  1.6093  1.3305
 3825SOL     OW22933   0.503   3.929  14.182 -0.8853  0.1568 -0.2005
 3825SOL    HW122934   0.468   3.879  14.256 -0.2203  0.1852  0.1335
 3825SOL    HW222935   0.558   3.865  14.137 -2.6812  0.1737 -2.4032
 3826SOL     OW22936   3.917   0.306  14.001 -0.2076  0.1099  0.3261
 3826SOL    HW122937   4.004   0.342  13.985 -0.2361  0.1449  0.2502
 3826SOL    HW222938   3.874   0.347  13.926 -0.4721  1.1683  1.0522
 3827SOL     OW22939   4.446   3.856   6.239  0.1020 -0.3583 -0.8714
 3827SOL    HW122940   4.484   3.774   6.269  1.6597  1.6214  2.6663
 3827SOL    HW222941   4.427   3.835   6.148  0.2286  0.9180 -1.1919
 3828SOL     OW22942   3.158   1.773   1.105 -0.5273  0.1871 -0.2030
 3828SOL    HW122943   3.131   1.796   1.194 -0.7559 -0.3770 -0.1291
 3828SOL    HW222944   3.112   1.831   1.044 -2.9463 -1.2803  0.2446
 3829SOL     OW22945   3.645   1.931   4.624 -0.1317  0.4027 -0.3445
 3829SOL    HW122946   3.722   1.874   4.628 -0.2625  0.2605  0.1614
 3829SOL    HW222947   3.633   1.954   4.716 -1.9997 -0.3686 -0.3825
 3830SOL     OW22948   3.318   2.444   9.716  0.0695 -0.0241 -0.4762
 3830SOL    HW122949   3.245   2.405   9.764  0.8932 -0.2215  0.6328
 3830SOL    HW222950   3.338   2.374   9.654 -0.2151 -1.0924  0.6419
 3831SOL     OW22951   0.835   4.398  12.826  0.2859 -0.4189  0.0265
 3831SOL    HW122952   0.829   4.315  12.873  0.1081  0.1466  1.0041
 3831SOL    HW222953   0.746   4.402  12.791  0.7656  1.0464 -1.0660
 3832SOL     OW22954   0.049   2.917   7.475  0.0039  0.4259 -0.4190
 3832SOL    HW122955   0.052   2.979   7.403 -4.2449  1.2304  0.0734
 3832SOL    HW222956   4.684   2.882   7.477 -0.1988  0.9445 -0.5458
 3833SOL     OW22957   3.431   0.549   0.972 -0.1410  0.3599 -0.1802
 3833SOL    HW122958   3.349   0.509   0.944 -0.1728  0.4992 -0.2865
 3833SOL    HW222959   3.459   0.497   1.048 -0.7866  3.5337  2.2095
 3834SOL     OW22960   1.135   3.164  16.926 -0.3195 -0.3278 -0.3708
 3834SOL    HW122961   1.170   3.199  17.008 -1.6321 -0.3462  0.2142
 3834SOL    HW222962   1.087   3.090  16.963  1.8355 -0.8040  1.4594
 3835SOL     OW22963   0.391   2.306   0.490  0.1642  0.2844 -0.4681
 3835SOL    HW122964   0.458   2.271   0.431 -1.4357 -0.9838 -1.5381
 3835SOL    HW222965   0.409   2.400   0.486  0.5746  0.2647  0.9320
 3836SOL     OW22966   3.076   1.361   6.924  0.7144 -0.3184 -0.1583
 3836SOL    HW122967   3.147   1.424   6.915  0.9998 -1.0571 -2.9150
 3836SOL    HW222968   3.017   1.411   6.980  0.0901 -0.9854 -0.2302
 3837SOL     OW22969   3.200   2.313   7.934  0.1136 -0.8044  0.1528
 3837SOL    HW122970   3.277   2.257   7.923 -1.0880 -2.4835  0.2798
 3837SOL    HW222971   3.173   2.270   8.016  0.4484 -2.9047 -0.8252
 3838SOL     OW22972   1.025   0.475   5.715  0.4773  0.0413 -0.2467
 3838SOL    HW122973   1.024   0.412   5.643  1.0037  1.0383 -1.1289
 3838SOL    HW222974   1.111   0.453   5.753 -0.4782 -1.2482  1.1683
 3839SOL     OW22975   0.457   0.704   6.365  0.2251 -0.0223  0.6929
 3839SOL    HW122976   0.489   0.723   6.453  0.3447 -1.6575  1.0040
 3839SOL    HW222977   0.449   0.609   6.371 -1.6277  0.0269 -0.8707
 3840SOL     OW22978   2.193   0.207   2.661  0.0348  0.3330 -0.4778
 3840SOL    HW122979   2.269   0.261   2.641  1.4760 -0.9786  1.5468
 3840SOL    HW222980   2.122   0.272   2.659  0.3131  0.6547  0.0037
 3841SOL     OW22981   0.030   2.364   8.121 -0.1928 -0.0115  0.1856
 3841SOL    HW122982   0.072   2.320   8.047 -0.1727 -1.3131  0.9688
 3841SOL    HW222983   4.666   2.394   8.097  0.0605 -0.6082 -1.5135
 3842SOL     OW22984   0.352   2.590   3.914 -0.9235  0.1904 -0.4600
 3842SOL    HW122985   0.310   2.531   3.851  2.5416 -2.7098 -0.1012
 3842SOL    HW222986   0.440   2.594   3.875 -0.9684 -2.6580 -0.8609
 3843SOL     OW22987   0.239   3.376  16.648 -0.8004 -0.3593  0.6907
 3843SOL    HW122988   0.171   3.316  16.679 -0.4024  0.1807  2.5506
 3843SOL    HW222989   0.213   3.463  16.679 -0.0207  0.7237 -1.6976
 3844SOL     OW22990   2.178   3.183   5.089 -0.3480 -0.0221 -0.0027
 3844SOL    HW122991   2.228   3.199   5.009  0.7658  2.5153  1.2157
 3844SOL    HW222992   2.177   3.274   5.118  1.7063 -0.1048  0.2746
 3845SOL     OW22993   0.591   0.730   2.409 -0.0336  0.0279 -0.2630
 3845SOL    HW122994   0.638   0.806   2.374 -0.2568 -1.6379 -4.1676
 3845SOL    HW222995   0.569   0.688   2.325 -2.4074  0.4555  0.1475
 3846SOL     OW22996   0.748   1.217  12.804  0.4149  1.0775 -0.3025
 3846SOL    HW122997   0.706   1.143  12.848 -0.6343  0.8015 -1.7596
 3846SOL    HW222998   0.798   1.252  12.878  2.1636 -0.7615 -0.6119
 3847SOL     OW22999   1.550   0.692   2.804  0.3109  0.5554 -0.3794
 3847SOL    HW123000   1.492   0.632   2.757 -0.7858  1.0518  0.3576
 3847SOL    HW223001   1.496   0.723   2.877 -3.3722 -0.4461 -2.7114
 3848SOL     OW23002   1.626   2.675  12.332 -0.4612  0.6501 -0.7409
 3848SOL    HW123003   1.577   2.729  12.395  1.5328 -0.7422  2.0428
 3848SOL    HW223004   1.604   2.730  12.257  0.0357  0.5857 -0.9346
 3849SOL     OW23005   1.135   0.031   8.461  0.0555 -0.3575  0.1601
 3849SOL    HW123006   1.176   0.115   8.481 -0.2247 -0.1154 -0.3024
 3849SOL    HW223007   1.050   0.043   8.503  0.3667 -0.7325  0.9111
 3850SOL     OW23008   4.042   3.873   2.130  0.5453 -0.0342 -0.5093
 3850SOL    HW123009   4.066   3.865   2.222  2.1224  0.0186 -0.9080
 3850SOL    HW223010   3.948   3.884   2.132  0.5065 -0.4787  0.0611
 3851SOL     OW23011   2.807   1.471  16.505 -0.4504  0.1081 -0.3857
 3851SOL    HW123012   2.852   1.518  16.435  3.3958 -2.0559  0.5915
 3851SOL    HW223013   2.786   1.538  16.569  0.8732 -0.0316  0.1869
 3852SOL     OW23014   2.041   2.945   5.137 -0.2874 -0.9866 -0.0327
 3852SOL    HW123015   2.060   2.911   5.050 -1.0646  1.3434 -1.1275
 3852SOL    HW223016   2.067   3.037   5.129 -0.1625 -0.8914  1.6227
 3853SOL     OW23017   2.339   4.538   3.839  0.0160 -0.4564 -0.1798
 3853SOL    HW123018   2.261   4.548   3.784 -1.1090  2.5443  1.9643
 3853SOL    HW223019   2.411   4.533   3.777 -0.6086  1.2346 -1.0567
 3854SOL     OW23020   0.389   0.644   3.896 -0.2675 -0.2907 -0.2589
 3854SOL    HW123021   0.336   0.716   3.862  1.8943  1.3325 -0.1463
 3854SOL    HW223022   0.388   0.601   3.810 -2.0383  0.5524 -0.6752
 3855SOL     OW23023   1.751   3.670   6.426  0.0019  0.0130  0.3392
 3855SOL    HW123024   1.844   3.649   6.439  0.1366  0.9203  0.8226
 3855SOL    HW223025   1.751   3.747   6.368  0.2802 -0.8339 -0.7973
 3856SOL     OW23026   1.403   1.679  17.206 -0.1640 -0.6521  0.3514
 3856SOL    HW123027   1.482   1.696  17.156 -0.3569 -2.1983 -0.4732
 3856SOL    HW223028   1.354   1.757  17.181  1.1821 -0.0796 -0.4645
 3857SOL     OW23029   2.917   2.186  11.635  0.0829 -0.0279 -0.1387
 3857SOL    HW123030   2.933   2.203  11.728 -2.0305  0.7241  0.0784
 3857SOL    HW223031   2.999   2.222  11.602  0.5300 -0.8889  0.0298
 3858SOL     OW23032   2.368   2.466   1.986 -0.2798 -0.3228  0.3316
 3858SOL    HW123033   2.372   2.425   2.073  2.5871  0.9496  0.7982
 3858SOL    HW223034   2.309   2.540   2.003 -1.1000 -0.7599 -0.5832
 3859SOL     OW23035   4.445   3.361   5.804 -0.3438  0.7149  0.3396
 3859SOL    HW123036   4.381   3.389   5.869 -0.4264  1.1971  0.0452
 3859SOL    HW223037   4.391   3.293   5.764  1.6966 -1.6576  1.6066
 3860SOL     OW23038   2.142   2.958   8.664  0.1415  0.6055  0.3880
 3860SOL    HW123039   2.101   3.041   8.688  0.1991  0.6839  0.2165
 3860SOL    HW223040   2.079   2.938   8.595 -2.8062 -0.5881  3.4400
 3861SOL     OW23041   2.236   1.244   9.019  0.6612  0.2553 -0.1864
 3861SOL    HW123042   2.197   1.254   9.106  1.8560 -0.4913  0.4412
 3861SOL    HW223043   2.212   1.151   9.011  0.3553  0.3027  0.2148
 3862SOL     OW23044   2.975   2.224   6.912 -0.4187  0.9564  0.2163
 3862SOL    HW123045   2.975   2.203   6.819  1.6664 -0.1156  0.4509
 3862SOL    HW223046   3.068   2.236   6.934  0.6095 -2.4769 -2.1157
 3863SOL     OW23047   3.275   0.088   6.721 -0.4097  0.3681 -0.4316
 3863SOL    HW123048   3.315   0.004   6.700 -1.2813 -0.5599  1.6081
 3863SOL    HW223049   3.352   0.121   6.768  0.0565 -0.6111 -0.5217
 3864SOL     OW23050   0.197   1.420   2.053 -0.2356 -0.2975  0.1254
 3864SOL    HW123051   0.292   1.410   2.059 -0.2428 -0.2161  0.3788
 3864SOL    HW223052   0.187   1.487   1.986 -1.5390  0.3114  0.9302
 3865SOL     OW23053   0.657   4.138   9.660  0.0542 -0.1445 -0.2210
 3865SOL    HW123054   0.562   4.131   9.671 -0.2410  3.3818 -0.2954
 3865SOL    HW223055   0.665   4.218   9.607 -1.4120 -0.0430 -0.3067
 3866SOL     OW23056   1.311   4.341  10.204  0.2197 -0.4010  0.8377
 3866SOL    HW123057   1.270   4.420  10.237 -2.5314 -2.0503  1.3675
 3866SOL    HW223058   1.382   4.383  10.156  1.2008 -2.2936  0.6047
 3867SOL     OW23059   3.805   1.703   5.508  0.8292  0.6539  0.3780
 3867SOL    HW123060   3.821   1.666   5.422 -1.8820 -1.4457  0.7801
 3867SOL    HW223061   3.819   1.627   5.563  1.7613 -1.0070 -2.1567
 3868SOL     OW23062   0.632   0.288  11.957  0.4344  0.0156 -0.3740
 3868SOL    HW123063   0.662   0.352  11.893  0.4635  1.1694  0.7826
 3868SOL    HW223064   0.682   0.210  11.932 -0.0815  0.5723 -3.1426
 3869SOL     OW23065   1.122   3.739  16.414 -0.3625  0.1145 -0.4184
 3869SOL    HW123066   1.054   3.672  16.427 -0.1607 -0.0499 -0.2101
 3869SOL    HW223067   1.076   3.795  16.351  0.2349  1.5350  0.4251
 3870SOL     OW23068   1.696   2.569   3.432  0.7499 -0.5173 -0.2577
 3870SOL    HW123069   1.643   2.648   3.425  0.5181 -0.3954  3.0341
 3870SOL    HW223070   1.786   2.601   3.429  0.3940  0.4765 -0.2797
 3871SOL     OW23071   1.951   1.571   4.944  0.5057 -0.6799 -0.3275
 3871SOL    HW123072   1.908   1.655   4.930  1.9779  0.0926 -0.1961
 3871SOL    HW223073   1.896   1.517   4.888  0.9913 -1.1715 -0.3269
 3872SOL     OW23074   1.279   2.636   7.085  0.0195 -0.0760 -0.0959
 3872SOL    HW123075   1.349   2.699   7.104  0.1550 -1.2644  3.2985
 3872SOL    HW223076   1.204   2.660   7.140  0.0754 -0.6697  0.2352
 3873SOL     OW23077   1.940   0.253  11.108 -0.0330 -0.3692  0.0992
 3873SOL    HW123078   1.927   0.327  11.167 -0.5224 -1.0855  0.8856
 3873SOL    HW223079   1.898   0.192  11.169 -2.9995  0.0194 -1.5704
 3874SOL     OW23080   1.535   1.570  15.403  0.2291 -0.1071  0.5204
 3874SOL    HW123081   1.493   1.629  15.466  0.7605 -0.0682  0.8318
 3874SOL    HW223082   1.627   1.596  15.410  0.3925 -0.4346 -0.3987
 3875SOL     OW23083   2.280   0.005   6.219  0.0079 -0.0638 -0.4549
 3875SOL    HW123084   2.302   0.055   6.298 -0.1065 -0.9112  0.1070
 3875SOL    HW223085   2.186   0.021   6.227 -0.3571 -1.6202 -1.7848
 3876SOL     OW23086   3.966   4.183   2.899  0.1441 -0.3479  0.2750
 3876SOL    HW123087   3.945   4.274   2.917 -2.6906 -0.8921 -0.4002
 3876SOL    HW223088   4.001   4.163   2.986 -1.3285 -0.3959  0.8467
 3877SOL     OW23089   3.236   3.531   3.892 -0.1566  0.0506 -0.5200
 3877SOL    HW123090   3.288   3.577   3.826  0.1217  1.2077  0.4909
 3877SOL    HW223091   3.277   3.446   3.882 -1.3296 -0.6539  0.6117
 3878SOL     OW23092   2.611   1.948  15.328  0.0302 -0.6874  0.5065
 3878SOL    HW123093   2.646   1.997  15.254 -0.5489  1.3311  1.5562
 3878SOL    HW223094   2.691   1.914  15.369 -0.0361 -1.5430 -0.0726
 3879SOL     OW23095   4.452   3.756   7.412 -0.2461  0.1271  0.1072
 3879SOL    HW123096   4.515   3.781   7.344  0.9747 -0.4617  1.0248
 3879SOL    HW223097   4.512   3.757   7.486 -1.0685 -0.4667  0.7855
 3880SOL     OW23098   4.516   2.232   7.570  0.7857 -0.2348  0.1976
 3880SOL    HW123099   4.602   2.204   7.538 -0.0824 -3.0873  0.3977
 3880SOL    HW223100   4.517   2.195   7.658 -0.0647 -0.3983  0.1337
 3881SOL     OW23101   3.366   2.661   2.577  0.2549  0.2175  0.1605
 3881SOL    HW123102   3.450   2.651   2.623  0.6608 -0.5892 -0.7716
 3881SOL    HW223103   3.343   2.754   2.584 -1.3387 -0.1025 -0.9944
 3882SOL     OW23104   4.514   2.211   3.472  0.2530 -0.0031  1.0779
 3882SOL    HW123105   4.492   2.118   3.462 -0.7658  0.5029 -1.2235
 3882SOL    HW223106   4.442   2.255   3.428  0.3302 -0.5691  0.4003
 3883SOL     OW23107   3.661   4.183   2.883  0.3304  0.3067  0.0004
 3883SOL    HW123108   3.708   4.106   2.915 -0.7883 -0.1174  0.6497
 3883SOL    HW223109   3.572   4.149   2.868  0.5967  0.5561 -2.0808
 3884SOL     OW23110   0.366   1.231   1.606 -0.8674  0.3204 -0.2686
 3884SOL    HW123111   0.301   1.301   1.604  0.5558  1.7063  1.7154
 3884SOL    HW223112   0.306   1.159   1.625  0.3927 -0.0663  2.2344
 3885SOL     OW23113   3.245   0.557   9.104 -0.6407 -0.7170  0.3066
 3885SOL    HW123114   3.178   0.520   9.161 -2.7578  0.0942 -1.6539
 3885SOL    HW223115   3.251   0.484   9.042 -2.1802 -1.0622  0.5578
 3886SOL     OW23116   0.068   2.606   4.179  0.3420 -0.4968 -0.1392
 3886SOL    HW123117   0.093   2.541   4.244 -0.8483 -0.8849 -0.0575
 3886SOL    HW223118   4.712   2.639   4.221  0.0091 -1.2528 -0.1914
 3887SOL     OW23119   4.242   2.733  12.418  0.1729 -0.5591  0.0908
 3887SOL    HW123120   4.327   2.710  12.454 -0.1224  0.5366  1.4833
 3887SOL    HW223121   4.207   2.645  12.403  1.8066 -1.1505 -0.2674
 3888SOL     OW23122   0.758   1.169   8.589 -0.3909 -0.4996  0.5948
 3888SOL    HW123123   0.853   1.183   8.593 -0.8251  2.3592  0.2802
 3888SOL    HW223124   0.734   1.235   8.524 -0.3764 -0.8746  0.2051
 3889SOL     OW23125   4.087   2.542   5.045  0.4344  0.1553 -0.1990
 3889SOL    HW123126   4.172   2.510   5.075  0.1438 -1.1746 -0.7947
 3889SOL    HW223127   4.085   2.633   5.076  0.1041  0.6354 -1.6363
 3890SOL     OW23128   0.826   4.096   7.707 -0.0095 -0.5894 -0.1071
 3890SOL    HW123129   0.742   4.123   7.744 -0.5910 -1.1294 -1.0167
 3890SOL    HW223130   0.833   4.002   7.725  0.4900 -0.8480 -1.6567
 3891SOL     OW23131   2.703   3.464   8.701  0.3332  0.2495 -0.1312
 3891SOL    HW123132   2.721   3.546   8.747 -0.7397  0.0885  0.5899
 3891SOL    HW223133   2.672   3.410   8.774 -3.3138  1.3321 -0.8740
 3892SOL     OW23134   0.717   3.208  14.238  0.2698 -0.0895 -0.2621
 3892SOL    HW123135   0.697   3.114  14.240  0.1372 -0.0242  1.6041
 3892SOL    HW223136   0.781   3.205  14.167 -0.1332  2.0809 -0.6954
 3893SOL     OW23137   2.954   4.522   6.882 -0.0286  0.6557  0.0589
 3893SOL    HW123138   2.904   4.441   6.894  0.2776  0.3726 -0.5484
 3893SOL    HW223139   3.043   4.485   6.887 -0.4223 -0.3741 -0.4081
 3894SOL     OW23140   0.333   0.951   6.196 -0.4809 -0.1165  0.3075
 3894SOL    HW123141   0.308   1.014   6.128 -0.3517 -0.3459  0.0477
 3894SOL    HW223142   0.296   0.992   6.274  1.8155  1.7872  0.4024
 3895SOL     OW23143   4.026   2.291  15.864 -0.2291  0.5509 -0.3340
 3895SOL    HW123144   4.065   2.266  15.780 -0.1536 -0.2933 -0.0468
 3895SOL    HW223145   4.088   2.355  15.900  0.9460 -0.5092 -0.4444
 3896SOL     OW23146   1.628   2.074   8.014 -0.7545 -0.1414  0.0331
 3896SOL    HW123147   1.668   1.992   7.985  0.7892  0.1869  1.2570
 3896SOL    HW223148   1.660   2.077   8.104 -3.8669  2.2114  1.0779
 3897SOL     OW23149   3.412   0.464   1.878 -0.5500 -0.4416 -0.0048
 3897SOL    HW123150   3.450   0.520   1.946  0.7273  0.2596 -1.3163
 3897SOL    HW223151   3.490   0.424   1.842 -0.9122 -0.8550 -0.3296
 3898SOL     OW23152   3.646   3.770   8.526  0.6034 -0.2147  0.1078
 3898SOL    HW123153   3.627   3.704   8.593 -0.6240 -0.7329 -0.7369
 3898SOL    HW223154   3.566   3.823   8.535  1.2597  0.4213  2.2516
 3899SOL     OW23155   3.835   1.526   2.470  0.1279  0.7733 -0.3106
 3899SOL    HW123156   3.885   1.528   2.551 -0.0092  2.5460 -0.2708
 3899SOL    HW223157   3.896   1.488   2.406 -0.6899 -3.0077  1.1861
 3900SOL     OW23158   4.595   3.722   8.343  0.2892 -0.1672 -0.4282
 3900SOL    HW123159   4.536   3.691   8.274  0.6448 -0.5972 -0.5393
 3900SOL    HW223160   4.528   3.746   8.408 -0.2205  0.4561 -1.1891
 3901SOL     OW23161   3.922   2.444  10.167 -0.6523  0.0180  0.1185
 3901SOL    HW123162   3.840   2.407  10.199 -0.7137  0.0882  0.0423
 3901SOL    HW223163   3.892   2.495  10.092 -1.4650  1.3059  1.3196
 3902SOL     OW23164   2.870   0.685  13.609  0.4133 -0.1899 -0.3241
 3902SOL    HW123165   2.942   0.669  13.548  0.0277  0.7401 -1.0202
 3902SOL    HW223166   2.803   0.718  13.550 -0.5937 -1.0364  0.3476
 3903SOL     OW23167   1.171   1.925   3.352 -0.6685  0.2114 -0.6764
 3903SOL    HW123168   1.198   2.016   3.339 -0.8111  0.4313  0.5625
 3903SOL    HW223169   1.205   1.876   3.277 -1.0563  0.9005 -1.2881
 3904SOL     OW23170   1.413   3.976   4.505  0.2283 -0.6298  0.3301
 3904SOL    HW123171   1.333   3.973   4.454  0.6194 -0.9062 -0.2659
 3904SOL    HW223172   1.407   4.066   4.535 -0.3235 -0.6867  0.3955
 3905SOL     OW23173   3.631   0.927   3.079  0.0413  0.3528 -0.0832
 3905SOL    HW123174   3.618   0.968   2.994  0.5695 -0.5856 -0.6075
 3905SOL    HW223175   3.705   0.868   3.064  0.5822  1.0992 -0.3953
 3906SOL     OW23176   3.075   3.022   8.752 -0.3850 -0.2468  0.1319
 3906SOL    HW123177   3.049   2.986   8.667  1.2017  0.1328 -0.5085
 3906SOL    HW223178   3.160   3.059   8.726 -1.1689  2.8171  1.9169
 3907SOL     OW23179   0.174   2.776   6.550  0.5042 -0.1415 -0.0452
 3907SOL    HW123180   0.190   2.848   6.610 -1.8864  0.2231  0.1416
 3907SOL    HW223181   0.194   2.821   6.468  1.6121 -0.4384  0.0546
 3908SOL     OW23182   4.339   0.500  14.180  0.0189 -0.3019 -0.5454
 3908SOL    HW123183   4.423   0.539  14.154  1.7069 -3.3017  0.4194
 3908SOL    HW223184   4.307   0.568  14.240 -1.4398  0.6189 -2.3735
 3909SOL     OW23185   1.531   4.318   0.753  0.4187 -0.3141 -0.5851
 3909SOL    HW123186   1.515   4.407   0.786 -2.5313 -1.1385  0.1619
 3909SOL    HW223187   1.459   4.271   0.794  0.8539 -0.9612 -0.5660
 3910SOL     OW23188   2.722   1.179   0.080  0.1322 -0.1948  0.1583
 3910SOL    HW123189   2.740   1.216   0.167  1.4299  1.7606 -0.9404
 3910SOL    HW223190   2.712   1.257   0.026  0.2254  2.8246  4.5087
 3911SOL     OW23191   3.936   2.720   2.749 -0.1163  0.3711  0.0588
 3911SOL    HW123192   3.888   2.710   2.831 -0.3159 -2.7042 -0.4116
 3911SOL    HW223193   3.992   2.794   2.771  1.3502  0.0747 -2.6680
 3912SOL     OW23194   3.909   4.605  12.247  0.2655  0.0103 -0.0464
 3912SOL    HW123195   3.959   4.645  12.317  1.1724  1.3790 -1.4774
 3912SOL    HW223196   3.968   4.610  12.172 -0.4105  0.5432 -0.5583
 3913SOL     OW23197   3.922   0.950   8.122 -0.0741  0.2162 -0.6993
 3913SOL    HW123198   3.926   1.040   8.156  1.9329  0.0838 -0.5662
 3913SOL    HW223199   3.942   0.897   8.199 -1.6012  0.9356  0.1862
 3914SOL     OW23200   3.923   1.442   8.586  0.6608 -0.1393  0.4708
 3914SOL    HW123201   3.881   1.525   8.612  1.8919  0.5835  0.1573
 3914SOL    HW223202   3.954   1.410   8.670  1.1730  0.1364  0.3832
 3915SOL     OW23203   3.477   3.905   6.878 -0.5875 -0.3238  0.4886
 3915SOL    HW123204   3.567   3.913   6.910 -0.3355 -1.2498  0.0139
 3915SOL    HW223205   3.493   3.816   6.845  0.7670  0.7322 -1.6717
 3916SOL     OW23206   2.927   3.323   7.184 -0.4240  0.0720  0.2502
 3916SOL    HW123207   2.942   3.416   7.204 -0.3903 -0.3496  2.1542
 3916SOL    HW223208   3.005   3.309   7.130 -1.5758 -0.6427 -1.2325
 3917SOL     OW23209   2.760   1.726   1.684  0.2349 -0.0936 -0.0414
 3917SOL    HW123210   2.714   1.684   1.757  2.5548 -1.6105  0.5547
 3917SOL    HW223211   2.706   1.705   1.608  1.8593  0.4229 -1.3172
 3918SOL     OW23212   1.097   0.361  12.816  0.1369  0.2676 -0.2167
 3918SOL    HW123213   1.132   0.333  12.731  0.0321 -0.1359 -0.1256
 3918SOL    HW223214   1.156   0.320  12.880  0.0700 -1.2013 -1.0991
 3919SOL     OW23215   4.560   1.258   2.047  0.0111  0.3509  0.3931
 3919SOL    HW123216   4.531   1.259   1.956 -1.1456 -0.6532  0.7522
 3919SOL    HW223217   4.501   1.195   2.088 -0.2739  0.5958  0.3634
 3920SOL     OW23218   4.276   4.672   3.252 -0.2846 -0.3847  0.5935
 3920SOL    HW123219   4.332   0.026   3.249 -0.9979  0.0375 -1.6377
 3920SOL    HW223220   4.316   4.626   3.325  0.1025 -1.4218 -0.2841
 3921SOL     OW23221   3.527   1.268   3.431 -0.2409  0.2811  0.1312
 3921SOL    HW123222   3.524   1.316   3.514  0.1285  2.5595 -1.1759
 3921SOL    HW223223   3.606   1.216   3.447 -0.6188 -0.2014  0.4258
 3922SOL     OW23224   4.453   4.173   3.599  0.1635  0.2269 -0.1213
 3922SOL    HW123225   4.480   4.119   3.673  1.0873  1.8816  0.7380
 3922SOL    HW223226   4.522   4.238   3.589  2.2836 -1.9568  0.3804
 3923SOL     OW23227   1.542   2.087   4.097  0.7436 -0.3752 -0.3252
 3923SOL    HW123228   1.543   2.029   4.020 -1.9309  1.1471 -1.5288
 3923SOL    HW223229   1.606   2.048   4.156  0.4236  0.0234  0.2787
 3924SOL     OW23230   3.333   2.951   0.890 -0.1959 -0.4903 -0.2235
 3924SOL    HW123231   3.301   3.037   0.918  0.0619 -0.1994 -0.8222
 3924SOL    HW223232   3.392   2.972   0.818  2.4605  1.4049  2.4818
 3925SOL     OW23233   1.099   1.676   7.430 -0.1304  0.2536  0.4491
 3925SOL    HW123234   1.065   1.727   7.504  0.3867  0.6635  0.4030
 3925SOL    HW223235   1.020   1.630   7.402 -0.3943  0.4814  0.8130
 3926SOL     OW23236   0.748   0.341  11.698 -0.1726 -0.0587  0.4473
 3926SOL    HW123237   0.723   0.379  11.614 -1.4747  0.7744  1.2201
 3926SOL    HW223238   0.840   0.369  11.692 -1.0513  2.9398  1.4411
 3927SOL     OW23239   4.434   0.418   7.559 -0.5126  0.3620  0.3449
 3927SOL    HW123240   4.469   0.369   7.484  0.7568  0.9046  0.5884
 3927SOL    HW223241   4.518   0.453   7.588 -1.1692  0.9736  1.5079
 3928SOL     OW23242   4.684   0.796   3.184  0.7635  0.6592 -0.2042
 3928SOL    HW123243   4.663   0.848   3.106  0.1876 -0.4599 -0.7994
 3928SOL    HW223244   4.615   0.837   3.237 -0.7174 -1.5466 -0.4192
 3929SOL     OW23245   0.675   1.807  11.690 -0.0081 -0.2899  0.6953
 3929SOL    HW123246   0.759   1.852  11.694 -1.4286  2.5443 -1.4317
 3929SOL    HW223247   0.696   1.713  11.690 -2.2471 -0.7862  2.1981
 3930SOL     OW23248   3.499   2.490   2.113 -0.1658  0.1863 -0.0528
 3930SOL    HW123249   3.405   2.503   2.118 -0.2647  0.4164 -2.3446
 3930SOL    HW223250   3.505   2.396   2.132  1.5033  0.2606 -0.2094
 3931SOL     OW23251   1.813   0.403   5.704  0.3057 -0.2022 -0.7730
 3931SOL    HW123252   1.738   0.453   5.671  0.4742  0.4516 -0.1462
 3931SOL    HW223253   1.869   0.476   5.727 -0.5249 -0.1106  0.9318
 3932SOL     OW23254   2.862   2.983  15.925 -0.0641 -0.0487 -0.0716
 3932SOL    HW123255   2.769   2.992  15.904 -0.4375 -1.3871  1.0517
 3932SOL    HW223256   2.863   2.957  16.017 -0.3838  1.6515  0.4282
 3933SOL     OW23257   3.477   0.093   8.889 -0.2254  0.3465  0.5719
 3933SOL    HW123258   3.465   0.020   8.829 -2.0637  0.4565  0.8162
 3933SOL    HW223259   3.502   0.045   8.968 -0.0933  0.6003  0.6819
 3934SOL     OW23260   2.468   4.064  11.125  0.2383  0.3906 -1.2220
 3934SOL    HW123261   2.445   3.984  11.173 -0.0841 -0.3263 -2.5582
 3934SOL    HW223262   2.524   4.041  11.051  0.8911  0.8926 -0.8764
 3935SOL     OW23263   0.325   2.071  14.719  0.3926  0.3301 -0.0010
 3935SOL    HW123264   0.322   1.993  14.774  0.4574  0.4033  0.1073
 3935SOL    HW223265   0.320   2.026  14.635  2.1730  0.7570 -0.3315
 3936SOL     OW23266   3.723   2.864  16.414 -0.3445  0.0103  0.2131
 3936SOL    HW123267   3.768   2.818  16.343 -1.7855  0.1336 -0.7810
 3936SOL    HW223268   3.673   2.921  16.356  1.5073 -1.0203 -2.3825
 3937SOL     OW23269   1.183   0.254  12.581 -0.1701  0.3819 -0.3926
 3937SOL    HW123270   1.209   0.173  12.538 -1.6937 -0.2507 -0.1259
 3937SOL    HW223271   1.143   0.305  12.510 -0.8380  0.3660 -0.0342
 3938SOL     OW23272   1.291   3.276   2.485  0.3901  0.4611 -0.5746
 3938SOL    HW123273   1.342   3.315   2.415  1.4571  0.0979  0.0032
 3938SOL    HW223274   1.242   3.351   2.520  0.2710  0.5619 -0.9603
 3939SOL     OW23275   1.105   2.155   1.335  0.0060 -0.0958 -0.3147
 3939SOL    HW123276   1.106   2.071   1.382  0.3565  0.0021 -0.1487
 3939SOL    HW223277   1.090   2.227   1.397  1.6091  0.0954 -0.1472
 3940SOL     OW23278   1.402   1.626   7.190  0.4607  0.0897 -0.2515
 3940SOL    HW123279   1.416   1.696   7.126  1.5148  0.1967  0.0947
 3940SOL    HW223280   1.396   1.667   7.276  2.2927 -0.8145  0.2897
 3941SOL     OW23281   3.891   2.066   2.880  0.1758  0.1969  0.1823
 3941SOL    HW123282   3.898   2.067   2.785 -0.4595  2.2372  0.1560
 3941SOL    HW223283   3.964   2.009   2.905 -1.6524 -2.6151 -0.9841
 3942SOL     OW23284   0.889   2.546   3.915 -0.2740  0.3763  0.0764
 3942SOL    HW123285   0.982   2.542   3.936 -0.0122  1.4157 -0.9095
 3942SOL    HW223286   0.882   2.602   3.837 -2.5138  0.8635  0.6230
 3943SOL     OW23287   4.148   3.687   3.802  0.0561 -0.2932  0.0946
 3943SOL    HW123288   4.223   3.743   3.823 -2.0180  2.5501 -0.0011
 3943SOL    HW223289   4.119   3.671   3.892 -0.0491 -0.4249  0.0359
 3944SOL     OW23290   3.152   3.967  13.700  0.0564 -0.3475  0.2736
 3944SOL    HW123291   3.063   3.997  13.686  0.0006 -0.8655 -0.4287
 3944SOL    HW223292   3.167   3.991  13.792  0.0145  2.3788 -0.4314
 3945SOL     OW23293   3.207   0.253   2.614 -0.4146  0.7264 -0.6040
 3945SOL    HW123294   3.194   0.179   2.554 -1.4072 -0.2057  0.7401
 3945SOL    HW223295   3.168   0.325   2.566 -2.0186 -0.4024 -0.9953
 3946SOL     OW23296   0.474   0.474  13.652  0.1796  0.1231 -0.0910
 3946SOL    HW123297   0.403   0.432  13.604  1.1975 -0.3796 -1.1590
 3946SOL    HW223298   0.542   0.406  13.652 -0.1067 -0.1584 -1.5523
 3947SOL     OW23299   1.894   3.246  16.178 -0.0792 -0.5928  0.2335
 3947SOL    HW123300   1.980   3.213  16.150 -0.6506 -4.6035  3.2184
 3947SOL    HW223301   1.871   3.319  16.121 -0.0710  0.1649  1.1945
 3948SOL     OW23302   4.233   2.755   4.081  0.0540 -0.5314  0.1476
 3948SOL    HW123303   4.291   2.781   4.009  1.6496 -0.0919  1.5835
 3948SOL    HW223304   4.205   2.669   4.051  1.8672 -1.0475 -0.0830
 3949SOL     OW23305   4.414   4.595   5.950  0.8388  0.1377 -0.4609
 3949SOL    HW123306   4.332   4.546   5.951  0.7266  0.3271 -0.2630
 3949SOL    HW223307   4.436   4.618   5.860  0.6265 -0.9143 -0.7747
 3950SOL     OW23308   1.967   2.374   4.091 -0.5911 -0.2637 -0.4638
 3950SOL    HW123309   1.914   2.417   4.157 -0.9344 -1.1666 -0.1525
 3950SOL    HW223310   1.973   2.446   4.028 -0.7301  0.3291  0.2014
 3951SOL     OW23311   2.503   1.575   2.352  0.0133 -0.3508 -0.1573
 3951SOL    HW123312   2.560   1.548   2.280 -0.7669 -1.6626 -0.2698
 3951SOL    HW223313   2.465   1.493   2.382  0.5733  0.8851  4.0124
 3952SOL     OW23314   1.902   2.706   8.858 -0.1060 -0.0476 -0.0785
 3952SOL    HW123315   1.886   2.699   8.764 -1.0531  1.4544 -0.0232
 3952SOL    HW223316   1.993   2.676   8.861  0.7040  2.4146 -0.6295
 3953SOL     OW23317   0.360   0.721   8.973  0.0372  0.1232  0.0084
 3953SOL    HW123318   0.368   0.795   9.033 -0.1439  0.7249 -0.7126
 3953SOL    HW223319   0.444   0.678   8.985 -0.4228 -0.8859 -0.4070
 3954SOL     OW23320   1.938   3.027   7.907 -0.1883 -0.2797 -0.5248
 3954SOL    HW123321   1.919   2.992   7.820  1.9136 -2.5588 -0.0635
 3954SOL    HW223322   1.938   2.952   7.967 -0.6911  0.1584  0.0326
 3955SOL     OW23323   0.214   3.616   4.246  0.6113  0.6647 -0.3016
 3955SOL    HW123324   0.213   3.574   4.160  2.7095  1.5283 -0.7552
 3955SOL    HW223325   0.137   3.672   4.240  0.5915  0.5784 -0.9204
 3956SOL     OW23326   0.318   3.885   8.575  0.0461  0.1076 -0.3553
 3956SOL    HW123327   0.248   3.852   8.518  0.4868 -0.6968 -0.4349
 3956SOL    HW223328   0.278   3.870   8.661  0.9838  0.0321  0.0587
 3957SOL     OW23329   3.884   4.556  16.103  0.1975  0.6499 -0.1649
 3957SOL    HW123330   3.893   4.461  16.100  0.3489  0.6868 -0.9965
 3957SOL    HW223331   3.974   4.575  16.074  0.1365  0.1010 -0.7130
 3958SOL     OW23332   3.205   0.442  11.350 -0.5568  0.1705  0.2632
 3958SOL    HW123333   3.137   0.384  11.315  0.2032 -1.1336  0.9331
 3958SOL    HW223334   3.245   0.384  11.415 -0.5186 -0.5862 -0.4267
 3959SOL     OW23335   0.123   1.903  13.219 -0.2661 -0.1531 -0.0498
 3959SOL    HW123336   0.130   1.812  13.248  1.9768 -0.5369 -1.7435
 3959SOL    HW223337   0.191   1.904  13.151 -0.9393 -2.7749 -0.7496
 3960SOL     OW23338   2.808   0.324  15.948 -0.1045  0.6095  0.6099
 3960SOL    HW123339   2.722   0.283  15.959 -0.2200 -0.6687 -5.4320
 3960SOL    HW223340   2.774   0.414  15.945  1.8193  1.2985 -0.0821
 3961SOL     OW23341   1.835   2.606   5.749 -0.5084  0.3163  0.6261
 3961SOL    HW123342   1.765   2.670   5.743 -0.0841  0.5041 -2.1134
 3961SOL    HW223343   1.790   2.530   5.787 -1.5884  0.7033  0.0957
 3962SOL     OW23344   2.419   2.598  12.418  0.5867 -0.2793  0.3401
 3962SOL    HW123345   2.427   2.536  12.346  2.0253  0.5576 -0.2141
 3962SOL    HW223346   2.465   2.677  12.393 -0.4152  0.6746  1.5116
 3963SOL     OW23347   0.311   4.627   7.708 -0.6153 -0.2796 -0.2706
 3963SOL    HW123348   0.280   4.674   7.631  0.5540 -0.5254 -0.8923
 3963SOL    HW223349   0.376   4.692   7.736 -2.1403  0.9750  0.3775
 3964SOL     OW23350   1.010   2.766   7.817  0.0233 -0.1575 -0.0303
 3964SOL    HW123351   0.946   2.836   7.811 -0.2466 -0.4052 -0.0363
 3964SOL    HW223352   0.951   2.691   7.826 -0.8042  0.7357  1.9808
 3965SOL     OW23353   2.990   4.089   8.220  0.4544 -0.0554  0.2770
 3965SOL    HW123354   2.921   4.042   8.266  1.1219 -0.5709  0.7572
 3965SOL    HW223355   2.931   4.109   8.147  0.1080  0.7783  0.7950
 3966SOL     OW23356   1.274   4.666   8.102 -0.1472  0.5451 -1.0631
 3966SOL    HW123357   1.318   4.705   8.027  1.7955  1.9459  0.7946
 3966SOL    HW223358   1.194   4.717   8.116 -1.5836 -1.8101 -0.6728
 3967SOL     OW23359   2.449   2.980   7.566 -0.1212  0.3045 -0.2918
 3967SOL    HW123360   2.477   3.020   7.484 -0.5746 -1.6112 -1.3832
 3967SOL    HW223361   2.520   2.917   7.578 -0.6919  0.0139  1.6416
 3968SOL     OW23362   2.366   3.443   8.998  0.5209 -0.4532  0.4835
 3968SOL    HW123363   2.439   3.396   9.037  0.6971  0.4238  1.2241
 3968SOL    HW223364   2.393   3.535   9.001  0.5628 -0.4724  0.7668
 3969SOL     OW23365   1.943   4.184  16.880 -0.1769 -1.0970 -0.2064
 3969SOL    HW123366   1.910   4.176  16.790  1.0712  0.0113 -0.7537
 3969SOL    HW223367   2.024   4.234  16.870 -0.2596 -0.9948 -0.3655
 3970SOL     OW23368   4.278   1.017   1.702 -0.0519  0.3660  0.5099
 3970SOL    HW123369   4.196   0.992   1.660  0.8594 -0.6564 -0.6883
 3970SOL    HW223370   4.334   0.996   1.627 -1.3952 -2.8726  0.4053
 3971SOL     OW23371   0.617   3.869   6.190  0.3490 -0.3950 -0.1124
 3971SOL    HW123372   0.674   3.863   6.114  1.0419  0.1726  0.3709
 3971SOL    HW223373   0.597   3.777   6.210  2.7070 -1.1625 -1.3644
 3972SOL     OW23374   1.712   2.935   4.385  0.4110 -0.1456 -0.1039
 3972SOL    HW123375   1.712   2.852   4.336 -0.2032  1.5632 -3.0028
 3972SOL    HW223376   1.648   2.977   4.327 -0.2297 -1.6960 -0.5429
 3973SOL     OW23377   1.806   2.079   1.334 -0.6221  0.0593 -0.8766
 3973SOL    HW123378   1.847   2.139   1.397  1.0109  0.6628 -2.5118
 3973SOL    HW223379   1.739   2.141   1.306 -0.3471 -0.0498 -1.7779
 3974SOL     OW23380   1.316   1.104   8.934  0.0103  0.2951 -0.2823
 3974SOL    HW123381   1.396   1.056   8.958  0.4235  1.2342  0.2316
 3974SOL    HW223382   1.332   1.152   8.853  2.5987  0.0342  0.0616
 3975SOL     OW23383   3.497   0.076  16.148 -0.0604 -0.1698  0.1604
 3975SOL    HW123384   3.513   0.007  16.212  0.3081  0.4265  0.7173
 3975SOL    HW223385   3.411   0.045  16.118 -0.1166  1.7515 -1.6782
 3976SOL     OW23386   0.583   1.988   5.445  0.2502  0.5290 -0.6060
 3976SOL    HW123387   0.647   2.059   5.450  2.6606 -1.7349  0.8837
 3976SOL    HW223388   0.509   2.023   5.495 -1.1484 -0.9635 -1.6227
 3977SOL     OW23389   1.985   0.493  16.396 -0.1348 -0.3605  0.3500
 3977SOL    HW123390   1.935   0.412  16.384  1.2279 -1.0660 -0.4616
 3977SOL    HW223391   2.072   0.473  16.363 -0.4345 -1.3409  0.1534
 3978SOL     OW23392   2.242   2.653   5.988  0.9151 -0.2721  0.2568
 3978SOL    HW123393   2.262   2.744   5.968  1.7753 -1.0124 -2.2512
 3978SOL    HW223394   2.150   2.652   5.960  0.5413  2.2457  1.3529
 3979SOL     OW23395   3.570   1.348   8.120 -0.2136  0.6561 -0.6926
 3979SOL    HW123396   3.563   1.370   8.213 -2.8730 -0.5543 -0.6140
 3979SOL    HW223397   3.531   1.261   8.129  1.7022 -0.2472 -0.9751
 3980SOL     OW23398   0.528   3.772   2.217  0.4203 -0.1585 -0.2175
 3980SOL    HW123399   0.447   3.823   2.211  1.4540  1.6318  1.2873
 3980SOL    HW223400   0.587   3.820   2.160 -2.1852  1.2045 -1.7486
 3981SOL     OW23401   2.625   0.693   5.294 -0.0426 -0.3557 -0.3176
 3981SOL    HW123402   2.631   0.638   5.372 -1.6116 -1.9697 -1.3423
 3981SOL    HW223403   2.718   0.692   5.270 -0.0376  0.6006 -0.3438
 3982SOL     OW23404   1.433   3.204   0.812 -0.8304 -0.1914 -0.1568
 3982SOL    HW123405   1.443   3.197   0.718 -3.4927 -1.3459 -0.3498
 3982SOL    HW223406   1.421   3.298   0.826 -1.6134 -0.0149 -2.0482
 3983SOL     OW23407   0.260   1.924   7.641  1.1999  0.4038 -0.4614
 3983SOL    HW123408   0.170   1.892   7.646  0.9594  1.3649  1.2105
 3983SOL    HW223409   0.252   2.019   7.637 -0.0966  0.3820  1.5609
 3984SOL     OW23410   1.617   3.917  17.317  0.5376 -0.4233  0.4492
 3984SOL    HW123411   1.573   3.881  17.240  1.2063  1.4602 -0.8190
 3984SOL    HW223412   1.665   3.840  17.348  2.4467  0.2248 -0.9150
 3985SOL     OW23413   1.555   0.638   7.829 -0.1820 -0.2140  0.1589
 3985SOL    HW123414   1.561   0.579   7.903  1.3812 -0.9954 -0.5989
 3985SOL    HW223415   1.523   0.723   7.859 -1.9224 -1.1429  0.9136
 3986SOL     OW23416   0.721   1.561   0.814  0.5361 -0.0474  0.1061
 3986SOL    HW123417   0.688   1.573   0.725 -1.0229  0.8107  0.8035
 3986SOL    HW223418   0.813   1.583   0.798  0.3484  0.1385 -0.7366
 3987SOL     OW23419   1.570   2.600   7.549 -0.0324 -0.0431 -0.3096
 3987SOL    HW123420   1.608   2.527   7.597  1.8822 -2.0922 -4.9721
 3987SOL    HW223421   1.584   2.673   7.611 -2.2844 -0.9365  1.2870
 3988SOL     OW23422   2.061   0.946  15.542  0.0268  0.1929  0.1313
 3988SOL    HW123423   2.141   0.992  15.568 -0.4599 -0.2134  2.3231
 3988SOL    HW223424   2.017   0.925  15.624 -0.7079  1.9893  0.1843
 3989SOL     OW23425   3.000   1.690   8.837 -0.4672 -0.2339  0.1434
 3989SOL    HW123426   2.979   1.709   8.929  0.2382 -0.2616  0.3067
 3989SOL    HW223427   2.993   1.774   8.791 -0.2649 -0.8372 -0.9902
 3990SOL     OW23428   4.118   0.859   4.708  0.9053 -0.1237  0.1299
 3990SOL    HW123429   4.191   0.920   4.720  1.7305 -1.7311  3.1672
 3990SOL    HW223430   4.062   0.873   4.785  0.5251 -0.3896 -0.0999
 3991SOL     OW23431   4.022   0.369   1.335  0.0184  0.2179 -0.5322
 3991SOL    HW123432   3.983   0.376   1.247 -4.9647  1.5095  1.7870
 3991SOL    HW223433   3.954   0.399   1.395  1.9825 -1.2788  2.3996
 3992SOL     OW23434   3.766   1.307   6.074 -0.4698  0.3709  0.7763
 3992SOL    HW123435   3.699   1.255   6.118 -2.4721  1.9139 -0.4204
 3992SOL    HW223436   3.810   1.343   6.151 -0.4969  0.1016  0.9155
 3993SOL     OW23437   3.482   3.127   0.714 -0.0964  0.3954 -0.0090
 3993SOL    HW123438   3.529   3.198   0.668 -3.1506  1.5819 -1.3239
 3993SOL    HW223439   3.395   3.161   0.692 -0.0736  0.1208 -0.5225
 3994SOL     OW23440   1.371   0.693   1.760 -0.1947  0.5202  0.1326
 3994SOL    HW123441   1.431   0.688   1.687 -1.7460 -1.0876 -1.0467
 3994SOL    HW223442   1.439   0.686   1.827  0.1973 -1.5037 -0.4809
 3995SOL     OW23443   0.086   1.531   6.930 -0.3409 -0.0838 -0.0485
 3995SOL    HW123444   0.101   1.460   6.867 -0.7358  0.3352 -0.6132
 3995SOL    HW223445   0.151   1.516   6.999 -0.1625  2.6092  0.3775
 3996SOL     OW23446   0.044   0.364   7.881  0.3727  0.1569 -0.1216
 3996SOL    HW123447   4.706   0.436   7.877  0.6319  0.3772 -0.1748
 3996SOL    HW223448   0.087   0.375   7.966  0.9607  0.5160 -0.4692
 3997SOL     OW23449   0.682   3.202  12.700  0.9117 -0.6378 -0.4947
 3997SOL    HW123450   0.727   3.219  12.783  0.1891 -1.9708  0.1738
 3997SOL    HW223451   0.591   3.189  12.728  0.9503 -1.8192 -0.9230
 3998SOL     OW23452   1.480   4.004   8.978 -0.4274 -0.8091  0.2883
 3998SOL    HW123453   1.574   3.986   8.976 -0.2546 -0.0718  1.3492
 3998SOL    HW223454   1.460   4.033   9.068 -1.1144 -0.0698 -0.1037
 3999SOL     OW23455   1.817   4.626   8.235 -0.4957 -0.0725 -0.1567
 3999SOL    HW123456   1.813   4.532   8.218 -1.0654 -0.1943  0.6402
 3999SOL    HW223457   1.823   4.620   8.330 -0.1237  0.3106 -0.1555
 4000SOL     OW23458   1.709   1.511  10.104 -0.0692 -1.0792  0.5002
 4000SOL    HW123459   1.638   1.455  10.137  0.0775  0.0281  2.6679
 4000SOL    HW223460   1.759   1.533  10.182 -0.0742  1.5737 -0.2602
 4001SOL     OW23461   2.769   0.688  12.810 -0.3697 -0.0984 -0.5720
 4001SOL    HW123462   2.794   0.595  12.815  1.3610  0.2902 -2.0827
 4001SOL    HW223463   2.783   0.701  12.716 -0.0129 -0.7229 -0.6053
 4002SOL     OW23464   0.762   4.051   5.229  0.5772 -0.4907  0.4030
 4002SOL    HW123465   0.714   4.063   5.147  0.1484  0.0823  0.7387
 4002SOL    HW223466   0.820   4.127   5.231  2.6178 -2.1025  2.1863
 4003SOL     OW23467   0.138   4.291   5.740 -0.2212  0.5820 -0.0467
 4003SOL    HW123468   0.201   4.282   5.811 -1.1248  0.7396  0.7663
 4003SOL    HW223469   0.146   4.386   5.729  2.2205  0.5020  0.9109
 4004SOL     OW23470   0.238   0.142   4.700  0.0571  0.1121 -0.5867
 4004SOL    HW123471   0.142   0.152   4.704  0.1274  1.3620 -2.0776
 4004SOL    HW223472   0.262   0.234   4.696 -1.5470  0.6591  1.9784
 4005SOL     OW23473   3.199   0.160   2.874 -0.0229  0.1915  0.3984
 4005SOL    HW123474   3.199   0.245   2.917 -1.2386  0.3850  0.0197
 4005SOL    HW223475   3.208   0.187   2.782  1.1123 -0.8405  0.2072
 4006SOL     OW23476   0.688   0.400   2.192 -0.2685 -0.4487 -0.5375
 4006SOL    HW123477   0.650   0.486   2.177 -0.1597 -0.4760 -0.9600
 4006SOL    HW223478   0.640   0.368   2.269  0.5703 -0.3052  0.0514
 4007SOL     OW23479   2.634   2.870  16.336 -0.0287  0.0414  0.0905
 4007SOL    HW123480   2.583   2.862  16.417  0.6029  0.0672  0.4901
 4007SOL    HW223481   2.577   2.925  16.281  0.7829  1.2020  0.3990
 4008SOL     OW23482   0.541   2.370   1.868 -0.9561  0.6205 -0.8950
 4008SOL    HW123483   0.549   2.385   1.963 -1.6005  1.4731 -0.9767
 4008SOL    HW223484   0.560   2.276   1.868  0.4277  0.9051 -0.9982
 4009SOL     OW23485   0.680   1.625   9.656  0.6550 -0.0625  0.1371
 4009SOL    HW123486   0.685   1.615   9.561  1.5277  3.2110 -0.1533
 4009SOL    HW223487   0.605   1.569   9.680  1.1985 -0.8543 -0.0160
 4010SOL     OW23488   1.378   2.865   1.121 -0.1765  0.2930  0.2604
 4010SOL    HW123489   1.391   2.771   1.114 -1.2022 -0.0146  2.5610
 4010SOL    HW223490   1.453   2.897   1.071  0.6633 -0.4524  1.0684
 4011SOL     OW23491   2.450   3.298   2.499  0.2384  0.2150  0.3034
 4011SOL    HW123492   2.357   3.312   2.485  0.1243 -1.2765 -0.4698
 4011SOL    HW223493   2.475   3.232   2.435  1.6252  0.0111  1.0495
 4012SOL     OW23494   4.411   0.949   5.059  0.0392  0.0831  0.2637
 4012SOL    HW123495   4.491   1.001   5.046  0.9666 -1.5757 -0.6516
 4012SOL    HW223496   4.447   0.904   5.136 -0.5067 -1.3673 -0.3322
 4013SOL     OW23497   1.712   3.079   6.063  0.0651  0.0639 -0.0893
 4013SOL    HW123498   1.625   3.068   6.101  0.2189  3.0251  1.1561
 4013SOL    HW223499   1.703   3.048   5.973  1.8564  0.9866 -0.6043
 4014SOL     OW23500   0.512   2.655  11.137 -0.3711 -0.2245  0.1982
 4014SOL    HW123501   0.546   2.698  11.215  0.8696 -1.1911  0.1901
 4014SOL    HW223502   0.428   2.701  11.129 -0.1091  0.6904  2.8066
 4015SOL     OW23503   2.005   2.478   9.587 -0.2792  0.3944 -0.3246
 4015SOL    HW123504   2.064   2.410   9.619  0.7842  1.3197 -0.3538
 4015SOL    HW223505   2.066   2.546   9.560 -1.7022  2.5766  1.9264
 4016SOL     OW23506   3.100   4.071   0.641 -0.2569  0.0002  0.1140
 4016SOL    HW123507   3.174   4.124   0.611  0.0857 -0.3643  0.3154
 4016SOL    HW223508   3.141   4.029   0.717  1.0577 -0.3276 -0.7830
 4017SOL     OW23509   2.840   0.992   9.615  0.1811 -0.3091 -0.0957
 4017SOL    HW123510   2.744   0.989   9.614  0.1645 -0.7370  2.5640
 4017SOL    HW223511   2.857   1.083   9.594  0.2724 -0.2690  0.1592
 4018SOL     OW23512   4.595   1.515  11.295  0.5923  0.2022  0.0753
 4018SOL    HW123513   4.652   1.498  11.370  0.9375  3.7021  0.6084
 4018SOL    HW223514   4.539   1.441  11.317 -0.9196  1.0577 -0.8814
 4019SOL     OW23515   0.106   3.003   0.893  0.4859 -0.0907  0.9672
 4019SOL    HW123516   0.122   3.075   0.832  0.5864  0.1181  1.2417
 4019SOL    HW223517   0.016   3.016   0.923 -0.5201  1.1053 -2.5560
 4020SOL     OW23518   0.812   1.288   6.421  0.0272  0.4391 -0.6050
 4020SOL    HW123519   0.797   1.369   6.470  1.2993 -0.2660  0.9851
 4020SOL    HW223520   0.761   1.313   6.345 -0.6603  2.9986  0.7049
 4021SOL     OW23521   2.608   4.123   8.868  0.0812  0.1684  0.2613
 4021SOL    HW123522   2.661   4.117   8.948 -0.0685  0.4030  0.3778
 4021SOL    HW223523   2.610   4.218   8.860  1.8426  0.1928  1.1368
 4022SOL     OW23524   4.398   1.780   2.345  0.1298  0.1935  0.4128
 4022SOL    HW123525   4.478   1.743   2.307 -0.9431  0.2920 -1.9690
 4022SOL    HW223526   4.412   1.874   2.334 -0.7430  0.3908  1.1013
 4023SOL     OW23527   4.226   4.270   6.992 -0.2487 -0.9192 -0.1806
 4023SOL    HW123528   4.262   4.329   6.925  0.7082  1.5063  2.4553
 4023SOL    HW223529   4.133   4.287   6.974 -0.7873 -1.6782  1.9002
 4024SOL     OW23530   3.957   4.429   5.918 -0.6080  0.5466  0.3189
 4024SOL    HW123531   3.897   4.493   5.879  0.5568  2.0217  0.9510
 4024SOL    HW223532   3.893   4.372   5.960  0.0683 -0.1478  0.4119
 4025SOL     OW23533   4.544   3.799  11.458 -0.0226  0.3263  0.2279
 4025SOL    HW123534   4.612   3.821  11.521  0.5966  0.8709 -0.6449
 4025SOL    HW223535   4.588   3.816  11.375  0.0434  1.6606  0.5346
 4026SOL     OW23536   4.119   2.677   3.712 -0.5037  0.6361 -0.5529
 4026SOL    HW123537   4.210   2.650   3.729 -0.8022  0.2518  0.4290
 4026SOL    HW223538   4.134   2.748   3.649  0.7551 -0.6504 -1.7096
 4027SOL     OW23539   0.975   3.963   2.612 -0.4719 -0.3363 -0.2918
 4027SOL    HW123540   0.958   4.003   2.527 -2.7765 -2.2310 -0.7242
 4027SOL    HW223541   1.059   4.003   2.631  0.1075 -1.6165 -0.1645
 4028SOL     OW23542   0.196   4.002  16.135  0.1041  0.1060  0.1010
 4028SOL    HW123543   0.174   3.910  16.123 -0.0049  0.2607 -0.8636
 4028SOL    HW223544   0.221   3.994  16.227 -1.6940  1.7230  0.7408
 4029SOL     OW23545   2.011   0.898   2.688 -0.0681 -0.5372  0.3955
 4029SOL    HW123546   2.036   0.886   2.780 -0.2859  0.9324  0.6509
 4029SOL    HW223547   2.090   0.929   2.644  0.6755 -3.1567 -0.0838
 4030SOL     OW23548   0.309   2.373   3.481  0.0475  0.2142  0.1893
 4030SOL    HW123549   0.217   2.353   3.460  0.6088 -3.0682  0.8883
 4030SOL    HW223550   0.337   2.406   3.396 -0.2630 -0.1813 -0.0657
 4031SOL     OW23551   2.060   4.612   0.954  0.0840 -0.4585  0.4685
 4031SOL    HW123552   1.975   4.629   0.913  0.7792  2.4251  0.2922
 4031SOL    HW223553   2.045   4.658   1.037 -0.2240  0.4584 -0.1004
 4032SOL     OW23554   4.568   4.191   5.926 -0.7013 -0.2668  0.0779
 4032SOL    HW123555   4.656   4.217   5.898  0.0924 -2.6773  0.4126
 4032SOL    HW223556   4.539   4.144   5.847 -1.4591 -0.5044  0.4956
 4033SOL     OW23557   2.867   4.018  11.983  0.1093 -0.7477  0.1881
 4033SOL    HW123558   2.810   4.018  11.906 -3.0958 -2.3525  2.5590
 4033SOL    HW223559   2.845   3.935  12.026  0.0559  0.5593  2.6287
 4034SOL     OW23560   4.106   1.921   2.911  0.1118 -0.1235 -0.3488
 4034SOL    HW123561   4.145   1.928   2.823  0.9728 -1.0016 -0.0398
 4034SOL    HW223562   4.119   1.830   2.939 -2.6652 -0.2447  0.5499
 4035SOL     OW23563   2.784   4.171  10.230 -0.8003  0.4411  0.1135
 4035SOL    HW123564   2.867   4.215  10.250 -1.2095  0.9641  0.6701
 4035SOL    HW223565   2.817   4.101  10.174  0.4196  1.1371 -0.0584
 4036SOL     OW23566   2.054   0.151   3.028  0.3255  0.3677 -0.5862
 4036SOL    HW123567   2.129   0.200   3.063  0.8227 -1.0776  0.3408
 4036SOL    HW223568   1.991   0.219   3.005  0.5831  0.1807 -1.8308
 4037SOL     OW23569   1.769   0.953   8.167 -0.1046 -0.0847  0.2158
 4037SOL    HW123570   1.864   0.948   8.179 -0.3058  0.0959  1.8601
 4037SOL    HW223571   1.764   0.989   8.078  0.2129  0.4574  0.4160
 4038SOL     OW23572   0.656   2.336   2.855  0.0881 -0.1303  0.4061
 4038SOL    HW123573   0.716   2.271   2.819 -0.1429 -0.4030  0.5196
 4038SOL    HW223574   0.717   2.364   2.924  1.3477 -0.7593 -0.4416
 4039SOL     OW23575   1.151   2.332   8.140  0.0040  0.0687 -0.5029
 4039SOL    HW123576   1.224   2.270   8.141 -1.2869 -1.4072  2.7039
 4039SOL    HW223577   1.163   2.356   8.232  0.2343 -0.1969 -0.4626
 4040SOL     OW23578   2.262   0.662   7.077 -0.5622  0.5268 -0.3091
 4040SOL    HW123579   2.166   0.662   7.082 -0.5315  1.1816  0.3105
 4040SOL    HW223580   2.271   0.602   7.004  0.8362  0.9080 -0.4388
 4041SOL     OW23581   4.078   4.079   0.035 -0.1978 -0.5643 -0.3927
 4041SOL    HW123582   4.131   4.159   0.029  0.2019 -0.7936  0.1244
 4041SOL    HW223583   4.017   4.090  17.660  1.2534  1.6808 -1.3044
 4042SOL     OW23584   0.890   0.272  14.763  0.1320  0.0573  0.1092
 4042SOL    HW123585   0.817   0.272  14.701  0.8195 -1.2665 -0.7167
 4042SOL    HW223586   0.911   0.365  14.767 -2.1255  0.5806 -0.2271
 4043SOL     OW23587   2.944   2.761   9.948  0.0708 -0.3847  0.8295
 4043SOL    HW123588   3.018   2.764   9.887  1.7362  1.4931  2.9435
 4043SOL    HW223589   2.971   2.810  10.026  1.7007 -0.6244  0.4248
 4044SOL     OW23590   0.515   3.356  14.332 -0.8439  0.4006  1.0915
 4044SOL    HW123591   0.534   3.449  14.327 -0.1565  0.3350  2.5903
 4044SOL    HW223592   0.591   3.308  14.298 -0.9145  0.2216  1.1872
 4045SOL     OW23593   1.460   3.314   7.962 -0.0654 -0.4626  0.4223
 4045SOL    HW123594   1.491   3.400   7.935 -2.5332  0.3750  0.1874
 4045SOL    HW223595   1.543   3.268   7.973 -0.0115 -0.9853 -2.3672
 4046SOL     OW23596   0.448   2.069   7.889 -0.7135 -0.4961  0.3622
 4046SOL    HW123597   0.400   2.144   7.925  0.4291 -0.5913  2.0723
 4046SOL    HW223598   0.539   2.094   7.905 -0.9746 -0.7295  2.2138
 4047SOL     OW23599   2.028   3.598   6.294  0.8023 -0.1397  0.7279
 4047SOL    HW123600   2.055   3.667   6.233  2.4353 -0.7320  0.7609
 4047SOL    HW223601   2.115   3.577   6.330  0.8513  0.3594  0.9059
 4048SOL     OW23602   4.476   4.506  15.322  0.0217 -0.8115 -0.1395
 4048SOL    HW123603   4.437   4.570  15.262  0.8326 -0.1637  0.0137
 4048SOL    HW223604   4.565   4.540  15.329 -0.5818  1.2543 -2.6176
 4049SOL     OW23605   3.956   4.152  17.524  0.1522 -0.4081  0.5976
 4049SOL    HW123606   3.999   4.140  17.440 -1.6343  0.6068 -0.4479
 4049SOL    HW223607   3.942   4.246  17.529  2.0430 -0.1499  0.8218
 4050SOL     OW23608   4.650   1.289   6.315 -0.1400  0.3926  0.6139
 4050SOL    HW123609   4.651   1.377   6.278 -0.9625  0.3847  0.5707
 4050SOL    HW223610   4.630   1.237   6.237  1.3237  0.8606 -0.0692
 4051SOL     OW23611   2.011   3.015   4.367  0.1612  0.8682 -0.2655
 4051SOL    HW123612   2.089   3.066   4.346 -0.4856  1.1177 -2.0386
 4051SOL    HW223613   1.947   3.086   4.380 -1.3551 -0.4382 -0.6181
 4052SOL     OW23614   3.082   2.517   7.320 -0.3827 -0.0333 -0.0978
 4052SOL    HW123615   2.997   2.492   7.356  0.7079  0.6666  2.9427
 4052SOL    HW223616   3.092   2.593   7.377  1.0780  0.8674 -1.5389
 4053SOL     OW23617   1.933   1.119   9.501 -0.5478 -0.2932  0.1322
 4053SOL    HW123618   1.980   1.107   9.583  1.0559  0.7972 -0.6374
 4053SOL    HW223619   1.932   1.215   9.493 -0.3569 -0.4357 -1.5328
 4054SOL     OW23620   3.200   4.162   2.991 -0.0475 -0.5232 -0.4585
 4054SOL    HW123621   3.124   4.163   3.049  1.1646  2.2554  1.0579
 4054SOL    HW223622   3.260   4.200   3.055 -0.5541 -0.3332 -0.0954
 4055SOL     OW23623   3.134   3.346   8.722 -0.1443 -0.0433 -0.5285
 4055SOL    HW123624   3.052   3.316   8.682 -1.7906  3.2794  0.3708
 4055SOL    HW223625   3.177   3.261   8.738  2.2549  1.1851 -0.5052
 4056SOL     OW23626   0.701   0.642   9.510  0.1055 -0.3839  0.0412
 4056SOL    HW123627   0.629   0.702   9.526 -0.4473 -0.7675 -1.0177
 4056SOL    HW223628   0.660   0.593   9.439 -1.4663 -0.6901  1.1551
 4057SOL     OW23629   3.985   0.301  16.079 -0.2218 -0.3186 -0.3772
 4057SOL    HW123630   4.008   0.321  16.170 -1.4582 -0.9532  0.0701
 4057SOL    HW223631   3.890   0.298  16.092 -0.2334  0.3159 -0.3169
 4058SOL     OW23632   0.483   2.540   2.371 -0.0635 -0.4531  0.0410
 4058SOL    HW123633   0.564   2.584   2.345  0.1291 -0.5483  0.4798
 4058SOL    HW223634   0.424   2.608   2.404 -0.0660  0.2909 -1.5103
 4059SOL     OW23635   0.350   4.105   3.394 -0.4818 -0.4576 -0.2078
 4059SOL    HW123636   0.424   4.166   3.401  0.4653 -1.5694 -0.5918
 4059SOL    HW223637   0.290   4.153   3.338  0.8176 -0.2443 -1.4099
 4060SOL     OW23638   0.239   2.707   5.323  0.2371  0.2171 -0.2204
 4060SOL    HW123639   0.237   2.790   5.370  1.4662 -1.4631  2.8579
 4060SOL    HW223640   0.289   2.654   5.385  3.0628  3.1063 -0.0283
 4061SOL     OW23641   1.436   4.538  10.673 -0.4333  0.5009 -0.3283
 4061SOL    HW123642   1.472   4.607  10.730 -1.2828 -0.3385  1.2044
 4061SOL    HW223643   1.518   4.524  10.626  0.4721 -2.1573  2.0488
 4062SOL     OW23644   0.321   3.672   7.017  0.4279  0.2282 -0.4311
 4062SOL    HW123645   0.378   3.600   7.045 -0.1423 -1.1885 -2.9554
 4062SOL    HW223646   0.235   3.632   7.034 -0.3809  1.5435 -1.5518
 4063SOL     OW23647   1.006   1.489   6.863  0.1800  0.0748  0.4806
 4063SOL    HW123648   1.078   1.454   6.915  2.3583  0.3751 -2.3344
 4063SOL    HW223649   1.058   1.554   6.817  2.7658 -0.9450  1.9732
 4064SOL     OW23650   3.937   2.714   1.847  0.8754  0.3354  0.2649
 4064SOL    HW123651   3.953   2.621   1.835  2.8870  1.0439 -2.4068
 4064SOL    HW223652   3.920   2.745   1.758 -2.2662 -2.8051 -0.2254
 4065SOL     OW23653   1.294   0.503   7.724 -0.0073  0.1501 -0.5194
 4065SOL    HW123654   1.377   0.539   7.692  0.6570 -1.6742 -0.8065
 4065SOL    HW223655   1.252   0.572   7.775  1.1445  1.0541 -0.7919
 4066SOL     OW23656   3.269   2.683   9.187 -0.2839  0.0027  0.6774
 4066SOL    HW123657   3.302   2.711   9.273 -0.1272  0.5658  0.4359
 4066SOL    HW223658   3.276   2.761   9.132 -0.8943 -1.2679 -1.1836
 4067SOL     OW23659   4.093   2.867  16.015 -0.2992 -0.1598  0.5770
 4067SOL    HW123660   4.015   2.908  15.977  0.9786  0.3537 -1.5306
 4067SOL    HW223661   4.082   2.889  16.107 -1.8073  0.5583  0.2317
 4068SOL     OW23662   4.380   0.718   5.690  0.2145  0.8563  0.4830
 4068SOL    HW123663   4.371   0.629   5.725  0.4804  0.0414 -1.5541
 4068SOL    HW223664   4.472   0.730   5.714  0.4397  0.2683 -0.0868
 4069SOL     OW23665   3.594   1.746   8.433  0.0724 -0.1614 -0.0679
 4069SOL    HW123666   3.499   1.755   8.434  0.1146  0.1285  1.6714
 4069SOL    HW223667   3.617   1.731   8.525  0.0713  0.9031  0.1052
 4070SOL     OW23668   3.508   4.399   2.517  0.0736 -0.3375  0.2842
 4070SOL    HW123669   3.594   4.392   2.559 -0.4001  0.5382  1.3798
 4070SOL    HW223670   3.456   4.357   2.585 -2.3648  0.9900 -0.7789
 4071SOL     OW23671   1.024   1.654   1.395  0.2258  0.2821 -0.1433
 4071SOL    HW123672   1.049   1.738   1.357 -0.3743  0.4311 -0.2120
 4071SOL    HW223673   0.934   1.658   1.429  0.6545 -1.5683  1.2305
 4072SOL     OW23674   0.541   1.031   3.430 -0.3020  0.1392  0.0399
 4072SOL    HW123675   0.468   0.993   3.382 -0.5365  0.0616  0.4578
 4072SOL    HW223676   0.515   1.123   3.430 -1.7257 -0.2709  0.9505
 4073SOL     OW23677   4.179   1.616   9.708  0.3928  0.1741  0.0019
 4073SOL    HW123678   4.123   1.693   9.697 -0.8444 -0.7442 -0.1694
 4073SOL    HW223679   4.170   1.605   9.802 -0.4895  2.4952  0.1974
 4074SOL     OW23680   2.004   1.206   6.288 -0.2667 -0.6176 -0.0770
 4074SOL    HW123681   1.979   1.205   6.380  1.1300 -0.3626  0.3059
 4074SOL    HW223682   1.949   1.276   6.253  0.3727 -0.0087  0.1402
 4075SOL     OW23683   2.120   1.712  13.151 -0.8619 -0.3040  0.1531
 4075SOL    HW123684   2.030   1.745  13.152 -1.1880 -1.1964  0.7394
 4075SOL    HW223685   2.090   1.621  13.158 -1.4753 -0.1279 -0.1749
 4076SOL     OW23686   4.704   3.536   9.306 -0.2415 -0.7136 -0.1150
 4076SOL    HW123687   4.700   3.552   9.212  0.8664 -1.5646 -0.3128
 4076SOL    HW223688   0.009   3.445   9.305 -1.0578 -0.9660 -0.5361
 4077SOL     OW23689   1.212   2.177   6.344 -0.1893  0.1850  0.2297
 4077SOL    HW123690   1.129   2.223   6.330  0.0529  0.3169 -0.7748
 4077SOL    HW223691   1.192   2.088   6.317  1.3690  0.3052 -1.3138
 4078SOL     OW23692   2.999   2.841   5.343 -0.0092 -0.3044  0.4778
 4078SOL    HW123693   2.924   2.837   5.283 -0.3979 -0.0391  0.9413
 4078SOL    HW223694   2.980   2.915   5.401 -2.1792 -1.2822  1.0033
 4079SOL     OW23695   2.427   1.817   8.089  0.0797  0.2285  0.1660
 4079SOL    HW123696   2.387   1.759   8.024  0.5390 -2.1415  1.9833
 4079SOL    HW223697   2.435   1.771   8.173 -2.1950 -1.1840 -0.4018
 4080SOL     OW23698   4.267   3.106   5.786  0.8303 -0.2148 -0.2760
 4080SOL    HW123699   4.294   3.101   5.878  0.1715  2.2620  0.0438
 4080SOL    HW223700   4.317   3.032   5.753  0.1821 -0.2742 -1.1043
 4081SOL     OW23701   1.957   3.209   5.851  0.0530  0.3679 -0.2483
 4081SOL    HW123702   1.943   3.207   5.756  1.3864 -0.3160 -0.4322
 4081SOL    HW223703   1.905   3.133   5.880  0.5334 -0.9289 -2.7839
 4082SOL     OW23704   2.356   2.706  14.274  0.4407  0.0122 -0.1105
 4082SOL    HW123705   2.391   2.795  14.276 -0.9445  0.5928 -1.3993
 4082SOL    HW223706   2.358   2.694  14.179 -0.1088  0.5841 -0.1982
 4083SOL     OW23707   3.255   1.520   6.548  0.3401  0.1851 -0.1941
 4083SOL    HW123708   3.253   1.600   6.495  2.0699  0.2142 -0.2407
 4083SOL    HW223709   3.177   1.550   6.594  2.1683  0.2191  2.8449
 4084SOL     OW23710   2.533   2.221   4.861  0.3359  0.0672  0.3671
 4084SOL    HW123711   2.445   2.256   4.873  0.0962 -1.2569  2.6163
 4084SOL    HW223712   2.566   2.259   4.943 -1.4845 -0.0185  1.1253
 4085SOL     OW23713   2.417   1.266   1.441 -0.5673  0.1792 -0.1863
 4085SOL    HW123714   2.433   1.346   1.492  2.3890 -1.7387  1.9147
 4085SOL    HW223715   2.351   1.226   1.498 -2.7650  1.7485 -1.6272
 4086SOL     OW23716   1.984   3.580   2.672 -0.2005 -0.1817  0.0774
 4086SOL    HW123717   2.060   3.637   2.662  0.6157 -1.1267  0.8298
 4086SOL    HW223718   1.991   3.531   2.591 -0.1305 -2.6917  1.5877
 4087SOL     OW23719   1.398   3.712   0.923 -0.4039 -0.0415 -0.9215
 4087SOL    HW123720   1.424   3.771   0.852 -0.8385  0.3202 -0.7842
 4087SOL    HW223721   1.441   3.636   0.885 -0.2273 -0.0373 -0.7247
 4088SOL     OW23722   1.430   0.543   5.438 -0.2253 -0.5783  0.0728
 4088SOL    HW123723   1.491   0.472   5.418  0.3610 -0.2752  0.7718
 4088SOL    HW223724   1.486   0.615   5.408  0.3998 -1.0065  0.2158
 4089SOL     OW23725   2.438   2.227  14.510 -0.3660  0.0703  0.2065
 4089SOL    HW123726   2.418   2.318  14.486  0.1262 -0.0221 -0.5428
 4089SOL    HW223727   2.354   2.196  14.545 -0.8960 -0.9045 -1.9635
 4090SOL     OW23728   2.808   3.040   8.899  0.0516  0.6927 -0.3144
 4090SOL    HW123729   2.898   3.042   8.866  0.3549 -0.0836  0.4481
 4090SOL    HW223730   2.779   2.981   8.829  0.2626 -1.2045  1.2018
 4091SOL     OW23731   2.570   0.531   2.522  0.9272 -0.5263 -0.0171
 4091SOL    HW123732   2.566   0.625   2.540 -1.7118 -0.8388  0.9559
 4091SOL    HW223733   2.602   0.497   2.606 -1.3921  1.7227  1.7593
 4092SOL     OW23734   1.271   1.480   5.374  0.1367  0.2306 -0.1202
 4092SOL    HW123735   1.257   1.387   5.396 -0.8707  0.7494  1.4423
 4092SOL    HW223736   1.333   1.473   5.301 -0.7905 -1.2546 -0.7558
 4093SOL     OW23737   4.260   2.101   6.049  0.0144 -0.0589 -0.6834
 4093SOL    HW123738   4.183   2.149   6.080  0.7754  0.4934  0.3586
 4093SOL    HW223739   4.316   2.112   6.126  1.0558  0.0025 -1.4494
 4094SOL     OW23740   0.021   2.050   7.501  0.2969 -0.1946 -0.6095
 4094SOL    HW123741   4.709   2.004   7.426  1.3824 -1.3463 -0.4185
 4094SOL    HW223742   0.094   2.093   7.457 -1.4877 -0.3871 -3.7361
 4095SOL     OW23743   1.774   0.828  16.130  0.2511 -0.1540  0.2067
 4095SOL    HW123744   1.759   0.805  16.222 -3.3322  0.8002 -0.1487
 4095SOL    HW223745   1.757   0.922  16.124 -0.0825 -0.1427  1.2426
 4096SOL     OW23746   3.571   0.507   9.401 -0.2622  0.4722  0.2985
 4096SOL    HW123747   3.613   0.431   9.441  1.6798  1.1638 -0.4556
 4096SOL    HW223748   3.480   0.502   9.430 -0.0816  3.2818  1.3762
 4097SOL     OW23749   1.528   1.341   0.685  0.1577  0.0825 -0.1555
 4097SOL    HW123750   1.596   1.292   0.639  1.6726  1.4333  0.6340
 4097SOL    HW223751   1.503   1.401   0.615 -0.3372  1.9233  1.6048
 4098SOL     OW23752   0.923   0.817  16.865  0.1856 -0.0126  0.4929
 4098SOL    HW123753   0.940   0.857  16.779 -0.7404  0.3146  0.4645
 4098SOL    HW223754   0.874   0.740  16.838  0.0405  0.5522 -0.8991
 4099SOL     OW23755   3.877   0.924   3.486  0.1973 -0.1864 -0.8519
 4099SOL    HW123756   3.920   0.908   3.402  0.5731 -0.1462 -0.6700
 4099SOL    HW223757   3.838   1.009   3.466  0.4924  0.3214  0.7303
 4100SOL     OW23758   1.893   1.118   3.020 -0.6176 -0.6074  0.4836
 4100SOL    HW123759   1.879   1.081   3.107  3.3327  0.1096  1.4277
 4100SOL    HW223760   1.821   1.069   2.981  0.8355  0.0538 -3.0384
 4101SOL     OW23761   1.384   2.686   3.279 -0.2418  0.5452 -0.6272
 4101SOL    HW123762   1.306   2.719   3.324 -1.3688  0.9830 -2.8550
 4101SOL    HW223763   1.355   2.596   3.267 -1.1880  1.2584 -3.9419
 4102SOL     OW23764   3.272   2.061   3.412  0.0550  0.0106  0.3361
 4102SOL    HW123765   3.365   2.038   3.416 -0.3261 -1.4049  0.8294
 4102SOL    HW223766   3.257   2.106   3.496  0.1532 -0.9843  0.8797
 4103SOL     OW23767   2.483   2.007   9.600 -0.1571 -0.3378  0.6845
 4103SOL    HW123768   2.534   2.062   9.541 -0.2834 -0.3248  0.5884
 4103SOL    HW223769   2.403   2.018   9.550  2.0485  0.6927 -2.6625
 4104SOL     OW23770   0.437   4.345   2.851 -0.2577  0.4063 -0.6419
 4104SOL    HW123771   0.525   4.309   2.841 -0.2258 -0.0341  1.3041
 4104SOL    HW223772   0.383   4.267   2.861 -0.3583  0.1486 -3.2192
 4105SOL     OW23773   1.191   1.101   2.574  0.4508 -0.6467  0.1077
 4105SOL    HW123774   1.116   1.115   2.515  0.8167 -0.5105 -0.3255
 4105SOL    HW223775   1.181   1.189   2.612 -2.1836 -0.0155 -1.9939
 4106SOL     OW23776   3.714   3.311   0.230  0.0311  0.1325 -0.4008
 4106SOL    HW123777   3.729   3.217   0.215  3.0625  0.7117 -1.0890
 4106SOL    HW223778   3.791   3.328   0.284 -0.5730 -1.9438  1.0958
 4107SOL     OW23779   3.351   4.463   6.119 -0.3231  0.2299 -0.0852
 4107SOL    HW123780   3.361   4.420   6.034  2.6966  2.0786 -0.6569
 4107SOL    HW223781   3.323   4.394   6.180  0.7781  1.3167  1.6390
 4108SOL     OW23782   2.931   4.387   4.048  0.5203  0.1064 -0.3585
 4108SOL    HW123783   2.885   4.444   4.110  1.7034 -1.9962  2.4656
 4108SOL    HW223784   2.994   4.444   4.005  0.7098  0.2083  0.0540
 4109SOL     OW23785   2.812   1.571   2.847  0.0487 -0.2226 -0.0006
 4109SOL    HW123786   2.776   1.628   2.915  1.8812  3.0262 -1.7293
 4109SOL    HW223787   2.746   1.502   2.855 -0.3069  0.4029  2.6526
 4110SOL     OW23788   1.544   0.531   5.683  0.1950 -0.7857  0.9532
 4110SOL    HW123789   1.472   0.557   5.627  1.6046  1.0960  0.0130
 4110SOL    HW223790   1.515   0.572   5.765  2.5070  0.4170  1.1932
 4111SOL     OW23791   1.601   3.044  11.815  0.1629  0.7158  0.4130
 4111SOL    HW123792   1.681   3.011  11.856 -1.0848 -1.0294  1.4405
 4111SOL    HW223793   1.614   3.027  11.721  1.0669 -1.1415  0.8812
 4112SOL     OW23794   4.015   3.500   1.458  0.4329  0.5985  0.0144
 4112SOL    HW123795   3.997   3.575   1.515  1.1744  0.9592 -0.2297
 4112SOL    HW223796   3.965   3.523   1.379  1.0377 -0.9075 -0.8116
 4113SOL     OW23797   3.127   3.837   9.906  1.1519  0.2978  0.0027
 4113SOL    HW123798   3.172   3.851   9.823  1.7184 -0.8160  0.1297
 4113SOL    HW223799   3.139   3.743   9.921  0.6527  0.0182 -1.3586
 4114SOL     OW23800   0.624   3.256   4.708  0.7967  0.3144 -0.0884
 4114SOL    HW123801   0.578   3.198   4.769 -1.9094 -1.6428 -3.9743
 4114SOL    HW223802   0.562   3.328   4.723 -0.5441 -1.3705  2.5314
 4115SOL     OW23803   3.411   3.185   1.098  0.1425 -0.1306  0.3889
 4115SOL    HW123804   3.340   3.220   1.043 -1.1732  1.7952  3.2983
 4115SOL    HW223805   3.384   3.214   1.185 -1.0155  0.6664 -0.2299
 4116SOL     OW23806   3.190   3.177  10.536  0.1569  0.1959 -0.2364
 4116SOL    HW123807   3.240   3.135  10.606 -0.3584  1.2382  0.7363
 4116SOL    HW223808   3.113   3.197  10.588  1.7144  1.7504  1.4861
 4117SOL     OW23809   2.074   0.292   5.643 -0.3728  0.1161 -0.4057
 4117SOL    HW123810   1.978   0.298   5.644 -0.5681 -2.5088 -4.0031
 4117SOL    HW223811   2.080   0.198   5.661  1.1300  0.0210 -1.4491
 4118SOL     OW23812   2.979   4.659   7.192  0.1448  0.1307 -0.4405
 4118SOL    HW123813   3.039   0.010   7.200  0.4932  0.0166 -2.0195
 4118SOL    HW223814   2.930   4.697   7.119 -0.4846 -0.5403 -0.3635
 4119SOL     OW23815   3.408   4.443   8.824  0.0834 -0.6346 -0.7303
 4119SOL    HW123816   3.501   4.441   8.801  0.5525 -0.7921  1.1688
 4119SOL    HW223817   3.371   4.372   8.772  0.0184 -0.9992 -0.1873
 4120SOL     OW23818   0.421   4.628   1.217 -0.1096 -0.1229 -0.2811
 4120SOL    HW123819   0.405   4.547   1.265 -2.7832  1.2169  1.1194
 4120SOL    HW223820   0.433   4.682   1.296  3.3747 -1.2269 -0.0582
 4121SOL     OW23821   0.647   0.283  13.651 -0.7542 -0.0176 -0.5336
 4121SOL    HW123822   0.738   0.303  13.675 -0.2046  0.3466 -2.8263
 4121SOL    HW223823   0.651   0.187  13.645  2.4299 -0.0356  2.2362
 4122SOL     OW23824   0.803   0.818   9.177 -0.8386 -0.2828  0.5742
 4122SOL    HW123825   0.807   0.860   9.092 -2.8085  1.8561  1.5261
 4122SOL    HW223826   0.730   0.865   9.218  1.7778  3.4404  0.8636
 4123SOL     OW23827   1.793   2.141   3.839  0.1668  0.1390  0.4720
 4123SOL    HW123828   1.816   2.048   3.840 -0.3110 -0.0088 -1.2883
 4123SOL    HW223829   1.845   2.165   3.916  0.9445  1.5877 -0.5070
 4124SOL     OW23830   1.527   0.299  13.188 -0.6081 -0.2008 -0.2805
 4124SOL    HW123831   1.492   0.361  13.251  3.2653  1.3642  0.3076
 4124SOL    HW223832   1.592   0.347  13.137 -1.3446  0.0376 -0.9777
 4125SOL     OW23833   0.845   4.414   3.267  0.2298  0.1976 -0.2866
 4125SOL    HW123834   0.772   4.374   3.220 -0.5849  1.1414  0.1940
 4125SOL    HW223835   0.822   4.507   3.261 -0.9967  0.0199  1.4998
 4126SOL     OW23836   1.739   1.035   6.938  0.0005  0.5609 -0.0098
 4126SOL    HW123837   1.670   1.065   6.998 -0.0310 -0.1170  0.2942
 4126SOL    HW223838   1.710   0.949   6.908  0.6438 -0.3791  2.0632
 4127SOL     OW23839   2.585   1.576  13.892 -0.0506  0.3082 -0.1845
 4127SOL    HW123840   2.583   1.627  13.973 -1.6407  0.6583 -0.4403
 4127SOL    HW223841   2.650   1.507  13.902 -0.0814  0.4955  1.4349
 4128SOL     OW23842   1.977   1.435   9.996  0.4860  0.2340  0.2767
 4128SOL    HW123843   1.885   1.453  10.016  0.1601  0.5931 -1.5509
 4128SOL    HW223844   2.024   1.516  10.018 -1.0712  1.0093  0.7547
 4129SOL     OW23845   2.323   0.636   9.973 -0.7667 -0.6271 -0.0116
 4129SOL    HW123846   2.389   0.586   9.926 -0.2810  0.8922 -0.9742
 4129SOL    HW223847   2.296   0.699   9.906  0.8856 -1.1682 -1.1787
 4130SOL     OW23848   0.113   3.140   4.124 -0.6786  0.9014  0.0836
 4130SOL    HW123849   0.074   3.179   4.203  1.8122  2.7669  0.3856
 4130SOL    HW223850   0.050   3.071   4.104  1.8235 -0.9379 -1.3415
 4131SOL     OW23851   4.168   3.538  12.913 -0.5301 -0.3581 -0.2051
 4131SOL    HW123852   4.247   3.536  12.859 -1.2471 -0.9183 -1.2426
 4131SOL    HW223853   4.205   3.535  13.001  0.5291  0.0714 -0.6367
 4132SOL     OW23854   4.079   0.712   1.809 -0.1075  0.0926 -0.0257
 4132SOL    HW123855   4.018   0.660   1.756  2.3091 -2.9300  0.1794
 4132SOL    HW223856   4.165   0.670   1.805 -1.2759 -2.1737 -1.4304
 4133SOL     OW23857   1.482   1.670   1.011 -0.3025  0.4934  0.0508
 4133SOL    HW123858   1.426   1.659   1.088  0.3974 -0.1416  0.4777
 4133SOL    HW223859   1.566   1.687   1.054  0.6462  0.4568 -1.7959
 4134SOL     OW23860   2.406   2.607   5.625  0.3167 -0.1206 -0.0266
 4134SOL    HW123861   2.314   2.592   5.604 -0.1254  1.0320  1.0875
 4134SOL    HW223862   2.420   2.701   5.609 -0.1508  0.1654  1.2453
 4135SOL     OW23863   2.071   1.648   3.450 -0.3808 -0.1465  0.5476
 4135SOL    HW123864   2.156   1.660   3.406 -0.1075 -1.3775  0.7377
 4135SOL    HW223865   2.040   1.738   3.460 -1.9968 -0.5034 -1.2467
 4136SOL     OW23866   1.939   0.350   4.021 -0.2084  0.0824  0.0387
 4136SOL    HW123867   1.924   0.357   4.116  1.2679  0.3692  0.2438
 4136SOL    HW223868   2.016   0.407   4.013 -0.6197  0.1483 -3.3576
 4137SOL     OW23869   3.361   4.225   0.897  0.1299 -0.2876 -0.1855
 4137SOL    HW123870   3.319   4.298   0.944 -1.5996 -0.1337 -1.9911
 4137SOL    HW223871   3.442   4.211   0.947 -0.9019 -1.3369  1.1983
 4138SOL     OW23872   2.597   3.389   4.784 -0.0315  1.0629  1.1574
 4138SOL    HW123873   2.636   3.390   4.871  1.3118  2.0933  0.5573
 4138SOL    HW223874   2.670   3.422   4.731  0.2313 -1.1817  0.1338
 4139SOL     OW23875   4.534   1.339   5.863  0.1050 -0.0293 -0.3856
 4139SOL    HW123876   4.562   1.389   5.787  0.9370  2.0665  1.3026
 4139SOL    HW223877   4.458   1.389   5.891 -1.9810 -2.5378 -1.6157
 4140SOL     OW23878   1.195   0.749  12.035  0.4086  0.2659 -0.3640
 4140SOL    HW123879   1.285   0.781  12.036  0.6832 -0.5233 -0.6216
 4140SOL    HW223880   1.139   0.825  12.016 -2.7586 -2.5832 -2.3277
 4141SOL     OW23881   1.997   4.074   7.457  0.1371  0.8363 -0.2487
 4141SOL    HW123882   1.990   4.054   7.363 -1.1510  0.7361 -0.1241
 4141SOL    HW223883   1.912   4.117   7.462 -0.1376 -0.1251  2.9977
 4142SOL     OW23884   3.461   0.928   7.539  0.2792 -0.6861  0.0375
 4142SOL    HW123885   3.466   0.878   7.458  1.8070 -0.0048 -0.2749
 4142SOL    HW223886   3.412   1.007   7.515 -0.8447 -0.7800  1.9965
 4143SOL     OW23887   3.563   3.672   2.764  0.3895  0.5802 -0.2231
 4143SOL    HW123888   3.606   3.726   2.697  2.1585  1.1794  1.4215
 4143SOL    HW223889   3.601   3.588   2.738 -1.1062 -0.0261 -0.4789
 4144SOL     OW23890   4.717   1.381   5.093 -0.0125 -0.1705  0.2929
 4144SOL    HW123891   0.078   1.425   5.093 -0.2301  0.2488  1.5026
 4144SOL    HW223892   4.666   1.439   5.037  2.2886  0.4603 -1.1605
 4145SOL     OW23893   0.626   1.571   7.440  0.0660 -0.8560  0.1553
 4145SOL    HW123894   0.653   1.662   7.425 -2.0575 -0.0788  0.9323
 4145SOL    HW223895   0.532   1.574   7.421 -0.1649  1.4878  1.5540
 4146SOL     OW23896   1.014   1.790   7.666 -0.2577 -0.5870  0.5795
 4146SOL    HW123897   1.046   1.784   7.756 -0.6213 -1.2876  0.6613
 4146SOL    HW223898   0.927   1.829   7.663  0.3215  0.4799 -2.1157
 4147SOL     OW23899   1.684   3.815  14.183 -0.0950 -0.0467  0.0804
 4147SOL    HW123900   1.612   3.756  14.207 -0.7521  1.1098  0.9372
 4147SOL    HW223901   1.651   3.881  14.123 -2.1209 -0.6254  0.5777
 4148SOL     OW23902   2.685   1.651   8.354 -0.6053  0.0636 -0.4433
 4148SOL    HW123903   2.603   1.605   8.364 -0.8024  0.3761 -0.6245
 4148SOL    HW223904   2.698   1.656   8.449  1.9016  1.4839 -0.8469
 4149SOL     OW23905   1.972   2.105   7.261 -0.3062 -0.0654  0.4706
 4149SOL    HW123906   1.931   2.093   7.347  0.7965  1.0386  1.1518
 4149SOL    HW223907   2.035   2.173   7.283  2.1563 -1.4645 -2.2328
 4150SOL     OW23908   3.222   4.390   4.647 -0.0279  0.3176 -0.8484
 4150SOL    HW123909   3.281   4.357   4.715 -3.2545 -0.3807  1.6109
 4150SOL    HW223910   3.170   4.453   4.697  1.1178  0.5147  0.0894
 4151SOL     OW23911   3.455   3.271   2.911 -0.4880  0.0947  0.1918
 4151SOL    HW123912   3.468   3.176   2.909  1.7432  0.4135 -1.2589
 4151SOL    HW223913   3.398   3.264   2.987 -2.5980 -0.6495 -1.4654
 4152SOL     OW23914   0.052   3.547   7.624  0.1998 -0.3036  0.3288
 4152SOL    HW123915   0.007   3.499   7.693  2.1825  1.3266  2.7299
 4152SOL    HW223916   0.117   3.483   7.597  1.3460  0.6763  0.7806
 4153SOL     OW23917   2.383   0.213  10.576  0.2083 -0.4645  0.0318
 4153SOL    HW123918   2.309   0.223  10.516  0.8061 -0.4509 -0.7072
 4153SOL    HW223919   2.399   0.120  10.564 -0.7322 -0.5552 -0.5613
 4154SOL     OW23920   0.221   0.424   7.533 -0.1255 -0.2993 -0.2633
 4154SOL    HW123921   0.229   0.362   7.605  2.6183  0.2872 -0.0585
 4154SOL    HW223922   0.312   0.454   7.535 -0.6598  1.3874 -1.1396
 4155SOL     OW23923   0.498   3.831   8.002 -0.3438 -0.4222  0.2365
 4155SOL    HW123924   0.457   3.791   7.924 -0.0924 -1.6427  0.7273
 4155SOL    HW223925   0.428   3.831   8.068  1.8438  0.1361  2.5307
 4156SOL     OW23926   3.260   0.239   4.698 -0.2794  0.2519 -0.0863
 4156SOL    HW123927   3.332   0.267   4.641 -1.8442  0.5827 -1.8836
 4156SOL    HW223928   3.246   0.323   4.743 -1.3809  0.8328 -1.5256
 4157SOL     OW23929   0.247   2.946   5.007 -0.5883  0.5188 -0.1929
 4157SOL    HW123930   0.281   2.859   4.985  1.1513  1.1318  0.1061
 4157SOL    HW223931   0.158   2.936   4.973 -1.0456 -0.6259  1.3434
 4158SOL     OW23932   0.725   0.923   7.457 -0.8135 -0.1194  0.7156
 4158SOL    HW123933   0.777   0.919   7.536  1.0188  1.4088 -0.4125
 4158SOL    HW223934   0.669   0.994   7.488  0.5516  0.6056  1.4880
 4159SOL     OW23935   4.342   1.494   8.429  0.0318 -0.1939 -0.4653
 4159SOL    HW123936   4.384   1.419   8.389 -0.3256  0.6268 -2.3800
 4159SOL    HW223937   4.404   1.530   8.492  1.7955  0.9629 -2.8761
 4160SOL     OW23938   1.154   0.998   4.384  0.0410  0.0038 -0.1934
 4160SOL    HW123939   1.136   0.905   4.376  0.1192  0.1134 -1.8126
 4160SOL    HW223940   1.245   0.989   4.354  0.1110  1.1541 -0.3463
 4161SOL     OW23941   1.328   1.658   0.758  0.5718  0.2926 -0.1121
 4161SOL    HW123942   1.383   1.681   0.833 -0.3498 -1.1277  0.9973
 4161SOL    HW223943   1.400   1.659   0.695  1.7379  1.3093  1.2448
 4162SOL     OW23944   1.658   3.531   7.589  0.6755  0.3031  0.1534
 4162SOL    HW123945   1.709   3.605   7.621  1.5941  0.2143 -1.1072
 4162SOL    HW223946   1.656   3.552   7.496 -1.0305 -0.0097  0.1137
 4163SOL     OW23947   2.992   2.288   4.564  0.3241 -0.6699  0.4035
 4163SOL    HW123948   2.916   2.240   4.598 -0.1512  0.6432  1.2078
 4163SOL    HW223949   3.018   2.318   4.651  1.2285  0.1809 -0.1579
 4164SOL     OW23950   2.014   4.438  12.477  0.4434  0.0583 -0.3676
 4164SOL    HW123951   2.044   4.352  12.450 -0.2837  0.2886 -1.9199
 4164SOL    HW223952   1.937   4.422  12.530  1.2770  2.0597  1.4516
 4165SOL     OW23953   2.021   4.259   8.792  0.2842 -0.8901 -0.5148
 4165SOL    HW123954   2.084   4.207   8.741  1.0994  0.0753 -0.4900
 4165SOL    HW223955   2.070   4.305   8.860 -1.3077 -1.0939  0.7657
 4166SOL     OW23956   0.942   4.370   7.717  0.3826  0.6070 -0.7728
 4166SOL    HW123957   1.006   4.310   7.756 -0.0759 -0.2896 -1.3989
 4166SOL    HW223958   0.887   4.301   7.679  0.0300  0.9950 -0.9583
 4167SOL     OW23959   0.896   3.449   9.966 -0.3214 -0.2206  0.3124
 4167SOL    HW123960   0.930   3.477  10.052  0.4790 -0.1685 -0.0178
 4167SOL    HW223961   0.979   3.414   9.933 -2.3243 -2.8685 -1.8563
 4168SOL     OW23962   4.101   1.552   0.139 -0.2272 -0.4128  0.6838
 4168SOL    HW123963   4.166   1.566   0.070  0.7730 -2.6261  1.1761
 4168SOL    HW223964   4.081   1.645   0.149  0.2547 -0.2424  0.0375
 4169SOL     OW23965   4.321   2.431   2.316 -0.0513 -0.3809  0.2668
 4169SOL    HW123966   4.342   2.491   2.244  2.4160 -0.5973  0.8391
 4169SOL    HW223967   4.382   2.359   2.304 -0.5672 -1.2926  3.1942
 4170SOL     OW23968   3.672   4.613   1.794 -0.0593 -0.3102 -0.1605
 4170SOL    HW123969   3.713   4.579   1.873  0.7818  1.3907  0.1233
 4170SOL    HW223970   3.633   4.687   1.841  2.1093  0.7255  0.0030
 4171SOL     OW23971   0.198   3.935   8.822  0.0424 -0.1759 -0.2779
 4171SOL    HW123972   0.177   4.017   8.869 -2.9728 -1.1621  0.1371
 4171SOL    HW223973   0.108   3.902   8.829 -0.1542  0.5789  0.8598
 4172SOL     OW23974   4.589   2.686   2.163 -0.0447  0.1844 -0.1258
 4172SOL    HW123975   4.532   2.627   2.114 -1.0481  0.6713  0.4554
 4172SOL    HW223976   4.526   2.758   2.165  0.2792  0.4645 -0.0300
 4173SOL     OW23977   0.420   3.646   0.207  0.1804  0.1119  0.1358
 4173SOL    HW123978   0.458   3.733   0.192  1.4552 -0.3494  0.7054
 4173SOL    HW223979   0.422   3.618   0.116 -0.2193 -0.6788  0.3681
 4174SOL     OW23980   0.676   1.031  12.492 -0.2296 -0.0218  0.1496
 4174SOL    HW123981   0.609   1.031  12.560 -0.0439  1.1083  0.3469
 4174SOL    HW223982   0.642   1.078  12.416 -2.1587 -0.9103  0.4922
 4175SOL     OW23983   3.189   2.416   5.790  0.1617  0.3213 -0.3028
 4175SOL    HW123984   3.207   2.510   5.791 -1.7111  0.7065 -2.3986
 4175SOL    HW223985   3.184   2.408   5.885  2.8095 -2.8692 -0.4449
 4176SOL     OW23986   2.180   0.793   0.194  0.6760 -0.8575 -0.5679
 4176SOL    HW123987   2.105   0.812   0.138  0.0088 -1.9757 -0.0696
 4176SOL    HW223988   2.238   0.853   0.147  0.5620 -0.5788 -0.3519
 4177SOL     OW23989   1.081   4.046   6.139  0.7239  0.5857 -0.6406
 4177SOL    HW123990   1.111   3.955   6.146 -0.2921  0.5218  2.7562
 4177SOL    HW223991   1.048   4.056   6.228  1.9871 -3.3635  0.3044
 4178SOL     OW23992   4.164   0.170  16.792 -0.1653  0.5590 -0.4697
 4178SOL    HW123993   4.251   0.188  16.828 -1.7559  2.0800  2.5859
 4178SOL    HW223994   4.121   0.179  16.877  0.0898 -0.1018 -0.2689
 4179SOL     OW23995   1.154   3.147   5.219  0.3727  0.5192  0.0908
 4179SOL    HW123996   1.210   3.165   5.143  0.5728 -2.1480 -0.4065
 4179SOL    HW223997   1.132   3.056   5.200  1.4263  0.0697  1.0375
 4180SOL     OW23998   2.046   4.324  14.047  0.1819 -0.0231  0.0370
 4180SOL    HW123999   2.039   4.414  14.016  2.6489 -0.0052 -0.4517
 4180SOL    HW224000   1.966   4.328  14.100 -0.4604 -0.1771 -0.9191
 4181SOL     OW24001   0.162   1.116  17.637 -0.1109  0.1172 -0.6100
 4181SOL    HW124002   0.229   1.047  17.636 -1.9403 -1.6685  0.1912
 4181SOL    HW224003   0.182   1.183  17.572  0.2824  0.5090 -0.0760
 4182SOL     OW24004   2.471   1.320   5.231  0.1775 -0.3759 -1.1726
 4182SOL    HW124005   2.500   1.272   5.153  1.3348 -0.6068 -0.6008
 4182SOL    HW224006   2.554   1.355   5.263 -0.5641  1.7414 -1.5356
 4183SOL     OW24007   4.188   4.581  13.833 -0.0665  0.6233 -0.2485
 4183SOL    HW124008   4.229   4.660  13.871  2.9207 -1.1791  0.3103
 4183SOL    HW224009   4.263   4.537  13.793  0.2746 -0.7400  1.9146
 4184SOL     OW24010   2.744   3.740  12.038 -0.1242 -0.2737 -0.6720
 4184SOL    HW124011   2.814   3.683  12.067  0.5690  0.2121 -1.3883
 4184SOL    HW224012   2.667   3.717  12.090  0.4692 -0.9873 -0.1156
 4185SOL     OW24013   3.649   4.306  10.319 -0.3397 -0.0075 -0.7974
 4185SOL    HW124014   3.582   4.330  10.383  1.0006 -1.9949  1.3116
 4185SOL    HW224015   3.670   4.215  10.339 -1.9759 -0.5791 -1.6152
 4186SOL     OW24016   2.797   3.223   5.228  0.7837  0.1737 -0.1314
 4186SOL    HW124017   2.892   3.217   5.217  0.6084  0.7394 -1.8645
 4186SOL    HW224018   2.783   3.186   5.316  0.2287  0.7460  0.0278
 4187SOL     OW24019   0.693   3.535   5.682  0.5487 -0.4581  0.1469
 4187SOL    HW124020   0.672   3.628   5.671 -2.2387 -1.1004  0.0043
 4187SOL    HW224021   0.764   3.522   5.618 -0.4216 -1.4630 -0.7274
 4188SOL     OW24022   1.212   3.457  16.722  0.0283  0.0671 -0.2465
 4188SOL    HW124023   1.122   3.424  16.719  0.0092 -0.0926  1.7944
 4188SOL    HW224024   1.257   3.418  16.647 -0.8441  1.0325 -1.2666
 4189SOL     OW24025   3.866   3.950  16.435  0.4137  0.2250 -0.0552
 4189SOL    HW124026   3.904   3.872  16.395  0.2091 -0.1947  0.5756
 4189SOL    HW224027   3.866   4.008  16.359  0.3175  0.8831  0.4470
 4190SOL     OW24028   1.984   0.459   7.208  0.0349  0.4673 -0.1340
 4190SOL    HW124029   1.945   0.503   7.132  1.3104  0.7110 -0.6551
 4190SOL    HW224030   2.073   0.459   7.172 -1.5526  0.5730 -4.1172
 4191SOL     OW24031   2.075   3.337   3.013 -0.2888  0.2775  0.6118
 4191SOL    HW124032   2.129   3.259   3.021  0.3473  0.7630  1.0878
 4191SOL    HW224033   2.034   3.337   3.100 -1.4403 -0.1399  0.0664
 4192SOL     OW24034   2.839   3.683   5.774 -0.6116 -0.0248 -0.0270
 4192SOL    HW124035   2.780   3.717   5.707  0.9765  0.5726 -1.1169
 4192SOL    HW224036   2.781   3.654   5.845 -1.7010  0.6360 -0.6478
 4193SOL     OW24037   3.638   0.738   5.898  0.4077  0.4108 -0.0020
 4193SOL    HW124038   3.580   0.802   5.857  2.2863  1.7424 -0.6055
 4193SOL    HW224039   3.597   0.733   5.984  0.0056 -1.3893 -0.2995
 4194SOL     OW24040   0.807   1.132   6.638  0.3885 -0.2040  0.3980
 4194SOL    HW124041   0.795   1.058   6.578  0.4580  0.9147 -1.0067
 4194SOL    HW224042   0.809   1.204   6.575  1.6858 -1.4394 -1.0084
 4195SOL     OW24043   2.888   4.077   1.500 -0.5421 -0.5856  0.9479
 4195SOL    HW124044   2.937   4.139   1.447  1.9489 -0.5956  3.2315
 4195SOL    HW224045   2.935   3.995   1.484  0.3808  0.3878 -1.3187
 4196SOL     OW24046   2.311   0.096   9.173  0.1809  0.0649  0.3263
 4196SOL    HW124047   2.289   0.124   9.263  0.1498  1.2493 -0.0419
 4196SOL    HW224048   2.384   0.037   9.186  0.6191 -0.2263 -3.5827
 4197SOL     OW24049   4.093   1.055   5.559  0.3262 -0.1225 -1.0257
 4197SOL    HW124050   4.155   1.115   5.601 -1.5241 -0.0972  1.6333
 4197SOL    HW224051   4.098   0.976   5.613  1.7639 -0.1795 -1.2331
 4198SOL     OW24052   1.597   1.473   9.222 -0.3941 -0.5874 -0.9012
 4198SOL    HW124053   1.526   1.412   9.200 -0.1729 -0.7666 -1.1130
 4198SOL    HW224054   1.665   1.449   9.160  1.1139  2.6392 -0.4947
 4199SOL     OW24055   3.567   3.202   8.237  0.1572  0.1510  0.1068
 4199SOL    HW124056   3.516   3.258   8.296 -2.6391  1.0310 -3.1553
 4199SOL    HW224057   3.625   3.262   8.190  0.6746 -1.2285 -0.9881
 4200SOL     OW24058   2.186   4.226   6.326 -0.0357 -0.5657  0.2254
 4200SOL    HW124059   2.186   4.261   6.415  0.2804  1.9605 -0.7871
 4200SOL    HW224060   2.107   4.258   6.283 -0.8064  0.1610  2.1905
 4201SOL     OW24061   3.907   1.069   1.309 -0.4531 -0.4357  0.3709
 4201SOL    HW124062   3.820   1.031   1.317 -1.2816  1.1210 -1.3305
 4201SOL    HW224063   3.883   1.156   1.279  2.5845  0.3489  0.2232
 4202SOL     OW24064   3.449   0.380   1.565  0.1391  0.4843  0.8016
 4202SOL    HW124065   3.486   0.317   1.503  0.8587  1.0605  0.6456
 4202SOL    HW224066   3.493   0.344   1.642 -2.4524 -3.1192  0.5819
 4203SOL     OW24067   1.304   4.404   2.478  0.2257  0.2573 -0.5219
 4203SOL    HW124068   1.352   4.328   2.446  0.3833 -0.4416  1.3821
 4203SOL    HW224069   1.380   4.447   2.518 -0.1989 -0.7745  1.3980
 4204SOL     OW24070   0.650   4.204   8.317  0.1564  0.3000  0.3817
 4204SOL    HW124071   0.563   4.167   8.330 -1.5125  3.1891 -2.6485
 4204SOL    HW224072   0.705   4.129   8.341 -0.6586  0.2251  2.0370
 4205SOL     OW24073   3.079   1.554   0.987 -0.2522  0.1126  0.1207
 4205SOL    HW124074   3.100   1.642   1.018 -2.7888  0.3740  1.1247
 4205SOL    HW224075   3.025   1.527   1.062 -0.5427  0.0407 -0.1122
 4206SOL     OW24076   2.553   4.528   8.091  0.2019  0.1496 -0.6407
 4206SOL    HW124077   2.575   4.615   8.124  1.1311 -0.3201 -0.0355
 4206SOL    HW224078   2.622   4.476   8.133 -0.6556 -0.2677  0.2659
 4207SOL     OW24079   1.160   2.386   8.942 -0.1163  0.0849 -0.6275
 4207SOL    HW124080   1.166   2.346   9.029 -2.2483 -0.9534 -0.9586
 4207SOL    HW224081   1.250   2.403   8.916  0.4383  1.0117  1.9378
 4208SOL     OW24082   4.378   0.413   3.292  0.4085 -0.0181 -0.1512
 4208SOL    HW124083   4.346   0.476   3.229  0.7010  0.2522 -0.0309
 4208SOL    HW224084   4.464   0.450   3.312 -0.2357  1.3494  0.0848
 4209SOL     OW24085   1.286   1.052   6.122  0.2586  0.1300  0.3918
 4209SOL    HW124086   1.225   1.082   6.055 -0.6830 -2.3151  0.1530
 4209SOL    HW224087   1.222   1.014   6.183 -0.9366 -0.3838 -1.1798
 4210SOL     OW24088   3.681   4.425   8.405 -0.0013 -0.5516 -0.3466
 4210SOL    HW124089   3.772   4.431   8.434 -0.0132  0.5664 -0.5175
 4210SOL    HW224090   3.666   4.518   8.386  0.3347 -0.5833 -0.7699
 4211SOL     OW24091   2.087   4.256   2.282  0.1310  0.9269 -0.0603
 4211SOL    HW124092   2.146   4.186   2.312  1.3416  2.0500  0.1982
 4211SOL    HW224093   2.005   4.240   2.328  0.3707 -0.5864 -0.1326
 4212SOL     OW24094   4.500   3.902   4.239 -0.0359  0.2232  0.4216
 4212SOL    HW124095   4.432   3.854   4.191 -0.7246  0.7008  0.9235
 4212SOL    HW224096   4.462   3.985   4.267 -0.7342  0.3117 -0.7836
 4213SOL     OW24097   2.859   2.793   5.092  0.0282  0.3041 -0.4561
 4213SOL    HW124098   2.848   2.710   5.046  1.2689 -0.9274  1.4699
 4213SOL    HW224099   2.774   2.791   5.135  1.3181  1.1797  2.1625
 4214SOL     OW24100   2.793   3.079   6.151  0.5429  0.4858  0.7355
 4214SOL    HW124101   2.798   3.127   6.068 -1.9023 -1.5478 -0.5975
 4214SOL    HW224102   2.704   3.044   6.145  0.9974 -0.7156  1.1814
 4215SOL     OW24103   0.847   3.766   6.940 -0.2243 -0.2075 -0.3443
 4215SOL    HW124104   0.908   3.800   7.006 -0.8333  0.0521  0.0791
 4215SOL    HW224105   0.905   3.765   6.864  0.6170 -1.0149  0.3029
 4216SOL     OW24106   1.747   0.806   0.112 -0.2022  0.1039 -0.1387
 4216SOL    HW124107   1.656   0.814   0.084  0.5926 -0.1232 -2.7209
 4216SOL    HW224108   1.734   0.743   0.183 -0.9428 -0.6083 -0.9121
 4217SOL     OW24109   0.572   4.637   2.119 -0.3578  0.1876  0.2707
 4217SOL    HW124110   0.500   4.695   2.144 -1.6109 -0.7508 -1.1524
 4217SOL    HW224111   0.549   4.604   2.032 -2.9721 -0.7665  1.3360
 4218SOL     OW24112   3.073   2.997   6.885 -0.1970  0.1381 -0.0324
 4218SOL    HW124113   3.099   2.915   6.844  0.6791  0.4739 -0.1396
 4218SOL    HW224114   3.125   2.994   6.966 -0.1407  1.2052 -0.0280
 4219SOL     OW24115   4.221   0.866   3.426 -0.3034  0.3644  0.4516
 4219SOL    HW124116   4.149   0.924   3.399 -1.8579 -0.4578  2.8336
 4219SOL    HW224117   4.187   0.830   3.507  1.5603  0.5420  1.3050
 4220SOL     OW24118   2.945   4.453  12.714  0.0468 -0.1889 -0.1437
 4220SOL    HW124119   2.869   4.509  12.697  0.6492  0.2483 -1.3888
 4220SOL    HW224120   2.966   4.412  12.630  0.3076 -0.1222 -0.1106
 4221SOL     OW24121   3.071   2.903   7.698  0.0647 -0.5112 -0.1210
 4221SOL    HW124122   3.023   2.986   7.688  0.9848  0.0280  0.0140
 4221SOL    HW224123   3.134   2.944   7.757  0.6632  1.1891 -1.9403
 4222SOL     OW24124   3.073   1.124   7.414 -0.0092 -0.0120 -0.8311
 4222SOL    HW124125   3.041   1.073   7.339 -1.8048  0.6851 -0.5231
 4222SOL    HW224126   2.993   1.124   7.466  1.4732 -0.7627  1.4572
 4223SOL     OW24127   2.703   1.176   9.066  0.3181 -0.2119 -0.4021
 4223SOL    HW124128   2.709   1.265   9.032 -0.4498 -0.5337 -1.4115
 4223SOL    HW224129   2.720   1.195   9.158  1.2383 -0.7751 -0.4592
 4224SOL     OW24130   1.746   2.302   4.860  0.0812  0.3079  0.2660
 4224SOL    HW124131   1.702   2.387   4.857  0.1725  0.3502  0.1108
 4224SOL    HW224132   1.762   2.289   4.766 -1.2187 -0.1688  0.1140
 4225SOL     OW24133   2.131   1.360   5.440 -0.0701 -0.0188 -0.0346
 4225SOL    HW124134   2.093   1.448   5.436  0.1022 -0.0284 -2.1501
 4225SOL    HW224135   2.172   1.360   5.353 -0.7817 -1.3337 -0.3742
 4226SOL     OW24136   0.614   2.848   4.724  0.1183  0.1980  0.3527
 4226SOL    HW124137   0.648   2.909   4.790  0.8163 -1.5757  1.6581
 4226SOL    HW224138   0.650   2.764   4.753 -0.1749 -0.0411  0.0214
 4227SOL     OW24139   1.099   1.759   2.912 -0.5185  0.2584 -0.3754
 4227SOL    HW124140   1.060   1.722   2.992 -0.3664  1.4799  0.2661
 4227SOL    HW224141   1.133   1.681   2.868  1.4763  0.8253  0.1699
 4228SOL     OW24142   1.565   1.478  14.343  0.3069 -0.4816  0.1810
 4228SOL    HW124143   1.648   1.492  14.297 -0.0170  1.3722  0.1785
 4228SOL    HW224144   1.550   1.558  14.393  1.1102  0.2847 -0.7977
 4229SOL     OW24145   2.560   3.976   6.937  0.2311 -0.6299  0.3333
 4229SOL    HW124146   2.554   3.968   6.842  1.0127 -2.5322  0.4464
 4229SOL    HW224147   2.497   3.909   6.962  1.0199 -0.7879  1.8797
 4230SOL     OW24148   4.417   2.399   7.288  0.3002 -0.4958 -0.1148
 4230SOL    HW124149   4.435   2.373   7.198  0.2845  2.6872 -1.0389
 4230SOL    HW224150   4.503   2.388   7.328 -0.5922  1.3466  2.3025
 4231SOL     OW24151   1.225   0.066   5.672  0.2164 -0.4263 -0.0644
 4231SOL    HW124152   1.279   4.722   5.713 -1.7649 -0.1702  3.0319
 4231SOL    HW224153   1.286   0.140   5.667 -0.4333  0.0907 -0.4310
 4232SOL     OW24154   3.313   1.560   8.051  0.6665 -0.0003  0.2150
 4232SOL    HW124155   3.324   1.472   8.015  1.1653  0.1116  0.0879
 4232SOL    HW224156   3.398   1.598   8.028  0.2274 -0.2353 -1.7223
 4233SOL     OW24157   1.062   1.136   5.981  0.1694 -0.3070  0.0680
 4233SOL    HW124158   0.979   1.090   5.994  0.1419 -0.1089  0.6157
 4233SOL    HW224159   1.038   1.214   5.932  0.1360 -0.6452 -0.4498
 4234SOL     OW24160   0.521   2.802   8.706 -0.0992  0.2535 -0.6037
 4234SOL    HW124161   0.512   2.719   8.753  1.4619  0.1339 -0.5366
 4234SOL    HW224162   0.591   2.849   8.751 -1.8901  1.1545  1.2487
 4235SOL     OW24163   1.465   4.692   0.497  0.0451 -0.0381 -0.3688
 4235SOL    HW124164   1.490   4.708   0.406  0.3687 -0.6531 -0.3908
 4235SOL    HW224165   1.418   0.049   0.517 -0.3416 -0.4342  0.3561
 4236SOL     OW24166   2.004   3.728  14.987  0.2967 -0.3336  0.4797
 4236SOL    HW124167   2.061   3.653  15.007 -0.5459 -1.0761  0.0964
 4236SOL    HW224168   2.065   3.801  14.999  2.6657 -2.0160 -1.3094
 4237SOL     OW24169   0.264   0.832  14.437  0.1974  0.8496 -0.4045
 4237SOL    HW124170   0.359   0.834  14.447 -0.1013 -0.9152  2.7367
 4237SOL    HW224171   0.247   0.743  14.406 -1.2209  0.8662  0.3123
 4238SOL     OW24172   1.356   3.530   7.754 -0.3036 -0.1794  0.1041
 4238SOL    HW124173   1.426   3.557   7.812 -1.0687  2.0386  0.0125
 4238SOL    HW224174   1.277   3.536   7.807  0.3708  1.4006  0.9139
 4239SOL     OW24175   1.428   3.578   3.071  0.6025  0.1070 -0.2747
 4239SOL    HW124176   1.382   3.600   2.990 -0.6560 -0.2259  0.3497
 4239SOL    HW224177   1.516   3.584   3.035  0.3347 -0.0956 -0.9586
 4240SOL     OW24178   4.466   0.886   3.298  0.3665  0.1208  0.4522
 4240SOL    HW124179   4.386   0.857   3.343  0.0119 -0.7538 -0.7437
 4240SOL    HW224180   4.498   0.941   3.370 -0.8351  0.5546  0.6604
 4241SOL     OW24181   1.511   3.624  10.915 -0.6121 -0.8495  0.4977
 4241SOL    HW124182   1.579   3.601  10.979 -0.7998  1.3836  1.5018
 4241SOL    HW224183   1.501   3.715  10.944  0.8644 -0.0628 -1.5112
 4242SOL     OW24184   0.462   1.817   3.377 -0.0128  0.2180  0.1508
 4242SOL    HW124185   0.477   1.850   3.289 -0.2530  1.9505  0.7639
 4242SOL    HW224186   0.400   1.883   3.408 -0.3055 -0.3555  0.8133
 4243SOL     OW24187   1.542   0.517  13.983 -0.0582 -0.0314  0.2026
 4243SOL    HW124188   1.472   0.492  13.923 -0.8339 -3.0161  2.3388
 4243SOL    HW224189   1.502   0.498  14.068  1.8711 -1.4407  0.8122
 4244SOL     OW24190   0.537   3.007  15.405  0.0464  0.2127  0.0198
 4244SOL    HW124191   0.572   3.043  15.485 -1.1462 -2.6765  1.8548
 4244SOL    HW224192   0.467   3.071  15.390  0.1037  0.5692  1.2950
 4245SOL     OW24193   2.789   4.255  12.801  0.0659  0.0551 -0.1298
 4245SOL    HW124194   2.865   4.297  12.761  0.6555 -3.1723 -2.4545
 4245SOL    HW224195   2.762   4.325  12.860 -0.0613 -0.3199  0.2555
 4246SOL     OW24196   0.253   4.478   3.210  0.3561 -0.4059  0.3084
 4246SOL    HW124197   0.225   4.464   3.120  0.6484  1.7934 -0.1206
 4246SOL    HW224198   0.193   4.551   3.228  1.2423  0.4064 -0.0486
 4247SOL     OW24199   2.198   2.973   6.017  0.3281  0.0679  0.7348
 4247SOL    HW124200   2.150   3.037   6.070 -0.3806  0.4503 -0.3564
 4247SOL    HW224201   2.270   3.026   5.983 -0.6107  1.8245  1.4599
 4248SOL     OW24202   1.097   2.466   7.622 -0.7893  0.3783 -0.0208
 4248SOL    HW124203   1.003   2.469   7.640 -1.0925  1.0619 -1.7582
 4248SOL    HW224204   1.103   2.554   7.586 -0.9061  0.2838 -0.2711
 4249SOL     OW24205   1.795   2.686   0.629 -0.4052  0.8453 -0.0892
 4249SOL    HW124206   1.858   2.634   0.579 -0.5756 -1.1003  1.6779
 4249SOL    HW224207   1.844   2.697   0.711  0.7517 -3.2830 -0.2101
 4250SOL     OW24208   4.430   3.900  10.401  0.0836 -0.3072  0.0583
 4250SOL    HW124209   4.348   3.945  10.379  0.5997  0.0373 -1.1234
 4250SOL    HW224210   4.491   3.974  10.407  1.7144 -1.4959 -1.9352
 4251SOL     OW24211   3.717   0.665   7.974 -0.3059  0.5002 -0.2636
 4251SOL    HW124212   3.645   0.619   8.018 -2.2747  2.5325 -1.3690
 4251SOL    HW224213   3.790   0.614   8.010 -0.3073  1.2569  0.8236
 4252SOL     OW24214   3.140   0.168   1.012 -0.1964 -0.2755  0.2460
 4252SOL    HW124215   3.137   0.074   0.996 -0.8089 -0.4974  1.6447
 4252SOL    HW224216   3.049   0.198   1.012 -0.1768 -0.2024  1.7853
 4253SOL     OW24217   2.499   3.652   3.608 -0.3174 -0.1754  0.2630
 4253SOL    HW124218   2.529   3.688   3.691  0.8653  2.3494 -1.2808
 4253SOL    HW224219   2.420   3.705   3.597 -0.6997 -0.8756 -0.3571
 4254SOL     OW24220   0.442   2.255  16.836 -0.5336 -0.2144  0.1830
 4254SOL    HW124221   0.384   2.233  16.909 -2.3121  1.4630 -0.7124
 4254SOL    HW224222   0.476   2.341  16.860  0.7282 -0.0742 -2.1633
 4255SOL     OW24223   4.401   2.798   7.993 -0.5226 -0.0176  0.8768
 4255SOL    HW124224   4.403   2.891   8.013 -2.6755  0.4174 -0.9600
 4255SOL    HW224225   4.328   2.757   8.039  0.1694  0.3908  2.3390
 4256SOL     OW24226   0.955   1.305  12.630  0.9885  0.0082 -0.0111
 4256SOL    HW124227   0.882   1.280  12.685  0.7564 -0.5236 -0.5593
 4256SOL    HW224228   0.997   1.220  12.616 -2.0873 -1.8709  2.2502
 4257SOL     OW24229   3.661   3.309   6.075  0.4258  0.7296 -0.1276
 4257SOL    HW124230   3.578   3.357   6.079 -0.9012 -1.6271  0.7544
 4257SOL    HW224231   3.629   3.219   6.064 -0.9588  1.1675  0.3252
 4258SOL     OW24232   2.355   3.138   5.456  0.2534  0.5799 -0.6970
 4258SOL    HW124233   2.415   3.209   5.477  0.8569  0.3819 -1.7290
 4258SOL    HW224234   2.362   3.084   5.535 -1.4833  0.7982 -0.3945
 4259SOL     OW24235   1.075   2.555   5.803  0.3308  0.5561 -0.5815
 4259SOL    HW124236   1.128   2.475   5.803  0.8977  0.9284  0.4417
 4259SOL    HW224237   1.076   2.590   5.892  1.8024 -1.6667  0.2654
 4260SOL     OW24238   1.039   0.519   3.663  0.8438  0.3695  0.0048
 4260SOL    HW124239   1.021   0.587   3.728  1.3438  0.9981 -0.5329
 4260SOL    HW224240   1.119   0.553   3.623  0.6093  0.8915 -0.0180
 4261SOL     OW24241   3.747   2.208   3.735  0.2854  0.4064  0.2389
 4261SOL    HW124242   3.664   2.205   3.784  0.6005 -2.0159  0.6427
 4261SOL    HW224243   3.784   2.287   3.774 -1.1904  0.7609  0.9602
 4262SOL     OW24244   1.041   3.166  14.512 -0.0876  0.6503  0.0466
 4262SOL    HW124245   1.013   3.198  14.597  2.8176 -1.1504  1.7067
 4262SOL    HW224246   1.127   3.126  14.528 -0.6040 -0.3432  0.3289
 4263SOL     OW24247   3.877   3.643   4.934  0.2960  0.1951  0.4759
 4263SOL    HW124248   3.815   3.620   4.865  1.7706  0.6132 -0.9891
 4263SOL    HW224249   3.897   3.736   4.924  0.5378  0.0651 -0.2935
 4264SOL     OW24250   3.522   2.959   2.633  0.2733  0.2934 -0.8749
 4264SOL    HW124251   3.612   2.930   2.623  0.4259  0.4721 -0.0093
 4264SOL    HW224252   3.474   2.944   2.551 -0.7432 -2.7059  0.2459
 4265SOL     OW24253   3.296   0.681  12.398  0.0790  0.5114 -0.2252
 4265SOL    HW124254   3.355   0.726  12.337 -0.8448  1.6710 -0.2614
 4265SOL    HW224255   3.339   0.701  12.481 -0.3337 -0.7498  0.3010
 4266SOL     OW24256   4.355   0.166   8.294  0.1238 -0.2238 -0.0106
 4266SOL    HW124257   4.268   0.182   8.330  1.6815  0.2314  3.5861
 4266SOL    HW224258   4.413   0.158   8.370 -0.0958  0.8765  0.2752
 4267SOL     OW24259   4.546   1.503   0.370  0.6133  0.8937  0.3114
 4267SOL    HW124260   4.600   1.466   0.440  0.1088  1.1723  0.8525
 4267SOL    HW224261   4.513   1.423   0.329 -0.9972  1.3160  0.7507
 4268SOL     OW24262   3.299   0.027   3.202  0.0134 -0.7499  0.6051
 4268SOL    HW124263   3.223   4.698   3.180  0.6108 -0.2951 -2.4763
 4268SOL    HW224264   3.255   0.068   3.277 -1.3862 -0.8901 -0.1371
 4269SOL     OW24265   2.457   1.038  13.542  0.0643 -0.3475  0.3155
 4269SOL    HW124266   2.412   1.123  13.539 -1.9815 -1.4117  1.0505
 4269SOL    HW224267   2.379   0.987  13.564  2.1904 -3.9975 -0.6836
 4270SOL     OW24268   3.848   2.720   2.998  0.1662 -0.5571 -0.4361
 4270SOL    HW124269   3.755   2.728   3.019  0.8732  0.7846  2.2926
 4270SOL    HW224270   3.867   2.814   3.002  1.8544 -0.9441  1.2037
 4271SOL     OW24271   1.390   4.399   8.134 -0.3887 -0.6040 -0.0626
 4271SOL    HW124272   1.337   4.479   8.129 -0.8988 -0.7509  2.9143
 4271SOL    HW224273   1.369   4.361   8.049 -0.9074  0.6217 -0.4917
 4272SOL     OW24274   1.348   4.418   5.764  0.3210 -0.4573  0.1970
 4272SOL    HW124275   1.314   4.378   5.844  0.5112 -2.1720 -0.5771
 4272SOL    HW224276   1.424   4.366   5.738 -1.6343 -2.2850 -1.8639
 4273SOL     OW24277   3.037   4.529   2.881  0.0851 -0.4136 -0.0300
 4273SOL    HW124278   2.950   4.490   2.880 -0.1769  0.1661  0.2334
 4273SOL    HW224279   3.024   4.606   2.825  2.5178  0.0446  0.0038
 4274SOL     OW24280   3.544   0.295   4.900 -0.0634  0.3347  0.0097
 4274SOL    HW124281   3.476   0.261   4.841 -2.3154 -0.3492  3.0474
 4274SOL    HW224282   3.509   0.383   4.909  2.3329  1.2244  0.5907
 4275SOL     OW24283   2.717   2.877   4.413 -0.3250 -0.3187 -0.1711
 4275SOL    HW124284   2.790   2.822   4.384  0.6038 -0.2622  2.0185
 4275SOL    HW224285   2.747   2.961   4.380 -0.2855 -0.3769 -0.2841
 4276SOL     OW24286   0.711   3.822   7.792 -0.4331 -0.1772  0.3804
 4276SOL    HW124287   0.663   3.862   7.720  0.7930  1.5392  0.5081
 4276SOL    HW224288   0.645   3.834   7.860  0.4265 -2.0931  1.5349
 4277SOL     OW24289   2.718   0.321   9.660  0.0528 -0.0820  0.0858
 4277SOL    HW124290   2.666   0.383   9.712 -2.4985  0.8428 -3.5876
 4277SOL    HW224291   2.700   0.237   9.703  1.1046 -0.7410 -0.7685
 4278SOL     OW24292   4.209   3.844  13.299 -0.0182  0.3869 -0.4122
 4278SOL    HW124293   4.258   3.816  13.376 -0.5193 -1.7495 -0.8801
 4278SOL    HW224294   4.156   3.764  13.302 -0.8411  0.8494 -2.7210
 4279SOL     OW24295   1.611   4.093   4.053  0.0657  0.2796 -0.2098
 4279SOL    HW124296   1.702   4.119   4.064  0.5902 -1.9462  0.7747
 4279SOL    HW224297   1.607   4.109   3.958 -1.4681 -1.5293 -0.4563
 4280SOL     OW24298   1.868   1.500   2.108  0.3280 -0.3891  0.3609
 4280SOL    HW124299   1.906   1.576   2.151  0.1332 -0.8887  1.4231
 4280SOL    HW224300   1.780   1.535   2.122  0.9093  1.4638 -0.7173
 4281SOL     OW24301   1.938   3.537  16.377  0.3440 -0.3442  0.5930
 4281SOL    HW124302   1.892   3.475  16.434 -2.7978  0.6262 -0.8997
 4281SOL    HW224303   1.980   3.483  16.309 -0.8651  1.5587 -1.6499
 4282SOL     OW24304   0.327   2.655   7.972 -0.3991 -0.1685  0.0774
 4282SOL    HW124305   0.268   2.628   8.042 -1.5831 -2.5419 -1.8285
 4282SOL    HW224306   0.259   2.670   7.907 -1.3300  0.6286  1.2395
 4283SOL     OW24307   1.925   0.232   7.637  0.0156 -0.3097  0.3767
 4283SOL    HW124308   1.989   0.270   7.577  0.3832  1.7335  2.0652
 4283SOL    HW224309   1.958   0.143   7.627 -0.4933 -0.2815 -1.6030
 4284SOL     OW24310   2.128   0.457   8.572 -0.1155  0.5281  0.6257
 4284SOL    HW124311   2.079   0.397   8.630 -1.6767 -0.3885 -1.6511
 4284SOL    HW224312   2.052   0.474   8.517  0.2533 -3.9090 -1.2303
 4285SOL     OW24313   1.239   2.403   3.184 -0.4590  0.3273 -0.0623
 4285SOL    HW124314   1.250   2.439   3.096 -1.1719 -0.6505 -0.5547
 4285SOL    HW224315   1.145   2.411   3.202 -0.5879  0.7211 -0.8904
 4286SOL     OW24316   3.363   4.280   6.391 -0.0248  0.2272  0.7783
 4286SOL    HW124317   3.272   4.283   6.420 -0.5755 -1.0652 -0.7578
 4286SOL    HW224318   3.378   4.186   6.404  1.2740  0.4802  1.1195
 4287SOL     OW24319   2.598   2.297  16.579 -0.5655  0.1547  0.5750
 4287SOL    HW124320   2.648   2.280  16.499  1.3129  0.2424  1.7445
 4287SOL    HW224321   2.635   2.231  16.638 -0.9174 -1.0170 -0.5070
 4288SOL     OW24322   1.270   1.246  12.097 -0.4259 -0.2559 -0.0690
 4288SOL    HW124323   1.319   1.184  12.151  0.8972  1.1634  0.3405
 4288SOL    HW224324   1.335   1.305  12.060  0.9283 -1.9813 -0.4693
 4289SOL     OW24325   4.331   3.181   3.158 -0.0452  0.0716 -0.0563
 4289SOL    HW124326   4.395   3.176   3.229  0.3801  0.1859 -0.4332
 4289SOL    HW224327   4.382   3.190   3.078 -0.2831 -0.9471 -0.3137
 4290SOL     OW24328   0.413   2.086  17.344  0.7289 -0.2638 -0.3007
 4290SOL    HW124329   0.388   1.994  17.339 -0.2679 -0.2073  3.4488
 4290SOL    HW224330   0.492   2.099  17.291 -0.1656  3.5705 -0.6703
 4291SOL     OW24331   0.124   1.585   8.710  1.0874  0.2136  0.0374
 4291SOL    HW124332   0.133   1.489   8.712  1.4715  0.2326 -0.9617
 4291SOL    HW224333   0.135   1.617   8.621  0.2626 -1.5065 -0.6763
 4292SOL     OW24334   0.841   4.715  10.328 -0.2140  0.1589  0.0811
 4292SOL    HW124335   0.751   0.022  10.338 -0.0808  0.8628 -0.8274
 4292SOL    HW224336   0.861   4.684  10.416 -1.1253 -0.4440  0.0747
 4293SOL     OW24337   2.219   1.169   5.141 -0.0792  0.3493 -0.2502
 4293SOL    HW124338   2.229   1.090   5.087 -1.6779  0.4716 -0.7053
 4293SOL    HW224339   2.286   1.228   5.107  0.9799  0.4196  1.9328
 4294SOL     OW24340   3.809   0.813   1.960  0.8350  0.0925  0.4796
 4294SOL    HW124341   3.891   0.782   1.922  1.2843  3.2786 -1.1988
 4294SOL    HW224342   3.750   0.791   1.888 -0.5672  0.2115  1.5944
 4295SOL     OW24343   3.856   3.515   2.194  0.6174  0.3857  1.0367
 4295SOL    HW124344   3.774   3.478   2.161  1.4248 -0.8248  0.3830
 4295SOL    HW224345   3.901   3.527   2.111 -0.3637 -0.7995  0.3312
 4296SOL     OW24346   0.264   1.580   3.867 -0.4808 -0.1144 -0.2226
 4296SOL    HW124347   0.281   1.670   3.838 -0.9007 -0.6026 -2.0346
 4296SOL    HW224348   0.346   1.532   3.855 -0.2724 -0.0724  1.0895
 4297SOL     OW24349   2.038   3.130   6.182  0.3346 -0.6193  0.3030
 4297SOL    HW124350   1.977   3.198   6.154  2.4105  0.4220 -1.6262
 4297SOL    HW224351   2.065   3.167   6.265 -1.5007  1.7779 -0.1651
 4298SOL     OW24352   3.366   2.191   4.681 -0.1975 -0.3746  0.0466
 4298SOL    HW124353   3.389   2.209   4.772  0.8791  1.1352 -0.5284
 4298SOL    HW224354   3.274   2.169   4.689  0.0713 -1.6556 -0.4249
 4299SOL     OW24355   1.263   0.895   8.745  0.0163 -0.1289  0.0056
 4299SOL    HW124356   1.196   0.944   8.699 -1.5647 -1.8656  0.4503
 4299SOL    HW224357   1.263   0.952   8.822  2.9168 -0.4231  0.2365
 4300SOL     OW24358   3.202   1.131   3.143 -0.6253 -0.2927  0.2392
 4300SOL    HW124359   3.151   1.187   3.202 -2.5308 -0.4333 -1.2972
 4300SOL    HW224360   3.187   1.044   3.179  1.7894 -1.5838 -1.8720
 4301SOL     OW24361   0.182   3.648  10.889  0.0781 -0.1324 -0.4477
 4301SOL    HW124362   0.178   3.570  10.834 -0.9662  0.0992 -0.6931
 4301SOL    HW224363   0.092   3.658  10.918 -1.0500 -1.5090 -3.5232
 4302SOL     OW24364   0.388   1.181   7.878 -0.0883  0.0971 -0.1939
 4302SOL    HW124365   0.328   1.168   7.804 -1.0617 -0.4688  0.6957
 4302SOL    HW224366   0.334   1.234   7.936  0.2832  0.2046  0.0518
 4303SOL     OW24367   0.423   0.481   9.439  0.1638  0.1288 -0.0830
 4303SOL    HW124368   0.407   0.567   9.399 -1.7309  0.0920  0.6165
 4303SOL    HW224369   0.484   0.441   9.377 -0.5992 -2.3430  0.7640
 4304SOL     OW24370   0.426   2.260   1.597  0.2827 -0.1304 -0.0379
 4304SOL    HW124371   0.356   2.246   1.661 -1.0441 -1.2793 -1.7627
 4304SOL    HW224372   0.471   2.332   1.641  0.8835 -0.1635 -0.5948
 4305SOL     OW24373   1.146   3.963   4.234  0.1553  0.5166 -0.1704
 4305SOL    HW124374   1.136   4.059   4.233 -2.5107  0.2404  0.0271
 4305SOL    HW224375   1.226   3.952   4.184  0.4185  0.6336  0.2293
 4306SOL     OW24376   0.564   2.950  13.948 -0.2036 -0.2042  0.0401
 4306SOL    HW124377   0.591   2.868  13.907  0.6209  1.2105 -2.2718
 4306SOL    HW224378   0.614   2.935  14.027  0.9238 -1.6068 -0.9505
 4307SOL     OW24379   4.072   2.857   4.255 -0.0979 -0.3594  0.6032
 4307SOL    HW124380   4.050   2.945   4.224  0.0963 -0.4554  0.1911
 4307SOL    HW224381   4.122   2.820   4.183  0.5610 -0.6323  1.1965
 4308SOL     OW24382   1.448   3.964   8.697  0.0873 -0.1963 -0.4534
 4308SOL    HW124383   1.450   4.009   8.781 -0.4181 -0.5360 -0.2566
 4308SOL    HW224384   1.479   4.031   8.636  2.7194  0.3387  1.4686
 4309SOL     OW24385   3.102   4.334   6.078  0.0248 -0.6032  0.1170
 4309SOL    HW124386   3.156   4.402   6.038 -2.8347  1.3994 -0.3306
 4309SOL    HW224387   3.015   4.358   6.045  0.1560  1.8598  1.6108
 4310SOL     OW24388   1.951   0.832   5.179 -0.1128  0.2465  0.0246
 4310SOL    HW124389   1.895   0.852   5.105  0.1940  1.8321  0.2191
 4310SOL    HW224390   1.910   0.748   5.200 -1.7019  1.2267  0.8494
 4311SOL     OW24391   0.323   0.266  11.058  0.4926 -0.0493  0.0335
 4311SOL    HW124392   0.349   0.318  11.134  0.4086  1.2105 -0.7861
 4311SOL    HW224393   0.395   0.204  11.063 -0.0217 -0.6871 -0.4226
 4312SOL     OW24394   4.679   4.539   0.668  0.5579 -0.2082  0.1871
 4312SOL    HW124395   4.656   4.446   0.662  4.1994 -1.1005 -0.1941
 4312SOL    HW224396   4.653   4.563   0.756  1.5775  1.9860 -0.1178
 4313SOL     OW24397   4.117   1.371   4.931  0.6015  0.9187  0.7969
 4313SOL    HW124398   4.126   1.464   4.908  0.5685  0.9576  0.9389
 4313SOL    HW224399   4.207   1.361   4.960  1.5155  2.1870 -1.6505
 4314SOL     OW24400   3.559   3.584   5.059 -1.0209  0.3004  0.7985
 4314SOL    HW124401   3.641   3.602   5.105  0.6793 -0.0732 -2.0630
 4314SOL    HW224402   3.570   3.630   4.976  1.1598 -1.1509  0.3011
 4315SOL     OW24403   4.356   0.077   8.044 -0.4122  0.1645 -0.4339
 4315SOL    HW124404   4.318   4.719   8.072  1.4490 -0.6549 -0.3027
 4315SOL    HW224405   4.383   0.112   8.129 -0.5868  1.1974 -0.8007
 4316SOL     OW24406   3.772   2.807   4.806 -0.1343  0.3214 -0.2520
 4316SOL    HW124407   3.681   2.821   4.780  0.3328  0.0261 -2.0033
 4316SOL    HW224408   3.778   2.845   4.894  0.5381 -1.9049  0.6727
 4317SOL     OW24409   1.381   4.518   9.361 -0.4748 -0.0427 -0.5531
 4317SOL    HW124410   1.413   4.576   9.430  2.9432  0.5454 -2.6276
 4317SOL    HW224411   1.341   4.584   9.305  0.9566  0.4186 -1.0424
 4318SOL     OW24412   1.194   3.516   1.956  0.3198  0.3748 -0.6433
 4318SOL    HW124413   1.276   3.563   1.942  1.7045 -0.8874  3.2273
 4318SOL    HW224414   1.128   3.575   1.920  2.1175  2.9383  0.3582
 4319SOL     OW24415   2.117   4.156   1.889  0.3217  0.4710  0.4792
 4319SOL    HW124416   2.034   4.109   1.890 -0.9885  2.7822  0.3780
 4319SOL    HW224417   2.174   4.093   1.845  0.7410  1.8799 -0.9805
 4320SOL     OW24418   0.661   1.933   4.564  0.1811  0.1838 -0.4450
 4320SOL    HW124419   0.670   1.851   4.515  0.2460  0.4284 -0.8421
 4320SOL    HW224420   0.731   1.989   4.531 -1.1763  1.3096 -1.3574
 4321SOL     OW24421   0.600   4.337   3.167  0.2081  0.4074 -0.7828
 4321SOL    HW124422   0.580   4.285   3.089  0.1478 -1.0681  0.2344
 4321SOL    HW224423   0.573   4.419   3.125 -0.4963  0.9942  0.8157
 4322SOL     OW24424   4.618   1.635   2.204 -0.1518  0.4720 -0.1390
 4322SOL    HW124425   4.664   1.551   2.211 -1.2428 -0.1093  0.1743
 4322SOL    HW224426   4.674   1.712   2.201  0.4825  0.0316  0.3041
 4323SOL     OW24427   1.245   4.435   9.621 -0.4539  0.0716 -0.6224
 4323SOL    HW124428   1.310   4.460   9.557 -1.9359  0.1027 -2.1198
 4323SOL    HW224429   1.285   4.361   9.666 -0.5223  0.4375  0.0476
 4324SOL     OW24430   4.312   4.154   2.920 -0.5666 -0.2234  0.1142
 4324SOL    HW124431   4.387   4.141   2.863 -2.4236 -1.3312 -2.0808
 4324SOL    HW224432   4.273   4.238   2.895 -1.0172  0.2585  2.3957
 4325SOL     OW24433   3.862   0.962   4.205  0.5140 -0.0342 -0.7508
 4325SOL    HW124434   3.941   0.975   4.256  0.3401 -0.5249 -0.3635
 4325SOL    HW224435   3.906   0.951   4.121 -0.8270  1.8529 -1.7291
 4326SOL     OW24436   1.335   3.336   5.099  0.0902  0.3872 -0.0601
 4326SOL    HW124437   1.345   3.312   5.192  0.1791  2.6976  0.5162
 4326SOL    HW224438   1.371   3.424   5.094 -0.6784  0.7845  1.3968
 4327SOL     OW24439   2.089   4.613   1.629 -0.3780  0.4070  0.2827
 4327SOL    HW124440   2.010   4.567   1.601 -0.6105  0.6971  0.4635
 4327SOL    HW224441   2.051   4.666   1.699 -0.5618  0.4841  0.1221
 4328SOL     OW24442   3.115   0.036   4.592 -0.2888  0.1664 -1.1060
 4328SOL    HW124443   3.131   4.701   4.666  2.1476  0.8094 -1.1027
 4328SOL    HW224444   3.151   0.116   4.631 -0.6912  0.1879 -0.7750
 4329SOL     OW24445   0.463   3.357   2.419 -0.4722 -0.3218  0.3351
 4329SOL    HW124446   0.543   3.388   2.377 -0.3699 -0.6379  0.2984
 4329SOL    HW224447   0.408   3.411   2.361 -0.7980 -1.2622 -0.2225
 4330SOL     OW24448   0.647   0.734  15.086  0.1456 -0.2431 -0.2829
 4330SOL    HW124449   0.662   0.814  15.035 -1.3054  0.5110  0.4743
 4330SOL    HW224450   0.731   0.691  15.075 -0.0715 -1.0157  1.0679
 4331SOL     OW24451   1.485   0.372   3.385  0.5533  0.0659 -0.2513
 4331SOL    HW124452   1.489   0.462   3.417 -0.9061 -0.2682  0.8643
 4331SOL    HW224453   1.505   0.320   3.463  1.8415  0.3975 -0.3511
 4332SOL     OW24454   2.124   0.887  16.793  0.0255 -0.1793 -0.7420
 4332SOL    HW124455   2.042   0.936  16.803 -1.2250 -2.3048 -0.5509
 4332SOL    HW224456   2.120   0.841  16.709  0.1359 -1.3216 -0.1212
 4333SOL     OW24457   3.138   0.134   3.416 -0.8815  0.5996  0.5949
 4333SOL    HW124458   3.175   0.062   3.467  1.8709 -0.3082 -2.6967
 4333SOL    HW224459   3.161   0.211   3.467  0.8233  0.0009  0.7424
 4334SOL     OW24460   3.160   3.451   1.903  0.7533  0.0384 -0.5158
 4334SOL    HW124461   3.070   3.481   1.890  0.3431 -0.9802 -0.0479
 4334SOL    HW224462   3.192   3.506   1.975 -0.4221  1.6316 -1.2140
 4335SOL     OW24463   4.482   0.432   0.557 -0.2600  0.2689 -0.3773
 4335SOL    HW124464   4.545   0.361   0.565 -0.7927 -0.3399 -1.6496
 4335SOL    HW224465   4.500   0.479   0.639 -1.7650  0.6016 -0.2335
 4336SOL     OW24466   3.220   0.735   5.045  0.2310 -0.1222  0.6602
 4336SOL    HW124467   3.134   0.778   5.040 -0.5735 -1.6598  1.1926
 4336SOL    HW224468   3.259   0.757   4.961 -0.9860 -0.2869  0.0416
 4337SOL     OW24469   0.345   1.797  15.910 -0.4079 -0.2853 -0.5633
 4337SOL    HW124470   0.309   1.831  15.992 -0.4381 -1.0853 -0.2425
 4337SOL    HW224471   0.432   1.761  15.929 -0.6722 -0.5826  0.0993
 4338SOL     OW24472   2.294   1.432   2.606  0.0095 -0.4505  0.1443
 4338SOL    HW124473   2.319   1.394   2.522  1.7081 -1.8886  1.2900
 4338SOL    HW224474   2.200   1.412   2.609 -0.3024  1.0401  0.3262
 4339SOL     OW24475   0.470   3.939   5.278 -0.3636  0.4789 -0.7329
 4339SOL    HW124476   0.445   3.946   5.370 -1.1102  1.4379 -0.9961
 4339SOL    HW224477   0.482   4.033   5.260 -0.3122  0.8893  1.5102
 4340SOL     OW24478   2.103   0.371  15.479  0.4806  0.2627  0.6180
 4340SOL    HW124479   2.045   0.359  15.554  0.6607 -0.0843  0.6978
 4340SOL    HW224480   2.038   0.381  15.410 -0.2554 -0.8375  1.1579
 4341SOL     OW24481   0.972   0.330  14.433 -0.0504  0.3617 -0.1382
 4341SOL    HW124482   0.964   0.239  14.465 -0.7950 -0.0451 -1.4844
 4341SOL    HW224483   0.895   0.367  14.476 -0.0382 -0.8356  0.9227
 4342SOL     OW24484   2.306   0.412   7.217 -0.2770  0.1499 -0.4090
 4342SOL    HW124485   2.377   0.476   7.215 -0.7365  0.6894  1.0847
 4342SOL    HW224486   2.312   0.357   7.295 -1.3760 -2.2278 -1.9773
 4343SOL     OW24487   0.848   1.132   3.346 -0.1998  0.0586  0.4164
 4343SOL    HW124488   0.823   1.065   3.282  1.9002  0.5777 -0.9336
 4343SOL    HW224489   0.763   1.135   3.391 -1.1537 -1.7611 -1.2515
 4344SOL     OW24490   2.275   1.957   6.359  0.4624 -0.2440  0.4729
 4344SOL    HW124491   2.367   1.982   6.372  0.9784 -1.8960 -0.0225
 4344SOL    HW224492   2.284   1.867   6.389 -1.3765 -0.2732  0.9575
 4345SOL     OW24493   2.371   0.629   5.862 -0.1966  0.1767  0.3300
 4345SOL    HW124494   2.395   0.550   5.813  0.0736  0.1481  0.5078
 4345SOL    HW224495   2.277   0.635   5.844  0.0006  0.7648 -0.4779
 4346SOL     OW24496   3.726   3.637   7.895 -0.6107 -0.5381  0.2502
 4346SOL    HW124497   3.698   3.716   7.849  2.1753 -0.4668 -1.3299
 4346SOL    HW224498   3.810   3.612   7.855  1.4014  0.7595  3.6136
 4347SOL     OW24499   1.570   3.883   2.055 -0.1134 -0.4007  0.8863
 4347SOL    HW124500   1.592   3.855   1.966 -1.9115 -1.4945  0.7920
 4347SOL    HW224501   1.476   3.866   2.060  0.1201 -1.8900 -0.0379
 4348SOL     OW24502   2.845   0.028  15.965  0.4100  0.2940 -0.0606
 4348SOL    HW124503   2.821   0.120  15.972  2.1165  0.4917  2.8720
 4348SOL    HW224504   2.786   0.013  15.891  2.3470  0.2357 -1.5986
 4349SOL     OW24505   0.511   3.879  15.283 -0.0834 -0.3281  0.5753
 4349SOL    HW124506   0.589   3.922  15.320 -1.1622  1.3563  0.8950
 4349SOL    HW224507   0.526   3.795  15.326 -2.4228 -1.0576 -0.0683
 4350SOL     OW24508   3.491   2.560   7.363  0.2912 -0.0053 -0.1728
 4350SOL    HW124509   3.459   2.624   7.426  0.0907  1.1272 -1.4209
 4350SOL    HW224510   3.440   2.483   7.389  0.3740 -0.1114 -0.3279
 4351SOL     OW24511   1.389   1.617  15.803  0.4130  0.3460 -0.3159
 4351SOL    HW124512   1.464   1.621  15.744  0.5386 -2.4229 -0.3714
 4351SOL    HW224513   1.428   1.631  15.889 -0.2297  2.8462 -0.4353
 4352SOL     OW24514   4.134   1.635   6.522  0.0076 -0.1638  0.2871
 4352SOL    HW124515   4.168   1.653   6.609 -0.1740 -0.4980  0.4281
 4352SOL    HW224516   4.040   1.646   6.538 -0.1347 -2.2979  0.9218
 4353SOL     OW24517   4.698   2.420   1.149  0.0167  0.4787  0.2476
 4353SOL    HW124518   4.700   2.425   1.245 -0.8874  3.7544  0.0836
 4353SOL    HW224519   4.703   2.514   1.132 -1.1774  0.3663 -0.6777
 4354SOL     OW24520   0.240   0.980   3.282  0.5421  0.1950  0.0630
 4354SOL    HW124521   0.197   0.909   3.235 -1.2315 -0.2247  2.3031
 4354SOL    HW224522   0.241   0.936   3.367 -1.5201 -0.3708 -0.2238
 4355SOL     OW24523   3.023   1.291   9.209 -0.1173 -0.4739 -0.7969
 4355SOL    HW124524   3.070   1.272   9.127  0.5703 -0.5052 -0.3965
 4355SOL    HW224525   2.953   1.333   9.159 -1.4221  0.5393  1.9306
 4356SOL     OW24526   3.745   1.183  10.041 -0.3569 -0.2438 -0.4497
 4356SOL    HW124527   3.786   1.245  10.102 -1.8267  1.4394 -1.1458
 4356SOL    HW224528   3.734   1.105  10.094  0.4695  0.1883  0.3543
 4357SOL     OW24529   2.985   2.635  17.129  0.1227  0.0062  0.4963
 4357SOL    HW124530   2.919   2.573  17.096 -0.0171 -0.1191  1.0110
 4357SOL    HW224531   3.044   2.579  17.180  0.5212 -0.8576 -0.9286
 4358SOL     OW24532   2.552   2.526   3.511 -0.0535 -0.5132  0.3061
 4358SOL    HW124533   2.623   2.590   3.522 -0.0045 -0.9732  2.6347
 4358SOL    HW224534   2.487   2.589   3.543  0.7878  1.3122 -1.5257
 4359SOL     OW24535   3.405   3.031   3.817 -0.1755  0.5003 -0.4002
 4359SOL    HW124536   3.459   2.957   3.843 -1.0472  0.0717  0.1876
 4359SOL    HW224537   3.325   2.988   3.786 -0.9133  0.5404  1.4893
 4360SOL     OW24538   2.548   1.924   4.827 -0.5212 -0.0223 -0.2351
 4360SOL    HW124539   2.630   1.938   4.875 -1.2193  0.2695  0.8604
 4360SOL    HW224540   2.519   2.015   4.826  0.3917  0.2551 -1.0350
 4361SOL     OW24541   4.524   3.579  17.058 -0.3040  0.3598  0.2581
 4361SOL    HW124542   4.535   3.638  17.132 -2.4395  0.0718  0.7928
 4361SOL    HW224543   4.520   3.496  17.106  1.0503 -0.6042 -1.2983
 4362SOL     OW24544   1.622   1.142   3.667  0.0560  0.5945 -0.0380
 4362SOL    HW124545   1.598   1.155   3.576  1.1840  0.7242 -0.3182
 4362SOL    HW224546   1.571   1.211   3.708 -3.3331 -1.5213 -0.7361
 4363SOL     OW24547   0.569   3.222   3.257 -0.5698  0.1400  0.4274
 4363SOL    HW124548   0.620   3.141   3.252 -1.8466 -0.6322  0.0905
 4363SOL    HW224549   0.603   3.248   3.343  1.1783  0.6127 -0.3963
 4364SOL     OW24550   4.690   3.413   5.571 -0.5123  0.3564 -0.2689
 4364SOL    HW124551   4.620   3.394   5.508 -0.5506 -0.3666 -0.0092
 4364SOL    HW224552   4.670   3.356   5.645  0.7928  0.1273 -0.1049
 4365SOL     OW24553   1.640   0.513  16.330 -0.3529  0.5708 -0.1654
 4365SOL    HW124554   1.685   0.596  16.345 -0.4175  0.5595  0.0932
 4365SOL    HW224555   1.714   0.453  16.338 -0.2953  0.6899  0.2082
 4366SOL     OW24556   2.187   2.184   8.518  0.2836 -0.2944  0.1317
 4366SOL    HW124557   2.263   2.127   8.528  1.1362  1.1424  1.8669
 4366SOL    HW224558   2.132   2.152   8.589 -0.6132  1.8413  0.4048
 4367SOL     OW24559   3.055   3.908   3.865 -0.1570  0.5036 -0.1110
 4367SOL    HW124560   3.044   3.814   3.879 -0.0438  0.2336 -1.8899
 4367SOL    HW224561   3.108   3.898   3.786 -0.3877 -0.7990 -0.0960
 4368SOL     OW24562   2.228   4.533   6.384 -0.0337  0.3839  0.5266
 4368SOL    HW124563   2.140   4.539   6.346  0.4004 -0.6244 -0.5974
 4368SOL    HW224564   2.282   4.566   6.313  1.4871  0.5553  1.7636
 4369SOL     OW24565   1.938   2.142   8.633  0.4420  0.0068  0.1255
 4369SOL    HW124566   1.906   2.052   8.640  1.1406 -0.3520 -1.3060
 4369SOL    HW224567   1.921   2.181   8.719 -0.9050 -1.7679  0.6551
 4370SOL     OW24568   4.145   1.404  14.797  0.0678 -0.2251  0.3773
 4370SOL    HW124569   4.223   1.405  14.741 -0.6456  1.2842 -0.5857
 4370SOL    HW224570   4.148   1.311  14.819 -1.0523 -0.3231  0.0811
 4371SOL     OW24571   0.613   1.389   6.929  0.7072  0.1133 -0.1750
 4371SOL    HW124572   0.681   1.332   6.892  0.6378  0.1067 -0.2949
 4371SOL    HW224573   0.616   1.367   7.022  3.5787 -1.0895 -0.5437
 4372SOL     OW24574   1.910   3.381   6.157  0.1185 -0.3105 -0.8695
 4372SOL    HW124575   1.954   3.453   6.201 -0.5196  0.8260 -2.0643
 4372SOL    HW224576   1.943   3.402   6.069  1.0390  1.2425 -0.1514
 4373SOL     OW24577   1.570   2.404   8.037  0.0453 -0.4901  0.2414
 4373SOL    HW124578   1.487   2.420   7.992  1.9684  3.2079 -1.9268
 4373SOL    HW224579   1.610   2.490   8.051 -0.1399  0.0343 -2.3914
 4374SOL     OW24580   2.408   0.061   7.174 -0.0066  0.0605  0.3342
 4374SOL    HW124581   2.403   4.709   7.117  0.5564  0.5612 -0.3751
 4374SOL    HW224582   2.484   0.050   7.232  1.0689  1.9128 -0.7173
 4375SOL     OW24583   3.495   1.482  14.484  0.5399  0.1521  0.5381
 4375SOL    HW124584   3.461   1.435  14.560  1.6250 -2.8215 -0.8075
 4375SOL    HW224585   3.497   1.416  14.415  1.1270 -0.3135  0.9971
 4376SOL     OW24586   2.077   2.133   9.502  1.0356 -0.1617 -0.1774
 4376SOL    HW124587   2.019   2.201   9.537  0.6321  1.1222 -3.3081
 4376SOL    HW224588   2.018   2.080   9.449 -0.1731  1.9318 -0.9594
 4377SOL     OW24589   2.292   4.049   8.316  0.0448  0.0015  0.1754
 4377SOL    HW124590   2.290   3.981   8.249 -0.4227 -0.1988  0.3934
 4377SOL    HW224591   2.198   4.059   8.329  0.1232  2.0451 -0.7686
 4378SOL     OW24592   1.419   4.542  12.813 -0.1583 -0.2847  0.8544
 4378SOL    HW124593   1.361   4.582  12.878  1.4108  1.2882  1.3113
 4378SOL    HW224594   1.378   4.456  12.803  0.0534 -0.4405  1.3166
 4379SOL     OW24595   4.564   4.419   3.192  0.0954 -0.4410 -0.1364
 4379SOL    HW124596   4.581   4.493   3.250 -0.2619 -1.8263  1.7305
 4379SOL    HW224597   4.555   4.466   3.109 -3.4422 -0.6285  0.1593
 4380SOL     OW24598   1.356   2.704  15.864 -0.2483 -0.3706  0.0453
 4380SOL    HW124599   1.444   2.677  15.889 -0.5535 -1.6403 -0.2312
 4380SOL    HW224600   1.325   2.710  15.955  1.0571 -1.1310  0.5346
 4381SOL     OW24601   2.190   2.783   9.853  0.5438 -0.8546  0.0030
 4381SOL    HW124602   2.257   2.851   9.845  0.8581 -1.0787  0.8430
 4381SOL    HW224603   2.114   2.831   9.888  2.0487  2.0946 -0.7968
 4382SOL     OW24604   0.733   3.224   7.570 -0.8512  0.3451  0.2433
 4382SOL    HW124605   0.771   3.146   7.529  0.1736  0.6007  0.7034
 4382SOL    HW224606   0.800   3.292   7.557 -1.1703 -0.2104 -4.1353
 4383SOL     OW24607   1.813   3.981  12.181  0.0249  0.0029  0.3936
 4383SOL    HW124608   1.720   4.002  12.177  0.2767  0.9767 -0.3167
 4383SOL    HW224609   1.820   3.967  12.276  5.7431  0.9231  0.1381
 4384SOL     OW24610   3.237   2.882   6.354 -0.3178 -0.5349 -0.1828
 4384SOL    HW124611   3.184   2.914   6.282 -0.5822 -0.4200  0.0637
 4384SOL    HW224612   3.277   2.964   6.384  0.2274 -0.5877 -0.7757
 4385SOL     OW24613   2.681   0.249   0.147  0.5307  0.2085 -0.4117
 4385SOL    HW124614   2.670   0.155   0.160  1.2311  0.1518 -0.2289
 4385SOL    HW224615   2.773   0.257   0.170  0.9861 -3.1264 -1.0062
 4386SOL     OW24616   3.379   3.940   2.099  0.0163 -0.5782  0.5315
 4386SOL    HW124617   3.296   3.955   2.145  0.4817  2.5806  0.3323
 4386SOL    HW224618   3.363   3.990   2.018 -2.4540  0.2777  1.5287
 4387SOL     OW24619   2.024   4.525   6.801  0.1609  0.2112  0.3995
 4387SOL    HW124620   1.951   4.497   6.745  3.1297  0.1054 -3.4345
 4387SOL    HW224621   2.078   4.446   6.808  1.5342  1.0228 -1.1183
 4388SOL     OW24622   4.283   3.492   1.412 -0.0682 -0.1570 -0.2559
 4388SOL    HW124623   4.189   3.494   1.432 -0.1019 -1.5286 -0.2624
 4388SOL    HW224624   4.286   3.566   1.352 -4.1962  0.9187  0.8925
 4389SOL     OW24625   0.854   0.764   3.531  0.5871  0.4391 -0.4092
 4389SOL    HW124626   0.890   0.772   3.619  1.7942  1.3573 -0.9848
 4389SOL    HW224627   0.865   0.856   3.506 -0.6503  0.1316 -2.0955
 4390SOL     OW24628   2.382   0.390   0.727 -0.0640 -0.4944  0.3272
 4390SOL    HW124629   2.292   0.356   0.725 -0.9467  1.8706  0.7425
 4390SOL    HW224630   2.441   0.321   0.696  0.6789  0.1997  0.2055
 4391SOL     OW24631   1.972   0.991   0.095 -0.2373 -0.9979 -0.2803
 4391SOL    HW124632   1.924   1.035   0.025 -0.1406 -0.8685 -0.2648
 4391SOL    HW224633   1.907   0.924   0.119  1.6694 -2.1585  1.6551
 4392SOL     OW24634   2.633   4.206   4.304 -0.0609  0.1984  0.3354
 4392SOL    HW124635   2.581   4.284   4.288 -3.9593 -2.5838 -0.5733
 4392SOL    HW224636   2.563   4.157   4.348 -1.5511  0.7485 -1.4163
 4393SOL     OW24637   0.874   0.244   2.077 -0.0844  0.0612 -0.2287
 4393SOL    HW124638   0.885   0.314   2.013  2.3065 -0.5577 -0.4908
 4393SOL    HW224639   0.803   0.289   2.124  1.6751  0.5070  1.9997
 4394SOL     OW24640   2.787   3.205   3.256  0.1210 -0.1790 -0.6667
 4394SOL    HW124641   2.779   3.239   3.167  1.4109 -0.4425 -0.8871
 4394SOL    HW224642   2.766   3.282   3.309 -1.7215 -1.2620  0.2040
 4395SOL     OW24643   3.849   3.879  14.786  0.7121  0.1685 -0.6505
 4395SOL    HW124644   3.843   3.889  14.880 -0.1394  0.0094 -0.6879
 4395SOL    HW224645   3.819   3.959  14.743  0.4175  0.2437 -0.3049
 4396SOL     OW24646   1.992   3.578   8.632  0.0942 -0.2797 -0.7213
 4396SOL    HW124647   1.956   3.530   8.557  0.9570  0.5989 -1.6956
 4396SOL    HW224648   1.921   3.561   8.694  0.5404 -0.3789 -0.2392
 4397SOL     OW24649   4.647   4.376   4.842 -0.0484 -0.2402 -0.0791
 4397SOL    HW124650   4.605   4.401   4.924 -0.9569 -3.1186  0.3443
 4397SOL    HW224651   4.629   4.282   4.834 -1.3951  0.0110 -0.0734
 4398SOL     OW24652   3.815   0.042   1.631 -0.0126 -0.4351 -0.0469
 4398SOL    HW124653   3.901   0.003   1.642  1.2590  2.5095  0.3953
 4398SOL    HW224654   3.763   4.701   1.679 -0.1832  0.1343  0.5506
 4399SOL     OW24655   4.191   0.404   4.947 -0.0731 -0.0567  0.0110
 4399SOL    HW124656   4.118   0.466   4.950  1.0979  1.3364 -0.6842
 4399SOL    HW224657   4.228   0.411   5.035 -0.5353 -0.6729  0.2554
 4400SOL     OW24658   3.656   2.519   6.927  0.2769  0.8168  0.2121
 4400SOL    HW124659   3.665   2.543   6.835  0.4662 -0.9594 -0.2172
 4400SOL    HW224660   3.674   2.426   6.921 -1.0189  0.6966 -1.6209
 4401SOL     OW24661   4.504   0.143   1.987  0.5842  0.4353  0.0460
 4401SOL    HW124662   4.564   0.118   1.916 -0.9050 -1.4134 -0.5847
 4401SOL    HW224663   4.450   0.063   1.993  0.6551  0.4066  0.2867
 4402SOL     OW24664   0.716   3.341   8.746  0.0285  0.1021 -0.3376
 4402SOL    HW124665   0.691   3.304   8.830  1.6926 -0.5290 -0.1047
 4402SOL    HW224666   0.764   3.416   8.780  0.0760 -1.6176  3.3525
 4403SOL     OW24667   2.789   4.430   3.030  0.5936 -0.3092 -0.2948
 4403SOL    HW124668   2.743   4.389   2.957  2.8606  1.4146 -2.7142
 4403SOL    HW224669   2.743   4.391   3.104 -0.9856 -0.9514 -1.6197
 4404SOL     OW24670   4.551   4.075   3.856 -0.2925 -0.6041  0.3019
 4404SOL    HW124671   4.632   4.078   3.908 -1.1186 -1.3158  1.6397
 4404SOL    HW224672   4.485   4.075   3.926  0.0004 -2.3853  0.5821
 4405SOL     OW24673   4.406   4.192  17.253  0.5648 -0.4090 -0.1349
 4405SOL    HW124674   4.401   4.253  17.179  0.6489 -0.9711 -0.6068
 4405SOL    HW224675   4.421   4.258  17.320 -0.6227  1.1120 -1.3555
 4406SOL     OW24676   4.419   4.444  17.107  0.3360 -0.2540 -0.4818
 4406SOL    HW124677   4.423   4.374  17.042  0.3623 -0.5481 -0.1593
 4406SOL    HW224678   4.409   4.523  17.053  0.9690 -0.6373 -1.1649
 4407SOL     OW24679   3.350   4.473   1.095  0.2918 -0.6566  0.1218
 4407SOL    HW124680   3.382   4.528   1.166 -1.3151  0.3245  0.0933
 4407SOL    HW224681   3.322   4.389   1.132 -1.7785 -0.7156 -1.5409
 4408SOL     OW24682   0.390   3.680  14.744  0.3960 -0.2221  0.1140
 4408SOL    HW124683   0.418   3.766  14.715 -1.4889 -0.6635 -3.0788
 4408SOL    HW224684   0.421   3.625  14.672 -3.1273 -0.6640 -1.0745
 4409SOL     OW24685   4.582   3.344   1.657 -0.0652 -0.1172  0.4247
 4409SOL    HW124686   4.625   3.427   1.636  0.7283 -0.8948 -1.0284
 4409SOL    HW224687   4.564   3.310   1.569  1.5294 -3.6701  1.4781
 4410SOL     OW24688   1.033   0.504  13.951  0.3640  0.6155 -0.2131
 4410SOL    HW124689   1.086   0.435  13.913  0.2218  0.7261 -0.6186
 4410SOL    HW224690   1.105   0.564  13.969  0.1002  1.0674 -0.6641
 4411SOL     OW24691   0.894   0.163   6.335  0.0433 -0.2555 -0.1315
 4411SOL    HW124692   0.842   0.096   6.380 -1.6380  0.6040 -0.7849
 4411SOL    HW224693   0.828   0.230   6.318 -0.0743 -0.1844  0.5975
 4412SOL     OW24694   0.175   3.499   4.498  0.1538 -0.2295  0.2699
 4412SOL    HW124695   0.144   3.533   4.414 -1.9453  1.2381  1.6504
 4412SOL    HW224696   0.088   3.483   4.533 -0.3564  0.1329 -0.8298
 4413SOL     OW24697   4.214   3.045   3.436 -0.2263  0.2812  0.0247
 4413SOL    HW124698   4.216   3.032   3.341 -2.1654  0.3100 -0.0122
 4413SOL    HW224699   4.245   2.963   3.475 -0.7058  0.4102  0.6767
 4414SOL     OW24700   3.176   0.518   8.197  0.3311  0.6461 -0.0907
 4414SOL    HW124701   3.118   0.594   8.201 -1.9184 -1.1263  1.5182
 4414SOL    HW224702   3.195   0.506   8.290  1.5058 -1.6186 -0.6092
 4415SOL     OW24703   1.138   1.448  12.788  0.4952 -0.5839 -0.1963
 4415SOL    HW124704   1.079   1.515  12.821 -0.4896 -2.3548  1.6556
 4415SOL    HW224705   1.083   1.370  12.791  1.2361 -1.1629 -1.5718
 4416SOL     OW24706   4.134   0.569  16.166 -0.2244 -0.4188  0.6561
 4416SOL    HW124707   4.052   0.551  16.211  0.3087  1.2607  2.2773
 4416SOL    HW224708   4.148   0.656  16.204  0.2553  0.5625 -1.7734
 4417SOL     OW24709   2.839   1.718   1.290 -0.3486  0.1797  0.0973
 4417SOL    HW124710   2.908   1.780   1.311  0.0951 -0.0724 -0.6037
 4417SOL    HW224711   2.787   1.774   1.231 -1.2989 -0.3507  0.4276
 4418SOL     OW24712   3.717   0.115   6.935  0.4944  0.4307 -0.3132
 4418SOL    HW124713   3.675   0.029   6.942 -0.7068  1.1597  1.2143
 4418SOL    HW224714   3.782   0.106   7.005 -0.7384 -2.6284  0.4581
 4419SOL     OW24715   1.687   0.243   9.365  0.0056  0.0429  0.7964
 4419SOL    HW124716   1.681   0.160   9.414  0.4233 -1.5719 -1.9016
 4419SOL    HW224717   1.774   0.229   9.329 -0.4165  1.2318 -0.6994
 4420SOL     OW24718   0.202   3.918   9.423 -0.4280  0.0983 -0.5725
 4420SOL    HW124719   0.123   3.864   9.422 -0.2298 -0.3034  3.1749
 4420SOL    HW224720   0.220   3.925   9.329 -0.0682 -0.4351 -0.5426
 4421SOL     OW24721   3.435   3.826  16.831 -0.3382  0.3161 -0.4111
 4421SOL    HW124722   3.516   3.837  16.780  0.1015 -0.8410  0.0301
 4421SOL    HW224723   3.471   3.757  16.887 -1.9954  0.2108  0.5248
 4422SOL     OW24724   2.705   0.672   6.679  0.3448  0.5142  0.1479
 4422SOL    HW124725   2.679   0.742   6.619 -0.1475  2.2909  2.4370
 4422SOL    HW224726   2.619   0.633   6.689  1.5981 -2.3641 -0.3558
 4423SOL     OW24727   0.519   2.191  11.004 -0.3621  0.4242 -0.2538
 4423SOL    HW124728   0.580   2.122  11.028 -0.0910  0.2068 -1.5568
 4423SOL    HW224729   0.505   2.153  10.917  1.8321 -3.4836  1.1124
 4424SOL     OW24730   2.713   2.059   5.448 -0.5311  0.0914  0.4207
 4424SOL    HW124731   2.792   2.101   5.483  0.7939 -1.3036 -0.8861
 4424SOL    HW224732   2.690   2.004   5.523  0.0746 -0.4460  0.2120
 4425SOL     OW24733   1.912   0.663   6.727 -0.3729 -0.0371 -0.3297
 4425SOL    HW124734   1.980   0.677   6.661  0.1621  0.3124  0.2909
 4425SOL    HW224735   1.946   0.577   6.752 -1.7121 -0.5667 -0.3572
 4426SOL     OW24736   2.375   4.713   7.536 -0.0489  0.9680 -0.1958
 4426SOL    HW124737   2.354   4.688   7.445  2.1004  0.2903 -0.5222
 4426SOL    HW224738   2.351   4.633   7.583  0.5462  0.7218 -0.3054
 4427SOL     OW24739   3.606   0.064  16.459  0.0204  0.8521 -0.7193
 4427SOL    HW124740   3.689   0.072  16.413  0.9681  1.6366  1.1439
 4427SOL    HW224741   3.568   0.149  16.436 -2.1509 -0.4213 -1.9255
 4428SOL     OW24742   3.018   4.200   9.762  0.3727 -0.0186 -1.0206
 4428SOL    HW124743   3.098   4.149   9.773  0.4945  0.5617  0.7862
 4428SOL    HW224744   3.043   4.291   9.776  1.3010 -0.5919  1.0440
 4429SOL     OW24745   3.296   2.346   8.873  0.0505 -0.0522 -0.5073
 4429SOL    HW124746   3.253   2.301   8.946 -1.9423 -2.6309 -3.2616
 4429SOL    HW224747   3.231   2.342   8.803  0.1115  4.6134 -0.7998
 4430SOL     OW24748   3.287   4.008   1.422 -0.2016  0.0762 -0.2732
 4430SOL    HW124749   3.216   3.970   1.475 -0.2613  1.1546  0.4350
 4430SOL    HW224750   3.360   3.949   1.438  0.1419  0.7456  0.6457
 4431SOL     OW24751   2.369   1.063   4.697  0.2200  0.8196  0.2028
 4431SOL    HW124752   2.324   1.138   4.736 -0.6599  0.1425  0.4978
 4431SOL    HW224753   2.450   1.101   4.664  2.0901 -1.8212  1.8099
 4432SOL     OW24754   2.319   3.176   7.708  0.1782 -0.3309  0.1731
 4432SOL    HW124755   2.374   3.124   7.650  0.1206  0.5844 -0.7098
 4432SOL    HW224756   2.299   3.121   7.784 -0.4535 -0.5652 -0.1598
 4433SOL     OW24757   3.389   2.754   8.633  0.3201  0.0705 -0.4983
 4433SOL    HW124758   3.341   2.810   8.572  0.0241  1.3578  0.9246
 4433SOL    HW224759   3.460   2.815   8.654 -0.1710  0.0114  1.3045
 4434SOL     OW24760   1.734   4.011  13.076  0.1622  0.4852 -0.1513
 4434SOL    HW124761   1.734   4.054  13.162 -0.6738 -1.2036  0.6896
 4434SOL    HW224762   1.825   3.981  13.072 -0.0848 -0.2520 -0.0787
 4435SOL     OW24763   1.455   0.751  11.349 -0.3112  0.5297 -0.2540
 4435SOL    HW124764   1.361   0.739  11.357 -0.3749 -0.3623 -2.2049
 4435SOL    HW224765   1.477   0.686  11.281  0.9442  0.5042  0.1703
 4436SOL     OW24766   0.787   1.034  16.952 -0.3563 -0.1088  0.4470
 4436SOL    HW124767   0.826   1.108  16.906 -2.0577  0.1694 -0.5397
 4436SOL    HW224768   0.834   0.954  16.930 -0.8952  0.5114 -2.8716
 4437SOL     OW24769   0.836   1.092   5.543  0.3916  0.0790 -0.2697
 4437SOL    HW124770   0.836   1.186   5.522  1.2774  0.2184  0.3079
 4437SOL    HW224771   0.927   1.077   5.570 -0.5737  1.7939  3.9053
 4438SOL     OW24772   2.550   3.255   6.139  0.2285 -0.2715 -1.2745
 4438SOL    HW124773   2.566   3.246   6.233 -0.3554  1.8870 -0.9904
 4438SOL    HW224774   2.484   3.320   6.116  0.8484  1.4750  2.0359
 4439SOL     OW24775   3.280   0.023  12.748 -0.0231 -0.0983  0.3098
 4439SOL    HW124776   3.322   0.016  12.663 -0.8683  0.5352 -0.1538
 4439SOL    HW224777   3.187   0.037  12.728 -0.2991  0.0432  1.6741
 4440SOL     OW24778   4.093   0.854  16.210 -0.2741  0.0588 -0.2719
 4440SOL    HW124779   4.144   0.935  16.205 -0.2704 -0.0316 -1.7064
 4440SOL    HW224780   4.003   0.886  16.209 -0.2468  0.1433 -0.1489
 4441SOL     OW24781   0.234   2.380   3.759 -0.1922  1.0557  0.0565
 4441SOL    HW124782   0.219   2.295   3.802  1.5112  1.8470  2.2353
 4441SOL    HW224783   0.212   2.351   3.671  0.5614  0.3308  0.0972
 4442SOL     OW24784   2.661   1.973   1.844 -0.4819  0.0958  0.1660
 4442SOL    HW124785   2.727   1.942   1.782 -0.0685  0.7000  0.3133
 4442SOL    HW224786   2.681   2.066   1.856  0.0266 -0.4397  3.4276
 4443SOL     OW24787   4.349   3.012   1.439 -0.0238 -0.7524  0.3412
 4443SOL    HW124788   4.372   3.026   1.347 -0.2011 -1.9879  0.1136
 4443SOL    HW224789   4.385   3.094   1.474  2.4108 -1.1685 -1.1884
 4444SOL     OW24790   1.493   2.453   5.711  0.0571  0.1048  0.0556
 4444SOL    HW124791   1.472   2.382   5.650  3.1541 -0.9579  0.1999
 4444SOL    HW224792   1.478   2.529   5.655  2.1684 -0.7177 -1.6845
 4445SOL     OW24793   2.161   1.284  14.473  0.1143 -0.5793  0.2395
 4445SOL    HW124794   2.086   1.280  14.532 -0.0461  1.8812  0.1913
 4445SOL    HW224795   2.172   1.379  14.482 -1.4700 -0.5830  2.1390
 4446SOL     OW24796   3.556   3.562   5.507 -0.7929 -0.2288 -0.3928
 4446SOL    HW124797   3.480   3.582   5.452 -1.7587 -2.7255  0.0080
 4446SOL    HW224798   3.628   3.570   5.445  0.8988 -2.9859  1.2379
 4447SOL     OW24799   2.987   0.102   3.203 -0.1479  0.0339 -0.3614
 4447SOL    HW124800   3.013   0.010   3.198 -0.0443 -0.0237  1.2337
 4447SOL    HW224801   3.034   0.126   3.283  0.1597  2.4969 -1.2608
 4448SOL     OW24802   3.373   1.862   8.171  0.5910 -0.5680 -0.3342
 4448SOL    HW124803   3.394   1.943   8.217 -2.6220  0.8984 -1.4694
 4448SOL    HW224804   3.284   1.844   8.201  0.9736  2.6758  2.7315
 4449SOL     OW24805   2.837   3.788   2.648 -0.3576  0.1925 -0.0350
 4449SOL    HW124806   2.765   3.841   2.682  0.4870  1.4888 -0.2863
 4449SOL    HW224807   2.801   3.699   2.657 -1.7481  0.7815  0.2529
 4450SOL     OW24808   0.541   1.477   5.517  0.0095  0.4023 -0.4033
 4450SOL    HW124809   0.560   1.415   5.447 -3.1678  1.0624 -1.8669
 4450SOL    HW224810   0.458   1.448   5.554  0.0854  0.0021 -0.5510
 4451SOL     OW24811   2.864   4.712   9.178  0.1466  0.2295 -0.1288
 4451SOL    HW124812   2.853   4.687   9.086  0.7564 -0.5636  0.0157
 4451SOL    HW224813   2.932   0.055   9.170  3.3839 -2.9555  0.5028
 4452SOL     OW24814   4.061   1.994   6.439  0.4302  0.7602 -0.0071
 4452SOL    HW124815   4.148   1.956   6.446  0.9006  1.6521 -1.0259
 4452SOL    HW224816   4.076   2.082   6.404 -3.5246  1.6067  0.3973
 4453SOL     OW24817   0.401   2.132   8.359  0.1767  0.1699 -0.3655
 4453SOL    HW124818   0.485   2.164   8.390  1.2514 -1.3607 -1.6939
 4453SOL    HW224819   0.374   2.215   8.319  1.6920  1.9171  2.2650
 4454SOL     OW24820   1.304   3.421  17.487 -0.1849  0.1882 -0.0911
 4454SOL    HW124821   1.266   3.453  17.405  0.7806 -0.0752 -0.6499
 4454SOL    HW224822   1.352   3.494  17.527  0.4455 -0.5422  0.4842
 4455SOL     OW24823   1.006   3.216   4.224  0.2158  0.2593  0.0313
 4455SOL    HW124824   1.048   3.166   4.154  1.2578  0.6217  0.4037
 4455SOL    HW224825   1.003   3.140   4.282  1.0767  0.8833  0.9013
 4456SOL     OW24826   1.178   2.688   2.139 -0.3316  0.5338  0.2847
 4456SOL    HW124827   1.221   2.733   2.211  0.8135 -0.2932  0.1184
 4456SOL    HW224828   1.088   2.717   2.125 -0.5920  1.0915  3.1100
 4457SOL     OW24829   4.685   1.649  10.900  0.5290 -0.0585 -0.0865
 4457SOL    HW124830   0.045   1.686  10.874  0.6399 -0.6672 -0.5927
 4457SOL    HW224831   4.688   1.645  10.995  0.3765 -2.0656 -0.1753
 4458SOL     OW24832   1.315   2.124   1.989  0.1059 -0.5745 -0.1726
 4458SOL    HW124833   1.359   2.190   2.042 -1.7310  0.4153  0.1305
 4458SOL    HW224834   1.389   2.081   1.947  1.6594  0.0365  1.9795
 4459SOL     OW24835   3.000   4.501  12.960 -0.3807 -0.5664 -0.6769
 4459SOL    HW124836   2.985   4.482  12.867  0.5411 -2.5998 -0.4090
 4459SOL    HW224837   3.089   4.477  12.983 -0.3666 -0.2448 -0.4038
 4460SOL     OW24838   3.213   0.588  13.695  0.2689 -0.4453  0.3722
 4460SOL    HW124839   3.243   0.663  13.645 -1.4050  0.8164  1.2527
 4460SOL    HW224840   3.159   0.626  13.765  0.4500  0.9177 -0.2398
 4461SOL     OW24841   0.648   0.700   3.683  0.0869 -0.2591  0.3667
 4461SOL    HW124842   0.560   0.694   3.645  0.5885 -1.2375 -0.6602
 4461SOL    HW224843   0.693   0.747   3.613  0.9552 -1.1322  0.3356
 4462SOL     OW24844   4.217   0.179   5.667 -0.0128  0.1695 -0.2309
 4462SOL    HW124845   4.310   0.204   5.668 -0.0354  0.2641 -0.5249
 4462SOL    HW224846   4.208   0.133   5.584 -1.4565 -1.2182  0.7025
 4463SOL     OW24847   0.171   2.402   7.485 -0.2166 -0.0462  0.0501
 4463SOL    HW124848   0.221   2.441   7.413 -1.1293 -2.3780 -1.8225
 4463SOL    HW224849   0.079   2.419   7.464 -0.7375 -1.3656  1.2460
 4464SOL     OW24850   1.747   3.294   7.087  0.0054 -0.3469 -0.0468
 4464SOL    HW124851   1.685   3.325   7.020  0.8761 -0.0248 -0.7023
 4464SOL    HW224852   1.676   3.290   7.151  0.0120  2.6916  0.1321
 4465SOL     OW24853   3.309   0.965   9.143 -0.1393 -0.3506 -0.2787
 4465SOL    HW124854   3.313   1.054   9.177  0.0858 -0.1346 -0.8671
 4465SOL    HW224855   3.400   0.941   9.129 -0.0652  1.8453 -3.4353
 4466SOL     OW24856   0.106   4.259   3.293 -0.1172 -0.0997 -0.1048
 4466SOL    HW124857   0.166   4.331   3.274  2.2637 -1.4740  2.2720
 4466SOL    HW224858   0.037   4.265   3.226  2.3246  0.4623 -2.5672
 4467SOL     OW24859   4.413   0.371   3.869  0.1026 -0.0314 -0.1297
 4467SOL    HW124860   4.488   0.402   3.820  0.2281  1.2025  0.8504
 4467SOL    HW224861   4.388   0.457   3.903 -1.1631 -0.3337 -0.2964
 4468SOL     OW24862   2.640   2.618   1.027  0.4215  0.2735 -0.3152
 4468SOL    HW124863   2.630   2.626   1.122 -0.2964  0.2883 -0.3976
 4468SOL    HW224864   2.571   2.557   1.004  2.2133 -1.7267 -0.4356
 4469SOL     OW24865   2.409   2.924   2.777 -0.1957 -0.0335 -0.2979
 4469SOL    HW124866   2.408   3.017   2.755 -0.6751  0.1573  0.5033
 4469SOL    HW224867   2.316   2.901   2.781  0.6474 -3.3763  0.1511
 4470SOL     OW24868   1.913   4.195   9.469 -0.4476 -0.2459 -0.2729
 4470SOL    HW124869   1.985   4.237   9.516  0.8133  0.4491 -2.8449
 4470SOL    HW224870   1.892   4.263   9.405 -2.8529 -0.6285  0.0890
 4471SOL     OW24871   0.320   0.103   8.381  0.5665  0.1373 -0.3406
 4471SOL    HW124872   0.336   0.167   8.450  2.4060 -0.6473 -0.0483
 4471SOL    HW224873   0.232   0.129   8.354  0.3156 -1.7269 -1.3182
 4472SOL     OW24874   0.117   1.255  17.366 -0.1862  0.1207  0.1191
 4472SOL    HW124875   0.065   1.287  17.292 -2.3365 -0.4181  1.4102
 4472SOL    HW224876   0.191   1.223  17.314 -0.9124  0.2010 -0.9683
 4473SOL     OW24877   1.559   2.066  13.824 -0.1430 -0.1728  0.4337
 4473SOL    HW124878   1.512   2.145  13.798  1.1971  0.3722 -0.2772
 4473SOL    HW224879   1.578   2.083  13.916 -1.4875 -3.1239  1.2909
 4474SOL     OW24880   2.898   2.879   7.402  0.3879 -0.2784 -0.7980
 4474SOL    HW124881   2.984   2.908   7.370  0.6297 -1.3058 -1.0800
 4474SOL    HW224882   2.916   2.876   7.496 -1.0991  0.7523 -0.4876
 4475SOL     OW24883   3.391   3.516  14.659  0.5141  1.1254  0.1856
 4475SOL    HW124884   3.330   3.502  14.587  1.6082 -0.7084 -0.3850
 4475SOL    HW224885   3.355   3.467  14.732 -1.3747  1.1130 -0.7573
 4476SOL     OW24886   3.440   1.768   1.069 -0.9782 -0.6877 -0.0051
 4476SOL    HW124887   3.346   1.789   1.066 -0.4937  1.2595 -1.1572
 4476SOL    HW224888   3.447   1.716   1.149 -0.5024 -0.3074  0.1975
 4477SOL     OW24889   1.052   4.078   6.394 -0.4836  0.5334  0.1283
 4477SOL    HW124890   1.040   4.156   6.448  1.9022  1.2527 -0.3867
 4477SOL    HW224891   1.033   4.015   6.463 -1.4231  0.5349 -0.1182
 4478SOL     OW24892   2.369   3.433   7.615 -0.2432  0.7402 -0.1048
 4478SOL    HW124893   2.428   3.487   7.668  0.7438  0.8141 -1.2767
 4478SOL    HW224894   2.391   3.346   7.648 -1.7435  0.1331 -0.7106
 4479SOL     OW24895   4.349   3.647  10.537  0.3768 -0.0381 -0.2072
 4479SOL    HW124896   4.334   3.710  10.608 -0.7608 -1.2833  0.6449
 4479SOL    HW224897   4.389   3.713  10.480 -0.2002  1.0538  0.6462
 4480SOL     OW24898   4.306   3.879   8.928 -0.2531  0.1327 -0.0496
 4480SOL    HW124899   4.324   3.866   9.021  0.6188 -0.5404 -0.3168
 4480SOL    HW224900   4.345   3.966   8.923  1.7017 -0.6944  1.0990
 4481SOL     OW24901   4.099   1.382  13.350 -0.5901 -0.4218 -0.1790
 4481SOL    HW124902   4.124   1.384  13.258 -3.5322 -0.1907 -0.9457
 4481SOL    HW224903   4.151   1.303  13.370  0.8529 -0.1590 -2.8851
 4482SOL     OW24904   4.656   0.220   0.603  0.3976  0.4574  0.2369
 4482SOL    HW124905   4.645   0.149   0.540  3.1013  1.5889 -1.4981
 4482SOL    HW224906   0.027   0.219   0.609  0.4294 -0.6086 -0.5065
 4483SOL     OW24907   1.317   2.779   2.824 -0.2057 -0.6315  0.1705
 4483SOL    HW124908   1.408   2.777   2.853  0.2920 -1.7539 -1.5220
 4483SOL    HW224909   1.319   2.871   2.797 -3.4724 -0.0490  1.8249
 4484SOL     OW24910   3.258   3.817  10.623  0.0154 -0.1686 -0.1054
 4484SOL    HW124911   3.251   3.913  10.623 -0.9046 -0.2381 -0.1490
 4484SOL    HW224912   3.350   3.813  10.649  0.0726 -3.4641 -0.7772
 4485SOL     OW24913   0.780   4.358  11.206 -0.2780  0.1124 -0.0925
 4485SOL    HW124914   0.826   4.382  11.287  2.3464 -0.6157 -1.3621
 4485SOL    HW224915   0.733   4.280  11.237  0.4141  1.8323  5.3653
 4486SOL     OW24916   1.054   0.171   6.091 -0.6723  0.1850 -0.3765
 4486SOL    HW124917   1.006   0.130   6.019 -0.9969 -1.1090  0.5931
 4486SOL    HW224918   0.998   0.144   6.163  0.5594 -0.8741  0.1737
 4487SOL     OW24919   3.403   1.641  10.622 -0.5696  0.5300 -0.0461
 4487SOL    HW124920   3.334   1.578  10.643 -1.4269  2.0169  1.6817
 4487SOL    HW224921   3.469   1.592  10.575 -1.4202 -0.2617 -0.4092
 4488SOL     OW24922   4.617   0.822   2.583  0.0200  0.5583  0.2466
 4488SOL    HW124923   4.572   0.824   2.668  1.0748  2.1637  0.7790
 4488SOL    HW224924   4.586   0.899   2.535 -2.7831 -0.4921  0.3867
 4489SOL     OW24925   3.692   1.219   3.015  0.0423 -0.1226 -0.8713
 4489SOL    HW124926   3.662   1.231   2.925 -2.0781  0.1749 -0.1219
 4489SOL    HW224927   3.611   1.231   3.063 -1.0412  1.4612 -3.0757
 4490SOL     OW24928   1.685   4.176   6.533  0.2399 -0.6034  0.2543
 4490SOL    HW124929   1.617   4.192   6.468 -0.8786  1.7201  2.0273
 4490SOL    HW224930   1.649   4.097   6.575 -2.5951  1.3794  1.5112
 4491SOL     OW24931   2.860   3.899   7.515 -0.8445 -1.0087  0.2515
 4491SOL    HW124932   2.893   3.984   7.546  0.3617 -1.9737  1.6494
 4491SOL    HW224933   2.897   3.834   7.575  0.0565 -0.8004 -0.0683
 4492SOL     OW24934   4.052   4.267   8.071  0.0572 -0.4025 -0.0728
 4492SOL    HW124935   4.070   4.302   7.983  1.3870 -0.1047  0.3057
 4492SOL    HW224936   4.027   4.350   8.112  2.2761  0.4119 -0.3615
 4493SOL     OW24937   0.065   0.500  13.654 -0.6417  0.0040 -0.4367
 4493SOL    HW124938   0.153   0.466  13.671 -0.9456 -0.1923  0.7769
 4493SOL    HW224939   0.016   0.473  13.732  0.6261 -0.5539  0.1728
 4494SOL     OW24940   4.274   4.447   0.160 -0.0224  0.2213  0.0593
 4494SOL    HW124941   4.241   4.374   0.107  1.0498  2.2271 -3.3985
 4494SOL    HW224942   4.325   4.408   0.232 -0.2921  0.9726  0.6531
 4495SOL     OW24943   2.198   0.761  15.789  0.9629  0.3373 -0.7047
 4495SOL    HW124944   2.132   0.699  15.759  0.6340 -0.9957  2.7569
 4495SOL    HW224945   2.174   0.764  15.882 -0.4329  2.5651 -1.1212
 4496SOL     OW24946   4.362   4.630   0.841  0.2310  0.3085 -0.1437
 4496SOL    HW124947   4.339   4.560   0.780  2.0801  1.2478 -1.9152
 4496SOL    HW224948   4.442   4.595   0.879 -0.4901 -1.4330 -0.2304
 4497SOL     OW24949   0.821   4.628  13.469 -0.5694 -0.2132  0.5454
 4497SOL    HW124950   0.848   4.544  13.506 -0.3628 -0.2782  0.2525
 4497SOL    HW224951   0.774   4.666  13.543 -0.8756 -0.0871  0.2846
 4498SOL     OW24952   3.732   4.487  10.148 -0.1931  0.8901  0.6004
 4498SOL    HW124953   3.701   4.421  10.211 -0.2154 -0.0157 -0.3612
 4498SOL    HW224954   3.733   4.566  10.203 -0.8695  0.3198  1.4373
 4499SOL     OW24955   3.501   1.921   6.299  0.2298 -0.0309  0.5406
 4499SOL    HW124956   3.590   1.889   6.313  1.2711  2.7687  0.1893
 4499SOL    HW224957   3.494   1.922   6.204  0.1067  3.5025  0.5895
 4500SOL     OW24958   0.094   0.485   7.306 -0.2616 -0.0693  0.2976
 4500SOL    HW124959   0.163   0.489   7.240  1.1087 -1.1381  1.6783
 4500SOL    HW224960   0.147   0.482   7.386 -3.2754  1.4356  2.3395
 4501SOL     OW24961   4.105   1.054  10.629  0.0989  0.5628 -0.4661
 4501SOL    HW124962   4.159   0.983  10.594  1.2663  1.5596 -0.6836
 4501SOL    HW224963   4.045   1.071  10.556 -0.1187  2.4473  0.1450
 4502SOL     OW24964   2.136   1.753  12.066  0.4993 -0.6582  0.6882
 4502SOL    HW124965   2.105   1.843  12.075 -1.0218 -1.3359  2.3567
 4502SOL    HW224966   2.122   1.732  11.973  1.4531  0.4288  0.3091
 4503SOL     OW24967   4.610   3.932   2.955 -0.4009  0.0783  0.5927
 4503SOL    HW124968   4.541   3.866   2.963 -1.3429  0.7070 -2.0744
 4503SOL    HW224969   4.578   3.988   2.883 -0.0173 -1.5823 -0.8838
 4504SOL     OW24970   3.489   3.288  10.624 -0.2959  0.3271  0.2227
 4504SOL    HW124971   3.446   3.226  10.683 -1.2711 -0.0161 -0.8469
 4504SOL    HW224972   3.491   3.229  10.549  1.3864  1.0117 -0.2571
 4505SOL     OW24973   0.815   2.127   0.092 -0.0534  0.7094 -0.7761
 4505SOL    HW124974   0.754   2.139   0.019 -0.9249 -0.3883 -0.2360
 4505SOL    HW224975   0.870   2.205   0.084 -0.8023  1.1145 -2.0677
 4506SOL     OW24976   1.197   4.578   7.750 -0.4181 -0.1072  0.4865
 4506SOL    HW124977   1.291   4.591   7.751 -0.4831  0.3296  0.7364
 4506SOL    HW224978   1.190   4.510   7.683  1.6866 -1.4227  1.6141
 4507SOL     OW24979   1.668   0.425  15.869  0.2409  0.1052 -0.2979
 4507SOL    HW124980   1.576   0.399  15.867  0.1310  0.5607 -0.9768
 4507SOL    HW224981   1.686   0.458  15.781 -0.1199  1.5964  0.1869
 4508SOL     OW24982   4.658   2.862   6.769  0.1912 -0.3763  0.1074
 4508SOL    HW124983   4.579   2.827   6.810  0.9395 -0.7365  1.2503
 4508SOL    HW224984   4.635   2.852   6.677  2.0996 -0.3290 -0.3874
 4509SOL     OW24985   1.117   2.557   6.453  0.2090 -0.1427 -0.0085
 4509SOL    HW124986   1.195   2.502   6.459 -0.0970 -0.5165  0.7016
 4509SOL    HW224987   1.064   2.522   6.526  1.1359 -0.2354  0.6238
 4510SOL     OW24988   4.100   0.559   7.323 -0.1850  0.2575 -0.3140
 4510SOL    HW124989   4.032   0.622   7.302  0.8885  0.6685 -2.5693
 4510SOL    HW224990   4.056   0.478   7.349  0.1789 -0.9033 -3.3135
 4511SOL     OW24991   4.142   2.617  14.378 -0.2615 -0.4376 -0.2132
 4511SOL    HW124992   4.090   2.613  14.459  0.8976 -0.9045  0.5085
 4511SOL    HW224993   4.071   2.645  14.320  0.7907  0.6016 -1.0047
 4512SOL     OW24994   2.642   1.619   1.460  0.2926  0.0285 -0.1088
 4512SOL    HW124995   2.566   1.630   1.403  0.4903 -0.5659 -0.4884
 4512SOL    HW224996   2.719   1.652   1.414  0.4709  0.1892  0.3053
 4513SOL     OW24997   3.462   1.061   4.007  0.5288  0.1335  0.2773
 4513SOL    HW124998   3.498   1.080   3.921  0.0452  3.1683  0.7430
 4513SOL    HW224999   3.529   1.103   4.061  0.5300 -0.0304  0.4027
 4514SOL     OW25000   0.829   3.957   8.334  0.4911  0.1305  0.4837
 4514SOL    HW125001   0.913   3.942   8.292  1.2364  0.6566  1.8067
 4514SOL    HW225002   0.782   3.884   8.292  0.8645  0.5655 -0.6792
 4515SOL     OW25003   1.095   2.199   7.482 -0.8172  0.1212 -0.0646
 4515SOL    HW125004   1.115   2.285   7.520 -2.8344  0.3703  0.4720
 4515SOL    HW225005   1.157   2.147   7.532  0.1370  2.1332  0.8492
 4516SOL     OW25006   2.995   4.130  15.324 -0.0593  0.0476  0.3872
 4516SOL    HW125007   3.039   4.204  15.367  1.5036  0.5452 -2.0878
 4516SOL    HW225008   2.967   4.084  15.404 -1.1808 -0.0859 -0.0843
 4517SOL     OW25009   2.996   2.691   9.441  0.2984  0.3764 -0.3990
 4517SOL    HW125010   2.910   2.697   9.483  0.6137  1.4185  0.1133
 4517SOL    HW225011   3.060   2.688   9.513  1.1849  0.4665 -1.1845
 4518SOL     OW25012   1.005   2.949   9.002 -0.4027 -0.3736 -0.4383
 4518SOL    HW125013   1.074   2.936   8.937  0.4419  1.5789  0.0606
 4518SOL    HW225014   0.940   2.994   8.948 -0.2816 -0.3895 -0.5970
 4519SOL     OW25015   3.203   0.848  10.941 -0.2133  0.6533 -0.5547
 4519SOL    HW125016   3.252   0.808  11.013 -1.5097  0.0533 -0.0097
 4519SOL    HW225017   3.158   0.919  10.987 -1.1645  0.6086 -1.4322
 4520SOL     OW25018   2.716   4.684  12.680  0.8089  0.1611 -0.7032
 4520SOL    HW125019   2.722   4.687  12.776  0.2785 -0.3310 -0.6555
 4520SOL    HW225020   2.632   0.002  12.665  1.3085  1.5298  0.2364
 4521SOL     OW25021   1.503   4.631   7.754  0.6584 -0.5911 -0.4262
 4521SOL    HW125022   1.555   4.609   7.832  0.7912 -0.3676 -0.4515
 4521SOL    HW225023   1.561   4.697   7.717  2.5128 -1.8967  0.1014
 4522SOL     OW25024   2.660   4.173   5.344  0.0575 -0.5408 -0.8055
 4522SOL    HW125025   2.588   4.231   5.320 -0.7247 -0.6507  1.2493
 4522SOL    HW225026   2.726   4.237   5.371  0.4051 -1.5570  0.7268
 4523SOL     OW25027   1.242   1.881   3.929  0.5093  0.3826  0.3530
 4523SOL    HW125028   1.220   1.971   3.950  1.2751  0.1136  2.2693
 4523SOL    HW225029   1.162   1.836   3.901  1.3753  1.8012 -4.3357
 4524SOL     OW25030   0.577   0.747  13.282  0.2320  0.1559  0.2380
 4524SOL    HW125031   0.604   0.738  13.190  1.4992  1.4237  0.5035
 4524SOL    HW225032   0.662   0.738  13.324  0.6974  0.9524 -0.5394
 4525SOL     OW25033   1.566   3.050  17.483  0.1610 -0.4181 -0.1792
 4525SOL    HW125034   1.626   3.000  17.539 -2.0606 -1.9701  0.7861
 4525SOL    HW225035   1.482   3.038  17.527 -0.9854 -1.0133 -2.5406
 4526SOL     OW25036   4.373   1.747   5.927  0.2082  0.7601 -0.1108
 4526SOL    HW125037   4.400   1.838   5.921 -1.5747  1.4029  1.6032
 4526SOL    HW225038   4.329   1.761   6.011 -1.0957  2.0083 -1.0028
 4527SOL     OW25039   2.583   2.845   3.076 -0.3516 -0.1939  0.1517
 4527SOL    HW125040   2.619   2.831   3.163  1.2360 -0.8067 -0.6101
 4527SOL    HW225041   2.546   2.934   3.078 -0.3310 -0.1821  0.0067
 4528SOL     OW25042   4.200   2.339  14.514  0.0575  0.2298  0.1225
 4528SOL    HW125043   4.226   2.408  14.575  0.5243  1.7732 -1.8163
 4528SOL    HW225044   4.268   2.272  14.527 -1.0961 -0.6664  1.6018
 4529SOL     OW25045   3.928   1.326   9.894  0.3244 -0.2715  0.1519
 4529SOL    HW125046   4.019   1.351   9.912  0.3279  0.1529 -0.4504
 4529SOL    HW225047   3.922   1.234   9.917  1.2136  0.5354  3.5889
 4530SOL     OW25048   0.765   4.338  12.017  0.0245 -0.1279  0.3277
 4530SOL    HW125049   0.802   4.259  11.976  0.4264  0.1578  0.1359
 4530SOL    HW225050   0.761   4.306  12.107 -0.6984 -0.9729 -0.0136
 4531SOL     OW25051   2.567   1.272   3.305 -0.5311  0.0811  0.4787
 4531SOL    HW125052   2.500   1.336   3.282 -0.8346 -0.2253  0.5206
 4531SOL    HW225053   2.518   1.199   3.266 -1.1100  0.5423  0.3486
 4532SOL     OW25054   3.022   2.138   6.647  0.0582 -0.0977  0.0542
 4532SOL    HW125055   3.052   2.067   6.591  1.7551 -0.6456  1.6585
 4532SOL    HW225056   2.948   2.162   6.590 -1.0939 -0.2292  1.4920
 4533SOL     OW25057   0.711   2.938  17.304  0.2456  0.1929  0.3039
 4533SOL    HW125058   0.774   2.995  17.348 -1.5637 -0.0713  3.1898
 4533SOL    HW225059   0.647   2.990  17.256  1.7201  1.3578 -0.4278
 4534SOL     OW25060   4.515   4.065   1.856 -0.3191 -0.6096 -0.4220
 4534SOL    HW125061   4.448   4.110   1.908 -0.2551 -0.9726 -0.0331
 4534SOL    HW225062   4.504   4.128   1.784 -0.3964 -1.5638 -1.2455
 4535SOL     OW25063   1.534   0.272   8.617  0.2553  0.2712 -0.6432
 4535SOL    HW125064   1.556   0.251   8.707  0.2361 -2.0529 -1.1865
 4535SOL    HW225065   1.457   0.329   8.619 -0.7233 -1.0346 -1.2009
 4536SOL     OW25066   4.111   4.402  15.820  0.0604  0.4750 -0.4313
 4536SOL    HW125067   4.155   4.475  15.776 -1.2754  0.7646 -1.2721
 4536SOL    HW225068   4.178   4.388  15.888 -1.2280 -1.1095  0.5058
 4537SOL     OW25069   1.135   2.074   6.648 -0.5582  0.1316  0.4340
 4537SOL    HW125070   1.207   2.101   6.591 -1.5852  0.1930 -0.8332
 4537SOL    HW225071   1.162   2.129   6.721  1.4089  0.3470 -0.4702
 4538SOL     OW25072   1.707   3.729   5.627 -0.2517 -0.3441  0.0004
 4538SOL    HW125073   1.627   3.703   5.674  0.4152 -0.6322  0.9852
 4538SOL    HW225074   1.723   3.659   5.563 -2.4016 -1.6325  0.8421
 4539SOL     OW25075   3.489   0.967  12.079  0.0076  0.1390  0.5587
 4539SOL    HW125076   3.527   0.908  12.145 -1.8576 -2.4706 -0.6943
 4539SOL    HW225077   3.492   1.047  12.131  0.0672  1.1080 -0.9556
 4540SOL     OW25078   4.235   4.544   1.839  0.7272  0.1243 -0.5440
 4540SOL    HW125079   4.291   4.488   1.785  0.5004 -1.0330  0.3985
 4540SOL    HW225080   4.294   4.580   1.906  0.1980  0.2931 -0.1710
 4541SOL     OW25081   0.711   0.953   7.782  0.0169  0.0301 -0.2756
 4541SOL    HW125082   0.763   1.001   7.846 -0.7925 -0.5989  0.8351
 4541SOL    HW225083   0.736   0.868   7.817  4.1611  0.7188 -1.5670
 4542SOL     OW25084   1.268   2.252  15.403 -0.8092 -0.0422 -0.2747
 4542SOL    HW125085   1.278   2.259  15.498  0.3863 -0.3050 -0.3885
 4542SOL    HW225086   1.208   2.324  15.382  1.0815  1.7645  0.5167
 4543SOL     OW25087   3.994   2.466   2.654 -0.1991  0.1169  0.2325
 4543SOL    HW125088   3.946   2.458   2.571  2.9083  0.1667 -1.6037
 4543SOL    HW225089   3.993   2.560   2.670  2.4321 -0.0164  1.3251
 4544SOL     OW25090   0.351   2.142  11.513  0.8842  0.2029 -0.5106
 4544SOL    HW125091   0.361   2.125  11.606 -1.7208 -1.7032 -0.5852
 4544SOL    HW225092   0.295   2.068  11.490  0.8386  0.1179 -0.1226
 4545SOL     OW25093   1.033   2.389   2.732  0.4898  0.7127  0.1762
 4545SOL    HW125094   1.010   2.309   2.686 -0.7209 -0.0561  2.0904
 4545SOL    HW225095   1.059   2.446   2.659  0.7067 -0.0349 -0.3230
 4546SOL     OW25096   2.562   3.774   5.923  0.1419  0.3035 -0.0559
 4546SOL    HW125097   2.537   3.793   6.014  0.8005 -1.5321  0.5186
 4546SOL    HW225098   2.582   3.862   5.891  3.2407  0.7731  3.0874
 4547SOL     OW25099   4.604   1.131   3.803  0.7401 -0.1014  0.3789
 4547SOL    HW125100   4.686   1.147   3.849  1.0033 -0.6308  0.0952
 4547SOL    HW225101   4.588   1.038   3.822 -0.8587 -0.3753 -2.2330
 4548SOL     OW25102   4.424   4.121   8.846 -0.1483  0.1179 -0.4929
 4548SOL    HW125103   4.491   4.185   8.868  2.1108 -1.6571 -2.2673
 4548SOL    HW225104   4.367   4.174   8.791  0.7856 -0.5458 -2.0883
 4549SOL     OW25105   4.137   0.413   4.481  0.9422  0.1708 -0.1203
 4549SOL    HW125106   4.061   0.433   4.427 -0.1978  1.5135  1.9845
 4549SOL    HW225107   4.096   0.386   4.564  0.1609 -0.0896 -0.5944
 4550SOL     OW25108   1.231   1.443   4.640  0.3044 -0.3417  0.1679
 4550SOL    HW125109   1.249   1.359   4.681  2.6884  0.8093  1.4294
 4550SOL    HW225110   1.135   1.446   4.644  0.3020  0.9650 -0.9375
 4551SOL     OW25111   1.580   0.134   2.629  0.3559  0.1265 -0.2185
 4551SOL    HW125112   1.652   0.131   2.692  1.0261  0.7893 -0.9559
 4551SOL    HW225113   1.500   0.149   2.680  0.5522  1.3893 -0.2750
 4552SOL     OW25114   0.038   0.876   6.297  0.3783 -0.1415  0.4196
 4552SOL    HW125115   4.694   0.938   6.321  0.0388  0.8073 -2.9094
 4552SOL    HW225116   0.030   0.800   6.354  0.6902 -1.8195 -1.7641
 4553SOL     OW25117   0.868   1.547   4.948 -0.0768  0.0687  0.2219
 4553SOL    HW125118   0.796   1.560   5.010 -0.9133  1.7597 -1.0798
 4553SOL    HW225119   0.903   1.636   4.938 -0.4651  0.0211 -1.6417
 4554SOL     OW25120   3.150   2.768  15.549  0.0181  0.3584 -0.2410
 4554SOL    HW125121   3.075   2.785  15.492  0.8376  0.3875 -1.3288
 4554SOL    HW225122   3.106   2.766  15.634 -0.3047 -2.5094 -0.4699
 4555SOL     OW25123   4.708   0.368   3.560  0.0909  0.1741 -0.2220
 4555SOL    HW125124   4.723   0.397   3.470  0.8952  0.9974  0.1718
 4555SOL    HW225125   4.655   0.289   3.558  0.1557  0.1705 -1.3449
 4556SOL     OW25126   2.077   4.306   7.280 -0.1243  0.2903  0.0542
 4556SOL    HW125127   2.025   4.317   7.360 -1.7024 -0.7168 -0.8299
 4556SOL    HW225128   2.064   4.212   7.269  2.0946 -0.0084 -0.0537
 4557SOL     OW25129   0.001   1.392   2.235 -0.4750 -0.6315 -0.1409
 4557SOL    HW125130   0.082   1.396   2.183 -0.4859 -0.3232 -0.1342
 4557SOL    HW225131   4.674   1.338   2.175 -0.5404  0.0693 -0.7289
 4558SOL     OW25132   2.182   0.071   8.115 -0.0846 -0.1319 -0.3627
 4558SOL    HW125133   2.107   0.089   8.172  0.9561 -0.0209  0.9671
 4558SOL    HW225134   2.244   0.144   8.122  2.3373 -2.2479  0.3245
 4559SOL     OW25135   2.650   4.723  16.242 -0.0174 -0.0156 -0.5683
 4559SOL    HW125136   2.647   0.036  16.154  0.7008 -0.2240 -0.6795
 4559SOL    HW225137   2.729   0.041  16.277 -0.9108  1.5913 -0.5064
 4560SOL     OW25138   1.161   3.169   3.955  0.1937 -0.1706  0.0042
 4560SOL    HW125139   1.213   3.198   3.880  2.9787 -1.1563  1.5545
 4560SOL    HW225140   1.092   3.118   3.913  1.8531 -0.6293 -2.1868
 4561SOL     OW25141   1.826   4.008  11.525  0.5811 -0.3582  0.2306
 4561SOL    HW125142   1.747   3.956  11.508  0.4200  0.4616 -1.4900
 4561SOL    HW225143   1.814   4.023  11.619 -2.7279  0.7953 -0.3740
 4562SOL     OW25144   3.471   1.055   4.847  0.2945  0.0422 -0.1244
 4562SOL    HW125145   3.471   1.021   4.757 -0.4799 -2.2394  0.7209
 4562SOL    HW225146   3.414   1.130   4.834 -1.8326 -1.2219  1.8109
 4563SOL     OW25147   4.494   0.943   1.230 -0.2132  0.4229  0.3663
 4563SOL    HW125148   4.434   0.987   1.169  0.0191  1.0916  0.6249
 4563SOL    HW225149   4.433   0.879   1.267  0.0915 -1.4268 -2.3955
 4564SOL     OW25150   3.613   1.328   8.464  0.3315 -0.4248 -0.0349
 4564SOL    HW125151   3.589   1.237   8.479 -1.4279  0.4992  2.8641
 4564SOL    HW225152   3.683   1.340   8.528 -0.4675 -0.3625  0.8374
 4565SOL     OW25153   4.043   3.723  11.599 -0.4252  0.1959 -0.0291
 4565SOL    HW125154   3.959   3.738  11.643 -0.7442  0.7870 -0.8526
 4565SOL    HW225155   4.023   3.634  11.570  3.9021 -0.5968 -0.5354
 4566SOL     OW25156   2.743   3.879   7.272 -0.4838 -0.2692  0.5971
 4566SOL    HW125157   2.699   3.964   7.271 -1.6624 -0.8972 -0.6249
 4566SOL    HW225158   2.771   3.869   7.363  1.0089 -0.3918  0.1236
 4567SOL     OW25159   2.779   1.607   8.097 -0.1389  0.0342  0.0584
 4567SOL    HW125160   2.737   1.610   8.183 -0.9819 -0.5874 -0.3341
 4567SOL    HW225161   2.866   1.592   8.134  1.2413 -1.8467 -3.8944
 4568SOL     OW25162   3.003   3.579   7.292 -0.1386 -0.7377  0.2281
 4568SOL    HW125163   3.092   3.590   7.325 -0.0819 -1.3543  0.2856
 4568SOL    HW225164   2.958   3.657   7.323  1.4348 -0.6848  2.3755
 4569SOL     OW25165   2.831   1.309  13.751 -0.1219  0.5363 -0.2088
 4569SOL    HW125166   2.758   1.248  13.751  0.9359 -0.7401 -0.7560
 4569SOL    HW225167   2.827   1.340  13.841  1.4640  0.1352  0.0078
 4570SOL     OW25168   3.914   1.219   7.128 -0.6267  0.1807  0.5312
 4570SOL    HW125169   3.877   1.259   7.050 -0.2920  0.4543  0.5163
 4570SOL    HW225170   3.954   1.290   7.179  1.1301 -1.3461  1.2853
 4571SOL     OW25171   2.227   1.681   6.367  0.1961 -0.0371 -0.0008
 4571SOL    HW125172   2.155   1.683   6.431 -0.2151  2.1817 -0.5418
 4571SOL    HW225173   2.227   1.587   6.351 -2.6821 -0.2260  0.9762
 4572SOL     OW25174   0.923   4.135   6.885  0.3272  0.3388 -0.0904
 4572SOL    HW125175   0.974   4.055   6.871 -0.5446 -0.3188  0.4760
 4572SOL    HW225176   0.985   4.170   6.949 -0.1779 -1.0464  1.1489
 4573SOL     OW25177   1.159   1.057  10.840 -0.0181 -0.2863 -0.8730
 4573SOL    HW125178   1.117   1.011  10.768  1.8285 -1.3301 -1.2855
 4573SOL    HW225179   1.253   1.049  10.822  0.1912  1.1406 -0.4617
 4574SOL     OW25180   0.367   3.551   2.241 -0.4845  0.2522  0.2078
 4574SOL    HW125181   0.371   3.544   2.145  1.8837 -5.4677  0.7172
 4574SOL    HW225182   0.426   3.622   2.264 -3.2263  2.4775  0.4212
 4575SOL     OW25183   0.517   0.841  11.968 -0.2984 -0.1033  0.5847
 4575SOL    HW125184   0.452   0.772  11.978 -0.0394 -0.8344 -2.8098
 4575SOL    HW225185   0.588   0.790  11.928 -1.6630 -0.7365 -0.9842
 4576SOL     OW25186   3.461   1.254   7.155  0.5480 -0.3163 -0.0398
 4576SOL    HW125187   3.521   1.195   7.202  0.5439 -0.4224 -0.1683
 4576SOL    HW225188   3.478   1.342   7.189 -0.3004 -1.1354  2.5478
 4577SOL     OW25189   0.649   3.479   3.227  0.1079 -0.3072 -0.0702
 4577SOL    HW125190   0.623   3.388   3.220 -0.0169 -0.1855 -1.1417
 4577SOL    HW225191   0.586   3.511   3.162 -0.3237  0.5003  0.7309
 4578SOL     OW25192   0.880   0.379  11.065  0.2995 -0.5914 -0.5612
 4578SOL    HW125193   0.829   0.360  10.986  0.7638 -0.3281 -0.9230
 4578SOL    HW225194   0.846   0.310  11.122  0.1029 -1.9656 -2.3383
 4579SOL     OW25195   0.405   2.320  14.771 -0.0311 -0.3498  0.4603
 4579SOL    HW125196   0.383   2.227  14.762 -1.8258  0.1148  0.0198
 4579SOL    HW225197   0.419   2.345  14.680  0.8764 -0.5603  0.5407
 4580SOL     OW25198   2.044   2.420   1.683  0.3090  0.1747  0.1932
 4580SOL    HW125199   2.105   2.385   1.618  0.1631 -1.5907  1.0205
 4580SOL    HW225200   2.104   2.489   1.712 -1.8361  2.5600 -1.0012
 4581SOL     OW25201   3.912   0.726   7.222 -0.0171 -0.1989  0.2853
 4581SOL    HW125202   3.939   0.818   7.214  0.1024 -0.2160  0.5107
 4581SOL    HW225203   3.817   0.739   7.224  0.0155 -0.2146  1.7921
 4582SOL     OW25204   1.448   4.312   2.184  0.1406  0.6338  0.5870
 4582SOL    HW125205   1.371   4.369   2.188 -1.0723 -0.8792 -1.2520
 4582SOL    HW225206   1.439   4.262   2.266  1.1324  1.3209  1.1153
 4583SOL     OW25207   1.626   3.905   2.976 -0.1467 -0.0194 -0.4484
 4583SOL    HW125208   1.578   3.889   3.057 -0.8674 -1.1387 -1.1093
 4583SOL    HW225209   1.701   3.960   2.999  0.6873 -0.6753 -1.6112
 4584SOL     OW25210   4.205   2.199   8.369  0.4505 -0.1638  0.5371
 4584SOL    HW125211   4.220   2.264   8.438  1.1279  0.9082 -0.6218
 4584SOL    HW225212   4.280   2.143   8.385  2.7039  2.8182  0.4342
 4585SOL     OW25213   0.311   1.484  15.341 -0.7365  0.1121  0.1563
 4585SOL    HW125214   0.394   1.527  15.363  0.0240 -1.4559  0.3367
 4585SOL    HW225215   0.249   1.540  15.388  0.4929 -0.7956  2.8531
 4586SOL     OW25216   0.378   0.106  12.746 -0.3120  0.1874 -0.0252
 4586SOL    HW125217   0.354   0.182  12.693 -2.1629 -0.6275 -0.3436
 4586SOL    HW225218   0.472   0.121  12.746 -0.1327 -0.8932 -1.1914
 4587SOL     OW25219   1.599   4.106  14.154 -0.6941  0.0179  0.1357
 4587SOL    HW125220   1.533   4.070  14.214  0.2498 -3.2243 -0.7567
 4587SOL    HW225221   1.541   4.141  14.088  0.7041 -0.0778 -1.1373
 4588SOL     OW25222   4.667   1.128   9.001  0.5162  0.6476  0.3594
 4588SOL    HW125223   4.636   1.038   8.988  0.8007  0.5101  0.6495
 4588SOL    HW225224   4.686   1.113   9.093  2.0534  1.8748  0.2355
 4589SOL     OW25225   0.494   0.778   2.938  0.4065 -1.0511  0.2211
 4589SOL    HW125226   0.523   0.692   2.968 -0.1211 -0.2551  2.9614
 4589SOL    HW225227   0.522   0.766   2.847  3.1077 -2.2288  1.2308
 4590SOL     OW25228   3.513   1.650   3.468  0.4905 -0.4201  1.1979
 4590SOL    HW125229   3.458   1.603   3.405 -0.1336  0.2398  1.2409
 4590SOL    HW225230   3.525   1.587   3.540  0.2594  0.7687  2.2778
 4591SOL     OW25231   4.331   0.796   4.438  0.0319  0.0476  0.5448
 4591SOL    HW125232   4.378   0.787   4.355 -0.9103  0.3145 -0.0178
 4591SOL    HW225233   4.400   0.822   4.499  1.0836  0.0148 -0.6309
 4592SOL     OW25234   4.538   1.173   6.084  0.3642  0.5103  0.7998
 4592SOL    HW125235   4.509   1.084   6.067 -2.3904  2.2739 -3.6804
 4592SOL    HW225236   4.546   1.203   5.993 -1.9864 -0.6852  0.2154
 4593SOL     OW25237   0.829   0.027  12.904  0.3953 -0.5562  0.3755
 4593SOL    HW125238   0.828   0.046  12.998  1.1287 -0.4096  0.3570
 4593SOL    HW225239   0.783   4.667  12.904 -0.1481 -0.2562  1.0595
 4594SOL     OW25240   4.094   3.846   1.072 -0.3191  0.1105 -0.1397
 4594SOL    HW125241   4.073   3.938   1.055  0.5636  0.0362 -1.7392
 4594SOL    HW225242   4.087   3.796   0.990  0.1871 -0.4059  0.1232
 4595SOL     OW25243   1.462   1.954  16.941 -0.6369  0.4675  0.0947
 4595SOL    HW125244   1.417   1.913  17.016 -1.0733 -0.5188 -0.7139
 4595SOL    HW225245   1.485   2.039  16.979  0.9948  0.0316  0.0774
 4596SOL     OW25246   1.128   1.143  11.110 -0.6836 -0.4830  0.2972
 4596SOL    HW125247   1.050   1.090  11.124 -0.0497 -1.2074  1.0608
 4596SOL    HW225248   1.165   1.097  11.035 -2.4884 -0.3065 -0.6944
 4597SOL     OW25249   0.499   3.616  15.424  0.0735 -0.1874 -0.4216
 4597SOL    HW125250   0.409   3.596  15.453 -0.1898  1.1003 -0.3612
 4597SOL    HW225251   0.531   3.666  15.499  0.8542 -1.7077  0.2500
 4598SOL     OW25252   1.520   3.092  16.484  0.4127  0.0067 -0.2829
 4598SOL    HW125253   1.557   3.105  16.572 -1.1695  3.1566 -0.0872
 4598SOL    HW225254   1.459   3.021  16.504 -0.2174  0.3522 -0.9833
 4599SOL     OW25255   3.305   2.070   0.730 -0.6016  0.1714  0.2636
 4599SOL    HW125256   3.344   2.044   0.814  1.1190  1.0881 -0.2567
 4599SOL    HW225257   3.304   2.164   0.751  0.7056  0.0056  1.0660
 4600SOL     OW25258   3.981   1.615   4.298  0.2617  0.4063  0.0477
 4600SOL    HW125259   4.011   1.687   4.353 -0.5075  1.3705 -0.8135
 4600SOL    HW225260   4.021   1.633   4.213  0.2594 -2.8032 -0.6418
 4601SOL     OW25261   4.075   2.439  14.005 -0.5577 -0.2404 -0.2981
 4601SOL    HW125262   4.009   2.411  14.068 -0.5857  0.2516 -0.1144
 4601SOL    HW225263   4.031   2.506  13.953 -3.6288 -0.9864  1.3629
 4602SOL     OW25264   3.992   3.307   8.036  0.5808  0.4391 -0.0029
 4602SOL    HW125265   3.904   3.343   8.029  1.4078  2.5859  0.5033
 4602SOL    HW225266   4.040   3.387   8.058  0.4287  0.2508  1.0437
 4603SOL     OW25267   2.710   2.551   9.164 -0.4507 -0.1305  0.2215
 4603SOL    HW125268   2.661   2.598   9.098 -1.9886  0.3446  1.7062
 4603SOL    HW225269   2.788   2.605   9.172  0.4821 -1.9234  3.4753
 4604SOL     OW25270   1.398   3.642   5.048 -0.2418 -0.3897  0.2042
 4604SOL    HW125271   1.492   3.626   5.041 -0.6387 -2.7255  0.1563
 4604SOL    HW225272   1.394   3.736   5.064  0.8147 -0.0641 -1.5662
 4605SOL     OW25273   2.369   4.119  10.768  0.1549 -0.6359  0.5516
 4605SOL    HW125274   2.434   4.183  10.799  1.9508 -2.8386  1.2964
 4605SOL    HW225275   2.337   4.157  10.686  0.0229 -1.1230  0.3788
 4606SOL     OW25276   4.520   3.087   3.688  0.4189  0.1205 -0.6097
 4606SOL    HW125277   4.510   2.999   3.650 -0.8544  1.3175 -3.0675
 4606SOL    HW225278   4.585   3.136   3.639  1.0763  0.3123  0.4623
 4607SOL     OW25279   1.792   3.586  10.591 -0.0580  0.1555 -0.1447
 4607SOL    HW125280   1.875   3.576  10.545 -1.0189 -3.4392 -1.1057
 4607SOL    HW225281   1.742   3.542  10.523  0.1889 -0.4269  0.0505
 4608SOL     OW25282   4.682   1.990   7.861 -0.0102  0.0866  0.3445
 4608SOL    HW125283   4.605   2.011   7.807  0.7735  0.0918 -0.7765
 4608SOL    HW225284   4.721   1.914   7.817 -0.4930  0.5121 -0.8097
 4609SOL     OW25285   0.215   0.960  11.040  0.5999  0.1314  0.1361
 4609SOL    HW125286   0.122   0.980  11.051  0.7736  1.2078 -0.3158
 4609SOL    HW225287   0.210   0.883  10.985 -1.1134 -0.7205  1.4748
 4610SOL     OW25288   4.312   3.865  10.745 -0.1679  0.1066 -0.1050
 4610SOL    HW125289   4.294   3.869  10.839 -3.1816  0.6018 -0.6897
 4610SOL    HW225290   4.360   3.945  10.724 -0.2018 -0.4196 -2.2633
 4611SOL     OW25291   3.511   3.855   1.445  0.1330 -0.3447 -0.2108
 4611SOL    HW125292   3.504   3.847   1.540 -0.0870  0.1557 -0.1828
 4611SOL    HW225293   3.605   3.836   1.437  0.5675  2.2087 -1.2079
 4612SOL     OW25294   1.877   0.012   7.098  0.2502 -0.1050  0.3474
 4612SOL    HW125295   1.923   0.008   7.182  1.2477  0.3481 -0.1865
 4612SOL    HW225296   1.880   4.643   7.078 -1.4526 -0.1956  0.5027
 4613SOL     OW25297   0.793   4.037   8.046  0.2764  0.4848  0.0709
 4613SOL    HW125298   0.799   4.070   8.136 -0.7505 -1.4934  0.8567
 4613SOL    HW225299   0.883   4.028   8.017 -0.2131 -3.2738 -0.2098
 4614SOL     OW25300   3.237   0.868  12.035 -0.1518  0.0780 -0.4801
 4614SOL    HW125301   3.330   0.891  12.044  0.4019 -2.2467 -0.3580
 4614SOL    HW225302   3.244   0.773  12.038  0.9441  0.1951  0.8259
 4615SOL     OW25303   3.533   4.003   3.318 -0.1020  0.1052  0.1810
 4615SOL    HW125304   3.540   4.096   3.295  1.7927 -0.1065 -0.0812
 4615SOL    HW225305   3.581   3.964   3.245 -1.4065 -1.4223  0.1272
 4616SOL     OW25306   3.246   0.973  17.397 -0.1551 -0.0088 -0.4196
 4616SOL    HW125307   3.163   0.935  17.427  0.3701  1.5842  3.0259
 4616SOL    HW225308   3.308   0.912  17.436 -0.4511  0.7875  1.3037
 4617SOL     OW25309   0.008   4.660   3.056  0.8163  0.1316 -0.3034
 4617SOL    HW125310   4.658   4.609   3.022 -0.2274  1.2771  0.2683
 4617SOL    HW225311   0.025   0.002   2.989  0.0850  0.2045 -0.4138
 4618SOL     OW25312   0.718   4.522   7.302  0.5417  0.2966  0.5725
 4618SOL    HW125313   0.771   4.454   7.260  3.0698  2.1426  0.8143
 4618SOL    HW225314   0.764   4.537   7.384  1.6558 -0.8588  0.1545
 4619SOL     OW25315   1.326   2.168   3.287 -0.0311  0.1053  0.0117
 4619SOL    HW125316   1.272   2.169   3.366  0.7464  0.0525  0.5402
 4619SOL    HW225317   1.301   2.251   3.246  1.6047  0.3159 -0.5688
 4620SOL     OW25318   0.438   1.940   5.898  0.3117 -0.5490 -0.1856
 4620SOL    HW125319   0.529   1.912   5.909  0.2415 -0.9672 -0.6552
 4620SOL    HW225320   0.389   1.867   5.937 -0.6248 -0.4484 -1.1648
 4621SOL     OW25321   0.265   1.266   7.136 -0.5070  0.1534 -0.1785
 4621SOL    HW125322   0.172   1.252   7.121 -0.3124 -2.3919  0.9515
 4621SOL    HW225323   0.304   1.204   7.074 -2.0989  0.1157 -1.1310
 4622SOL     OW25324   0.516   1.327  15.402 -0.2489 -0.0107  0.4038
 4622SOL    HW125325   0.442   1.362  15.352 -0.5272 -0.1645  0.7051
 4622SOL    HW225326   0.584   1.387  15.373  0.6600 -1.8752 -1.3703
 4623SOL     OW25327   0.364   2.122  15.964 -0.5545 -0.2333  0.2606
 4623SOL    HW125328   0.456   2.146  15.975 -0.3201 -1.5982  1.3043
 4623SOL    HW225329   0.356   2.046  16.021 -0.7538 -1.8996 -1.9637
 4624SOL     OW25330   3.930   3.495   2.662  0.0768 -0.0828 -0.2532
 4624SOL    HW125331   3.894   3.409   2.641  1.3936 -0.7517  0.2174
 4624SOL    HW225332   3.873   3.561   2.622 -0.5036  1.0221  2.4082
 4625SOL     OW25333   0.787   2.002   0.584 -0.1619  0.2263 -0.0701
 4625SOL    HW125334   0.844   1.939   0.541 -2.8522 -2.0281 -0.2905
 4625SOL    HW225335   0.773   2.063   0.511 -1.9765 -1.9656 -1.5405
 4626SOL     OW25336   2.464   1.105   0.782 -0.3471 -0.3806  0.3992
 4626SOL    HW125337   2.506   1.134   0.863  0.1952 -3.4900  1.1986
 4626SOL    HW225338   2.391   1.167   0.778 -0.7381 -0.9389 -1.2590
 4627SOL     OW25339   4.149   1.706   2.456  0.0597 -0.1389 -0.0506
 4627SOL    HW125340   4.224   1.693   2.398  0.3519 -1.4448  0.6110
 4627SOL    HW225341   4.081   1.754   2.408 -0.1579 -0.5217 -0.1288
 4628SOL     OW25342   2.762   4.035  12.484 -0.6561 -0.2790 -0.0159
 4628SOL    HW125343   2.669   4.052  12.501 -0.1662  1.5234  0.7791
 4628SOL    HW225344   2.782   3.976  12.557 -0.3328 -0.7737 -0.5048
 4629SOL     OW25345   3.939   2.791   7.953  0.2809 -0.3589  0.8223
 4629SOL    HW125346   3.872   2.852   7.923  1.0185 -1.0503 -2.1643
 4629SOL    HW225347   4.020   2.817   7.909  0.4193  0.1499  1.3643
 4630SOL     OW25348   2.710   0.684   4.916 -0.0820  0.0408 -0.4020
 4630SOL    HW125349   2.621   0.674   4.950 -0.4861  0.9557 -1.2117
 4630SOL    HW225350   2.710   0.630   4.837  2.3853  0.2824 -0.5534
 4631SOL     OW25351   1.285   1.910  17.149  0.4403 -0.2681  0.4158
 4631SOL    HW125352   1.191   1.900  17.134  0.3297 -1.5355  2.0324
 4631SOL    HW225353   1.281   1.978  17.216  0.1980  0.2919 -0.1660
 4632SOL     OW25354   3.471   2.678   3.214  0.3205  0.9073 -0.1298
 4632SOL    HW125355   3.526   2.689   3.292 -1.8735 -0.5389  1.6054
 4632SOL    HW225356   3.478   2.585   3.192 -2.3184  1.0185 -1.3835
 4633SOL     OW25357   3.264   1.946   5.654  0.2669  0.2952 -0.1400
 4633SOL    HW125358   3.244   2.033   5.620  0.2922  0.4068  0.1347
 4633SOL    HW225359   3.310   1.971   5.734 -1.7108  2.1324  0.4247
 4634SOL     OW25360   0.569   3.240   3.814  0.4928 -0.7593  0.4970
 4634SOL    HW125361   0.567   3.165   3.873 -1.0139 -0.6802  0.5394
 4634SOL    HW225362   0.574   3.314   3.874  1.6831 -1.0394  0.7357
 4635SOL     OW25363   1.281   1.157   5.387 -0.1192 -0.1039  0.0955
 4635SOL    HW125364   1.302   1.064   5.384 -0.2216 -0.1290  0.1690
 4635SOL    HW225365   1.200   1.153   5.335 -0.9473  1.1393  1.3011
 4636SOL     OW25366   4.677   1.369   1.663  0.2957  0.2294 -0.2163
 4636SOL    HW125367   4.610   1.427   1.626 -1.0935 -1.2415 -0.0094
 4636SOL    HW225368   4.715   1.425   1.731  0.9449  0.2693 -0.6146
 4637SOL     OW25369   4.416   0.681   4.893 -0.0718 -0.1660 -0.5251
 4637SOL    HW125370   4.386   0.745   4.959 -0.9196 -1.2359  0.1216
 4637SOL    HW225371   4.337   0.681   4.839 -0.4109 -0.9758 -0.0203
 4638SOL     OW25372   2.218   2.671  16.823 -0.3154  0.6895 -0.6310
 4638SOL    HW125373   2.223   2.760  16.788 -1.2247  0.8711 -0.3112
 4638SOL    HW225374   2.185   2.617  16.750 -2.1831  1.0329 -0.0536
 4639SOL     OW25375   2.317   4.522  13.957  0.1236 -0.2797  0.0986
 4639SOL    HW125376   2.399   4.571  13.947  0.3354 -0.2918  1.7671
 4639SOL    HW225377   2.259   4.581  13.908  1.9917 -0.8130 -2.7335
 4640SOL     OW25378   2.454   1.070  10.913 -0.2753  0.1441  0.3606
 4640SOL    HW125379   2.504   1.141  10.874 -1.5318 -0.5508 -2.5075
 4640SOL    HW225380   2.419   1.034  10.832 -2.0556 -0.1412  1.2540
 4641SOL     OW25381   0.124   0.928   5.894 -0.2225 -0.4605 -0.5799
 4641SOL    HW125382   0.121   0.998   5.959  3.2839  0.7687 -1.7287
 4641SOL    HW225383   0.111   0.854   5.953 -2.1876 -0.4361 -0.9844
 4642SOL     OW25384   1.373   3.816   4.752  0.2438 -0.0857  0.4631
 4642SOL    HW125385   1.418   3.869   4.687 -1.0552 -1.1248 -1.2614
 4642SOL    HW225386   1.410   3.845   4.836 -0.3246 -1.1936  1.1041
 4643SOL     OW25387   2.350   1.795   2.340  0.0059 -0.0707 -0.5954
 4643SOL    HW125388   2.276   1.742   2.311 -0.2289  0.3465 -0.7521
 4643SOL    HW225389   2.421   1.732   2.351  0.6437  0.4866 -1.5762
 4644SOL     OW25390   1.095   2.149   1.710 -0.0971 -0.1076 -0.0180
 4644SOL    HW125391   1.055   2.204   1.643  0.7539  0.8435  0.2570
 4644SOL    HW225392   1.134   2.081   1.655  1.3890  1.6914 -1.1701
 4645SOL     OW25393   2.154   0.628   6.245 -0.4218 -0.1731 -0.0761
 4645SOL    HW125394   2.144   0.684   6.168 -1.0984  0.3351  0.3652
 4645SOL    HW225395   2.183   0.548   6.204 -1.2919  0.1056 -1.2363
 4646SOL     OW25396   3.701   1.583  11.610 -0.3592 -0.1828 -0.8653
 4646SOL    HW125397   3.625   1.574  11.667  0.5925  0.4179  0.4965
 4646SOL    HW225398   3.717   1.491  11.591 -1.7266 -0.8631  1.2793
 4647SOL     OW25399   4.202   1.514   5.421  0.0775  0.3761  0.3533
 4647SOL    HW125400   4.138   1.571   5.378 -0.4088  0.5903  1.3495
 4647SOL    HW225401   4.180   1.539   5.511  0.5256 -0.5508  0.7216
 4648SOL     OW25402   3.759   0.802  12.587 -0.0478  0.4646 -0.0168
 4648SOL    HW125403   3.766   0.737  12.656 -1.0910 -0.4167 -0.7433
 4648SOL    HW225404   3.806   0.875  12.628  2.9653 -1.0412 -0.7855
 4649SOL     OW25405   3.810   3.750  14.549  0.1166 -0.0670 -0.3400
 4649SOL    HW125406   3.815   3.786  14.637 -0.4093 -0.8596  0.0212
 4649SOL    HW225407   3.847   3.819  14.495  0.8357  0.3036  0.6388
 4650SOL     OW25408   3.358   3.985   7.457  0.6694 -0.1528 -0.0843
 4650SOL    HW125409   3.313   4.033   7.387  0.7187  1.5058  1.0290
 4650SOL    HW225410   3.397   4.060   7.503 -1.5220  0.3418  0.9535
 4651SOL     OW25411   0.931   1.697  15.263  0.3338  0.2367 -0.3475
 4651SOL    HW125412   0.944   1.724  15.172 -0.2091  0.4971 -0.3439
 4651SOL    HW225413   1.019   1.692  15.302  0.8947  1.6156 -1.4114
 4652SOL     OW25414   0.643   3.591  14.373 -0.1634 -0.8889 -1.4636
 4652SOL    HW125415   0.663   3.627  14.287 -0.7069 -1.4584 -1.8286
 4652SOL    HW225416   0.719   3.533  14.386 -0.0239 -0.0766  1.3799
 4653SOL     OW25417   1.067   1.120   0.243  0.0986  0.4510  0.1272
 4653SOL    HW125418   1.069   1.053   0.175  2.7090 -0.1497  0.8357
 4653SOL    HW225419   1.097   1.062   0.312  0.9219  3.5801  2.4170
 4654SOL     OW25420   2.681   3.010  11.892 -0.3502 -0.2595 -0.4367
 4654SOL    HW125421   2.761   2.957  11.883  0.2898  0.5160  0.7353
 4654SOL    HW225422   2.665   3.032  11.800 -1.1153  2.8281  0.4623
 4655SOL     OW25423   2.323   1.161   8.655 -0.5400 -0.2152 -0.7898
 4655SOL    HW125424   2.328   1.068   8.677  1.9989 -0.0571 -0.6955
 4655SOL    HW225425   2.238   1.157   8.610 -0.7743 -0.2154 -0.3472
 4656SOL     OW25426   1.733   3.880  10.488  0.6452 -0.1212  0.0265
 4656SOL    HW125427   1.676   3.954  10.463 -1.0493 -1.0822  1.0468
 4656SOL    HW225428   1.673   3.825  10.539  0.8989  0.4661  0.9671
 4657SOL     OW25429   2.140   3.116   2.482  0.4942  0.5884 -0.1189
 4657SOL    HW125430   2.130   3.089   2.574  0.7803 -0.1425 -0.3041
 4657SOL    HW225431   2.160   3.210   2.487  1.2676  0.3054  2.5003
 4658SOL     OW25432   4.551   2.978   8.172  0.1375  0.1074 -0.0979
 4658SOL    HW125433   4.596   2.908   8.219  2.0891  1.5586  0.2143
 4658SOL    HW225434   4.505   3.015   8.247 -0.3992 -3.5773  1.3735
 4659SOL     OW25435   2.581   4.547  15.394 -0.0680  0.1078 -0.4189
 4659SOL    HW125436   2.614   4.634  15.374  3.1018 -0.8410  0.6671
 4659SOL    HW225437   2.663   4.498  15.382 -0.4981 -1.1412  1.7861
 4660SOL     OW25438   1.367   2.579  15.089  0.1591 -0.3412 -0.0310
 4660SOL    HW125439   1.438   2.642  15.104 -1.1525  1.2251 -0.4476
 4660SOL    HW225440   1.409   2.502  15.050  1.9799 -1.2642  3.7522
 4661SOL     OW25441   2.083   0.408   4.829 -0.2409  0.1655  0.1165
 4661SOL    HW125442   2.021   0.336   4.841  0.9083 -1.3248 -2.8444
 4661SOL    HW225443   2.039   0.480   4.873 -0.5369 -1.5331  2.6114
 4662SOL     OW25444   2.656   0.010  12.991 -0.3485 -0.3017  0.8449
 4662SOL    HW125445   2.695   0.038  13.074 -1.2706  0.5314  0.9981
 4662SOL    HW225446   2.593   4.683  13.042 -0.0463 -1.6658 -0.1509
 4663SOL     OW25447   3.036   1.350  11.853 -0.3402  0.4105 -0.3839
 4663SOL    HW125448   2.996   1.282  11.798 -3.0086  1.2913  0.4903
 4663SOL    HW225449   3.007   1.424  11.800  2.5209  1.9681  0.2057
 4664SOL     OW25450   0.750   4.047  16.441  0.4142  0.3037  0.2918
 4664SOL    HW125451   0.822   4.085  16.392 -0.7229  0.3373 -1.3574
 4664SOL    HW225452   0.791   4.025  16.524  0.2031  0.0549  0.3308
 4665SOL     OW25453   3.529   2.551   6.151 -0.3017 -0.8310  0.4538
 4665SOL    HW125454   3.560   2.465   6.179 -0.6571 -0.4811  1.9286
 4665SOL    HW225455   3.464   2.561   6.220  1.3495  3.1234  1.4468
 4666SOL     OW25456   1.721   0.318   5.931  0.3269 -0.4365 -0.2349
 4666SOL    HW125457   1.752   0.232   5.902 -1.0714 -1.7621  2.2338
 4666SOL    HW225458   1.751   0.375   5.860  0.7133  0.3324  0.5481
 4667SOL     OW25459   1.438   1.379  17.492  0.1883  0.4929 -0.1909
 4667SOL    HW125460   1.365   1.434  17.463 -1.1075 -0.8058  0.6264
 4667SOL    HW225461   1.437   1.393  17.587  1.9686 -0.9202  0.0307
 4668SOL     OW25462   2.625   4.612   8.413 -0.5432  0.2683 -0.4958
 4668SOL    HW125463   2.642   4.670   8.339  0.1792 -0.5427 -0.9630
 4668SOL    HW225464   2.531   4.602   8.394 -0.7079  0.3560  0.2803
 4669SOL     OW25465   2.682   0.294   8.925 -0.3649  0.2123 -0.0763
 4669SOL    HW125466   2.760   0.329   8.881 -0.6256  1.7046  0.6709
 4669SOL    HW225467   2.654   0.235   8.855  0.2674  1.1398 -1.1111
 4670SOL     OW25468   2.086   2.791  14.389 -0.3095  0.4936 -0.2277
 4670SOL    HW125469   2.122   2.841  14.463  1.0213 -0.7519 -0.0417
 4670SOL    HW225470   2.167   2.745  14.371  0.3209  1.4070  0.2327
 4671SOL     OW25471   4.072   2.309   5.622  0.0352  0.6183  0.3239
 4671SOL    HW125472   4.068   2.256   5.701  1.1894  0.3518  0.1917
 4671SOL    HW225473   4.167   2.314   5.612  0.2904 -1.5514  1.8231
 4672SOL     OW25474   4.355   0.155   2.674 -0.0490  0.6135  0.2435
 4672SOL    HW125475   4.327   0.144   2.765 -0.1734  3.1617  0.5233
 4672SOL    HW225476   4.399   0.071   2.663  1.7625  1.6847 -0.6872
 4673SOL     OW25477   3.653   1.634   3.822 -0.3048 -0.3926 -0.7134
 4673SOL    HW125478   3.705   1.565   3.865 -2.3347 -3.1009 -2.5569
 4673SOL    HW225479   3.724   1.683   3.781 -1.2535  0.8627 -0.8209
 4674SOL     OW25480   2.276   3.382   6.884 -0.2362  0.1161 -0.0898
 4674SOL    HW125481   2.255   3.290   6.874  1.4990 -0.0849 -1.7585
 4674SOL    HW225482   2.197   3.419   6.845 -1.1122  0.5405  2.0890
 4675SOL     OW25483   1.243   3.469   8.887 -0.1445 -0.0543  0.1189
 4675SOL    HW125484   1.226   3.433   8.974  0.3227  0.3653  0.3857
 4675SOL    HW225485   1.259   3.382   8.849 -0.8963  0.7070 -1.9491
 4676SOL     OW25486   0.685   2.805   7.012 -0.0960  0.2067  0.2930
 4676SOL    HW125487   0.670   2.712   7.029  0.6392 -0.1017 -0.7797
 4676SOL    HW225488   0.617   2.827   6.948 -1.5336  0.2264  1.8330
 4677SOL     OW25489   2.976   0.532   2.239 -0.4016 -0.4407 -0.1941
 4677SOL    HW125490   3.035   0.582   2.295  3.1975 -1.6451 -2.9198
 4677SOL    HW225491   2.945   0.610   2.192 -0.6841 -0.5258 -0.1517
 4678SOL     OW25492   0.321   2.042  17.693 -0.0645 -0.2794  0.6372
 4678SOL    HW125493   0.242   2.041   0.049 -1.6469  1.8557 -1.6595
 4678SOL    HW225494   0.323   2.135  17.670  0.9094 -0.4608 -0.0209
 4679SOL     OW25495   3.341   4.008  14.972  0.3112 -0.3001 -0.0728
 4679SOL    HW125496   3.385   4.066  14.910 -0.1969  2.1351  1.8772
 4679SOL    HW225497   3.413   3.946  14.987 -0.4476 -1.5512 -1.5459
 4680SOL     OW25498   0.119   3.316   8.310 -0.7018  0.2060  0.8696
 4680SOL    HW125499   0.117   3.253   8.382 -0.1646 -2.2572 -1.2691
 4680SOL    HW225500   0.195   3.282   8.264 -0.9552  0.2563  0.4140
 4681SOL     OW25501   2.163   0.974   9.031 -0.4129 -0.3256  0.0988
 4681SOL    HW125502   2.126   0.983   9.119 -0.1012 -0.7371  0.2735
 4681SOL    HW225503   2.249   0.934   9.046 -0.8011 -1.1867 -0.0192
 4682SOL     OW25504   4.633   1.067   2.714  0.5035  0.1709  0.3066
 4682SOL    HW125505   4.666   1.086   2.626 -0.9547  0.5274 -0.1673
 4682SOL    HW225506   4.592   1.153   2.726  1.6362  0.4895  1.8880
 4683SOL     OW25507   0.387   0.165   6.461  0.1915  0.5188  0.5774
 4683SOL    HW125508   0.313   0.137   6.516 -0.4729  0.9821 -0.0717
 4683SOL    HW225509   0.423   0.236   6.514  0.1782  1.3753 -0.5654
 4684SOL     OW25510   1.458   2.819   0.060  0.5213  0.1943  0.1517
 4684SOL    HW125511   1.496   2.749   0.005 -0.2188  0.4738 -0.7086
 4684SOL    HW225512   1.413   2.873  17.694  2.9148  2.3534  0.2849
 4685SOL     OW25513   2.444   1.294   6.136  0.0788  0.0958  0.3301
 4685SOL    HW125514   2.438   1.370   6.078 -1.7337 -0.5524 -0.3214
 4685SOL    HW225515   2.364   1.249   6.111  0.1044  0.1728  0.1102
 4686SOL     OW25516   1.888   2.527   8.277  0.6336 -0.0833  0.4268
 4686SOL    HW125517   1.894   2.440   8.316 -0.4406 -1.2868 -2.0854
 4686SOL    HW225518   1.980   2.551   8.290  0.8127  0.3858 -1.7001
 4687SOL     OW25519   1.232   3.138   8.291 -0.6603 -0.6195  0.4811
 4687SOL    HW125520   1.201   3.104   8.207 -0.7103  3.5564 -1.1843
 4687SOL    HW225521   1.315   3.091   8.300 -0.0470  0.3639 -0.1046
 4688SOL     OW25522   2.991   3.063   1.413 -0.0352  0.0400 -0.2659
 4688SOL    HW125523   2.953   3.091   1.496  0.8406 -1.8938  0.8069
 4688SOL    HW225524   3.062   3.005   1.443  0.7586  1.6259  0.9216
 4689SOL     OW25525   0.660   2.166  12.707 -0.1123 -0.1531 -0.1458
 4689SOL    HW125526   0.736   2.109  12.698  1.5824  2.1422 -0.4975
 4689SOL    HW225527   0.672   2.177  12.801  1.2863 -0.9162 -0.2307
 4690SOL     OW25528   3.241   3.199   0.597  0.4506 -0.3093  0.5208
 4690SOL    HW125529   3.194   3.116   0.583  0.3005  0.3046 -2.6874
 4690SOL    HW225530   3.176   3.267   0.585  3.4563  2.3478 -0.8051
 4691SOL     OW25531   0.875   2.048   8.434  0.5092 -0.3234  0.3637
 4691SOL    HW125532   0.863   2.003   8.350  2.8058 -1.7436  0.8150
 4691SOL    HW225533   0.957   2.007   8.462  1.9853  1.3707 -1.5039
 4692SOL     OW25534   3.306   3.586   0.863  0.1357 -0.0190  0.1784
 4692SOL    HW125535   3.330   3.550   0.949 -1.7237 -3.7789 -0.9004
 4692SOL    HW225536   3.211   3.589   0.879  0.2192  0.7048  0.5465
 4693SOL     OW25537   2.759   4.282  11.062 -0.2853 -0.2110 -0.3065
 4693SOL    HW125538   2.790   4.297  10.973  0.0034  1.9971  0.1538
 4693SOL    HW225539   2.730   4.370  11.086 -1.1921 -1.0774  1.7448
 4694SOL     OW25540   0.517   2.583   8.895  0.3605  0.1959  0.1858
 4694SOL    HW125541   0.566   2.508   8.930 -1.6183 -2.0382 -1.8653
 4694SOL    HW225542   0.432   2.546   8.872 -0.3699  1.1074  1.3788
 4695SOL     OW25543   4.021   3.924   8.102  0.1161 -0.2218 -0.4111
 4695SOL    HW125544   4.031   3.903   8.010  1.2131 -0.2789 -0.2807
 4695SOL    HW225545   4.045   3.841   8.143 -0.1444 -0.1294 -0.0678
 4696SOL     OW25546   0.652   3.554   6.761 -0.2074 -0.4191  0.1791
 4696SOL    HW125547   0.674   3.462   6.775  3.3273  0.6666  1.6557
 4696SOL    HW225548   0.714   3.595   6.820  0.0362  3.1216 -2.4511
 4697SOL     OW25549   1.963   2.631   3.416 -0.1473  0.3290 -0.1447
 4697SOL    HW125550   1.989   2.547   3.378 -1.1852 -0.1507  0.2122
 4697SOL    HW225551   2.041   2.640   3.470  0.3374 -1.0786 -0.6161
 4698SOL     OW25552   3.385   1.296   3.771 -0.3734 -0.3411  0.2898
 4698SOL    HW125553   3.332   1.224   3.735  0.7371 -1.3537  0.6873
 4698SOL    HW225554   3.325   1.318   3.841  0.2730 -0.1076  0.7669
 4699SOL     OW25555   4.336   1.452   5.984 -0.0398 -0.1592 -0.4348
 4699SOL    HW125556   4.292   1.419   6.063  2.7981 -2.4733  0.1854
 4699SOL    HW225557   4.269   1.513   5.953  1.8189  0.7005 -2.7929
 4700SOL     OW25558   0.596   0.063  17.490  0.4321 -0.1650 -0.6990
 4700SOL    HW125559   0.622   0.062  17.398 -0.7275  0.7663 -1.0382
 4700SOL    HW225560   0.653   4.714  17.515  0.1660 -0.7356 -1.7530
 4701SOL     OW25561   0.797   3.745   4.363  0.0737 -0.5882  0.2609
 4701SOL    HW125562   0.817   3.803   4.289 -1.6254  1.0312  1.0719
 4701SOL    HW225563   0.874   3.761   4.416 -1.8081 -0.7136  3.0267
 4702SOL     OW25564   2.994   2.762   4.247  0.3705 -0.6129 -0.1490
 4702SOL    HW125565   3.058   2.709   4.200 -2.4396 -3.3778 -0.8124
 4702SOL    HW225566   3.029   2.766   4.337  1.3898  0.1017 -0.5676
 4703SOL     OW25567   2.959   2.261   3.053  0.5806  0.0385  0.2523
 4703SOL    HW125568   2.895   2.303   3.109 -0.8530 -3.6162  1.3489
 4703SOL    HW225569   2.941   2.292   2.964  0.5856  0.4467  0.3950
 4704SOL     OW25570   0.830   2.146   9.089 -0.4768  0.1675 -0.5644
 4704SOL    HW125571   0.806   2.057   9.064  2.0163 -0.5404 -0.4793
 4704SOL    HW225572   0.916   2.170   9.055  0.1317  0.0289  0.8534
 4705SOL     OW25573   0.919   1.206   2.578  0.1204  0.4491 -0.5577
 4705SOL    HW125574   0.874   1.174   2.500 -1.2456  2.9397 -0.8121
 4705SOL    HW225575   0.931   1.296   2.547 -0.1637  1.5995  2.6015
 4706SOL     OW25576   4.372   1.771  13.467 -0.8975 -0.4537 -0.4287
 4706SOL    HW125577   4.376   1.792  13.561 -0.2751 -2.6141  0.0332
 4706SOL    HW225578   4.278   1.775  13.449 -1.1736  3.4428  1.7788
 4707SOL     OW25579   3.196   0.785   8.965 -0.1802 -0.3803  0.1636
 4707SOL    HW125580   3.213   0.702   9.008 -0.2548  0.2292  1.3571
 4707SOL    HW225581   3.229   0.843   9.033 -1.1898 -0.3227  0.6138
 4708SOL     OW25582   1.686   0.556   4.209 -0.6590 -0.4835 -0.2374
 4708SOL    HW125583   1.684   0.610   4.288  1.0127 -2.2280  0.9888
 4708SOL    HW225584   1.775   0.570   4.177 -1.0584  1.2012 -0.5998
 4709SOL     OW25585   0.023   3.187   4.383 -0.6705 -0.0389  0.1991
 4709SOL    HW125586   0.048   3.112   4.437  1.4176  1.4432  1.3110
 4709SOL    HW225587   4.718   3.241   4.456 -0.4720  0.4793 -0.0970
 4710SOL     OW25588   1.678   2.316   8.516 -0.4217 -0.7186  0.4721
 4710SOL    HW125589   1.750   2.253   8.515  0.0250 -0.1649 -1.4033
 4710SOL    HW225590   1.638   2.305   8.429 -0.1002 -1.5504  0.4320
 4711SOL     OW25591   0.550   4.690   3.369 -0.5930  0.2337  0.1773
 4711SOL    HW125592   0.621   4.642   3.412 -0.9106 -0.6546 -0.2809
 4711SOL    HW225593   0.585   0.054   3.363 -1.8239  0.4570 -3.6169
 4712SOL     OW25594   2.655   2.492   3.853  0.3722 -0.0756  0.1561
 4712SOL    HW125595   2.744   2.467   3.827 -0.3368 -1.0543 -1.3321
 4712SOL    HW225596   2.633   2.419   3.911 -0.1787  1.0371  1.3149
 4713SOL     OW25597   0.435   0.151   5.772  0.1036 -0.1517  0.0934
 4713SOL    HW125598   0.393   0.076   5.816 -0.4092 -0.3321 -0.7093
 4713SOL    HW225599   0.384   0.169   5.694  0.0572 -1.2173 -0.1298
 4714SOL     OW25600   3.467   4.126   4.974 -0.3852  0.0955  0.5461
 4714SOL    HW125601   3.490   4.043   4.934  1.0218  0.9478 -0.4057
 4714SOL    HW225602   3.375   4.114   4.998 -0.0764 -1.5962  0.8486
 4715SOL     OW25603   3.434   0.405   8.527  0.0220  0.2785 -0.0197
 4715SOL    HW125604   3.468   0.325   8.486 -1.8381 -1.5990  2.1039
 4715SOL    HW225605   3.442   0.402   8.623  0.8098 -0.5056 -0.1119
 4716SOL     OW25606   0.682   2.270  13.722 -0.2305 -0.5311  0.1991
 4716SOL    HW125607   0.749   2.225  13.670  0.2885  0.6561 -0.1548
 4716SOL    HW225608   0.684   2.220  13.804 -1.1836 -3.4429 -1.5340
 4717SOL     OW25609   1.529   2.964   5.395 -0.0767  0.9816 -0.1281
 4717SOL    HW125610   1.525   2.920   5.310 -1.2449 -0.7647  0.8282
 4717SOL    HW225611   1.622   2.969   5.417  0.3828 -1.2313 -1.5450
 4718SOL     OW25612   2.529   2.203   8.690  0.1795 -0.0035  0.2171
 4718SOL    HW125613   2.526   2.285   8.642  0.3127  0.2487  0.6392
 4718SOL    HW225614   2.541   2.242   8.776  0.2033 -0.2459  0.3241
 4719SOL     OW25615   0.714   2.422   6.383 -0.0539 -0.6121 -0.2860
 4719SOL    HW125616   0.719   2.369   6.304  2.2745 -2.5795  1.1629
 4719SOL    HW225617   0.623   2.451   6.373  0.1398 -0.4030 -1.3536
 4720SOL     OW25618   3.571   2.382   0.892 -0.6457  0.2380 -0.8362
 4720SOL    HW125619   3.658   2.349   0.869 -0.3848  1.4741 -1.6503
 4720SOL    HW225620   3.551   2.330   0.969 -1.3502  1.6413 -0.0817
 4721SOL     OW25621   4.084   1.631   1.033 -0.2257  0.3348 -0.3010
 4721SOL    HW125622   4.157   1.577   1.003 -1.4855 -1.3780 -0.2924
 4721SOL    HW225623   4.075   1.592   1.120  2.5566 -0.6164 -0.4449
 4722SOL     OW25624   3.972   4.474   4.956  0.0099 -0.1213  0.1003
 4722SOL    HW125625   4.045   4.534   4.940 -0.3119  0.3056  0.2457
 4722SOL    HW225626   3.922   4.546   4.995  1.6794  0.8665  0.4218
 4723SOL     OW25627   0.150   2.587  10.294 -0.2658  0.3275  0.1073
 4723SOL    HW125628   0.188   2.502  10.315  0.3430  1.1705  2.4074
 4723SOL    HW225629   0.230   2.638  10.280  0.5390 -0.8561  0.4120
 4724SOL     OW25630   1.953   3.807  16.423 -0.2440 -0.2295  0.1559
 4724SOL    HW125631   1.996   3.841  16.345  0.8342 -0.4551  0.6638
 4724SOL    HW225632   1.940   3.715  16.398 -0.0850 -0.4075  0.7373
 4725SOL     OW25633   2.388   4.548   8.332  0.1385 -0.4431 -0.0601
 4725SOL    HW125634   2.306   4.526   8.377 -1.5097  1.4073 -2.1331
 4725SOL    HW225635   2.366   4.564   8.240  1.1643  1.1199 -0.0328
 4726SOL     OW25636   0.082   4.701   3.321  0.0251  0.0051 -0.0643
 4726SOL    HW125637   0.011   4.667   3.376  0.2019 -1.4018 -0.7123
 4726SOL    HW225638   0.033   4.722   3.242 -1.5543  0.8448  1.1382
 4727SOL     OW25639   3.834   0.114  10.590  0.3053  0.0329 -0.7040
 4727SOL    HW125640   3.875   0.043  10.640  0.3403  0.8417  0.4100
 4727SOL    HW225641   3.813   0.175  10.661 -1.3910 -0.9264 -0.3891
 4728SOL     OW25642   3.208   0.942   3.356 -0.3025  0.0632  0.0264
 4728SOL    HW125643   3.222   0.848   3.347  0.5973  0.1722  0.2210
 4728SOL    HW225644   3.115   0.954   3.341 -0.7530 -0.1657  2.7316
 4729SOL     OW25645   0.461   3.544   4.972 -0.4080  0.0225  0.1179
 4729SOL    HW125646   0.550   3.560   4.942 -0.8905  3.4484  0.5204
 4729SOL    HW225647   0.481   3.474   5.034 -1.9025  0.5452  1.1980
 4730SOL     OW25648   1.801   1.661   9.884 -0.5957  0.2428 -0.8431
 4730SOL    HW125649   1.770   1.597   9.948  3.1297  0.3873  1.1236
 4730SOL    HW225650   1.768   1.738   9.929  0.0039  0.0216 -0.0307
 4731SOL     OW25651   3.174   2.367  11.526 -0.5576  0.3656  0.6046
 4731SOL    HW125652   3.183   2.291  11.469 -2.5874 -0.1337  0.9492
 4731SOL    HW225653   3.266   2.391  11.532 -0.9039  1.2956  2.2082
 4732SOL     OW25654   0.251   1.762   5.744 -0.4191  0.1800  0.2852
 4732SOL    HW125655   0.172   1.813   5.724 -0.4452 -0.5363 -1.4374
 4732SOL    HW225656   0.241   1.779   5.838  2.4364  2.7346  0.1405
 4733SOL     OW25657   2.844   2.015   0.128 -0.1222 -0.2009  0.3074
 4733SOL    HW125658   2.780   2.000   0.058 -0.0256  2.2703 -0.3252
 4733SOL    HW225659   2.920   1.975   0.085  0.0704 -0.1576  0.6065
 4734SOL     OW25660   3.652   4.648   3.813  0.2937  0.0566  0.2324
 4734SOL    HW125661   3.567   4.686   3.838  0.1596 -0.2545  0.2507
 4734SOL    HW225662   3.670   4.698   3.733  2.0157 -0.3893  0.3436
 4735SOL     OW25663   0.433   0.376   4.301 -0.4790 -0.4972  0.2367
 4735SOL    HW125664   0.459   0.318   4.373  0.3969 -0.8166 -0.3305
 4735SOL    HW225665   0.499   0.445   4.309  0.2125 -0.8981 -1.9506
 4736SOL     OW25666   1.441   3.420   2.251 -0.1673 -0.1287 -0.5119
 4736SOL    HW125667   1.436   3.445   2.159 -3.2537 -0.5081 -0.4493
 4736SOL    HW225668   1.534   3.398   2.249 -0.5378 -1.9858  2.2099
 4737SOL     OW25669   3.329   0.651   3.728  0.1081 -0.4151 -0.5773
 4737SOL    HW125670   3.287   0.646   3.814  0.5961 -0.1940 -0.3253
 4737SOL    HW225671   3.294   0.737   3.707  0.1659  0.0238  1.1603
 4738SOL     OW25672   0.353   1.708   8.853  0.4321  0.1314 -0.3994
 4738SOL    HW125673   0.259   1.691   8.848  0.9389 -2.0061 -2.3516
 4738SOL    HW225674   0.357   1.803   8.842  1.5402  0.1068 -0.2213
 4739SOL     OW25675   2.878   0.501   6.892  0.0249 -0.1156 -0.3590
 4739SOL    HW125676   2.806   0.442   6.869 -0.2545 -1.1248  3.1734
 4739SOL    HW225677   2.843   0.585   6.863 -0.3469 -0.0521  0.2732
 4740SOL     OW25678   3.810   1.281   7.982 -0.0888 -0.0050  0.1735
 4740SOL    HW125679   3.846   1.262   8.069  0.6065  1.0540  0.1140
 4740SOL    HW225680   3.731   1.332   8.000 -1.0262 -1.8835  1.4010
 4741SOL     OW25681   1.869   3.665  12.493 -0.0732 -0.1483  0.4576
 4741SOL    HW125682   1.910   3.591  12.538 -0.0604 -0.2510  0.2777
 4741SOL    HW225683   1.787   3.626  12.460 -0.3967  0.1740  0.8785
 4742SOL     OW25684   0.445   2.429   6.105  0.0434  0.1603 -0.0265
 4742SOL    HW125685   0.443   2.466   6.193 -0.3348  1.8706 -0.7659
 4742SOL    HW225686   0.481   2.345   6.132  1.9762  1.1641  0.4392
 4743SOL     OW25687   2.339   2.085   2.889 -0.1044 -0.1039 -0.3058
 4743SOL    HW125688   2.343   2.131   2.973  3.2571 -0.3094 -0.3273
 4743SOL    HW225689   2.429   2.086   2.856  0.1071 -0.3499  0.2499
 4744SOL     OW25690   1.597   0.536   9.273  0.3824  0.5094 -0.1464
 4744SOL    HW125691   1.551   0.589   9.209  0.0961 -1.6161 -1.6793
 4744SOL    HW225692   1.659   0.592   9.320 -0.0454  0.3773  0.5851
 4745SOL     OW25693   3.695   2.105   6.682  0.5255 -0.5907  0.0402
 4745SOL    HW125694   3.673   2.057   6.762 -2.2376  0.5442 -0.0424
 4745SOL    HW225695   3.790   2.116   6.693  0.8179 -3.7470  0.7700
 4746SOL     OW25696   1.718   2.031   7.224 -0.2579  0.0865 -0.2332
 4746SOL    HW125697   1.687   2.112   7.184 -2.6440 -0.8408 -0.2658
 4746SOL    HW225698   1.811   2.049   7.211 -0.4421  1.5906  0.5277
 4747SOL     OW25699   1.922   0.837   7.320  0.4708  0.2947  0.3291
 4747SOL    HW125700   1.921   0.755   7.368 -0.6906 -0.5425 -1.1211
 4747SOL    HW225701   1.828   0.855   7.316 -0.0334 -2.4887  0.1351
 4748SOL     OW25702   1.185   1.471   7.095 -0.3758  0.6532  0.1972
 4748SOL    HW125703   1.154   1.404   7.156  1.6532  0.1562  0.6837
 4748SOL    HW225704   1.256   1.514   7.143 -0.8098  1.7823 -0.1667
 4749SOL     OW25705   1.522   1.075   5.710 -0.2806 -0.4995 -0.4754
 4749SOL    HW125706   1.492   1.153   5.663  1.8383 -0.2808 -1.4493
 4749SOL    HW225707   1.450   1.012   5.698 -0.8540 -0.3171  2.0418
 4750SOL     OW25708   4.110   3.514  16.105  0.0461  0.2711  0.5038
 4750SOL    HW125709   4.034   3.571  16.094  1.4977  1.9084 -0.9927
 4750SOL    HW225710   4.081   3.436  16.056 -1.5345  1.2768 -0.1389
 4751SOL     OW25711   4.252   2.300   7.655  0.5850 -0.3010  0.0056
 4751SOL    HW125712   4.284   2.245   7.583 -1.4505  1.2769 -2.1180
 4751SOL    HW225713   4.338   2.327   7.687 -0.0221  0.0758  1.3084
 4752SOL     OW25714   0.033   1.911   2.401  0.0892  0.2794 -0.1902
 4752SOL    HW125715   0.116   1.892   2.446  1.7283  0.6202 -3.0269
 4752SOL    HW225716   0.072   1.951   2.323 -0.0312  3.7537  1.5571
 4753SOL     OW25717   0.126   3.059   6.779 -0.7009  0.8721  0.2629
 4753SOL    HW125718   0.064   2.987   6.768 -0.1425  0.5904 -0.9811
 4753SOL    HW225719   0.085   3.127   6.724  0.7519  0.5836 -1.1586
 4754SOL     OW25720   3.079   3.693   2.552 -0.4593 -0.3955  0.1618
 4754SOL    HW125721   3.092   3.663   2.642 -0.0560  0.9866  0.5645
 4754SOL    HW225722   2.991   3.730   2.556 -0.0823  0.7282 -1.8513
 4755SOL     OW25723   1.766   2.422  15.125  0.1921 -0.1011  0.0141
 4755SOL    HW125724   1.681   2.426  15.081 -0.3856 -0.1077  1.1124
 4755SOL    HW225725   1.733   2.388  15.209  0.1642 -0.7439 -0.2590
 4756SOL     OW25726   0.929   4.593   8.869 -0.3069  0.4154  0.1791
 4756SOL    HW125727   0.927   4.504   8.904  1.9165  0.7616  1.2002
 4756SOL    HW225728   1.023   4.601   8.882 -0.4548  3.1643 -0.3287
 4757SOL     OW25729   4.115   2.071  14.645  0.3160 -0.1404  0.0047
 4757SOL    HW125730   4.180   2.125  14.690  1.8965 -1.2299 -0.9645
 4757SOL    HW225731   4.045   2.135  14.637  0.8032  0.4840  0.8245
 4758SOL     OW25732   2.285   4.395   3.418  0.2503  0.5746  0.6439
 4758SOL    HW125733   2.378   4.385   3.398  0.5204 -0.0346  2.2848
 4758SOL    HW225734   2.276   4.363   3.507  2.5635 -0.5382  0.4719
 4759SOL     OW25735   4.082   4.365  11.503 -0.6136  0.3651  0.8363
 4759SOL    HW125736   4.092   4.297  11.435  0.2527  1.9452 -0.6241
 4759SOL    HW225737   4.012   4.323  11.553 -1.7553  0.0795 -1.0128
 4760SOL     OW25738   4.154   4.014   5.247  0.3944  0.2829 -0.2929
 4760SOL    HW125739   4.176   3.951   5.178 -1.3913 -0.6624 -0.0246
 4760SOL    HW225740   4.071   4.051   5.216  0.0864 -0.4028 -0.2772
 4761SOL     OW25741   2.803   3.017   5.452  0.2284  0.2028  0.2589
 4761SOL    HW125742   2.777   3.033   5.543  0.9750 -3.1607  1.0424
 4761SOL    HW225743   2.770   2.928   5.439  3.8636 -0.7201 -2.5075
 4762SOL     OW25744   1.628   2.577   6.084 -0.1127 -0.3140 -0.0995
 4762SOL    HW125745   1.685   2.502   6.069  0.4942  0.2182 -0.4510
 4762SOL    HW225746   1.671   2.645   6.033 -0.1661 -0.2429 -0.0515
 4763SOL     OW25747   4.703   0.354   2.829  0.4256  0.1674 -0.0813
 4763SOL    HW125748   4.705   0.359   2.734 -1.4291  1.2632 -0.0464
 4763SOL    HW225749   4.683   0.443   2.855  1.8578  0.0985  1.2559
 4764SOL     OW25750   2.651   3.253   8.877 -0.1329 -1.3771 -0.4001
 4764SOL    HW125751   2.700   3.175   8.903  1.3562 -0.9102 -1.8256
 4764SOL    HW225752   2.622   3.281   8.963 -3.2443  1.8573 -2.4799
 4765SOL     OW25753   3.308   4.381   4.919  0.1767  0.0681 -0.0279
 4765SOL    HW125754   3.396   4.380   4.882 -0.5858 -2.8249 -1.8215
 4765SOL    HW225755   3.337   4.339   5.000  3.0256  0.4394 -0.8628
 4766SOL     OW25756   3.103   2.498   6.521 -0.0257  0.4764 -0.4554
 4766SOL    HW125757   3.018   2.510   6.564 -0.5836  1.3669 -1.7847
 4766SOL    HW225758   3.168   2.494   6.590 -0.8958 -0.6762  0.2897
 4767SOL     OW25759   0.449   1.113  16.059 -1.1590  0.5126  0.1256
 4767SOL    HW125760   0.517   1.138  15.996 -1.2773  2.0378  0.6138
 4767SOL    HW225761   0.382   1.086  15.996  0.0163 -2.7015  0.2812
 4768SOL     OW25762   3.775   1.514  14.437 -0.1621  0.3710 -0.1984
 4768SOL    HW125763   3.680   1.510  14.451  0.1279  1.0757  1.9737
 4768SOL    HW225764   3.813   1.456  14.503  0.2540 -1.3278 -1.9451
 4769SOL     OW25765   2.332   4.650   6.935 -0.3378 -0.3017 -0.3897
 4769SOL    HW125766   2.278   4.589   6.985  0.6662  0.5546  1.7373
 4769SOL    HW225767   2.282   4.652   6.853 -2.2677  3.6671  0.8234
 4770SOL     OW25768   0.091   0.453   3.796  0.0297 -0.4342  0.1766
 4770SOL    HW125769   0.048   0.431   3.713  0.0529 -1.4762  0.4362
 4770SOL    HW225770   0.182   0.462   3.769 -0.5234  0.2050 -1.4984
 4771SOL     OW25771   0.845   4.673  17.647  0.0472 -0.0029  0.3539
 4771SOL    HW125772   0.825   4.710   0.034  1.2298  1.8755 -0.1687
 4771SOL    HW225773   0.914   4.612  17.674 -1.1514 -0.5801  2.0736
 4772SOL     OW25774   3.751   2.831   2.569  0.0938  0.5304 -1.0687
 4772SOL    HW125775   3.782   2.767   2.634 -1.6231 -0.3079 -1.0763
 4772SOL    HW225776   3.835   2.828   2.524  0.7154  0.2452  0.1099
 4773SOL     OW25777   0.932   0.930  17.456 -0.0608  0.0079 -0.0514
 4773SOL    HW125778   0.927   0.841  17.491  1.7080  0.2264  0.7608
 4773SOL    HW225779   0.896   0.933  17.367 -1.3969 -0.9177  0.4591
 4774SOL     OW25780   1.779   3.583  13.078 -0.0951  0.4919 -0.0573
 4774SOL    HW125781   1.783   3.490  13.057 -1.4120  0.9809 -2.3391
 4774SOL    HW225782   1.787   3.613  12.988 -2.8635  0.4486 -0.3154
 4775SOL     OW25783   3.704   3.560   6.571  0.4727  0.0792  0.1132
 4775SOL    HW125784   3.770   3.630   6.566  0.2727  0.1933 -0.9331
 4775SOL    HW225785   3.649   3.578   6.495 -0.0400  0.4908  0.5707
 4776SOL     OW25786   2.534   0.659   0.980 -0.6344 -0.0661  0.4778
 4776SOL    HW125787   2.498   0.679   0.894 -0.4994 -1.8158  0.0103
 4776SOL    HW225788   2.478   0.589   1.015  1.9133 -1.5086  1.6860
 4777SOL     OW25789   2.258   0.563   2.789  0.9573  0.3657 -0.2306
 4777SOL    HW125790   2.254   0.553   2.694  0.5995  0.2802 -0.2073
 4777SOL    HW225791   2.237   0.472   2.811 -0.8651  1.0906  1.0831
 4778SOL     OW25792   3.879   3.360   4.607  0.3728 -0.0393  0.5794
 4778SOL    HW125793   3.935   3.437   4.602  0.8355 -0.2313  2.7407
 4778SOL    HW225794   3.893   3.327   4.518  1.5589  0.1240  0.7069
 4779SOL     OW25795   0.380   2.590   4.723 -0.5621 -0.4640 -0.0320
 4779SOL    HW125796   0.468   2.557   4.705  0.1471  0.3124  2.1161
 4779SOL    HW225797   0.362   2.651   4.651 -0.7157 -1.0492 -0.4984
 4780SOL     OW25798   0.655   2.281   3.307 -0.1739 -0.3910  0.2166
 4780SOL    HW125799   0.687   2.281   3.217 -1.1930  0.6102 -0.1487
 4780SOL    HW225800   0.586   2.343   3.283  0.8696  0.3669 -0.8353
 4781SOL     OW25801   0.457   2.608   4.403  0.4338 -0.5150 -0.1835
 4781SOL    HW125802   0.369   2.642   4.420  2.2166  3.2835  1.7018
 4781SOL    HW225803   0.518   2.681   4.417  1.8376 -1.4078 -1.6205
 4782SOL     OW25804   1.757   0.837   6.542  0.3281 -0.5757  0.3340
 4782SOL    HW125805   1.780   0.791   6.623  3.6718 -1.4768 -1.1263
 4782SOL    HW225806   1.828   0.811   6.483  1.4558  2.7248  0.1786
 4783SOL     OW25807   0.802   0.875   5.932 -0.4478 -0.6122  0.5014
 4783SOL    HW125808   0.880   0.839   5.890 -1.4639  2.8244 -4.3106
 4783SOL    HW225809   0.769   0.933   5.864  0.3095  1.2599  1.7438
 4784SOL     OW25810   0.920   4.060  14.099 -0.1205  0.0318 -0.5727
 4784SOL    HW125811   0.939   4.038  14.007  0.7636 -1.6192  0.0015
 4784SOL    HW225812   1.007   4.073  14.135 -0.0780  2.1538 -1.4795
 4785SOL     OW25813   3.335   0.144  12.984  0.2192  0.4135 -1.0110
 4785SOL    HW125814   3.319   0.122  12.892  3.0597 -0.3883 -1.3252
 4785SOL    HW225815   3.265   0.087  13.013  0.0046  1.8245  1.2895
 4786SOL     OW25816   0.497   0.551  11.846 -0.4116  0.2505 -0.1699
 4786SOL    HW125817   0.555   0.609  11.797 -1.2459  1.2697  0.0640
 4786SOL    HW225818   0.481   0.480  11.785  1.0151 -1.4233  1.3912
 4787SOL     OW25819   2.056   2.520   5.359 -0.4431  0.4726  0.2559
 4787SOL    HW125820   1.961   2.535   5.353 -0.5288 -0.8856 -1.7536
 4787SOL    HW225821   2.065   2.546   5.450 -0.0074 -1.4505  0.7671
 4788SOL     OW25822   2.627   0.574   4.098 -0.2476  0.2146 -0.5624
 4788SOL    HW125823   2.613   0.490   4.141  1.1867  1.6512  2.7427
 4788SOL    HW225824   2.712   0.593   4.137  0.1696 -1.3475 -0.7204
 4789SOL     OW25825   2.758   4.633   0.776  0.7184  0.3759  0.1523
 4789SOL    HW125826   2.677   4.674   0.806  2.2129  2.0929  1.9016
 4789SOL    HW225827   2.800   4.706   0.730 -1.2712  1.5746  0.2313
 4790SOL     OW25828   2.792   0.240   3.885 -0.0432 -0.3580  0.2456
 4790SOL    HW125829   2.739   0.172   3.844 -3.6330  0.8268  2.8776
 4790SOL    HW225830   2.864   0.234   3.823  0.3001 -2.0918  0.8189
 4791SOL     OW25831   0.542   0.167   6.047 -0.0442  0.0397 -0.7562
 4791SOL    HW125832   0.506   0.135   5.965 -2.1543  0.6850 -0.0661
 4791SOL    HW225833   0.480   0.125   6.107 -1.1528  0.5728 -1.5345
 4792SOL     OW25834   2.626   4.677   6.151 -0.3158  0.0975  0.7444
 4792SOL    HW125835   2.627   0.036   6.198  0.3351 -0.5740  1.9272
 4792SOL    HW225836   2.691   4.703   6.086  0.6830 -2.1566  0.8393
 4793SOL     OW25837   1.700   4.604  14.924  0.6166  0.3062  0.2231
 4793SOL    HW125838   1.664   4.669  14.862 -1.0432  1.4159  2.3622
 4793SOL    HW225839   1.663   4.523  14.889 -3.2029  1.8549  0.6720
 4794SOL     OW25840   2.063   3.843  11.573  0.4551 -0.1782  0.1828
 4794SOL    HW125841   2.133   3.901  11.603 -0.4038  1.1402 -0.3438
 4794SOL    HW225842   2.009   3.915  11.540 -0.0781 -0.6205  0.0817
 4795SOL     OW25843   1.052   4.367   6.798 -0.1192 -0.1289  0.4512
 4795SOL    HW125844   1.050   4.426   6.874  0.7778 -0.5331  0.7839
 4795SOL    HW225845   0.971   4.317   6.812 -0.8304  1.0245  0.4652
 4796SOL     OW25846   0.520   2.397   0.850 -0.7341 -0.6502  0.1377
 4796SOL    HW125847   0.486   2.472   0.800  1.5431  0.8806  0.8836
 4796SOL    HW225848   0.602   2.377   0.806 -0.5495 -2.1945  1.1710
 4797SOL     OW25849   0.652   1.329   7.193 -0.0571 -0.2428 -0.2650
 4797SOL    HW125850   0.715   1.260   7.214  0.0493 -0.3578 -0.9614
 4797SOL    HW225851   0.587   1.315   7.262 -1.5132 -0.7060 -1.7149
 4798SOL     OW25852   2.772   3.813  11.237 -0.1907 -0.1566  0.2267
 4798SOL    HW125853   2.761   3.830  11.143  1.2762 -1.3530 -0.1659
 4798SOL    HW225854   2.823   3.733  11.227 -1.0949 -0.6064 -0.7797
 4799SOL     OW25855   0.916   0.516   4.414  0.0975  0.0517  0.0944
 4799SOL    HW125856   0.897   0.482   4.501  0.6550 -1.1795 -0.2701
 4799SOL    HW225857   0.868   0.450   4.365  0.8134  0.2012 -0.8187
 4800SOL     OW25858   0.759   2.515   3.066 -0.1440  0.8447  0.1770
 4800SOL    HW125859   0.709   2.588   3.102  0.5693  1.6457 -0.4384
 4800SOL    HW225860   0.839   2.559   3.036  2.2026 -2.6198  1.3095
 4801SOL     OW25861   0.588   0.102  10.153 -0.1081 -0.9758  0.0203
 4801SOL    HW125862   0.535   0.121  10.230  0.4935  2.2186 -0.3600
 4801SOL    HW225863   0.518   0.104  10.087 -2.3858  0.9445  2.4764
 4802SOL     OW25864   4.232   0.542   2.617 -0.3984  0.7543 -0.1296
 4802SOL    HW125865   4.272   0.569   2.699  2.5147 -0.1503 -1.2728
 4802SOL    HW225866   4.308   0.568   2.565 -2.1860  2.5638 -1.8361
 4803SOL     OW25867   2.468   3.991   5.095 -0.3040  0.0753  0.0894
 4803SOL    HW125868   2.505   4.079   5.103 -2.0901  0.7867  0.4074
 4803SOL    HW225869   2.473   3.983   5.000 -0.7862  0.8359 -0.0013
 4804SOL     OW25870   3.468   1.860   3.649 -0.1456 -0.2654 -0.8349
 4804SOL    HW125871   3.489   1.784   3.595 -0.2104 -0.3366 -0.7583
 4804SOL    HW225872   3.488   1.929   3.585  0.7138 -0.5780 -0.8968
 4805SOL     OW25873   2.452   1.917   5.209  0.4964 -0.5476 -0.0200
 4805SOL    HW125874   2.376   1.875   5.169 -0.1234 -0.5328  1.1511
 4805SOL    HW225875   2.432   1.914   5.302  0.1847 -1.5944 -0.1138
 4806SOL     OW25876   3.160   3.550   9.857  0.0434 -0.3277 -0.4254
 4806SOL    HW125877   3.148   3.455   9.862  0.2436 -0.3169  0.2391
 4806SOL    HW225878   3.202   3.550   9.943 -0.4258  0.1234 -0.1976
 4807SOL     OW25879   2.985   1.070  17.484 -0.6486 -0.4394  0.2068
 4807SOL    HW125880   3.015   1.129  17.553 -2.0518 -0.8472  1.1509
 4807SOL    HW225881   2.921   1.020  17.534 -3.2719  2.4203 -0.2629
 4808SOL     OW25882   2.880   3.256   8.283 -0.6473 -0.5970 -0.6350
 4808SOL    HW125883   2.841   3.342   8.266  2.5437  0.4507 -2.6205
 4808SOL    HW225884   2.927   3.272   8.365 -3.1542  0.9113  0.5274
 4809SOL     OW25885   3.666   1.348   9.854 -0.2181 -0.0480 -0.8833
 4809SOL    HW125886   3.756   1.331   9.825  0.3155 -0.4111  0.9860
 4809SOL    HW225887   3.652   1.292   9.930  0.9400  1.9241  0.7636
 4810SOL     OW25888   1.498   0.968   2.986  0.5574 -0.3143  0.0918
 4810SOL    HW125889   1.421   1.024   2.972 -0.8916 -2.4466 -0.5591
 4810SOL    HW225890   1.495   0.949   3.080 -1.7089 -3.0666 -0.5217
 4811SOL     OW25891   0.806   3.541   3.548 -0.6682  0.2947 -0.4254
 4811SOL    HW125892   0.878   3.514   3.491  1.3212  0.5297  1.9676
 4811SOL    HW225893   0.850   3.600   3.610  0.3877 -0.4102 -0.4915
 4812SOL     OW25894   1.414   3.517   8.493  0.1850 -0.0337 -0.1766
 4812SOL    HW125895   1.444   3.553   8.577 -0.3322  0.3080 -0.1388
 4812SOL    HW225896   1.340   3.468   8.529  0.1828 -0.2954 -0.5408
 4813SOL     OW25897   1.402   0.310  11.040 -0.2909 -0.0453  0.1579
 4813SOL    HW125898   1.377   0.259  11.117 -0.8744  0.3608  0.2363
 4813SOL    HW225899   1.321   0.326  10.992 -0.6173 -1.4603  0.2616
 4814SOL     OW25900   2.412   3.864   0.413  0.2818  0.0741  0.5396
 4814SOL    HW125901   2.449   3.920   0.481  0.8889  1.7838 -1.2093
 4814SOL    HW225902   2.406   3.923   0.338 -1.7527 -0.1167  0.5388
 4815SOL     OW25903   1.654   0.237   3.233 -0.1713 -0.1913 -0.0274
 4815SOL    HW125904   1.591   0.195   3.174  2.2656  0.4713 -3.0907
 4815SOL    HW225905   1.595   0.292   3.285  1.0342  2.0220 -1.0257
 4816SOL     OW25906   2.542   3.292   9.120  0.7624 -0.3265  0.5853
 4816SOL    HW125907   2.508   3.239   9.192 -3.0188  0.1496 -0.8278
 4816SOL    HW225908   2.602   3.341   9.175 -0.0768 -1.0605  2.1683
 4817SOL     OW25909   4.294   4.197   6.444  0.6192  0.0539 -0.1120
 4817SOL    HW125910   4.225   4.263   6.454  0.0840 -0.8082  2.0443
 4817SOL    HW225911   4.270   4.157   6.360 -1.3142 -1.4508  1.1565
 4818SOL     OW25912   0.533   1.880   8.134  0.0253  0.0962 -0.1510
 4818SOL    HW125913   0.533   1.896   8.040 -1.9471  4.4958  0.5788
 4818SOL    HW225914   0.489   1.964   8.150  0.9656  0.7020 -0.7381
 4819SOL     OW25915   3.345   2.091   6.469  0.0285  0.0789  0.0963
 4819SOL    HW125916   3.271   2.048   6.512  0.1855  0.4790  0.7658
 4819SOL    HW225917   3.388   2.027   6.413 -0.6623 -0.0499 -0.2964
 4820SOL     OW25918   1.957   2.698  11.186  0.2224  0.4704  0.4316
 4820SOL    HW125919   2.049   2.677  11.200 -0.1925 -0.3674  1.8597
 4820SOL    HW225920   1.966   2.793  11.174 -0.0159  0.8751  3.5321
 4821SOL     OW25921   2.700   0.947  13.493 -0.1230  0.2460 -0.3273
 4821SOL    HW125922   2.742   1.007  13.431 -0.2521 -0.0744 -0.7309
 4821SOL    HW225923   2.612   0.985  13.494  0.2565  1.0713  0.7757
 4822SOL     OW25924   3.232   4.085   6.107  0.7443 -0.3345  0.1876
 4822SOL    HW125925   3.311   4.106   6.058  0.1309  0.2263 -0.5540
 4822SOL    HW225926   3.190   4.169   6.125 -2.4336 -1.7540 -0.5711
 4823SOL     OW25927   2.477   3.051   8.730 -0.2887  0.2019 -0.7339
 4823SOL    HW125928   2.445   3.009   8.810 -1.0435 -0.4373 -1.3819
 4823SOL    HW225929   2.504   3.135   8.769 -1.4794 -0.2749  1.1152
 4824SOL     OW25930   0.286   0.448   2.776  0.6264 -0.3666  0.7113
 4824SOL    HW125931   0.352   0.394   2.732 -1.0128  0.2570 -2.4903
 4824SOL    HW225932   0.231   0.381   2.818  0.0904  0.6452  1.6164
 4825SOL     OW25933   2.880   1.529   2.373 -0.2344 -0.1413 -0.1954
 4825SOL    HW125934   2.850   1.449   2.329 -0.6115 -0.9678  1.5436
 4825SOL    HW225935   2.816   1.532   2.445  0.6209 -3.1125  0.6954
 4826SOL     OW25936   3.457   2.816  10.077  0.3847  0.0699  0.0310
 4826SOL    HW125937   3.391   2.751  10.101  0.4048  0.7451  1.9544
 4826SOL    HW225938   3.510   2.765  10.015  0.5796  0.3119 -0.0001
 4827SOL     OW25939   0.033   2.330   5.907 -0.4292 -0.4790  0.2058
 4827SOL    HW125940   0.043   2.393   5.835  1.9529 -0.6571  0.3627
 4827SOL    HW225941   0.124   2.302   5.901 -0.1981  0.4712 -0.7882
 4828SOL     OW25942   1.891   1.536   4.242  0.1723 -0.4745 -0.1806
 4828SOL    HW125943   1.918   1.464   4.185  0.7696 -1.4941  1.3902
 4828SOL    HW225944   1.797   1.524   4.233  0.2859 -0.7966 -0.9209
 4829SOL     OW25945   1.888   4.653   3.019 -0.2157 -0.0392  0.4499
 4829SOL    HW125946   1.956   4.720   3.022 -1.1908  0.9360  0.6291
 4829SOL    HW225947   1.884   4.639   2.924  1.7418 -1.0589  0.5201
 4830SOL     OW25948   2.973   4.621   6.625  0.5622 -0.0094  0.1920
 4830SOL    HW125949   2.953   4.617   6.719 -0.6443  1.7375  0.0055
 4830SOL    HW225950   2.895   4.662   6.588 -1.7100 -1.7764  2.9977
 4831SOL     OW25951   2.643   3.374   5.820  0.1666  1.2279 -0.1854
 4831SOL    HW125952   2.557   3.415   5.817 -0.1317  0.6267 -0.0062
 4831SOL    HW225953   2.671   3.407   5.906  0.5922 -0.6818  0.4301
 4832SOL     OW25954   2.049   1.775   4.218 -0.4605 -0.0124 -0.0992
 4832SOL    HW125955   2.001   1.693   4.215 -0.3179 -0.0698 -0.7172
 4832SOL    HW225956   2.080   1.772   4.128  1.3935  2.8661  0.4136
 4833SOL     OW25957   2.965   3.194   4.745 -0.2526 -0.2111  0.2601
 4833SOL    HW125958   2.912   3.195   4.665 -0.2001 -1.8527  0.2090
 4833SOL    HW225959   2.910   3.145   4.806  1.6386 -1.9842  0.5586
 4834SOL     OW25960   0.359   1.717   2.116 -0.4089  0.2258  0.4106
 4834SOL    HW125961   0.348   1.792   2.174  1.3970  0.8875 -0.0889
 4834SOL    HW225962   0.387   1.651   2.179  0.1922  1.6377  1.6177
 4835SOL     OW25963   0.933   3.179   8.045  0.5041  0.5232 -0.1117
 4835SOL    HW125964   1.018   3.134   8.043  0.5344  0.5473  0.7406
 4835SOL    HW225965   0.868   3.118   8.077 -0.1358  1.2806  0.0323
 4836SOL     OW25966   2.389   2.833   6.525 -0.0150 -0.0846 -0.2497
 4836SOL    HW125967   2.383   2.877   6.440 -2.0526  0.7333  0.3210
 4836SOL    HW225968   2.483   2.836   6.544 -0.5287 -1.1709  2.5780
 4837SOL     OW25969   2.847   0.490  12.570  0.1221  0.0738  0.8471
 4837SOL    HW125970   2.924   0.493  12.513  0.1588 -0.4932  0.8661
 4837SOL    HW225971   2.787   0.487  12.495  1.5392  3.0615 -0.3844
 4838SOL     OW25972   3.174   2.923   0.080 -0.2381  0.1196 -0.1563
 4838SOL    HW125973   3.260   2.896   0.112 -0.5067  0.7346  1.1049
 4838SOL    HW225974   3.178   2.892  17.688  2.3431  0.1418 -0.0585
 4839SOL     OW25975   0.235   0.631   4.544 -0.0186 -0.1136  0.8240
 4839SOL    HW125976   0.280   0.678   4.614 -0.1470  0.7693  0.3142
 4839SOL    HW225977   0.170   0.599   4.607 -3.5037  1.3085 -2.0115
 4840SOL     OW25978   2.089   2.756   7.205 -0.2645 -0.5639 -0.2477
 4840SOL    HW125979   2.036   2.777   7.281 -0.7598 -0.8303 -0.5164
 4840SOL    HW225980   2.110   2.666   7.229  1.3019 -0.9387 -3.0567
 4841SOL     OW25981   4.221   2.807   4.779  0.2742 -0.2469 -0.1285
 4841SOL    HW125982   4.189   2.846   4.860  0.7687 -1.5290  0.6816
 4841SOL    HW225983   4.147   2.750   4.758  0.1434 -0.6083  1.3612
 4842SOL     OW25984   4.356   3.623  16.095  0.7026 -0.7450  0.1453
 4842SOL    HW125985   4.264   3.635  16.120  0.3658 -0.9679 -1.0109
 4842SOL    HW225986   4.355   3.660  16.007 -1.3990  0.2994  0.6131
 4843SOL     OW25987   1.511   3.784  11.772  0.5570  0.5305  0.5801
 4843SOL    HW125988   1.533   3.822  11.687 -0.2928 -1.8697 -0.6875
 4843SOL    HW225989   1.590   3.750  11.815 -0.2849 -0.2498  1.5106
 4844SOL     OW25990   0.716   0.940   5.341  0.3524 -0.1804 -0.2300
 4844SOL    HW125991   0.775   0.870   5.369 -0.8776  0.0462  2.9205
 4844SOL    HW225992   0.734   0.992   5.419 -2.3434 -0.5066  0.6097
 4845SOL     OW25993   1.931   3.061   3.333  0.2693 -0.2095 -1.2924
 4845SOL    HW125994   2.012   3.036   3.378 -0.6120 -0.0221  0.4004
 4845SOL    HW225995   1.906   2.977   3.293 -0.1968 -0.0559 -1.3276
 4846SOL     OW25996   2.286   3.416   8.681  0.0358  0.2594 -0.1963
 4846SOL    HW125997   2.190   3.418   8.675  0.1784 -1.9087 -3.1759
 4846SOL    HW225998   2.302   3.437   8.773 -0.8803 -0.0671  0.0392
 4847SOL     OW25999   3.933   3.236   3.168  0.0120  0.1288  0.4937
 4847SOL    HW126000   4.019   3.273   3.190 -0.2386  0.2105  1.3376
 4847SOL    HW226001   3.873   3.301   3.203 -0.0009  0.8948 -0.9418
 4848SOL     OW26002   4.606   2.483  11.793  0.1749  0.4290 -0.0963
 4848SOL    HW126003   4.611   2.555  11.857  0.3316  0.3201  0.0138
 4848SOL    HW226004   4.537   2.513  11.735 -0.1377  1.6583  0.9011
 4849SOL     OW26005   0.310   2.591  13.594  0.5148 -0.6044 -0.9162
 4849SOL    HW126006   0.259   2.672  13.602 -1.6683 -2.0456 -0.4132
 4849SOL    HW226007   0.267   2.532  13.657 -1.5946  0.7070 -1.1269
 4850SOL     OW26008   4.425   3.661  15.791  0.1208  0.2857  0.4849
 4850SOL    HW126009   4.506   3.709  15.803  1.8917 -3.0182  1.6030
 4850SOL    HW226010   4.464   3.574  15.804 -0.0977  0.1579  0.3031
 4851SOL     OW26011   1.136   3.893   8.030  0.2044  0.1526  0.0081
 4851SOL    HW126012   1.124   3.862   7.940 -1.1376  0.1793  0.1758
 4851SOL    HW226013   1.225   3.924   8.013 -0.2318 -0.0640 -2.6749
 4852SOL     OW26014   1.643   1.781   7.165 -0.2991 -0.2368 -0.1938
 4852SOL    HW126015   1.721   1.771   7.110  0.4933 -0.7035  1.0247
 4852SOL    HW226016   1.652   1.874   7.187  0.1152 -0.4865  0.6697
 4853SOL     OW26017   2.508   0.689   3.169  0.6351  1.0069 -0.7282
 4853SOL    HW126018   2.521   0.595   3.170  1.9855  1.1923 -2.5954
 4853SOL    HW226019   2.450   0.714   3.096  0.4620 -0.9526 -1.2464
 4854SOL     OW26020   1.949   0.884  16.521  0.1124 -0.0238  0.1957
 4854SOL    HW126021   1.982   0.920  16.439  0.8255  0.8832  0.8725
 4854SOL    HW226022   2.018   0.818  16.521 -0.4125 -0.5708  1.8715
 4855SOL     OW26023   2.966   0.519   7.268  0.5163  0.4900  0.4119
 4855SOL    HW126024   2.952   0.578   7.195  0.1905  2.2107  1.8722
 4855SOL    HW226025   3.052   0.534   7.309  1.2812 -1.5328 -0.4339
 4856SOL     OW26026   1.128   2.582   6.078 -0.1778  0.2159 -0.3463
 4856SOL    HW126027   1.220   2.556   6.076 -0.3584 -0.3132 -2.1725
 4856SOL    HW226028   1.096   2.510   6.132  2.7234 -2.2244 -1.8833
 4857SOL     OW26029   1.368   1.870   6.761  1.1857  0.0781 -0.5345
 4857SOL    HW126030   1.373   1.956   6.718  3.1285  0.6929  0.9427
 4857SOL    HW226031   1.388   1.827   6.678  1.0272 -1.5774  0.3045
 4858SOL     OW26032   2.063   1.425   9.736 -0.1362 -0.0585 -0.3521
 4858SOL    HW126033   2.022   1.453   9.818 -0.0266 -1.9932  0.3565
 4858SOL    HW226034   2.061   1.329   9.738  0.5760 -0.0645  0.1906
 4859SOL     OW26035   3.462   0.645   6.597  0.1460  0.1235  0.8596
 4859SOL    HW126036   3.374   0.669   6.628  0.1289  0.7132  0.3574
 4859SOL    HW226037   3.461   0.552   6.576 -1.4561  0.4525 -0.4780
 4860SOL     OW26038   1.590   4.226   6.061  0.3296 -0.2089 -0.0447
 4860SOL    HW126039   1.555   4.196   5.977  0.8618  0.4152 -0.4855
 4860SOL    HW226040   1.677   4.188   6.056  1.3208  1.9194  1.1170
 4861SOL     OW26041   0.741   1.264   4.702  0.5669  0.3575 -0.7782
 4861SOL    HW126042   0.743   1.224   4.615 -0.2085  2.8262 -1.9322
 4861SOL    HW226043   0.786   1.199   4.757 -1.8362 -0.0233  0.7905
 4862SOL     OW26044   0.153   2.993   1.575 -0.0059  0.5726  0.6441
 4862SOL    HW126045   0.140   2.996   1.480  1.6961  1.1094  0.4202
 4862SOL    HW226046   0.086   2.929   1.600  1.1532 -0.6449  0.6601
 4863SOL     OW26047   2.341   4.187   2.083 -0.1115  0.1085 -0.5509
 4863SOL    HW126048   2.341   4.281   2.061 -1.8878  0.7436  2.1209
 4863SOL    HW226049   2.281   4.164   2.012 -1.8233  1.1764  0.5459
 4864SOL     OW26050   4.175   1.953   4.682 -0.0235 -0.6436  0.2211
 4864SOL    HW126051   4.156   1.937   4.590  0.7109  0.3406 -0.1030
 4864SOL    HW226052   4.097   2.003   4.705  0.9478  0.7199  0.5933
 4865SOL     OW26053   3.870   4.400   7.339 -0.3596  0.2705  0.1215
 4865SOL    HW126054   3.870   4.325   7.279  3.6073  1.9493 -2.0209
 4865SOL    HW226055   3.939   4.364   7.395  0.2013  1.1886  0.0227
 4866SOL     OW26056   3.817   1.766   0.525  0.1997 -0.2964 -0.0932
 4866SOL    HW126057   3.737   1.816   0.540  1.1566  1.2570 -0.1039
 4866SOL    HW226058   3.787   1.675   0.527 -0.4605 -0.0551  0.6041
 4867SOL     OW26059   3.785   2.526  11.634 -0.1741 -0.1842  0.3045
 4867SOL    HW126060   3.802   2.466  11.562 -1.8437 -0.4901  0.1461
 4867SOL    HW226061   3.772   2.614  11.598  1.8420  0.1766  0.5121
 4868SOL     OW26062   0.600   0.787  10.729 -0.2059  0.1122  0.4444
 4868SOL    HW126063   0.559   0.839  10.798 -1.1389  0.6497 -0.5093
 4868SOL    HW226064   0.590   0.844  10.653  2.3669 -1.5385 -1.1006
 4869SOL     OW26065   1.377   2.813  15.498 -0.0058  0.5517  0.0283
 4869SOL    HW126066   1.336   2.729  15.475 -1.0964  1.5813 -1.7510
 4869SOL    HW226067   1.410   2.847  15.415  0.0466  0.9275  0.2077
 4870SOL     OW26068   3.935   2.614   8.148  0.0119 -0.2373  0.2431
 4870SOL    HW126069   3.849   2.572   8.151  0.0385 -0.2895  0.2636
 4870SOL    HW226070   3.918   2.695   8.099  0.1630 -1.0833 -1.1887
 4871SOL     OW26071   3.978   1.718   4.043  0.2570 -0.6108 -0.2580
 4871SOL    HW126072   3.924   1.796   4.051  1.8397  0.3348  1.1368
 4871SOL    HW226073   4.053   1.755   3.998  1.3303 -3.0399 -0.4653
 4872SOL     OW26074   4.562   1.664   3.198 -0.1628  0.3097  0.4804
 4872SOL    HW126075   4.597   1.721   3.130  0.2272 -1.5844 -0.9175
 4872SOL    HW226076   4.644   1.636   3.237 -0.7630 -0.6073  1.0808
 4873SOL     OW26077   4.316   3.500  14.039  0.4612 -0.0224  0.8154
 4873SOL    HW126078   4.282   3.514  13.951 -2.6189 -0.6004  1.9203
 4873SOL    HW226079   4.243   3.454  14.081 -1.0350  0.5437 -1.1630
 4874SOL     OW26080   2.600   4.062   1.368 -0.1734  0.4398  0.3621
 4874SOL    HW126081   2.694   4.079   1.373 -0.1699  0.3004  0.7640
 4874SOL    HW226082   2.586   3.969   1.384  0.5731  0.5838  1.8989
 4875SOL     OW26083   3.704   4.622   6.511  0.2015  0.1658 -0.2147
 4875SOL    HW126084   3.747   4.697   6.552  1.0107 -0.5681  0.2872
 4875SOL    HW226085   3.625   4.666   6.479 -1.7595 -3.1105  0.1307
 4876SOL     OW26086   2.944   2.692   6.321 -0.1438  0.0636  0.1020
 4876SOL    HW126087   2.975   2.779   6.296  2.0754 -0.8518 -0.3536
 4876SOL    HW226088   3.006   2.661   6.387  0.7699  0.5995 -0.4914
 4877SOL     OW26089   1.967   4.582  13.984 -0.1792  0.1783  0.3204
 4877SOL    HW126090   1.998   4.660  14.030 -2.3789 -0.0947  2.2322
 4877SOL    HW226091   1.872   4.580  13.992 -0.2593  2.1982 -0.0166
 4878SOL     OW26092   2.818   2.130   8.869 -0.1385  0.5781  0.1265
 4878SOL    HW126093   2.832   2.188   8.944 -0.5298 -0.6621  1.1687
 4878SOL    HW226094   2.739   2.085   8.900 -0.6515  1.0702 -0.4758
 4879SOL     OW26095   3.544   1.029   9.372  0.1419 -0.1065 -0.0142
 4879SOL    HW126096   3.576   1.000   9.457  2.0901  0.1424 -0.6733
 4879SOL    HW226097   3.520   0.951   9.320 -0.0654 -0.1459  0.1433
 4880SOL     OW26098   0.056   4.470   6.184  0.0570  0.4954  0.3564
 4880SOL    HW126099   4.685   4.463   6.191 -0.1069  0.8019 -1.5649
 4880SOL    HW226100   0.084   4.382   6.208 -0.7358  0.2067  0.2279
 4881SOL     OW26101   4.127   0.309   2.698 -0.0743  0.2244 -0.1806
 4881SOL    HW126102   4.128   0.387   2.643 -0.1785  0.7393  0.5415
 4881SOL    HW226103   4.215   0.272   2.687  0.5628  2.1165 -1.4506
 4882SOL     OW26104   4.094   4.206   3.467 -0.0906  0.1948 -0.2187
 4882SOL    HW126105   4.012   4.174   3.430 -0.7154 -0.0492  1.3584
 4882SOL    HW226106   4.121   4.139   3.531 -1.5834  0.7103  0.9347
 4883SOL     OW26107   3.428   0.114   9.974 -0.2217  0.2607 -0.2645
 4883SOL    HW126108   3.443   0.208   9.969  0.4902  0.2604  1.6115
 4883SOL    HW226109   3.492   0.092   9.906 -0.4647  0.8794 -0.6888
 4884SOL     OW26110   4.177   1.775   8.273  0.2912 -0.2896  0.2276
 4884SOL    HW126111   4.101   1.716   8.273 -0.7223  1.0032 -1.7865
 4884SOL    HW226112   4.143   1.860   8.242 -2.5043 -1.3645  0.3012
 4885SOL     OW26113   4.395   3.954  11.220  0.4468 -0.4434  0.1383
 4885SOL    HW126114   4.392   4.025  11.156  0.8275 -1.2550 -0.7615
 4885SOL    HW226115   4.429   3.998  11.298  0.9734  0.3546 -0.5482
 4886SOL     OW26116   4.074   3.335  14.921 -0.4503  0.0900 -0.1323
 4886SOL    HW126117   4.122   3.333  14.839 -0.7664 -1.7416 -0.2820
 4886SOL    HW226118   4.111   3.410  14.968 -2.7805  0.7699  0.6140
 4887SOL     OW26119   1.128   3.638   2.245 -0.2110  0.4851  0.4947
 4887SOL    HW126120   1.121   3.546   2.217  0.5147  1.4515 -2.7692
 4887SOL    HW226121   1.034   3.653   2.256 -0.2899 -0.0545  0.5668
 4888SOL     OW26122   3.785   3.546  17.602 -0.0557  0.0710  0.1172
 4888SOL    HW126123   3.723   3.473  17.606 -0.6027  0.3338 -3.3224
 4888SOL    HW226124   3.865   3.497  17.586  0.9833  1.2644  1.6319
 4889SOL     OW26125   4.582   3.390   8.582  0.0819  0.0809  0.2878
 4889SOL    HW126126   4.632   3.388   8.501  0.7092 -1.4427  0.7056
 4889SOL    HW226127   4.510   3.446   8.555  2.1462  1.7799 -1.6850
 4890SOL     OW26128   0.657   4.198   6.763 -0.2517 -0.3504  0.3940
 4890SOL    HW126129   0.635   4.105   6.753 -1.6212  0.2930 -2.5714
 4890SOL    HW226130   0.705   4.184   6.844 -1.9353 -1.5875  1.1979
 4891SOL     OW26131   2.519   0.981   8.936  0.1951 -0.2885  0.3795
 4891SOL    HW126132   2.554   1.016   8.854  2.0466 -0.2981  1.1692
 4891SOL    HW226133   2.585   1.017   8.996 -0.8384  0.1028  1.2825
 4892SOL     OW26134   1.385   1.427  11.073 -0.3970 -0.3406 -0.4909
 4892SOL    HW126135   1.385   1.391  11.161 -1.5827  0.6470 -0.0756
 4892SOL    HW226136   1.375   1.342  11.030 -2.8858 -1.1088  1.6120
 4893SOL     OW26137   3.141   0.617  15.516 -0.1429  0.1071 -0.3519
 4893SOL    HW126138   3.076   0.680  15.483  0.6423 -0.4996 -3.0257
 4893SOL    HW226139   3.169   0.681  15.581 -2.1460  0.0034  0.6158
 4894SOL     OW26140   4.333   0.946  13.557 -0.0266  0.1870 -0.2995
 4894SOL    HW126141   4.317   0.993  13.639  3.0472  1.8529 -0.6405
 4894SOL    HW226142   4.425   0.925  13.574 -1.0585 -2.1811  2.3971
 4895SOL     OW26143   4.343   1.823  10.420  0.1432  0.4425 -0.3768
 4895SOL    HW126144   4.318   1.899  10.472  1.2401  0.9130 -0.5299
 4895SOL    HW226145   4.253   1.796  10.405 -0.0674  1.1112 -0.2808
 4896SOL     OW26146   4.002   3.211  14.448 -0.0823  0.2078 -0.3926
 4896SOL    HW126147   4.056   3.214  14.369  0.3705  2.8289  0.0212
 4896SOL    HW226148   3.923   3.262  14.430  0.3557  1.0675  0.1388
 4897SOL     OW26149   0.225   2.246  13.580 -0.1557  0.2081  0.4640
 4897SOL    HW126150   0.144   2.277  13.621  0.6787 -0.3035  2.4883
 4897SOL    HW226151   0.288   2.253  13.652  0.3678 -0.8211  0.1015
 4898SOL     OW26152   2.372   0.304   7.983 -0.1594 -1.0506  0.5551
 4898SOL    HW126153   2.427   0.252   7.925  1.3382 -1.4238  2.3298
 4898SOL    HW226154   2.432   0.312   8.057  0.8647  1.7544 -0.6051
 4899SOL     OW26155   0.383   4.185   9.542  0.8223 -0.3594  0.3630
 4899SOL    HW126156   0.326   4.259   9.566 -1.4594 -2.3820  1.1864
 4899SOL    HW226157   0.331   4.138   9.477  1.0613 -0.5186  0.2883
 4900SOL     OW26158   2.482   1.804   2.956 -0.2004  0.1907  0.1168
 4900SOL    HW126159   2.449   1.756   2.880 -2.1640  1.2682  0.2854
 4900SOL    HW226160   2.472   1.894   2.926  0.1459 -0.0815 -0.8052
 4901SOL     OW26161   0.882   4.160   6.005 -0.2730 -0.0947  0.2184
 4901SOL    HW126162   0.950   4.127   6.064 -0.4830  1.4969  1.3644
 4901SOL    HW226163   0.922   4.234   5.960 -1.3036  2.0671  2.8125
 4902SOL     OW26164   2.270   1.901  11.487 -0.0148 -0.3875 -0.1935
 4902SOL    HW126165   2.278   1.807  11.508  0.6084 -0.1804  0.4972
 4902SOL    HW226166   2.332   1.902  11.415 -2.2270 -2.2520 -2.1354
 4903SOL     OW26167   2.032   1.526   8.787 -0.8189  0.5010 -0.3699
 4903SOL    HW126168   2.007   1.559   8.873 -2.5310 -0.7487 -0.4027
 4903SOL    HW226169   2.121   1.493   8.803 -1.2093 -0.3925 -0.0797
 4904SOL     OW26170   4.473   2.363   4.348 -0.4142 -0.4571  0.1343
 4904SOL    HW126171   4.462   2.269   4.365 -4.2028  0.3000  1.8987
 4904SOL    HW226172   4.416   2.372   4.272 -0.2541  0.1109  0.0828
 4905SOL     OW26173   3.241   1.520   7.363  0.2516  0.0719 -0.0363
 4905SOL    HW126174   3.337   1.514   7.363  0.3368  1.5431  3.9773
 4905SOL    HW226175   3.216   1.443   7.311 -1.8332  0.0300  1.0429
 4906SOL     OW26176   1.983   4.661  10.076 -0.0659  0.6004  0.2927
 4906SOL    HW126177   1.944   0.020  10.050 -1.3797  0.3579  1.4405
 4906SOL    HW226178   1.941   4.599  10.017 -1.3929  1.0669  0.7459
 4907SOL     OW26179   3.204   2.060   7.639  0.5303  0.0277  0.1117
 4907SOL    HW126180   3.197   2.150   7.670 -0.9096  0.0460 -0.2341
 4907SOL    HW226181   3.154   2.012   7.705  1.3498  0.6618  1.1887
 4908SOL     OW26182   4.595   3.506   2.945 -0.0643  0.5414  0.5650
 4908SOL    HW126183   4.663   3.462   2.996 -0.0996  0.5392  0.6108
 4908SOL    HW226184   4.639   3.506   2.860 -0.5055  0.0706  0.3428
 4909SOL     OW26185   2.193   1.721   4.456  0.7174  0.3662  0.3067
 4909SOL    HW126186   2.141   1.763   4.525 -1.1779 -0.1121 -0.8251
 4909SOL    HW226187   2.156   1.760   4.376 -1.4481  0.5987  1.4173
 4910SOL     OW26188   3.411   0.622   4.220  0.3666 -0.1497  0.0491
 4910SOL    HW126189   3.418   0.704   4.269  2.3286 -1.5253  2.0918
 4910SOL    HW226190   3.475   0.572   4.271  0.2201 -0.1630  0.2190
 4911SOL     OW26191   4.540   0.359   9.154  0.2505 -0.1130  0.6910
 4911SOL    HW126192   4.589   0.345   9.235  1.9412 -1.9187 -0.6499
 4911SOL    HW226193   4.554   0.449   9.122  0.2190 -0.4090 -0.1573
 4912SOL     OW26194   3.775   2.605   7.688 -0.3504 -0.4428  0.1035
 4912SOL    HW126195   3.854   2.571   7.728  1.0844  0.6942 -1.7677
 4912SOL    HW226196   3.712   2.551   7.736 -0.9615 -1.5711 -1.9419
 4913SOL     OW26197   4.301   4.292  16.703  0.7944  0.1462  0.1074
 4913SOL    HW126198   4.349   4.331  16.631 -1.1986  1.1479 -0.6907
 4913SOL    HW226199   4.213   4.275  16.667  0.1109 -0.4523  2.0467
 4914SOL     OW26200   0.044   2.852   5.968 -0.0758 -0.0689  0.2418
 4914SOL    HW126201   4.723   2.824   5.889  1.2744 -0.5790 -0.3478
 4914SOL    HW226202   0.083   2.773   6.007 -0.9488 -1.4251 -1.6616
 4915SOL     OW26203   4.095   4.388   4.058 -0.4888 -0.0850 -0.0268
 4915SOL    HW126204   4.129   4.447   4.126 -0.0548  1.1389 -1.2893
 4915SOL    HW226205   4.179   4.372   4.015  0.3271  0.6598  1.2869
 4916SOL     OW26206   0.521   3.020  14.882  0.5930  0.2629 -0.3641
 4916SOL    HW126207   0.486   3.103  14.849 -0.9742 -0.5644 -0.7896
 4916SOL    HW226208   0.532   3.047  14.973  3.2756  1.1863 -0.9734
 4917SOL     OW26209   2.631   1.571   7.847  0.2170 -0.5904  0.5933
 4917SOL    HW126210   2.541   1.599   7.865  0.5715 -0.0686  1.5787
 4917SOL    HW226211   2.664   1.580   7.937  3.3306  1.8355 -0.7960
 4918SOL     OW26212   3.596   4.224   4.676 -0.0719 -0.1716 -0.2671
 4918SOL    HW126213   3.584   4.281   4.601 -1.9136 -0.0891  0.0762
 4918SOL    HW226214   3.569   4.286   4.744  0.8472  1.8363 -1.7444
 4919SOL     OW26215   3.132   3.473   7.543  0.1263  0.4123  0.4967
 4919SOL    HW126216   3.225   3.451   7.539  0.2617  0.7274  1.8938
 4919SOL    HW226217   3.085   3.391   7.528  0.3805  0.8929 -2.8581
 4920SOL     OW26218   0.365   3.223   4.112 -0.2015  0.4446 -0.2671
 4920SOL    HW126219   0.396   3.134   4.127 -0.6326  0.4365  0.5808
 4920SOL    HW226220   0.272   3.199   4.116 -0.0491  0.3262  3.1223
 4921SOL     OW26221   0.256   0.682   3.122 -0.0684  0.0267 -0.0135
 4921SOL    HW126222   0.293   0.693   3.035 -1.2761  0.6415 -0.4516
 4921SOL    HW226223   0.162   0.695   3.112  0.2384  0.3830 -2.4484
 4922SOL     OW26224   1.910   4.092   5.070  0.3572 -0.3223  0.2519
 4922SOL    HW126225   1.983   4.045   5.111 -0.0612 -1.3434 -0.1672
 4922SOL    HW226226   1.931   4.072   4.978  0.6657 -0.8363  0.4307
 4923SOL     OW26227   1.556   0.197   7.910 -0.2150  0.1135 -0.4700
 4923SOL    HW126228   1.483   0.239   7.956  0.4277  0.4372  0.2639
 4923SOL    HW226229   1.590   0.145   7.983  1.9507  2.1991  0.0015
 4924SOL     OW26230   3.787   3.632   4.319  0.1328 -0.2914 -0.1277
 4924SOL    HW126231   3.735   3.552   4.315 -0.0606 -0.0635 -2.0735
 4924SOL    HW226232   3.796   3.656   4.226 -1.1587  1.9013  0.3144
 4925SOL     OW26233   1.125   2.055   2.628 -0.3579 -0.2841  0.3121
 4925SOL    HW126234   1.060   2.115   2.591 -0.2106  0.5417  1.4017
 4925SOL    HW226235   1.089   2.040   2.715  1.3038  0.7968  1.1907
 4926SOL     OW26236   0.074   2.218  16.001  0.2371 -0.0730 -0.0385
 4926SOL    HW126237   0.034   2.152  16.058 -2.5257  0.6019 -1.2275
 4926SOL    HW226238   0.155   2.185  15.962 -0.2528 -0.7754 -0.4601
 4927SOL     OW26239   3.056   3.733  10.797  0.4488 -0.2210  0.1378
 4927SOL    HW126240   3.147   3.747  10.772  0.4112  0.7520  0.5306
 4927SOL    HW226241   3.048   3.640  10.778 -1.0315 -0.3463  1.3105
 4928SOL     OW26242   1.215   0.274   3.749  0.2105 -0.4401  0.1541
 4928SOL    HW126243   1.182   0.350   3.796  0.2001 -0.9301  0.9537
 4928SOL    HW226244   1.177   0.269   3.662 -1.8624 -1.1810  1.0983
 4929SOL     OW26245   0.070   3.178  10.618 -0.1061 -0.0266 -0.7892
 4929SOL    HW126246   0.031   3.242  10.558  1.9869  1.3948 -0.6331
 4929SOL    HW226247   0.018   3.101  10.594 -2.9668  1.4888  0.5121
 4930SOL     OW26248   4.224   3.438   9.411  0.0333  0.5897  0.1241
 4930SOL    HW126249   4.301   3.490   9.389  0.3796 -0.7287 -1.7121
 4930SOL    HW226250   4.197   3.402   9.327 -0.2925  1.5338 -0.1712
 4931SOL     OW26251   1.892   0.378  16.095 -0.3912 -0.1135  0.0001
 4931SOL    HW126252   1.821   0.355  16.035 -0.6247  0.5973 -0.0015
 4931SOL    HW226253   1.909   0.470  16.075 -0.4466  0.4445  2.5271
 4932SOL     OW26254   3.104   0.484   8.733 -0.2670 -0.0895 -0.2927
 4932SOL    HW126255   3.141   0.411   8.682 -1.5806  0.3012 -1.7989
 4932SOL    HW226256   3.148   0.557   8.690 -0.9200  2.0873  2.7557
 4933SOL     OW26257   1.404   3.546  13.265  0.2200 -0.2453 -0.6908
 4933SOL    HW126258   1.474   3.590  13.314 -2.0949  0.8115  1.6943
 4933SOL    HW226259   1.403   3.605  13.190  1.9370 -0.4158 -0.8483
 4934SOL     OW26260   1.196   4.028   5.525  0.0468  0.4150  0.0397
 4934SOL    HW126261   1.241   4.113   5.520 -1.3381  1.2925  2.3033
 4934SOL    HW226262   1.213   4.003   5.616 -0.1550 -3.3999 -0.9915
 4935SOL     OW26263   1.852   4.549   8.498  0.2736  0.4058  0.1755
 4935SOL    HW126264   1.861   4.458   8.526 -0.3921 -0.0763 -1.2150
 4935SOL    HW226265   1.868   4.600   8.578  0.9759  1.5743 -0.7047
 4936SOL     OW26266   1.035   2.164  12.635  0.3647 -0.0125 -0.5476
 4936SOL    HW126267   0.981   2.238  12.606  1.7428  1.1742 -0.0376
 4936SOL    HW226268   0.968   2.098  12.655 -1.2252  1.7654 -0.0462
 4937SOL     OW26269   2.411   4.641   5.721 -0.9160 -0.7324  0.4950
 4937SOL    HW126270   2.403   4.621   5.814 -1.5921  1.6396  0.9378
 4937SOL    HW226271   2.444   0.006   5.730  0.0691 -1.1200  0.6640
 4938SOL     OW26272   3.053   1.542  13.905  0.3569  0.6169 -0.0368
 4938SOL    HW126273   2.978   1.531  13.964  0.4392  1.2188  0.1814
 4938SOL    HW226274   3.050   1.635  13.880  0.9871  0.6919  0.1526
 4939SOL     OW26275   1.940   3.422   7.366 -0.1022  0.1841  0.0252
 4939SOL    HW126276   1.910   3.461   7.283  1.2489  1.2131  0.0171
 4939SOL    HW226277   1.930   3.330   7.344  0.9872 -0.1612  0.9622
 4940SOL     OW26278   4.396   0.671   6.227 -0.5746  0.5658 -0.5326
 4940SOL    HW126279   4.341   0.667   6.149  1.8640  0.9768 -2.2885
 4940SOL    HW226280   4.435   0.584   6.229  0.5785  1.0969  0.1092
 4941SOL     OW26281   4.478   3.781   3.281 -0.7811 -0.3366  0.4856
 4941SOL    HW126282   4.454   3.765   3.189 -0.4152  1.9188  0.0030
 4941SOL    HW226283   4.520   3.696   3.295  1.3014  0.6590  0.2288
 4942SOL     OW26284   4.192   2.387   9.269 -0.1523  0.0232 -0.2170
 4942SOL    HW126285   4.130   2.455   9.243  1.3271  0.9564 -1.3092
 4942SOL    HW226286   4.262   2.438   9.310  0.9218 -1.7880  0.1803
 4943SOL     OW26287   3.694   1.488   0.563 -0.4312 -0.1423 -0.1954
 4943SOL    HW126288   3.750   1.411   0.555  0.4589  0.5010 -0.0910
 4943SOL    HW226289   3.694   1.503   0.658 -0.3559 -0.7817 -0.0950
 4944SOL     OW26290   3.684   4.159   5.164 -0.1099 -0.7895 -0.3003
 4944SOL    HW126291   3.611   4.179   5.223 -0.6927  0.5389 -1.4598
 4944SOL    HW226292   3.629   4.106   5.107  1.2372 -1.5479 -0.8906
 4945SOL     OW26293   3.115   0.428  11.929 -0.1899  0.2086  0.0396
 4945SOL    HW126294   3.132   0.338  11.901  0.3814  0.7974 -1.4619
 4945SOL    HW226295   3.095   0.476  11.849  0.2298  1.6996  0.8319
 4946SOL     OW26296   3.754   0.025  10.283  0.3946 -1.0752  0.0077
 4946SOL    HW126297   3.659   0.032  10.280  0.5471  0.3179 -1.6549
 4946SOL    HW226298   3.771   0.066  10.367  2.5109  1.1591 -1.5061
 4947SOL     OW26299   1.810   1.017   3.280  0.1787  0.1438 -0.0009
 4947SOL    HW126300   1.889   0.993   3.328 -1.4837  0.3473  2.7967
 4947SOL    HW226301   1.758   0.941   3.307  0.7095 -0.3316 -0.3163
 4948SOL     OW26302   2.188   2.061  15.628 -0.2896 -0.0684 -0.5772
 4948SOL    HW126303   2.126   2.073  15.556 -0.0507  0.7004 -0.6538
 4948SOL    HW226304   2.224   1.975  15.604  1.7924  0.1745  1.7496
 4949SOL     OW26305   0.343   1.573   4.384 -0.7459 -0.1571  0.5089
 4949SOL    HW126306   0.336   1.539   4.473  0.7182 -0.6485  0.4514
 4949SOL    HW226307   0.418   1.632   4.390 -0.7319 -0.3027  1.6959
 4950SOL     OW26308   2.225   2.876  14.609  0.2639  0.7072 -0.2596
 4950SOL    HW126309   2.240   2.964  14.575 -0.6093 -0.5476 -4.0034
 4950SOL    HW226310   2.260   2.876  14.698  0.2275 -1.3860 -0.2359
 4951SOL     OW26311   0.071   2.997   4.608  0.4201 -0.1647  0.2528
 4951SOL    HW126312   0.005   2.950   4.659  0.6730  0.5552  1.2438
 4951SOL    HW226313   0.110   3.056   4.672 -1.0110  0.5078  0.4841
 4952SOL     OW26314   0.309   3.470  14.962 -0.0251  0.0320 -0.2354
 4952SOL    HW126315   0.251   3.515  14.900  2.5907  0.7819 -2.1401
 4952SOL    HW226316   0.365   3.544  14.986  0.8656 -1.3934  1.9860
 4953SOL     OW26317   0.134   2.234   5.389 -0.4303 -0.0626 -0.7737
 4953SOL    HW126318   0.052   2.186   5.383 -1.1557  1.2623 -1.6351
 4953SOL    HW226319   0.168   2.205   5.474 -3.1485  0.3286  0.4653
 4954SOL     OW26320   1.002   2.738   6.908  0.1608 -0.4551 -0.3195
 4954SOL    HW126321   1.045   2.653   6.915 -1.3727 -1.2126 -0.0704
 4954SOL    HW226322   0.943   2.726   6.834 -0.7142  0.5967  0.2035
 4955SOL     OW26323   0.876   0.159   3.447  0.1985 -0.0682 -0.3295
 4955SOL    HW126324   0.804   0.200   3.399 -0.9294 -0.6159  0.8940
 4955SOL    HW226325   0.832   0.126   3.525  1.7085 -0.9560  0.1452
 4956SOL     OW26326   1.547   3.818   3.217  0.3421 -0.2047 -1.2750
 4956SOL    HW126327   1.594   3.793   3.297  1.9725 -1.1050 -2.4899
 4956SOL    HW226328   1.524   3.738   3.170  1.1430 -0.9359 -0.4126
 4957SOL     OW26329   1.970   3.349   6.957  0.7806  0.7782 -0.1813
 4957SOL    HW126330   2.014   3.345   7.042 -1.5299 -2.1820  0.8955
 4957SOL    HW226331   1.882   3.334   6.991  0.5188  1.2931 -0.6268
 4958SOL     OW26332   1.065   1.675  17.598  0.4897 -0.1752  0.2869
 4958SOL    HW126333   1.059   1.762  17.639  2.1825  0.5724 -1.0362
 4958SOL    HW226334   1.086   1.630  17.680  1.7583  0.0534  0.0953
 4959SOL     OW26335   2.932   0.782   3.956 -0.6092  0.2754  0.5413
 4959SOL    HW126336   2.903   0.851   3.896  0.7777 -1.2739 -1.9275
 4959SOL    HW226337   2.957   0.709   3.899  1.0339  0.6080  0.8418
 4960SOL     OW26338   1.544   2.603   0.547 -0.6168  0.1536 -0.1949
 4960SOL    HW126339   1.571   2.512   0.562  0.0474  0.8047  2.6512
 4960SOL    HW226340   1.623   2.647   0.578  0.5563 -1.9182 -0.2259
 4961SOL     OW26341   3.570   2.563   9.454 -0.1604 -0.2641 -0.0957
 4961SOL    HW126342   3.616   2.634   9.409  0.0125 -0.3778 -0.0988
 4961SOL    HW226343   3.483   2.602   9.448 -0.4655 -0.8285  0.6525
 4962SOL     OW26344   4.061   3.983   7.238 -0.1114  0.0251 -0.2018
 4962SOL    HW126345   4.135   4.007   7.181  0.3121  0.2804  0.4546
 4962SOL    HW226346   4.107   3.933   7.306  0.3704  1.1079  0.2597
 4963SOL     OW26347   3.535   2.487   5.359 -0.3581 -0.4333 -0.1213
 4963SOL    HW126348   3.566   2.397   5.349 -0.7341 -0.7011  1.1054
 4963SOL    HW226349   3.538   2.496   5.454  1.2819 -0.0862 -0.2013
 4964SOL     OW26350   2.523   3.957   4.845 -0.2561 -0.1709 -0.0289
 4964SOL    HW126351   2.543   3.968   4.752  0.5676 -0.6356  0.0876
 4964SOL    HW226352   2.610   3.949   4.885 -0.4635 -1.7966  0.1051
 4965SOL     OW26353   1.807   4.569  12.819  0.0469  0.1819 -0.4422
 4965SOL    HW126354   1.891   4.613  12.833  0.2136 -1.3131  3.0862
 4965SOL    HW226355   1.808   4.531  12.731  1.1864  0.5360 -0.5824
 4966SOL     OW26356   2.070   1.548   8.017  0.1707 -0.6348  0.6033
 4966SOL    HW126357   2.092   1.535   7.925  0.6806  1.8346  0.3735
 4966SOL    HW226358   1.976   1.535   8.017 -0.1482  1.5273 -0.3862
 4967SOL     OW26359   1.492   0.326   2.199  0.1081 -0.1538 -0.1311
 4967SOL    HW126360   1.518   0.368   2.281  0.2286 -0.4393 -0.0227
 4967SOL    HW226361   1.408   0.364   2.173 -0.4498 -1.3784 -0.1031
 4968SOL     OW26362   1.067   0.937   9.249  0.1951 -0.5214  0.0341
 4968SOL    HW126363   0.979   0.907   9.272 -1.2730  4.4448  0.9662
 4968SOL    HW226364   1.054   1.031   9.263  1.4255 -0.5338  1.2792
 4969SOL     OW26365   4.379   3.526  13.142 -0.6557  0.6108 -0.2664
 4969SOL    HW126366   4.423   3.454  13.097  0.2582  0.9666  0.0637
 4969SOL    HW226367   4.400   3.598  13.084 -0.3175  1.2840  0.6887
 4970SOL     OW26368   2.410   3.533   5.865  0.4192  0.5253  0.2649
 4970SOL    HW126369   2.438   3.623   5.877  2.7658  0.2032 -2.6851
 4970SOL    HW226370   2.351   3.539   5.790  0.5676 -2.0651 -0.0883
 4971SOL     OW26371   1.082   3.870   8.274 -0.5213 -0.1557 -0.3054
 4971SOL    HW126372   1.084   3.776   8.290  1.5344  0.0781  0.9000
 4971SOL    HW226373   1.115   3.860   8.185 -0.1451 -0.0040 -0.1841
 4972SOL     OW26374   3.194   1.189   8.148  0.2587  0.7314 -0.6796
 4972SOL    HW126375   3.223   1.252   8.214 -0.7595  2.0804 -1.4952
 4972SOL    HW226376   3.272   1.171   8.096 -0.1622 -1.7854 -0.4379
 4973SOL     OW26377   0.593   3.064   6.286 -0.1561 -0.7127  0.4395
 4973SOL    HW126378   0.592   3.138   6.225  0.6465 -0.4059  0.7990
 4973SOL    HW226379   0.602   2.992   6.223 -3.2573 -1.0742  0.4019
 4974SOL     OW26380   4.658   3.154   2.819  0.2653 -0.5459  0.2455
 4974SOL    HW126381   4.703   3.200   2.748 -0.4737  2.8279  1.9458
 4974SOL    HW226382   4.721   3.087   2.845  1.4464  0.4764  0.0049
 4975SOL     OW26383   2.420   2.767   9.633  0.2270 -0.1068 -0.2073
 4975SOL    HW126384   2.499   2.817   9.652 -1.2780  1.5028  1.7982
 4975SOL    HW226385   2.407   2.727   9.718 -0.4704 -0.8192 -0.6492
 4976SOL     OW26386   3.226   1.373   3.483 -0.0665  0.2833  0.0913
 4976SOL    HW126387   3.219   1.457   3.529 -5.2108  0.4385 -0.9418
 4976SOL    HW226388   3.271   1.401   3.402 -1.7404  0.6646 -0.7155
 4977SOL     OW26389   3.516   3.805   4.031 -0.3883 -0.2900  0.2207
 4977SOL    HW126390   3.559   3.726   3.999 -0.0263 -0.2210  0.5420
 4977SOL    HW226391   3.580   3.864   3.989 -0.2273 -1.0798 -0.6607
 4978SOL     OW26392   0.915   4.192   9.229  0.1738 -0.1263 -0.3225
 4978SOL    HW126393   0.843   4.253   9.213 -0.0073 -0.8652 -2.2241
 4978SOL    HW226394   0.884   4.103   9.214  0.1164  0.0712 -1.3570
 4979SOL     OW26395   4.137   3.016   9.128 -0.2366  0.0483  0.2088
 4979SOL    HW126396   4.221   2.979   9.100  0.0623  1.5117 -0.8613
 4979SOL    HW226397   4.165   3.099   9.167  2.3433  0.8230 -3.2774
 4980SOL     OW26398   3.074   2.849   2.329 -0.0041  0.0220  0.3777
 4980SOL    HW126399   3.092   2.789   2.256 -0.8447  0.4678 -0.1943
 4980SOL    HW226400   3.012   2.912   2.292 -0.4299  0.0923  1.2084
 4981SOL     OW26401   4.517   0.126   8.957 -0.3720  0.6987 -0.7178
 4981SOL    HW126402   4.447   0.185   8.987 -0.8795  0.1743 -0.8699
 4981SOL    HW226403   4.585   0.192   8.971 -1.4241  1.2920  1.5627
 4982SOL     OW26404   0.422   2.801   2.715  0.1178 -0.3540 -0.1119
 4982SOL    HW126405   0.505   2.766   2.747 -0.2229 -2.5488 -1.5904
 4982SOL    HW226406   0.457   2.855   2.644  0.6175 -2.2704 -1.3366
 4983SOL     OW26407   3.401   2.196  15.485  0.1066 -0.4003  0.0863
 4983SOL    HW126408   3.447   2.131  15.432 -0.1319 -1.2339  0.9014
 4983SOL    HW226409   3.465   2.191  15.556 -1.5260 -4.3838  1.2832
 4984SOL     OW26410   2.148   2.866   6.640 -0.1827  0.6843 -0.3089
 4984SOL    HW126411   2.161   2.857   6.734 -0.3859 -0.1721 -0.3589
 4984SOL    HW226412   2.233   2.844   6.602 -0.2845 -0.0592 -0.1092
 4985SOL     OW26413   3.679   1.542   7.729  0.5213 -0.5116  0.3442
 4985SOL    HW126414   3.607   1.480   7.715  0.1693 -0.5297  2.2149
 4985SOL    HW226415   3.652   1.609   7.665 -1.1934  0.3748  1.9885
 4986SOL     OW26416   1.522   0.211   4.911 -0.3787  0.4923  0.4593
 4986SOL    HW126417   1.473   0.210   4.993  1.3615  0.0482  1.4763
 4986SOL    HW226418   1.452   0.186   4.850  2.0850 -2.9962 -1.0010
 4987SOL     OW26419   0.142   2.373  17.284  0.5160  0.2208 -0.1145
 4987SOL    HW126420   0.114   2.444  17.228  1.3364  1.2421  0.7723
 4987SOL    HW226421   0.177   2.313  17.218 -1.1746  0.0436 -0.8469
 4988SOL     OW26422   0.033   4.273  14.652  0.1812  0.1406  0.0088
 4988SOL    HW126423   4.671   4.249  14.620  0.5526 -1.7091  0.4200
 4988SOL    HW226424   0.071   4.187  14.671  1.0429  0.0509 -2.0701
 4989SOL     OW26425   1.970   4.352   7.543  0.1264 -0.0424 -0.4403
 4989SOL    HW126426   1.990   4.291   7.614  0.1747  0.0986 -0.3327
 4989SOL    HW226427   2.022   4.426   7.573 -0.9287  0.6336 -0.2572
 4990SOL     OW26428   1.844   1.576   7.586 -0.3871 -0.6150  0.7975
 4990SOL    HW126429   1.902   1.506   7.556  1.7595  1.2189  0.7130
 4990SOL    HW226430   1.797   1.590   7.504 -0.0300  1.6040  0.9611
 4991SOL     OW26431   2.043   0.707  12.018 -0.0318  0.2345 -0.3545
 4991SOL    HW126432   2.066   0.763  12.092 -3.1890  2.1077 -0.8073
 4991SOL    HW226433   2.054   0.621  12.059 -1.1001  0.2971  0.0616
 4992SOL     OW26434   0.083   0.706  12.609  0.0453  0.6625 -0.1362
 4992SOL    HW126435   4.716   0.685  12.586  0.6740 -0.4905 -1.5940
 4992SOL    HW226436   0.068   0.754  12.690  0.5630 -2.2526  1.6863
 4993SOL     OW26437   0.767   0.159   3.735 -0.0655 -0.6720  0.3588
 4993SOL    HW126438   0.775   0.251   3.710  0.8891 -0.8966 -0.1589
 4993SOL    HW226439   0.672   0.146   3.735  0.0458 -1.4788  0.9221
 4994SOL     OW26440   4.252   2.497  10.826  0.7654  0.0623 -0.2380
 4994SOL    HW126441   4.319   2.451  10.875  1.8012  0.1087 -1.5895
 4994SOL    HW226442   4.289   2.585  10.829 -0.3983  0.6444 -2.2553
 4995SOL     OW26443   4.086   2.593   1.324  0.3367  0.2367  0.4360
 4995SOL    HW126444   4.032   2.663   1.288  0.9204  0.7623  0.5847
 4995SOL    HW226445   4.114   2.643   1.401 -2.8186  1.3624  0.8518
 4996SOL     OW26446   2.932   3.025  10.053  0.4551 -0.4861 -0.1258
 4996SOL    HW126447   3.025   3.050  10.052  0.4434 -0.4517 -0.3599
 4996SOL    HW226448   2.927   2.994  10.144 -1.3111 -1.0459 -0.4329
 4997SOL     OW26449   3.482   1.661  10.038 -0.1839 -0.5880 -0.4306
 4997SOL    HW126450   3.490   1.638   9.946  0.1580 -2.0643 -0.0361
 4997SOL    HW226451   3.550   1.605  10.076  0.2045 -0.2296 -0.5953
 4998SOL     OW26452   3.588   3.342   7.589 -0.0032 -0.7756  0.1285
 4998SOL    HW126453   3.500   3.380   7.585 -0.3398 -1.6269 -0.5115
 4998SOL    HW226454   3.633   3.404   7.531  0.6262 -0.9144  0.4736
 4999SOL     OW26455   4.564   2.492  16.499 -0.1002  0.2612  0.2572
 4999SOL    HW126456   4.532   2.455  16.581  0.8099 -1.7049 -0.2715
 4999SOL    HW226457   4.566   2.419  16.436 -2.3672  1.4926 -1.2515
 5000SOL     OW26458   4.243   2.061   4.125  0.5302  0.1842  0.2989
 5000SOL    HW126459   4.184   2.067   4.200 -2.7136  2.1854 -2.3939
 5000SOL    HW226460   4.285   2.147   4.127  1.8273 -0.4232 -0.8714
 5001SOL     OW26461   3.638   0.515   6.969  0.1003 -0.1277  0.5038
 5001SOL    HW126462   3.677   0.466   6.897  0.4612  0.3819  0.3482
 5001SOL    HW226463   3.546   0.518   6.943  0.4338 -0.1262 -0.7106
 5002SOL     OW26464   4.368   3.312   0.778  0.4888  0.3486  0.2959
 5002SOL    HW126465   4.381   3.407   0.782 -0.3445  0.4394  0.7834
 5002SOL    HW226466   4.275   3.309   0.799  0.6617  0.6430  1.0982
 5003SOL     OW26467   3.617   0.808   4.010  0.5434  0.4953  0.3880
 5003SOL    HW126468   3.582   0.896   3.995 -2.6718 -0.5694  1.7207
 5003SOL    HW226469   3.608   0.796   4.104 -4.9022  0.9537 -0.0866
 5004SOL     OW26470   0.088   2.082   0.138  0.1175 -0.1767 -0.7497
 5004SOL    HW126471   0.001   2.116   0.120 -0.0700  0.1708  0.8165
 5004SOL    HW226472   0.125   2.133   0.210  0.7053 -0.8358 -0.5896
 5005SOL     OW26473   2.193   4.053   4.932  0.7046  0.3346 -0.0587
 5005SOL    HW126474   2.169   4.050   4.839  1.7972  3.1948 -0.4372
 5005SOL    HW226475   2.280   4.015   4.942  1.7395  3.5907  3.0914
 5006SOL     OW26476   2.401   2.468  16.256 -0.0117 -0.5704 -0.1702
 5006SOL    HW126477   2.360   2.554  16.268  0.3849 -0.3904 -0.1091
 5006SOL    HW226478   2.460   2.482  16.330  0.3430  0.6445 -0.6752
 5007SOL     OW26479   2.518   0.622   6.084  0.2546  0.3883  0.1226
 5007SOL    HW126480   2.461   0.603   6.010 -0.8532 -0.7607  1.2798
 5007SOL    HW226481   2.570   0.691   6.044 -1.3333  1.9557  0.7813
 5008SOL     OW26482   4.222   4.348  11.761 -0.1137  0.1853  0.5437
 5008SOL    HW126483   4.198   4.344  11.668  0.9397  0.3076  0.2594
 5008SOL    HW226484   4.167   4.420  11.791  2.4787  1.0007  3.3277
 5009SOL     OW26485   1.725   4.409   1.588 -0.7150  0.4118  0.3008
 5009SOL    HW126486   1.633   4.407   1.563 -1.0555  1.5496  1.4567
 5009SOL    HW226487   1.723   4.376   1.678 -0.4232  1.8574  0.8375
 5010SOL     OW26488   1.294   4.712   1.029  0.1614 -0.1551 -0.1716
 5010SOL    HW126489   1.349   0.036   1.091  1.1155 -0.3141 -0.8935
 5010SOL    HW226490   1.319   0.034   0.949 -0.6417  0.4135 -0.0939
 5011SOL     OW26491   0.518   4.218   5.261 -0.2617  0.5370 -0.5483
 5011SOL    HW126492   0.491   4.250   5.175  0.5029  1.9183 -0.2840
 5011SOL    HW226493   0.598   4.271   5.265  0.4452 -0.5705  0.3043
 5012SOL     OW26494   3.157   0.995   2.192  0.1297  0.0896  0.1674
 5012SOL    HW126495   3.123   0.946   2.267 -1.0297 -0.1680 -0.5329
 5012SOL    HW226496   3.077   1.041   2.166  0.0768 -0.3581 -0.4505
 5013SOL     OW26497   4.556   4.135  10.523  0.0135  0.1891 -0.5772
 5013SOL    HW126498   4.614   4.106  10.592 -1.7529  3.3960  2.2525
 5013SOL    HW226499   4.467   4.120  10.556  0.6899  1.8049  2.0071
 5014SOL     OW26500   4.020   0.075   3.180 -0.5496  0.0089 -0.6705
 5014SOL    HW126501   3.936   0.031   3.189 -0.7027  0.2364 -0.9648
 5014SOL    HW226502   4.083   0.014   3.218 -0.0797  1.4647  0.8922
 5015SOL     OW26503   4.269   0.212   6.615  0.1648 -0.1307 -0.0594
 5015SOL    HW126504   4.206   0.202   6.687 -0.5806  0.9190 -0.5788
 5015SOL    HW226505   4.244   0.137   6.562 -0.0910 -0.9960  1.2639
 5016SOL     OW26506   3.701   2.061   3.105  0.0359  0.3162 -0.0948
 5016SOL    HW126507   3.768   2.061   3.037 -1.6398 -1.0120 -1.7498
 5016SOL    HW226508   3.624   2.062   3.048  0.4309 -3.3796 -0.6768
 5017SOL     OW26509   1.245   3.828  11.636 -0.0837  0.2520  0.3307
 5017SOL    HW126510   1.170   3.800  11.688 -0.9113  1.3416 -0.2633
 5017SOL    HW226511   1.316   3.793  11.690  0.3846  2.2161  0.9997
 5018SOL     OW26512   4.161   4.521  16.102  0.5182 -0.2844  0.5046
 5018SOL    HW126513   4.250   4.508  16.069  0.3502 -0.8273  0.2590
 5018SOL    HW226514   4.164   4.468  16.182 -1.3105 -0.5281  0.4024
 5019SOL     OW26515   3.673   1.338   7.010 -0.4599 -0.0432  0.2827
 5019SOL    HW126516   3.581   1.313   7.008 -0.2640 -0.7346  0.0195
 5019SOL    HW226517   3.677   1.399   6.936  1.5886  1.5983  1.7441
 5020SOL     OW26518   1.834   4.475   9.893  0.0730  0.7225 -0.0336
 5020SOL    HW126519   1.759   4.416   9.881  0.6628 -0.3334  1.5308
 5020SOL    HW226520   1.820   4.540   9.824  1.5690 -1.0866 -2.0333
 5021SOL     OW26521   1.172   4.413  11.177 -0.7540  0.1188  0.3405
 5021SOL    HW126522   1.252   4.456  11.147 -0.1540  0.0905  1.8958
 5021SOL    HW226523   1.193   4.374  11.262  0.6711  0.4122  0.1154
 5022SOL     OW26524   2.133   3.602   4.818  0.1374  0.0751 -0.0485
 5022SOL    HW126525   2.120   3.674   4.757 -0.2796 -0.4927 -0.6298
 5022SOL    HW226526   2.229   3.593   4.818  0.1506  0.1949  0.4988
 5023SOL     OW26527   4.662   4.611   7.460  0.3563 -0.0857 -0.2573
 5023SOL    HW126528   4.708   4.692   7.482 -0.7989 -0.2219  2.6320
 5023SOL    HW226529   0.004   4.566   7.407 -1.7585 -0.1608 -2.7969
 5024SOL     OW26530   1.023   4.497   4.832  0.3710 -0.1417  0.0387
 5024SOL    HW126531   1.072   4.463   4.757 -0.8251 -0.5097 -0.5732
 5024SOL    HW226532   0.987   4.580   4.801  1.9538  1.2835  2.0281
 5025SOL     OW26533   1.389   0.234   6.562 -0.3741 -0.0288  0.0967
 5025SOL    HW126534   1.338   0.308   6.595  3.0906  1.9373  1.0221
 5025SOL    HW226535   1.323   0.187   6.511 -4.9433  4.1535  2.1583
 5026SOL     OW26536   0.888   3.524  10.953  0.2354 -0.0279  0.4518
 5026SOL    HW126537   0.870   3.434  10.924  1.0355  0.2069 -0.7961
 5026SOL    HW226538   0.866   3.568  10.871  1.7075 -0.3332 -0.0972
 5027SOL     OW26539   4.280   1.293   4.651  0.8746 -0.3589  0.1257
 5027SOL    HW126540   4.234   1.307   4.569  0.1815  2.2268  0.9525
 5027SOL    HW226541   4.332   1.374   4.655  1.4339 -0.6335 -1.6169
 5028SOL     OW26542   3.481   3.769   1.723  0.2193  0.3536  0.0025
 5028SOL    HW126543   3.425   3.692   1.712  0.3601  0.4396 -1.2742
 5028SOL    HW226544   3.568   3.732   1.736 -0.6140 -1.6064  0.0351
 5029SOL     OW26545   3.066   3.200   5.231  0.0011 -0.0871  0.2628
 5029SOL    HW126546   3.093   3.292   5.234 -0.3793 -0.0392  1.9580
 5029SOL    HW226547   3.122   3.150   5.291  2.1170  0.4851 -1.2230
 5030SOL     OW26548   4.103   0.972   1.457  0.2281 -0.1422 -0.0435
 5030SOL    HW126549   4.027   0.999   1.406 -0.5260 -2.2199 -0.0017
 5030SOL    HW226550   4.166   1.034   1.420  0.5150 -0.3399  0.1140
 5031SOL     OW26551   3.958   1.166   4.885  0.4026  0.5398 -0.1478
 5031SOL    HW126552   4.012   1.095   4.921  0.1513  0.6341  0.4111
 5031SOL    HW226553   4.013   1.238   4.914 -0.0227  0.4340  0.9030
 5032SOL     OW26554   2.703   3.672   6.747 -0.1106  0.3341 -0.1812
 5032SOL    HW126555   2.620   3.630   6.768  1.1882 -0.7191  2.8048
 5032SOL    HW226556   2.682   3.743   6.686  1.2983  1.0084  0.1281
 5033SOL     OW26557   0.784   0.344   7.742  0.2062  0.2525  0.4590
 5033SOL    HW126558   0.797   0.290   7.664  0.5149  1.0356 -0.0313
 5033SOL    HW226559   0.848   0.414   7.734 -0.0733  0.3738 -0.8059
 5034SOL     OW26560   3.257   0.848  13.550 -0.0619 -0.2348  0.3356
 5034SOL    HW126561   3.239   0.881  13.462 -0.7326 -2.0142 -0.2020
 5034SOL    HW226562   3.214   0.914  13.605 -1.4901 -0.2076 -0.8072
 5035SOL     OW26563   1.074   4.637  16.029 -0.2135 -0.2549  0.0478
 5035SOL    HW126564   1.133   4.700  15.987 -1.6418  0.5419 -0.7517
 5035SOL    HW226565   1.082   4.658  16.122  2.0802  1.1863 -0.4755
 5036SOL     OW26566   3.328   0.358   5.178  0.1136 -0.1033  0.2033
 5036SOL    HW126567   3.367   0.438   5.213  1.5606  0.1974 -2.1349
 5036SOL    HW226568   3.379   0.296   5.230 -0.0516  2.1914  3.1406
 5037SOL     OW26569   2.599   3.657   8.245  0.8881  0.0256  0.1533
 5037SOL    HW126570   2.648   3.618   8.172 -0.6884  0.0826 -0.9259
 5037SOL    HW226571   2.582   3.589   8.310 -0.7618  1.1717  0.9050
 5038SOL     OW26572   0.941   3.730  12.469  0.6776  0.5414 -0.3798
 5038SOL    HW126573   0.959   3.687  12.553  1.4100  0.1916 -0.7076
 5038SOL    HW226574   0.915   3.650  12.423 -1.0825  0.0465  1.4531
 5039SOL     OW26575   0.405   1.735   2.761  0.0060  0.2837 -0.0131
 5039SOL    HW126576   0.460   1.742   2.682  0.6799  0.0494  0.4290
 5039SOL    HW226577   0.442   1.653   2.796 -0.8534  0.0755  0.3912
 5040SOL     OW26578   1.440   0.233  15.013 -0.1787  0.2468 -0.2760
 5040SOL    HW126579   1.516   0.201  15.064 -1.2150 -1.3306  0.2924
 5040SOL    HW226580   1.367   0.184  15.052 -0.1254  1.0905  0.8650
 5041SOL     OW26581   2.891   3.536  15.125 -0.4852  0.1776 -0.1294
 5041SOL    HW126582   2.899   3.631  15.120 -1.4209  0.3539  1.5048
 5041SOL    HW226583   2.927   3.502  15.044 -1.4672  0.1263 -0.5517
 5042SOL     OW26584   4.698   3.312   5.833 -0.1901 -0.8770 -0.2760
 5042SOL    HW126585   4.603   3.327   5.837 -0.0401 -0.3437  1.2340
 5042SOL    HW226586   0.003   3.394   5.872 -3.5949  0.0093  0.4076
 5043SOL     OW26587   2.250   3.358  14.348  0.1613 -0.2353  0.0540
 5043SOL    HW126588   2.227   3.266  14.358 -1.0565  0.0382 -0.2556
 5043SOL    HW226589   2.345   3.354  14.336  0.1396  1.6800 -0.8767
 5044SOL     OW26590   0.591   3.836   5.729  0.2206  0.1933  0.9783
 5044SOL    HW126591   0.639   3.873   5.804  0.0955  0.8632  0.7250
 5044SOL    HW226592   0.510   3.811   5.774 -0.7509  0.8754 -0.3936
 5045SOL     OW26593   0.504   2.004   8.616 -0.1745  0.2400 -0.2294
 5045SOL    HW126594   0.433   2.016   8.553  1.3435 -1.9781 -2.3662
 5045SOL    HW226595   0.455   1.981   8.695 -2.6342  0.4400 -1.6806
 5046SOL     OW26596   0.498   0.454   6.484  0.3983  0.0273 -0.0815
 5046SOL    HW126597   0.473   0.484   6.572 -0.9259 -1.3529  0.0205
 5046SOL    HW226598   0.591   0.439   6.496  0.0057 -0.7673  2.0269
 5047SOL     OW26599   1.748   2.803   3.850  0.8862 -0.7443 -0.1699
 5047SOL    HW126600   1.782   2.867   3.787  2.2229 -0.0802  1.2315
 5047SOL    HW226601   1.691   2.755   3.790  0.5802 -0.7851  0.1579
 5048SOL     OW26602   4.084   3.166   6.470  0.3915  0.8351  0.2939
 5048SOL    HW126603   4.174   3.135   6.474  0.7117  1.2057 -3.9443
 5048SOL    HW226604   4.110   3.255   6.446  1.5565  1.0204  2.2129
 5049SOL     OW26605   4.336   0.467  11.883  0.1685  0.0534 -0.0771
 5049SOL    HW126606   4.313   0.546  11.834 -0.5465  0.1081  0.3451
 5049SOL    HW226607   4.401   0.418  11.833  0.9223  0.1861  0.7698
 5050SOL     OW26608   2.869   1.083   4.816  0.0304 -0.1115  0.2374
 5050SOL    HW126609   2.824   1.028   4.752  0.0945 -1.0696  1.0373
 5050SOL    HW226610   2.828   1.170   4.811 -0.5901 -0.4801 -0.9973
 5051SOL     OW26611   1.853   4.018   1.902  0.5334  0.0464  0.5092
 5051SOL    HW126612   1.787   3.978   1.959 -0.2546  1.0611  0.3312
 5051SOL    HW226613   1.899   3.952   1.850 -0.5729  0.2556 -0.7445
 5052SOL     OW26614   4.060   3.827   4.723  0.5647  0.4276 -0.1188
 5052SOL    HW126615   3.979   3.845   4.770 -1.1346  0.5701 -3.0965
 5052SOL    HW226616   4.020   3.787   4.646  1.2869 -0.7833  0.1439
 5053SOL     OW26617   3.133   1.192   6.420  0.1593  0.5686 -0.0083
 5053SOL    HW126618   3.227   1.211   6.419 -0.0524  1.6876  1.5406
 5053SOL    HW226619   3.110   1.176   6.511 -0.7804 -2.5345 -0.8310
 5054SOL     OW26620   3.753   1.225   8.723 -0.2845 -0.0361  0.4527
 5054SOL    HW126621   3.700   1.179   8.788 -0.2235  0.1569  0.6411
 5054SOL    HW226622   3.823   1.265   8.775 -0.1313 -0.2386  0.3978
 5055SOL     OW26623   3.828   4.253   3.583 -0.4602 -0.2061 -0.1058
 5055SOL    HW126624   3.765   4.325   3.575  1.0261  1.2820  1.6725
 5055SOL    HW226625   3.907   4.297   3.551 -2.2008  1.3170 -2.3300
 5056SOL     OW26626   1.073   3.388   2.161 -0.2493  0.3960 -0.3667
 5056SOL    HW126627   1.136   3.423   2.098 -0.7402 -0.1708 -1.1706
 5056SOL    HW226628   0.998   3.359   2.109  0.6233 -0.7630 -0.9638
 5057SOL     OW26629   0.608   2.607   8.448 -0.1000  0.5326 -0.3213
 5057SOL    HW126630   0.632   2.560   8.528  0.4212 -2.1955 -2.0839
 5057SOL    HW226631   0.666   2.683   8.443  0.5034  0.2890  3.3327
 5058SOL     OW26632   0.367   1.366  15.632  0.5532  0.0477 -0.1358
 5058SOL    HW126633   0.327   1.452  15.643  3.1179  1.0244  1.4929
 5058SOL    HW226634   0.407   1.363  15.545  1.1074  2.7781  0.0014
 5059SOL     OW26635   3.443   1.362  14.240 -0.5578 -0.3857  0.1159
 5059SOL    HW126636   3.474   1.376  14.150 -1.1507  0.6342  0.0728
 5059SOL    HW226637   3.434   1.267  14.235  2.1495 -0.5836 -0.9752
 5060SOL     OW26638   2.369   3.954   3.221 -0.2382 -0.1411  0.2256
 5060SOL    HW126639   2.366   3.993   3.308  2.7495 -2.5835  1.4099
 5060SOL    HW226640   2.447   3.904   3.243 -0.2236  0.5541  1.7374
 5061SOL     OW26641   3.736   3.326  10.210  0.3867 -0.0582 -0.1332
 5061SOL    HW126642   3.693   3.411  10.226  0.5363 -0.2718  1.4170
 5061SOL    HW226643   3.796   3.346  10.138 -0.2928  0.4259 -0.5697
 5062SOL     OW26644   3.170   1.527  15.277  0.3518 -0.6686 -0.6967
 5062SOL    HW126645   3.221   1.466  15.330  0.4376  0.4389  0.4952
 5062SOL    HW226646   3.240   1.554  15.216  1.8433 -0.6984  1.0127
 5063SOL     OW26647   1.116   4.054   3.357  0.5100  0.0634  0.8081
 5063SOL    HW126648   1.122   4.096   3.271 -1.2949 -0.0162  0.6507
 5063SOL    HW226649   1.201   4.078   3.394  1.1479  0.9091 -1.1600
 5064SOL     OW26650   2.297   3.503   2.960  0.3387  0.1171  0.1097
 5064SOL    HW126651   2.215   3.459   2.981  0.3567  0.0964  0.1374
 5064SOL    HW226652   2.302   3.503   2.865  1.6284  0.7886  0.1707
 5065SOL     OW26653   0.315   2.188   4.796  0.3895  0.3431  0.0050
 5065SOL    HW126654   0.245   2.126   4.818 -0.4710  0.1181 -3.3964
 5065SOL    HW226655   0.307   2.267   4.849 -0.7431  0.2389 -0.0035
 5066SOL     OW26656   0.495   3.390   5.393  0.4092 -0.0374 -0.9146
 5066SOL    HW126657   0.533   3.337   5.463  0.4854  0.7379 -0.3654
 5066SOL    HW226658   0.413   3.426   5.427 -0.0736 -0.7609 -1.2936
 5067SOL     OW26659   1.664   0.800   9.378 -0.3752  0.1337 -0.2360
 5067SOL    HW126660   1.680   0.868   9.444 -0.6038 -0.1041  0.0630
 5067SOL    HW226661   1.724   0.825   9.308 -0.2866  2.1753  0.5823
 5068SOL     OW26662   2.008   1.397   6.934 -0.0955 -0.3792  0.7212
 5068SOL    HW126663   2.065   1.330   6.972  1.7933  0.8711  0.0984
 5068SOL    HW226664   2.049   1.480   6.957  1.9455 -1.1728  0.0167
 5069SOL     OW26665   1.581   0.978  11.372  0.4373  0.2988  0.1206
 5069SOL    HW126666   1.661   0.963  11.320  0.4554 -0.0713  0.2612
 5069SOL    HW226667   1.539   0.893  11.367  2.5039 -0.7348  0.4104
 5070SOL     OW26668   2.375   4.032   3.473 -0.2727 -0.2979  0.0034
 5070SOL    HW126669   2.382   4.117   3.516 -1.4068 -0.0778 -0.2568
 5070SOL    HW226670   2.305   3.984   3.517 -1.3437 -0.6152 -2.0148
 5071SOL     OW26671   0.712   1.064   0.066  0.1550  0.0528 -0.1260
 5071SOL    HW126672   0.802   1.061   0.036  0.2802 -0.1780  0.2754
 5071SOL    HW226673   0.666   1.101  17.689  0.3399  3.4656  1.4556
 5072SOL     OW26674   2.175   1.184   7.023  0.2873 -0.4724  0.0530
 5072SOL    HW126675   2.202   1.098   6.990 -1.4154 -0.7535 -0.6024
 5072SOL    HW226676   2.124   1.154   7.098  1.8496 -1.7501  0.5956
 5073SOL     OW26677   0.950   4.231   5.186  0.1700  0.4712  0.1774
 5073SOL    HW126678   0.927   4.318   5.220 -1.4939 -0.1653  0.6691
 5073SOL    HW226679   1.011   4.256   5.116  1.6873 -1.3077  0.8754
 5074SOL     OW26680   2.258   2.615  10.117  0.5350 -0.1888 -0.1852
 5074SOL    HW126681   2.335   2.561  10.096  1.7701  2.2909 -1.9820
 5074SOL    HW226682   2.267   2.677  10.045 -0.1844  1.4532  1.1531
 5075SOL     OW26683   1.145   3.567   5.636  0.7021  0.6850 -0.3167
 5075SOL    HW126684   1.216   3.531   5.582 -0.4680 -0.9688 -0.7740
 5075SOL    HW226685   1.069   3.552   5.580  1.8283  0.5218 -1.8100
 5076SOL     OW26686   1.712   4.655   9.434 -0.2140  0.3833 -0.1636
 5076SOL    HW126687   1.668   4.576   9.466 -0.9812  1.2643  0.9570
 5076SOL    HW226688   1.692   4.657   9.341 -0.6112 -0.9865 -0.1084
 5077SOL     OW26689   3.476   4.058   9.213  0.2001  0.2302  0.2405
 5077SOL    HW126690   3.403   4.065   9.152  0.2115 -0.8494  0.1072
 5077SOL    HW226691   3.438   4.010   9.286 -0.4270  0.1161 -0.1612
 5078SOL     OW26692   3.564   3.078   3.193 -0.1709  0.3768 -0.5094
 5078SOL    HW126693   3.569   3.031   3.110  1.9124 -1.2309  0.5514
 5078SOL    HW226694   3.477   3.118   3.185 -1.8204 -2.8784  1.1237
 5079SOL     OW26695   1.377   0.318  17.537 -0.2445  0.0529 -0.2994
 5079SOL    HW126696   1.377   0.259  17.461  2.6335  0.5082 -0.6611
 5079SOL    HW226697   1.472   0.330  17.543 -0.2463 -0.8931  1.5760
 5080SOL     OW26698   1.682   1.965   4.527 -0.0409  0.0340 -0.2908
 5080SOL    HW126699   1.715   1.878   4.504 -2.0283 -0.5554 -0.9249
 5080SOL    HW226700   1.614   1.972   4.460  0.4952  3.5941 -0.4750
 5081SOL     OW26701   0.701   1.808   5.888  0.3521 -0.5147 -0.7394
 5081SOL    HW126702   0.659   1.757   5.819  0.1848  0.2528 -1.1954
 5081SOL    HW226703   0.784   1.836   5.850  1.1696  0.2221  1.5845
 5082SOL     OW26704   0.732   2.242   6.195  0.2379 -0.3226 -0.0719
 5082SOL    HW126705   0.753   2.222   6.103 -1.4145 -0.2111 -0.4754
 5082SOL    HW226706   0.659   2.181   6.198  0.2897 -0.2959  1.3099
 5083SOL     OW26707   2.896   3.979   8.950  0.6753  0.4982 -0.2839
 5083SOL    HW126708   2.869   4.016   9.034  1.5359  1.2394 -0.3302
 5083SOL    HW226709   2.940   3.901   8.983  0.0781 -0.1732 -1.0607
 5084SOL     OW26710   2.042   2.506  10.254 -0.3778  0.1826 -0.4230
 5084SOL    HW126711   2.116   2.530  10.198  0.2428 -0.4961  0.1083
 5084SOL    HW226712   1.995   2.588  10.244 -0.9553  0.1156  1.8219
 5085SOL     OW26713   4.274   3.809   3.474 -0.6174 -0.2105  1.0804
 5085SOL    HW126714   4.348   3.779   3.420 -2.9814  0.2594 -2.4416
 5085SOL    HW226715   4.227   3.730   3.502 -0.6289  0.0131  1.6832
 5086SOL     OW26716   4.627   3.418  11.927 -0.2712  0.3723  0.0247
 5086SOL    HW126717   4.609   3.411  11.833  1.9957 -1.2656 -0.2955
 5086SOL    HW226718   4.678   3.340  11.948  1.7538  0.6908 -3.6522
 5087SOL     OW26719   3.968   0.123   4.240 -0.2891 -0.0290  0.7269
 5087SOL    HW126720   4.042   0.113   4.300 -0.4479  0.6051  1.0224
 5087SOL    HW226721   4.017   0.169   4.172 -0.9923  0.0503  0.2777
 5088SOL     OW26722   0.442   3.745   1.127 -0.1841  0.0968  0.5545
 5088SOL    HW126723   0.373   3.724   1.064  1.0452 -1.2420 -0.3357
 5088SOL    HW226724   0.478   3.821   1.081  0.9267 -0.4809  0.4636
 5089SOL     OW26725   4.366   2.857   5.780 -0.0126  0.0568  0.0002
 5089SOL    HW126726   4.459   2.864   5.761 -0.2322  1.2389 -0.6357
 5089SOL    HW226727   4.356   2.783   5.840  0.7157  0.8759  1.1220
 5090SOL     OW26728   3.371   0.535   0.048  0.1382 -0.1669 -0.1997
 5090SOL    HW126729   3.358   0.557   0.141  1.2496 -0.3586 -0.0027
 5090SOL    HW226730   3.419   0.453   0.064  0.3847 -0.1629 -0.9455
 5091SOL     OW26731   3.851   0.156   6.616 -0.3861  0.0462 -0.0463
 5091SOL    HW126732   3.915   0.098   6.658  0.9944 -0.2036 -2.4835
 5091SOL    HW226733   3.898   0.236   6.595 -0.1066 -0.3039 -0.7732
 5092SOL     OW26734   0.788   1.940   7.692  0.6234 -0.3576  0.1438
 5092SOL    HW126735   0.701   1.964   7.662  1.0801 -2.9026 -3.2724
 5092SOL    HW226736   0.826   2.028   7.698 -0.1787  0.0277 -0.3336
 5093SOL     OW26737   3.278   2.982   3.421  0.1638 -0.5242 -0.4809
 5093SOL    HW126738   3.363   2.987   3.465  0.0632  1.6027 -0.5367
 5093SOL    HW226739   3.275   2.889   3.400  1.5393 -0.4615 -0.9872
 5094SOL     OW26740   2.143   2.821  15.494 -0.2072  0.0805  0.2232
 5094SOL    HW126741   2.070   2.851  15.440  0.8154  0.1430 -1.1184
 5094SOL    HW226742   2.208   2.830  15.424 -0.0671 -2.3048  0.0595
 5095SOL     OW26743   3.810   0.744   5.249  0.0106 -0.1332  0.2104
 5095SOL    HW126744   3.739   0.701   5.297 -0.7426 -0.8515 -1.5246
 5095SOL    HW226745   3.882   0.699   5.293  0.0558  0.7953  1.0797
 5096SOL     OW26746   0.767   4.388   9.549  0.2875  0.3077 -0.2907
 5096SOL    HW126747   0.838   4.325   9.554 -0.2361 -0.2508  0.0738
 5096SOL    HW226748   0.774   4.409   9.456 -3.0418 -0.5135 -0.7188
 5097SOL     OW26749   2.717   1.177   4.380 -0.0927  0.4792  0.1052
 5097SOL    HW126750   2.654   1.122   4.333 -0.0715  0.1580  0.4492
 5097SOL    HW226751   2.769   1.210   4.308 -0.9594  0.9034 -0.3284
 5098SOL     OW26752   2.633   2.362   4.093  0.4057  0.2119 -0.6790
 5098SOL    HW126753   2.600   2.277   4.063 -0.8407  1.1896 -2.1112
 5098SOL    HW226754   2.711   2.343   4.144 -0.5318  0.1420  0.7398
 5099SOL     OW26755   0.312   4.135   4.733  0.6623  0.1248  0.4072
 5099SOL    HW126756   0.383   4.089   4.777  1.5489  0.1679 -1.0053
 5099SOL    HW226757   0.274   4.075   4.670 -0.6282  0.9022  0.4283
 5100SOL     OW26758   2.648   2.734   9.934  0.4054 -0.2874 -0.2469
 5100SOL    HW126759   2.662   2.752   9.841 -1.6451 -1.4294 -0.7573
 5100SOL    HW226760   2.731   2.767   9.968 -0.0286  2.9503 -2.3907
 5101SOL     OW26761   4.445   1.574  10.445  0.2255 -0.1351 -0.0732
 5101SOL    HW126762   4.450   1.559  10.351 -2.6348 -0.3380 -0.1750
 5101SOL    HW226763   4.417   1.666  10.448 -2.1573 -0.9134  1.2313
 5102SOL     OW26764   2.194   4.208   8.050 -0.1837  0.1203  0.1701
 5102SOL    HW126765   2.183   4.120   8.086 -1.7392 -0.1713 -0.9942
 5102SOL    HW226766   2.184   4.257   8.131  1.3269  1.6218 -0.5666
 5103SOL     OW26767   2.213   4.410   8.543  0.1738  0.3308  0.2196
 5103SOL    HW126768   2.197   4.338   8.604  1.7304  0.4408  0.7645
 5103SOL    HW226769   2.244   4.480   8.600  1.5672 -0.2843  0.2175
 5104SOL     OW26770   1.095   3.007   1.468  0.2733  0.0974 -0.1843
 5104SOL    HW126771   1.106   2.981   1.377  1.6279 -0.1405  0.0521
 5104SOL    HW226772   1.187   3.004   1.493 -0.3004  0.2568  1.9568
 5105SOL     OW26773   4.513   3.556   7.128  0.3423 -0.0658  0.3583
 5105SOL    HW126774   4.489   3.590   7.041 -1.6100  1.1696  1.3797
 5105SOL    HW226775   4.581   3.621   7.144 -0.3334  1.1488 -1.6837
 5106SOL     OW26776   4.234   4.130   0.302  0.0701 -0.1817  0.6057
 5106SOL    HW126777   4.182   4.138   0.222 -1.5635  0.8056  1.7709
 5106SOL    HW226778   4.296   4.060   0.281 -1.2451 -1.5514  1.2888
 5107SOL     OW26779   1.926   3.112   6.832 -0.4103  0.2962 -0.3282
 5107SOL    HW126780   1.974   3.075   6.907  0.9007  0.5599 -1.0443
 5107SOL    HW226781   1.919   3.201   6.867  2.5806  0.4166 -0.0089
 5108SOL     OW26782   0.854   1.277   1.469 -0.4010  0.1742  0.0166
 5108SOL    HW126783   0.828   1.324   1.548 -0.8151 -1.7895  1.0476
 5108SOL    HW226784   0.772   1.270   1.421  0.5087 -1.1397 -1.3622
 5109SOL     OW26785   2.186   2.005  16.344  0.2880  0.1110 -0.1084
 5109SOL    HW126786   2.254   2.009  16.411 -0.1566 -0.7689  0.3962
 5109SOL    HW226787   2.176   2.092  16.305 -0.3608  1.3816  2.9449
 5110SOL     OW26788   0.014   2.332   4.598 -0.0958 -0.0836 -0.1300
 5110SOL    HW126789   4.647   2.360   4.590 -1.1015 -3.9336 -2.3234
 5110SOL    HW226790   0.046   2.403   4.653 -1.0246 -0.3206  0.7050
 5111SOL     OW26791   2.177   2.612   3.640 -0.1981  0.0097 -0.1018
 5111SOL    HW126792   2.245   2.626   3.575 -0.3955 -0.0898 -0.3324
 5111SOL    HW226793   2.158   2.521   3.614  2.0000 -0.3720 -0.3712
 5112SOL     OW26794   1.906   2.629   3.991 -0.4556  0.4686  0.1301
 5112SOL    HW126795   1.840   2.669   3.935 -0.0716  2.0291  0.7588
 5112SOL    HW226796   1.986   2.682   3.982 -1.0837  1.3419 -0.2354
 5113SOL     OW26797   3.692   2.981   0.162  0.3267 -0.4612 -0.2461
 5113SOL    HW126798   3.767   2.995   0.220  0.8119  0.8151 -1.1947
 5113SOL    HW226799   3.667   2.891   0.182 -3.0853  0.9625  1.8050
 5114SOL     OW26800   3.374   1.469   3.267  0.2291  1.1977 -0.1630
 5114SOL    HW126801   3.320   1.472   3.188  2.6021 -0.1302 -1.8127
 5114SOL    HW226802   3.437   1.401   3.244  0.9329  2.1962 -1.1321
 5115SOL     OW26803   1.780   4.367  14.775 -0.2833 -0.2838 -0.4327
 5115SOL    HW126804   1.809   4.440  14.720  1.8554 -0.8925 -0.1012
 5115SOL    HW226805   1.859   4.355  14.827 -1.0825 -2.6071  0.2428
 5116SOL     OW26806   3.734   2.911   3.948 -0.1413  0.3765  0.1398
 5116SOL    HW126807   3.782   2.986   3.913  2.1042 -1.4311 -0.6512
 5116SOL    HW226808   3.706   2.863   3.870 -0.4844  0.0534  0.4636
 5117SOL     OW26809   3.251   0.548   1.451 -0.1645 -0.1132  0.1416
 5117SOL    HW126810   3.204   0.496   1.516 -0.8098  0.6474  0.2867
 5117SOL    HW226811   3.337   0.506   1.456  0.1928  0.5697 -0.2095
 5118SOL     OW26812   0.697   4.668   6.923  0.2607 -0.2450  0.5107
 5118SOL    HW126813   0.614   4.651   6.877  1.2591 -1.1785 -0.9267
 5118SOL    HW226814   0.690   4.614   7.002  0.5978 -0.4207  0.4206
 5119SOL     OW26815   0.429   2.642  16.650 -0.7087  0.1016  0.2380
 5119SOL    HW126816   0.456   2.595  16.571 -1.4143  0.7158 -0.3599
 5119SOL    HW226817   0.425   2.732  16.618 -1.4668  0.4140  1.2399
 5120SOL     OW26818   2.495   2.618   4.945  0.3350 -0.6090  0.1324
 5120SOL    HW126819   2.425   2.592   5.005  0.9386 -0.1554  1.0263
 5120SOL    HW226820   2.493   2.713   4.958  1.3661 -0.3465 -1.5990
 5121SOL     OW26821   2.591   1.122   8.695 -0.1801 -0.1582  0.3088
 5121SOL    HW126822   2.610   1.204   8.650 -1.2431 -0.3010 -0.3889
 5121SOL    HW226823   2.498   1.117   8.675 -0.7116  1.0813  2.4753
 5122SOL     OW26824   4.553   3.612  16.782  0.2668  0.1620  0.0440
 5122SOL    HW126825   4.572   3.703  16.805 -0.2807  0.3983 -0.4521
 5122SOL    HW226826   4.546   3.577  16.870  2.2246  0.4314  0.3031
 5123SOL     OW26827   2.055   1.741   2.790  0.6590  0.0560  0.0144
 5123SOL    HW126828   2.068   1.756   2.697 -0.4810 -2.6126 -0.5857
 5123SOL    HW226829   1.968   1.700   2.788  0.6106  0.1831 -0.5038
 5124SOL     OW26830   3.888   2.379   5.413  0.3766 -0.3875 -0.0676
 5124SOL    HW126831   3.867   2.447   5.476  0.8798  1.9125 -2.3983
 5124SOL    HW226832   3.930   2.316   5.472 -0.6155  0.4742  1.5351
 5125SOL     OW26833   2.905   2.007   1.570 -0.2214  0.1244 -0.2313
 5125SOL    HW126834   2.894   1.913   1.584 -0.8034  0.2532  0.1981
 5125SOL    HW226835   2.812   2.029   1.566 -0.1845 -0.1695 -2.5326
 5126SOL     OW26836   3.018   0.111  12.691 -0.2012 -0.2576  0.3354
 5126SOL    HW126837   2.946   0.173  12.701  1.0478  1.2296  0.1342
 5126SOL    HW226838   3.073   0.154  12.625 -2.3498  0.7399 -0.8202
 5127SOL     OW26839   1.996   1.441   5.825 -0.5521 -0.5181 -0.6889
 5127SOL    HW126840   2.069   1.408   5.877  0.1184  1.9846 -0.0502
 5127SOL    HW226841   2.016   1.535   5.833  1.4146 -0.7701 -2.4847
 5128SOL     OW26842   1.106   3.154   5.615  0.3611 -0.2208 -0.2601
 5128SOL    HW126843   1.190   3.117   5.587  0.2675 -0.7734  0.1950
 5128SOL    HW226844   1.089   3.212   5.541  2.2424  0.4683 -0.1549
 5129SOL     OW26845   0.706   4.030   7.231  0.0333 -0.0300  0.0544
 5129SOL    HW126846   0.724   3.991   7.146  1.4426 -2.3205  1.3978
 5129SOL    HW226847   0.610   4.037   7.232  0.0592  0.3726 -1.4807
 5130SOL     OW26848   2.202   3.619  17.382  0.4780  1.0313 -0.1892
 5130SOL    HW126849   2.145   3.675  17.330  0.2385  1.3334  0.3985
 5130SOL    HW226850   2.278   3.677  17.394  1.0180 -0.3756  3.2287
 5131SOL     OW26851   4.006   0.599  11.680 -0.0286  0.2248  0.4422
 5131SOL    HW126852   3.976   0.543  11.608 -0.0371 -0.6307  1.1029
 5131SOL    HW226853   4.101   0.603  11.670 -0.1515 -0.2727 -0.9383
 5132SOL     OW26854   1.249   0.842   2.588 -0.3290 -0.1595  0.1759
 5132SOL    HW126855   1.165   0.823   2.546 -1.1623  1.7187  1.0220
 5132SOL    HW226856   1.252   0.937   2.598 -0.6143 -0.0954 -0.3510
 5133SOL     OW26857   3.014   0.234   3.697 -0.0772 -0.2305 -0.7648
 5133SOL    HW126858   3.089   0.253   3.755 -1.0216  1.3333 -0.0441
 5133SOL    HW226859   3.013   0.139   3.698  2.2338 -0.2393  1.8209
 5134SOL     OW26860   4.344   3.399   7.665  0.1531  0.6809 -0.5464
 5134SOL    HW126861   4.322   3.306   7.663  0.8066  0.5465 -1.5339
 5134SOL    HW226862   4.354   3.406   7.570  1.1961  1.1472 -0.4052
 5135SOL     OW26863   1.213   2.296   5.883 -0.1299  0.1428 -0.0954
 5135SOL    HW126864   1.266   2.354   5.937 -1.6118  1.5398 -0.1710
 5135SOL    HW226865   1.250   2.208   5.894  1.5005  0.9189  0.6438
 5136SOL     OW26866   0.251   3.853   3.365 -0.2623  0.0379  0.0771
 5136SOL    HW126867   0.308   3.930   3.362 -2.1856  1.3587 -2.8540
 5136SOL    HW226868   0.172   3.902   3.388  0.5751  0.2691  2.4273
 5137SOL     OW26869   0.833   2.459   0.458  0.1472  0.0701  0.3936
 5137SOL    HW126870   0.914   2.456   0.508  2.2313 -1.4417 -3.0918
 5137SOL    HW226871   0.843   2.537   0.402 -0.2619 -0.6248 -0.6545
 5138SOL     OW26872   0.495   1.128   6.464  0.0981 -0.4019  0.4956
 5138SOL    HW126873   0.547   1.197   6.505 -0.0301  0.3542 -0.6169
 5138SOL    HW226874   0.558   1.057   6.474 -0.5730 -0.7563  2.2238
 5139SOL     OW26875   1.138   1.644   3.451  0.3125 -0.5574  0.6487
 5139SOL    HW126876   1.202   1.622   3.519 -0.8786  0.1737  2.0017
 5139SOL    HW226877   1.191   1.703   3.396  0.0550 -2.0752 -1.2377
 5140SOL     OW26878   2.226   3.852   0.146 -0.3863 -0.0894 -0.1587
 5140SOL    HW126879   2.273   3.773   0.171  0.4309  0.6213  0.5446
 5140SOL    HW226880   2.288   3.918   0.178  0.2645 -0.4776 -0.6318
 5141SOL     OW26881   0.898   3.428   7.502 -0.2783 -0.3922 -0.1093
 5141SOL    HW126882   0.946   3.511   7.507 -0.0801 -0.5237  0.1644
 5141SOL    HW226883   0.828   3.452   7.441 -1.6281 -2.3576  0.6631
 5142SOL     OW26884   2.978   2.241   3.395 -0.3722  0.3757 -0.0999
 5142SOL    HW126885   3.058   2.290   3.419 -0.0535  1.3329 -3.0992
 5142SOL    HW226886   2.935   2.299   3.332 -0.7685  0.2436  0.0509
 5143SOL     OW26887   4.656   2.586   6.050  0.3172  0.0718 -0.4785
 5143SOL    HW126888   4.696   2.500   6.061  2.4053  0.9567 -1.2783
 5143SOL    HW226889   4.609   2.560   5.971  0.3432  0.8818 -0.7583
 5144SOL     OW26890   0.987   2.095   4.981  0.3914  0.0288  0.1611
 5144SOL    HW126891   0.997   2.075   4.887 -0.0549  0.6223 -0.0084
 5144SOL    HW226892   1.021   2.015   5.021 -1.3160 -0.0622  1.4058
 5145SOL     OW26893   0.244   2.374   2.085 -0.4528  0.3399 -0.0821
 5145SOL    HW126894   0.261   2.296   2.033  1.3948 -0.5388  1.8174
 5145SOL    HW226895   0.248   2.444   2.019 -0.6370  0.2237 -0.2155
 5146SOL     OW26896   3.644   3.770   9.203  0.0018  0.6925  0.3961
 5146SOL    HW126897   3.638   3.736   9.292 -0.2592  2.7861  1.1863
 5146SOL    HW226898   3.576   3.838   9.206 -0.6435  0.1568 -2.3705
 5147SOL     OW26899   4.484   3.316   1.405  0.0821  0.0596  0.1313
 5147SOL    HW126900   4.416   3.382   1.419 -0.0252  0.1505 -0.7983
 5147SOL    HW226901   4.504   3.325   1.311  1.0366  0.9580  0.4243
 5148SOL     OW26902   1.398   3.965   8.268  0.1652 -0.2786 -0.3972
 5148SOL    HW126903   1.327   3.935   8.324  0.9421 -0.9236  0.2558
 5148SOL    HW226904   1.449   3.883   8.269 -0.4313 -0.6473 -0.3098
 5149SOL     OW26905   0.480   3.717   4.300 -0.0538 -0.7027 -0.2903
 5149SOL    HW126906   0.392   3.679   4.293  0.6466 -2.5131  0.6491
 5149SOL    HW226907   0.483   3.778   4.227 -3.5342 -0.6728 -0.4216
 5150SOL     OW26908   1.383   4.680   4.420  0.0416  0.0959 -0.3601
 5150SOL    HW126909   1.424   4.617   4.479 -2.9479 -1.1097  0.4052
 5150SOL    HW226910   1.314   4.628   4.380  0.5876 -0.6142 -0.3806
 5151SOL     OW26911   1.662   0.921   7.265  0.5712 -0.2871 -0.1302
 5151SOL    HW126912   1.651   0.912   7.360  0.3498  0.7366 -0.0574
 5151SOL    HW226913   1.619   1.003   7.242  0.7528 -0.1086  0.1637
 5152SOL     OW26914   0.052   0.314   6.787 -0.2224 -0.5284  0.4504
 5152SOL    HW126915   4.694   0.277   6.756  0.2306 -1.2918  0.1316
 5152SOL    HW226916   0.014   0.395   6.820  1.4868  0.3901  0.2085
 5153SOL     OW26917   1.851   3.217  17.013 -0.4471 -0.2037  0.0335
 5153SOL    HW126918   1.825   3.199  16.922 -2.2647 -0.1193  0.5387
 5153SOL    HW226919   1.922   3.281  17.004 -0.3090 -0.4697 -0.8302
 5154SOL     OW26920   0.304   1.492  14.036  0.2210  0.4670  0.3202
 5154SOL    HW126921   0.252   1.484  13.955 -2.4103 -2.6740  2.3075
 5154SOL    HW226922   0.309   1.402  14.067  0.4811  0.9063  1.5120
 5155SOL     OW26923   2.947   2.924   3.023 -0.1423  0.1882  0.4256
 5155SOL    HW126924   3.029   2.893   2.985 -2.0655 -0.3926 -3.2343
 5155SOL    HW226925   2.899   2.968   2.953  1.2745 -0.6329 -1.0822
 5156SOL     OW26926   3.307   4.451   5.499  0.6798  0.0632  0.5061
 5156SOL    HW126927   3.338   4.365   5.529  0.6357  0.4032  1.5328
 5156SOL    HW226928   3.387   4.496   5.471  1.3954 -1.3191  0.3205
 5157SOL     OW26929   3.292   1.354   8.334  0.3514 -0.2156 -0.1825
 5157SOL    HW126930   3.244   1.430   8.368 -3.4642 -2.1823 -1.1182
 5157SOL    HW226931   3.352   1.329   8.404  1.1442 -1.3431 -1.2637
 5158SOL     OW26932   0.972   4.324  11.646 -0.5428  0.2004 -0.1461
 5158SOL    HW126933   0.897   4.265  11.657 -1.0638  0.7179 -0.9531
 5158SOL    HW226934   1.042   4.263  11.669  1.3488  2.3526 -0.2137
 5159SOL     OW26935   3.564   2.163   4.498  0.0743 -0.2307 -0.0042
 5159SOL    HW126936   3.584   2.070   4.507  1.0089  0.2853  3.3146
 5159SOL    HW226937   3.515   2.177   4.579  2.3254 -2.7180  1.7883
 5160SOL     OW26938   3.162   1.292  11.091  0.1099 -0.1708  0.5318
 5160SOL    HW126939   3.246   1.247  11.079  0.8931  0.8761  2.1266
 5160SOL    HW226940   3.172   1.386  11.075 -0.1243 -0.2183  0.1092
 5161SOL     OW26941   1.184   4.663   8.958  0.3322 -0.2100 -0.2939
 5161SOL    HW126942   1.246   4.716   8.908  1.4184 -1.9057 -0.7365
 5161SOL    HW226943   1.135   0.007   9.005  0.3954 -0.7664  0.5824
 5162SOL     OW26944   2.344   2.335  16.525 -0.3216  0.0972 -0.5545
 5162SOL    HW126945   2.331   2.246  16.491 -0.0220 -0.8175  1.7248
 5162SOL    HW226946   2.428   2.322  16.568 -2.2824 -3.2915  2.2534
 5163SOL     OW26947   0.133   1.469  17.549  0.0646 -0.1659  0.0641
 5163SOL    HW126948   0.204   1.506  17.496 -0.1052  0.5342  0.3124
 5163SOL    HW226949   0.115   1.396  17.490  2.4591  0.2556 -1.1768
 5164SOL     OW26950   0.989   1.088   2.951  0.0779  0.2939 -0.1094
 5164SOL    HW126951   0.918   1.142   2.914 -0.7198 -0.6110  0.0854
 5164SOL    HW226952   0.947   1.055   3.030  0.3376  0.5649  0.1401
 5165SOL     OW26953   3.395   0.752   5.491 -0.4730 -0.0384 -0.0290
 5165SOL    HW126954   3.308   0.760   5.451 -1.3284  2.1724  2.2655
 5165SOL    HW226955   3.448   0.786   5.419 -4.1576  0.0491 -2.7483
 5166SOL     OW26956   3.214   2.110   1.853 -0.4671 -0.5692 -0.4364
 5166SOL    HW126957   3.254   2.074   1.932  0.1112  0.6725 -0.1609
 5166SOL    HW226958   3.266   2.190   1.850 -0.6473 -0.4641 -0.7546
 5167SOL     OW26959   4.507   0.025  11.020 -0.0338 -0.2347  0.7301
 5167SOL    HW126960   4.595   0.059  11.038  1.5561 -3.6320 -0.6060
 5167SOL    HW226961   4.447   0.060  11.087  0.2358  3.8743 -1.1805
 5168SOL     OW26962   4.708   4.324  10.424  0.6679 -0.2302 -0.2280
 5168SOL    HW126963   0.070   4.294  10.450  0.7040 -0.0489 -0.1338
 5168SOL    HW226964   4.656   4.247  10.446  1.9976 -1.1000 -0.1572
 5169SOL     OW26965   1.228   4.702   4.796  0.6506  0.0994  0.7177
 5169SOL    HW126966   1.215   0.023   4.712  0.8126  1.1214  1.2478
 5169SOL    HW226967   1.172   0.032   4.852  2.2621  2.5641 -0.0540
 5170SOL     OW26968   0.923   1.932   5.745  0.4771  0.2605 -0.7052
 5170SOL    HW126969   0.902   1.914   5.653  1.3386  1.4971 -1.1468
 5170SOL    HW226970   0.947   2.024   5.737  0.5117  0.4075  1.1988
 5171SOL     OW26971   0.155   2.635   8.209 -0.9879 -0.7822  0.4048
 5171SOL    HW126972   0.067   2.598   8.194 -0.3211 -1.9555 -0.5850
 5171SOL    HW226973   0.136   2.698   8.278  0.4577  1.6639 -1.4322
 5172SOL     OW26974   2.543   3.926   2.389 -0.6703 -0.0536 -0.0966
 5172SOL    HW126975   2.533   3.831   2.388 -1.8418  0.0745  0.0106
 5172SOL    HW226976   2.519   3.952   2.478  1.8653 -3.2101  1.5091
 5173SOL     OW26977   3.381   3.554   9.311 -0.5271 -0.1845  0.8035
 5173SOL    HW126978   3.426   3.605   9.379 -0.7486 -0.1027  0.8861
 5173SOL    HW226979   3.406   3.466   9.340  2.6163  0.2805 -0.4834
 5174SOL     OW26980   0.851   2.630  15.156  0.5711 -0.0284 -0.3908
 5174SOL    HW126981   0.760   2.656  15.169  0.6545 -0.3719  0.9292
 5174SOL    HW226982   0.884   2.681  15.082  0.8831  0.9892  0.4449
 5175SOL     OW26983   3.145   0.840   6.490  0.1430  0.2360 -0.2090
 5175SOL    HW126984   3.136   0.836   6.585 -1.7219 -0.9428 -0.4266
 5175SOL    HW226985   3.060   0.880   6.471  0.2869  0.2862 -0.7496
 5176SOL     OW26986   3.370   0.931   4.278  0.1672 -0.1969  0.1711
 5176SOL    HW126987   3.289   0.974   4.251 -0.4102 -2.2571 -1.4142
 5176SOL    HW226988   3.436   0.988   4.238 -0.8260  2.5916  2.5355
 5177SOL     OW26989   3.248   0.608   5.960  0.7721  0.1036  0.4335
 5177SOL    HW126990   3.280   0.607   6.050 -0.7129  0.1546  0.9649
 5177SOL    HW226991   3.292   0.675   5.907  0.2245  0.6453  0.6621
 5178SOL     OW26992   4.474   4.348  17.526  0.2702  0.2852  0.3546
 5178SOL    HW126993   4.537   4.378  17.591  2.5277 -3.1380 -0.3177
 5178SOL    HW226994   4.459   4.428  17.476 -0.6560  0.7076  1.2988
 5179SOL     OW26995   0.788   0.532  13.813 -0.0776 -0.0138  0.2146
 5179SOL    HW126996   0.882   0.530  13.825 -0.1064  0.3569  0.4850
 5179SOL    HW226997   0.769   0.572  13.728  1.3983  0.8072  0.2839
 5180SOL     OW26998   3.033   2.188   3.874 -0.2306  0.2414  0.2304
 5180SOL    HW126999   2.968   2.171   3.942 -0.5746  0.5493 -0.0258
 5180SOL    HW227000   3.088   2.254   3.915 -1.7701  1.4383  0.3426
 5181SOL     OW27001   0.375   0.927   2.240  0.0505 -0.3910 -0.3203
 5181SOL    HW127002   0.282   0.917   2.263  0.8840 -2.9735  1.9745
 5181SOL    HW227003   0.387   0.844   2.193  1.3462 -1.0699  1.1892
 5182SOL     OW27004   2.670   2.218  16.059 -0.1266  0.4417 -0.0363
 5182SOL    HW127005   2.667   2.258  15.972  0.0336  1.0195  0.2268
 5182SOL    HW227006   2.744   2.258  16.105 -1.7609  0.8854  2.2027
 5183SOL     OW27007   2.760   2.527  14.478  0.0946  0.9993 -0.2138
 5183SOL    HW127008   2.743   2.452  14.421 -1.5271  1.0735  0.1795
 5183SOL    HW227009   2.704   2.499  14.550  0.9118 -1.3776 -0.5145
 5184SOL     OW27010   0.478   1.642  11.400 -0.1288 -0.2890  0.0313
 5184SOL    HW127011   0.407   1.613  11.457 -0.0798  3.4550  2.0354
 5184SOL    HW227012   0.533   1.706  11.446  1.0890  0.0058 -1.8393
 5185SOL     OW27013   3.714   1.726  10.245  0.0847 -0.5260 -0.0082
 5185SOL    HW127014   3.784   1.736  10.309 -3.2949  1.5759  3.3447
 5185SOL    HW227015   3.641   1.706  10.304 -0.4025 -3.4782 -1.5883
 5186SOL     OW27016   2.601   4.459  16.258  0.1870 -0.4307 -0.1924
 5186SOL    HW127017   2.641   4.450  16.172  1.0898 -2.0847  0.4116
 5186SOL    HW227018   2.621   4.550  16.281  2.5354 -0.8788 -0.5169
 5187SOL     OW27019   0.874   1.791   2.642 -0.2421 -0.6431 -0.4884
 5187SOL    HW127020   0.913   1.798   2.555 -1.1307  1.6014 -0.7239
 5187SOL    HW227021   0.836   1.879   2.643  0.1822 -0.4793  1.0297
 5188SOL     OW27022   4.124   2.446   4.780  0.4384  0.5362 -0.1039
 5188SOL    HW127023   4.120   2.462   4.875  0.9551 -3.9017  0.6812
 5188SOL    HW227024   4.072   2.517   4.742 -0.3559 -1.3814 -2.5813
 5189SOL     OW27025   2.460   3.611   4.542 -0.4094  0.0047 -0.4318
 5189SOL    HW127026   2.463   3.705   4.523  1.2802  0.2287  0.8818
 5189SOL    HW227027   2.503   3.583   4.461  1.8249  2.6196 -0.1639
 5190SOL     OW27028   1.081   2.198   7.913 -0.2458 -0.7163 -0.1322
 5190SOL    HW127029   1.103   2.124   7.970 -2.7080 -1.1351  0.2561
 5190SOL    HW227030   1.118   2.271   7.964  0.9444 -2.8743  2.1362
 5191SOL     OW27031   4.232   1.289   1.526  0.3656 -0.3947  0.1499
 5191SOL    HW127032   4.149   1.306   1.481  0.5058  0.3342  0.1669
 5191SOL    HW227033   4.286   1.261   1.452  2.2515  1.9102  0.6526
 5192SOL     OW27034   4.017   4.140   4.179  0.1339  0.1185 -0.2779
 5192SOL    HW127035   4.044   4.212   4.123  1.9391 -1.9672 -2.0731
 5192SOL    HW227036   3.942   4.172   4.230 -0.4231 -1.5245 -0.0453
 5193SOL     OW27037   0.318   3.071  10.550  0.6081 -0.1806 -0.2538
 5193SOL    HW127038   0.357   3.145  10.502 -3.5232  1.4303 -1.0669
 5193SOL    HW227039   0.239   3.111  10.585  1.5858  2.0099 -0.4955
 5194SOL     OW27040   1.038   0.279   5.513  0.5988 -0.0911  0.3928
 5194SOL    HW127041   0.954   0.255   5.472  0.4713  1.4473 -0.2292
 5194SOL    HW227042   1.069   0.196   5.549 -2.0759 -0.5096  1.8123
 5195SOL     OW27043   0.264   3.134   1.787  0.1274  0.2705  0.8134
 5195SOL    HW127044   0.177   3.174   1.784 -0.2303 -0.5984 -0.4477
 5195SOL    HW227045   0.257   3.083   1.706 -1.9697 -0.5870  1.5429
 5196SOL     OW27046   0.447   2.185   2.791  0.0065 -0.0506  0.1752
 5196SOL    HW127047   0.508   2.255   2.813 -0.7239  0.9586 -0.9930
 5196SOL    HW227048   0.373   2.223   2.838 -0.1209 -0.1441  0.0493
 5197SOL     OW27049   1.089   2.255  10.025 -0.5211  1.0596  0.1596
 5197SOL    HW127050   1.162   2.207   9.987 -0.3783  2.8831 -1.8826
 5197SOL    HW227051   1.036   2.268   9.947 -0.1445  1.0795 -0.0939
 5198SOL     OW27052   3.828   4.624   2.731 -0.4281  0.3083  0.5294
 5198SOL    HW127053   3.836   4.538   2.690 -1.2927  1.8023 -2.7747
 5198SOL    HW227054   3.735   4.621   2.756 -0.4641  1.4423  0.5319
 5199SOL     OW27055   2.289   0.141  17.318 -0.5983 -0.3316  0.3232
 5199SOL    HW127056   2.293   0.151  17.414 -0.4407 -0.4233  0.3265
 5199SOL    HW227057   2.194   0.134  17.306 -0.5041 -0.4372 -0.3168
 5200SOL     OW27058   2.918   2.929   8.367  0.2830  0.0426  0.1332
 5200SOL    HW127059   2.824   2.913   8.378  0.3399 -1.5944 -1.5643
 5200SOL    HW227060   2.914   3.024   8.363 -4.2810 -0.2031 -1.5274
 5201SOL     OW27061   1.497   3.453   1.956  0.5841 -0.2061 -0.5034
 5201SOL    HW127062   1.581   3.421   1.925  1.1514 -0.2640  1.0874
 5201SOL    HW227063   1.462   3.508   1.886  0.9045  0.1425 -0.3883
 5202SOL     OW27064   2.138   3.598   3.252  0.0901  0.2887  0.1881
 5202SOL    HW127065   2.225   3.573   3.281 -0.1566 -1.1340 -0.3199
 5202SOL    HW227066   2.100   3.512   3.234 -0.3916 -0.2527  3.7710
 5203SOL     OW27067   2.599   3.795   9.582 -0.1641  0.2586  0.4127
 5203SOL    HW127068   2.580   3.773   9.673  0.8633  0.6866  0.7424
 5203SOL    HW227069   2.665   3.728   9.566 -1.7380 -0.8164 -1.5268
 5204SOL     OW27070   2.549   3.151   8.372  0.1080  0.3341 -0.1267
 5204SOL    HW127071   2.464   3.145   8.417 -1.1519 -1.4052 -2.7641
 5204SOL    HW227072   2.576   3.239   8.398 -1.4241  0.3928  1.2927
 5205SOL     OW27073   2.583   0.096  15.268 -0.2095 -0.0381 -0.8721
 5205SOL    HW127074   2.637   0.162  15.226  1.3571  0.1245  1.3905
 5205SOL    HW227075   2.507   0.099  15.210  0.1548 -1.0799 -1.4154
 5206SOL     OW27076   4.273   2.012   1.744  0.0287 -0.0758  0.6175
 5206SOL    HW127077   4.246   2.035   1.833 -1.7903 -0.7983  0.2600
 5206SOL    HW227078   4.313   1.932   1.779 -0.0693  0.3136  1.6250
 5207SOL     OW27079   1.460   0.547   6.872 -0.4252 -0.4162 -0.2084
 5207SOL    HW127080   1.397   0.481   6.845  0.3764 -1.3871  0.3121
 5207SOL    HW227081   1.505   0.504   6.945 -0.1996  0.4438  0.1668
 5208SOL     OW27082   1.530   1.016   8.491  0.2082  0.2243 -0.4944
 5208SOL    HW127083   1.499   0.933   8.525  0.9584  0.4066  0.6609
 5208SOL    HW227084   1.554   1.059   8.573 -1.8112 -1.1579  0.7795
 5209SOL     OW27085   0.147   2.453  13.812 -0.1603 -0.4678  0.1900
 5209SOL    HW127086   0.073   2.421  13.760  1.0597 -1.3650 -1.0045
 5209SOL    HW227087   0.099   2.522  13.857  1.8286  3.2429 -3.4084
 5210SOL     OW27088   3.769   4.002   8.427 -0.5874  0.2539  0.4852
 5210SOL    HW127089   3.862   3.997   8.447 -0.1364  0.1690 -1.6524
 5210SOL    HW227090   3.732   3.925   8.469  1.4322 -1.1518 -0.3569
 5211SOL     OW27091   0.008   3.116  14.456 -0.2450  0.1815  0.1701
 5211SOL    HW127092   4.695   3.029  14.440  0.3791  0.2591 -1.7275
 5211SOL    HW227093   0.055   3.086  14.533  1.3706  0.1689 -0.8344
 5212SOL     OW27094   0.414   1.440  14.877 -0.3604  0.0551  0.6196
 5212SOL    HW127095   0.427   1.435  14.782  0.2884 -1.7353  0.7984
 5212SOL    HW227096   0.325   1.474  14.885  0.0743  1.0869  1.1629
 5213SOL     OW27097   2.577   2.718  16.083  0.0629  0.2790  0.3168
 5213SOL    HW127098   2.556   2.809  16.103  1.2371  0.7938 -0.8120
 5213SOL    HW227099   2.487   2.687  16.074  0.3031  0.4323 -2.7325
 5214SOL     OW27100   0.093   0.239   4.009 -0.1726 -0.1788  0.5085
 5214SOL    HW127101   0.069   0.290   3.932 -2.3638 -0.8856  0.7062
 5214SOL    HW227102   0.012   0.253   4.059 -0.1169  0.7010  0.3601
 5215SOL     OW27103   0.960   0.450   7.274 -0.4555  0.0058 -0.3884
 5215SOL    HW127104   0.979   0.412   7.189 -0.3395 -1.9855  0.5260
 5215SOL    HW227105   1.032   0.415   7.326 -0.8050 -4.0053 -2.5785
 5216SOL     OW27106   0.004   0.453  16.654 -0.3005 -0.1806 -0.4854
 5216SOL    HW127107   4.689   0.506  16.724  1.9239  0.3401  0.3639
 5216SOL    HW227108   0.076   0.418  16.708 -2.5639  0.8738  3.2317
 5217SOL     OW27109   0.591   0.447  15.906  0.5984 -0.2121  0.1022
 5217SOL    HW127110   0.550   0.465  15.821  0.8701 -0.9804 -0.1899
 5217SOL    HW227111   0.683   0.446  15.881  0.5384 -1.0802 -0.0741
 5218SOL     OW27112   2.365   3.667   8.551  0.1535 -0.3890  0.3342
 5218SOL    HW127113   2.339   3.739   8.607 -0.4293 -1.6226  1.6589
 5218SOL    HW227114   2.375   3.603   8.621 -1.1065 -0.6544  0.2760
 5219SOL     OW27115   4.660   2.129   2.542  0.8461  0.0138 -0.0776
 5219SOL    HW127116   4.700   2.101   2.624  0.4305 -0.5552 -0.0718
 5219SOL    HW227117   4.688   2.053   2.491  0.9730 -0.5204  0.7950
 5220SOL     OW27118   2.694   1.801   6.455 -0.0467 -0.5122  0.2090
 5220SOL    HW127119   2.778   1.757   6.471  1.8419  3.1881  0.3679
 5220SOL    HW227120   2.662   1.816   6.544 -2.8986 -1.3966 -0.6793
 5221SOL     OW27121   1.307   3.514  14.153 -0.3147  0.8082 -0.2009
 5221SOL    HW127122   1.327   3.528  14.246 -1.2132 -3.4786  0.6635
 5221SOL    HW227123   1.258   3.591  14.125  1.0223  2.0180  0.8184
 5222SOL     OW27124   0.887   2.637   3.670  0.5250 -0.1291 -0.3910
 5222SOL    HW127125   0.802   2.631   3.628  0.7148  1.8941 -1.1067
 5222SOL    HW227126   0.946   2.594   3.609  1.0534  0.4660 -0.3018
 5223SOL     OW27127   0.327   1.144  12.322  0.0137  0.0663  0.3275
 5223SOL    HW127128   0.297   1.053  12.316  0.0212  0.1412 -0.8815
 5223SOL    HW227129   0.256   1.188  12.368 -0.1281 -0.4917  0.6390
 5224SOL     OW27130   4.467   2.926   1.827  0.0306 -0.1164 -0.3900
 5224SOL    HW127131   4.510   2.842   1.842  0.5929 -0.2395 -2.6482
 5224SOL    HW227132   4.437   2.961   1.911 -0.1706  0.0102 -0.5140
 5225SOL     OW27133   4.670   2.645   1.874  0.0164  0.0495 -0.2280
 5225SOL    HW127134   0.024   2.594   1.897  1.3808  1.0941 -2.5553
 5225SOL    HW227135   4.705   2.727   1.907 -0.5842 -0.4388  1.6595
 5226SOL     OW27136   3.281   4.223   8.726 -0.6086 -0.4763 -0.1587
 5226SOL    HW127137   3.214   4.156   8.713 -0.0572 -1.4531  1.9162
 5226SOL    HW227138   3.336   4.201   8.651  1.2429 -1.8589  1.6200
 5227SOL     OW27139   0.956   1.356   3.175  0.0927  0.1202  0.1772
 5227SOL    HW127140   0.912   1.284   3.220 -0.0802  0.3711  0.4061
 5227SOL    HW227141   1.009   1.316   3.106 -0.7279 -0.5542 -0.0691
 5228SOL     OW27142   3.967   0.334   4.696  0.1027  0.0251 -0.8644
 5228SOL    HW127143   3.961   0.416   4.745 -0.9560  0.9151 -2.4422
 5228SOL    HW227144   3.894   0.281   4.727 -0.8796  3.4868  2.7405
 5229SOL     OW27145   3.585   0.154   2.866  0.0268  0.3234  0.2398
 5229SOL    HW127146   3.585   0.074   2.813  3.7398 -1.1951  2.5640
 5229SOL    HW227147   3.673   0.163   2.901 -1.2077  1.1328  3.1817
 5230SOL     OW27148   0.642   2.410   4.589 -0.3000 -0.8062 -0.4448
 5230SOL    HW127149   0.580   2.379   4.523 -3.1335  1.9490  0.9093
 5230SOL    HW227150   0.683   2.482   4.541  0.0051  0.4840  1.7562
 5231SOL     OW27151   2.071   4.093   6.916  0.0544 -0.4763  0.0682
 5231SOL    HW127152   2.095   4.166   6.860 -1.5140  0.6166  0.8086
 5231SOL    HW227153   1.975   4.087   6.916  0.0925 -1.0854 -0.2781
 5232SOL     OW27154   1.822   3.422   4.019  0.1158  0.0086 -0.2213
 5232SOL    HW127155   1.910   3.429   3.983 -0.4828 -1.3172 -1.9422
 5232SOL    HW227156   1.801   3.329   4.011  0.2498 -0.1269  0.9130
 5233SOL     OW27157   2.308   3.802  16.601  0.1110  0.0778 -0.2179
 5233SOL    HW127158   2.306   3.785  16.696 -1.2479  0.8892 -0.1058
 5233SOL    HW227159   2.402   3.814  16.586  0.6598 -2.6559  0.9238
 5234SOL     OW27160   3.474   1.783   2.641 -0.1516 -0.0970 -0.4327
 5234SOL    HW127161   3.403   1.720   2.629  0.6028 -0.5334 -2.5972
 5234SOL    HW227162   3.433   1.869   2.628 -0.9453 -0.6513 -1.6375
 5235SOL     OW27163   3.424   0.767   3.095 -0.0099  0.2158 -0.2137
 5235SOL    HW127164   3.486   0.840   3.097 -1.3667  1.3995 -1.1247
 5235SOL    HW227165   3.450   0.728   3.179 -0.0114  0.4316 -0.1123
 5236SOL     OW27166   4.429   0.320   5.286 -0.8537 -0.7576 -0.4160
 5236SOL    HW127167   4.463   0.408   5.297 -0.6105 -0.7417 -1.3369
 5236SOL    HW227168   4.466   0.304   5.199 -0.8922 -1.2404 -0.3436
 5237SOL     OW27169   0.178   3.636   3.230  0.0411  0.0223  0.0117
 5237SOL    HW127170   0.229   3.706   3.271  1.8075 -1.7699  0.9138
 5237SOL    HW227171   0.241   3.569   3.201 -0.7471 -1.5277  1.8657
 5238SOL     OW27172   0.890   4.104   5.561  0.3415 -0.8582  0.2661
 5238SOL    HW127173   0.980   4.119   5.532  0.1822  2.1170  1.2951
 5238SOL    HW227174   0.893   4.167   5.633 -0.4676 -0.1871 -0.2826
 5239SOL     OW27175   0.072   1.989   5.912 -0.4692  0.0799  0.7089
 5239SOL    HW127176   0.027   1.965   5.831  0.2980 -2.5195  1.0702
 5239SOL    HW227177   0.129   2.061   5.885 -0.3024  0.3595  1.8080
 5240SOL     OW27178   3.705   3.550   4.714  0.4480  0.0441  0.2819
 5240SOL    HW127179   3.620   3.533   4.675  0.6168 -2.3355  0.9614
 5240SOL    HW227180   3.744   3.464   4.700 -4.3688 -2.1215  0.2437
 5241SOL     OW27181   0.801   2.163   1.476 -0.6109  0.2871  0.4543
 5241SOL    HW127182   0.887   2.205   1.476 -1.9531  3.0194  1.1858
 5241SOL    HW227183   0.753   2.224   1.532 -1.1262  1.2520 -1.0685
 5242SOL     OW27184   1.418   3.424  16.194  0.0255  0.2130 -0.0796
 5242SOL    HW127185   1.489   3.488  16.185 -0.1117  0.6516  1.8383
 5242SOL    HW227186   1.471   3.350  16.223 -1.8808 -1.1279  0.0186
 5243SOL     OW27187   4.198   3.160  16.077 -0.0650  0.6853 -0.0993
 5243SOL    HW127188   4.236   3.212  16.147  0.3778 -0.3274  0.4129
 5243SOL    HW227189   4.238   3.213  16.008 -2.5146  1.1983 -1.1083
 5244SOL     OW27190   4.339   4.711   9.482 -0.3322 -0.1310  0.3027
 5244SOL    HW127191   4.258   4.700   9.531  0.0363  0.2283  0.9919
 5244SOL    HW227192   4.379   0.061   9.528  0.4952 -1.2537  1.4253
 5245SOL     OW27193   3.759   0.308   9.084 -0.0829  0.3673 -0.0828
 5245SOL    HW127194   3.797   0.295   9.172 -0.5292  0.3919  0.1126
 5245SOL    HW227195   3.670   0.275   9.097  0.4218 -1.6302 -1.7117
 5246SOL     OW27196   1.985   1.180   0.416 -0.3177 -0.0904 -0.0716
 5246SOL    HW127197   2.074   1.148   0.403  0.2440  0.2309  3.0094
 5246SOL    HW227198   1.957   1.213   0.331  0.4193 -1.1586 -0.7243
 5247SOL     OW27199   3.118   0.593   6.316 -0.2313  0.1787  0.2950
 5247SOL    HW127200   3.130   0.673   6.366 -1.2156  0.4679  0.0717
 5247SOL    HW227201   3.040   0.561   6.362 -0.2241 -1.1069 -0.5774
 5248SOL     OW27202   2.514   3.840   6.205  0.0702 -0.7026  0.0092
 5248SOL    HW127203   2.515   3.773   6.274  1.5387 -1.9584 -1.2318
 5248SOL    HW227204   2.592   3.892   6.224  0.3756 -0.3427 -2.2021
 5249SOL     OW27205   2.144   3.372  16.544  0.0844  0.5752 -0.5269
 5249SOL    HW127206   2.118   3.403  16.631 -2.0006  0.3400 -1.0762
 5249SOL    HW227207   2.186   3.452  16.510 -2.3751 -0.7224 -6.5816
 5250SOL     OW27208   3.012   3.975   2.780 -0.4193  0.2331 -0.1499
 5250SOL    HW127209   3.011   3.911   2.851 -1.1519  0.6640  0.2147
 5250SOL    HW227210   2.949   3.941   2.716  1.4480  0.3973 -2.0831
 5251SOL     OW27211   1.143   0.532   5.401  0.1029  0.0548  0.1492
 5251SOL    HW127212   1.233   0.528   5.434 -0.2809 -3.8989  0.7880
 5251SOL    HW227213   1.112   0.442   5.411  3.4426 -1.3187 -1.5141
 5252SOL     OW27214   0.967   2.188   0.692 -0.3795 -0.3060 -0.8582
 5252SOL    HW127215   1.021   2.137   0.752 -0.1672 -0.9139 -1.5679
 5252SOL    HW227216   0.913   2.122   0.648 -2.5630  0.7852  0.1857
 5253SOL     OW27217   1.368   1.667   7.487 -0.2101  0.3255 -0.1748
 5253SOL    HW127218   1.275   1.678   7.466 -0.9346 -2.4508  1.6040
 5253SOL    HW227219   1.379   1.578   7.521 -3.1951  0.6601  1.7010
 5254SOL     OW27220   2.236   1.802   5.122  1.0157  0.3920 -0.0119
 5254SOL    HW127221   2.254   1.775   5.032  1.0626 -0.3399  0.2122
 5254SOL    HW227222   2.175   1.873   5.102  2.2178  1.2652 -0.5647
 5255SOL     OW27223   0.246   0.729  16.792  0.5439 -0.5850  0.2396
 5255SOL    HW127224   0.164   0.702  16.834 -0.7739  1.4688 -1.0605
 5255SOL    HW227225   0.232   0.697  16.703  0.6782 -1.3486  0.4836
 5256SOL     OW27226   3.320   0.473   3.234  0.1724  0.2310 -0.2238
 5256SOL    HW127227   3.379   0.545   3.256 -0.2924  0.2832  0.8772
 5256SOL    HW227228   3.380   0.411   3.274  0.2614  1.3393  1.3617
 5257SOL     OW27229   3.946   2.054   9.110 -0.5869 -0.1550  0.4526
 5257SOL    HW127230   4.025   2.103   9.092 -0.2902 -0.6948  0.2826
 5257SOL    HW227231   3.970   1.971   9.068 -1.5628 -0.2429  0.0602
 5258SOL     OW27232   3.677   4.632   9.005  0.2110  0.0043  0.0912
 5258SOL    HW127233   3.713   4.543   8.997  0.9685  0.2771  0.4477
 5258SOL    HW227234   3.743   4.686   8.962  0.8132 -0.1520  0.8173
 5259SOL     OW27235   0.787   4.479   8.639  0.6998  0.3065  0.3089
 5259SOL    HW127236   0.848   4.406   8.628 -0.4962 -0.7271  0.5000
 5259SOL    HW227237   0.837   4.533   8.700 -0.1395 -0.3143  1.5412
 5260SOL     OW27238   1.034   1.447   9.123  0.4861  0.0351 -0.1547
 5260SOL    HW127239   1.111   1.468   9.175 -0.7043  2.5874  0.5518
 5260SOL    HW227240   0.989   1.528   9.099 -0.8568 -0.4645  0.7143
 5261SOL     OW27241   1.367   1.037   6.425  0.4749 -0.1107 -0.2354
 5261SOL    HW127242   1.423   1.028   6.503  0.4676 -2.0162 -0.4431
 5261SOL    HW227243   1.287   0.992   6.452  0.2478 -0.0738 -0.8612
 5262SOL     OW27244   1.901   2.630  10.889  0.6654  0.4446  0.2934
 5262SOL    HW127245   1.932   2.631  10.979 -1.3972  1.5665  0.9885
 5262SOL    HW227246   1.882   2.723  10.872 -1.1669  0.0669  0.2732
 5263SOL     OW27247   2.713   3.465   5.462 -0.4727  0.3639  0.1100
 5263SOL    HW127248   2.789   3.466   5.403  0.4816 -4.2415  1.2757
 5263SOL    HW227249   2.713   3.557   5.489 -0.0505  0.7989 -1.3461
 5264SOL     OW27250   2.023   1.149   8.579  0.2684  0.4704  0.0595
 5264SOL    HW127251   1.989   1.237   8.562  0.3197  0.7531  1.4264
 5264SOL    HW227252   1.998   1.132   8.669 -0.5465 -0.1708 -0.2886
 5265SOL     OW27253   2.931   3.387   5.792 -0.5998  1.0292 -0.4922
 5265SOL    HW127254   2.918   3.406   5.699 -1.3787  3.4607  0.1112
 5265SOL    HW227255   2.935   3.476   5.827 -0.0936  0.1207  1.6984
 5266SOL     OW27256   2.998   1.199   2.387  0.5292 -0.4333 -0.1840
 5266SOL    HW127257   2.972   1.110   2.364 -0.9009  0.0209 -0.3572
 5266SOL    HW227258   2.968   1.253   2.313  0.2948 -1.3044 -0.7179
 5267SOL     OW27259   0.591   4.083   7.877  0.4589 -0.0161  0.1852
 5267SOL    HW127260   0.659   4.071   7.943 -1.7002 -0.3352  2.3721
 5267SOL    HW227261   0.545   4.001   7.895  2.3561 -0.9689  0.6475
 5268SOL     OW27262   3.233   1.979   4.307 -0.7879  0.1551  0.4405
 5268SOL    HW127263   3.324   1.996   4.283 -1.2134  0.0185 -1.2910
 5268SOL    HW227264   3.195   2.047   4.252 -0.9090  0.3005  0.7047
 5269SOL     OW27265   0.166   0.382   3.272 -0.2246  0.5738  0.3246
 5269SOL    HW127266   0.220   0.355   3.197 -0.3802  0.1699  0.3560
 5269SOL    HW227267   0.244   0.390   3.327  0.0532 -0.2331  0.0514
 5270SOL     OW27268   1.284   0.887   4.887 -0.3689 -0.8560  0.4244
 5270SOL    HW127269   1.245   0.944   4.820  2.0327 -0.6212 -0.7548
 5270SOL    HW227270   1.204   0.885   4.940 -1.4007  0.3670 -1.0830
 5271SOL     OW27271   1.726   2.400   7.663  0.1672  0.5673 -0.2828
 5271SOL    HW127272   1.693   2.321   7.706 -0.3832  1.5138  1.0413
 5271SOL    HW227273   1.813   2.405   7.701 -1.0727  1.2502  2.4882
 5272SOL     OW27274   3.607   4.141   5.718 -0.4367 -0.0346  1.0375
 5272SOL    HW127275   3.700   4.141   5.699 -1.1098 -0.5097 -2.2025
 5272SOL    HW227276   3.601   4.061   5.770  2.3564 -0.5140  0.5846
 5273SOL     OW27277   0.794   0.179   7.193  0.3928 -0.1115  0.2403
 5273SOL    HW127278   0.889   0.167   7.200  0.5523  0.6045 -0.7067
 5273SOL    HW227279   0.778   0.252   7.133 -0.0175 -2.2821 -2.2845
 5274SOL     OW27280   1.410   1.413   7.583 -0.1736  0.3546 -0.2043
 5274SOL    HW127281   1.476   1.371   7.529 -0.8316  0.3429 -1.0035
 5274SOL    HW227282   1.461   1.402   7.663 -1.6034  0.0469  0.6749
 5275SOL     OW27283   0.982   4.554   6.106  0.1728 -0.4097 -0.4305
 5275SOL    HW127284   1.067   4.567   6.063  0.1971 -3.5697 -1.3495
 5275SOL    HW227285   0.950   4.497   6.036  0.0691  0.9642 -1.5003
 5276SOL     OW27286   3.068   1.956   6.434  0.0456 -0.3685  0.3312
 5276SOL    HW127287   3.119   1.976   6.356 -1.3283  1.4338 -0.0870
 5276SOL    HW227288   2.980   1.982   6.407  0.0467  0.6345  1.3121
 5277SOL     OW27289   1.256   0.547   4.969 -0.6570  1.0079 -0.2659
 5277SOL    HW127290   1.181   0.492   4.947 -0.0765  0.1673 -0.1461
 5277SOL    HW227291   1.218   0.617   5.022 -0.6797  1.8477 -1.4018
 5278SOL     OW27292   1.204   2.936  15.939 -0.2993  0.5669 -0.0278
 5278SOL    HW127293   1.234   3.016  15.983 -2.8392  0.7912  1.2951
 5278SOL    HW227294   1.112   2.938  15.964  0.1633  0.4274  1.7343
 5279SOL     OW27295   0.496   3.004   9.077 -0.1033  0.3849 -0.3994
 5279SOL    HW127296   0.574   2.981   9.128 -0.7349  1.2735  0.9578
 5279SOL    HW227297   0.470   2.919   9.042  1.0524 -0.1083 -0.0815
 5280SOL     OW27298   4.675   1.733   8.839  0.1443 -0.1139  0.0378
 5280SOL    HW127299   0.016   1.682   8.791 -0.1198 -1.7545  1.3943
 5280SOL    HW227300   4.700   1.819   8.808 -1.7584 -0.1428 -1.5642
 5281SOL     OW27301   1.874   2.252   1.535  0.0883 -0.3832 -0.4340
 5281SOL    HW127302   1.872   2.245   1.631  1.4885  2.2181 -0.2044
 5281SOL    HW227303   1.913   2.340   1.536 -0.3841 -0.1855  1.1859
 5282SOL     OW27304   3.294   4.384   2.717 -0.1154  0.2663  0.5894
 5282SOL    HW127305   3.225   4.318   2.705  0.6488 -0.7003  1.5454
 5282SOL    HW227306   3.240   4.435   2.778 -1.2998  0.8817 -0.9568
 5283SOL     OW27307   1.077   0.894   6.829 -0.6709 -0.1128  0.3297
 5283SOL    HW127308   1.129   0.828   6.874  1.7205  0.6493 -1.3006
 5283SOL    HW227309   1.056   0.953   6.902  1.3777 -1.3245  1.9162
 5284SOL     OW27310   0.908   1.954  11.716  0.3294 -0.0088 -0.1273
 5284SOL    HW127311   0.958   2.035  11.706  2.3083 -1.1636  0.3103
 5284SOL    HW227312   0.965   1.900  11.661  2.1008 -0.7247  2.4194
 5285SOL     OW27313   2.314   1.882  16.836  0.1860  0.0546  0.2777
 5285SOL    HW127314   2.312   1.819  16.907  0.0663  0.1315  0.3440
 5285SOL    HW227315   2.377   1.844  16.775  1.4655  1.4545  0.7258
 5286SOL     OW27316   4.684   3.779   7.143 -0.0153 -0.2349 -0.0281
 5286SOL    HW127317   4.657   3.870   7.139  2.6666  0.4940 -1.5674
 5286SOL    HW227318   0.055   3.783   7.155 -0.4201  0.1401  3.0684
 5287SOL     OW27319   0.154   0.207   7.684  0.5296 -0.3587 -0.1024
 5287SOL    HW127320   0.108   0.251   7.755 -0.7599 -0.2170 -1.0235
 5287SOL    HW227321   0.240   0.191   7.724 -0.5569  0.3968  2.5174
 5288SOL     OW27322   1.542   1.186   4.393  0.2034 -0.1967  0.2321
 5288SOL    HW127323   1.617   1.239   4.367 -0.9017  1.1312 -0.1966
 5288SOL    HW227324   1.488   1.250   4.439 -1.5219 -0.2179 -1.7577
 5289SOL     OW27325   4.222   2.875   1.738  0.3209 -0.1799  0.2415
 5289SOL    HW127326   4.316   2.857   1.742  0.3236 -0.5414 -1.5568
 5289SOL    HW227327   4.215   2.941   1.807  0.6566 -1.1069  1.1525
 5290SOL     OW27328   2.949   0.625   2.584 -0.1187  0.4483 -0.1295
 5290SOL    HW127329   3.012   0.617   2.512  3.5714  1.8828  2.8866
 5290SOL    HW227330   2.994   0.564   2.643  0.0898 -0.5064 -1.2701
 5291SOL     OW27331   0.960   4.711   5.635  0.7451  0.2537  0.3996
 5291SOL    HW127332   1.033   0.020   5.686  1.4116 -0.4294 -0.1065
 5291SOL    HW227333   0.986   4.619   5.628  1.1200  0.4346 -0.5232
 5292SOL     OW27334   3.233   3.980  16.866 -0.0210  0.5350 -0.4621
 5292SOL    HW127335   3.317   3.937  16.851 -0.1320  0.1422  0.0520
 5292SOL    HW227336   3.252   4.067  16.900  0.4380 -0.2785  1.3718
 5293SOL     OW27337   3.339   0.759  15.924 -0.4312 -0.0319  0.1812
 5293SOL    HW127338   3.352   0.664  15.920  1.4750  0.2092  0.7444
 5293SOL    HW227339   3.252   0.760  15.963 -0.7510 -0.7635 -0.5061
 5294SOL     OW27340   0.804   1.951   3.228  0.2988  0.2514  0.4884
 5294SOL    HW127341   0.710   1.954   3.209  0.3661 -1.0375 -0.0873
 5294SOL    HW227342   0.812   1.859   3.253 -0.1654  0.0981  0.0666
 5295SOL     OW27343   0.795   3.994   4.884 -0.3588 -0.4995 -0.1890
 5295SOL    HW127344   0.882   4.004   4.924 -1.0341 -1.1519  1.4661
 5295SOL    HW227345   0.825   3.955   4.802 -0.6364  0.7068 -0.8479
 5296SOL     OW27346   4.634   2.391   2.537 -0.1552 -0.7529  0.0917
 5296SOL    HW127347   4.653   2.300   2.512  2.5856 -0.6306  1.6936
 5296SOL    HW227348   4.714   2.420   2.580  0.6699 -0.6167 -1.5393
 5297SOL     OW27349   1.303   0.677   8.230  0.1696 -0.5009  0.4091
 5297SOL    HW127350   1.397   0.699   8.228  0.1718 -0.7448 -1.8350
 5297SOL    HW227351   1.314   0.596   8.279 -3.3569 -0.2151  1.6568
 5298SOL     OW27352   3.619   0.017   9.748  0.6455  0.5537 -0.1682
 5298SOL    HW127353   3.601   4.664   9.802  0.5120  1.6955  1.3946
 5298SOL    HW227354   3.708   4.724   9.716  0.1199 -0.9253 -0.8189
 5299SOL     OW27355   0.616   2.837   4.440  0.5813 -0.3154 -0.4032
 5299SOL    HW127356   0.622   2.881   4.525 -2.9163 -0.1615 -0.2401
 5299SOL    HW227357   0.578   2.906   4.385 -1.6098  0.6164  2.2319
 5300SOL     OW27358   0.762   2.361   0.720  0.8383 -0.0421 -0.2299
 5300SOL    HW127359   0.775   2.400   0.633  2.5042 -1.6161 -0.6820
 5300SOL    HW227360   0.830   2.294   0.717 -0.4812 -1.4116  0.0030
 5301SOL     OW27361   3.274   3.183   1.909 -0.3178 -0.1649  0.1208
 5301SOL    HW127362   3.314   3.195   1.996 -0.5718  1.1672  0.0497
 5301SOL    HW227363   3.237   3.268   1.888  0.2936  0.2834  0.8384
 5302SOL     OW27364   0.578   1.328  12.591  0.0071  0.1768  0.1060
 5302SOL    HW127365   0.624   1.263  12.644 -0.2689 -1.1427 -1.2571
 5302SOL    HW227366   0.634   1.404  12.606  1.0607 -1.2455  3.3840
 5303SOL     OW27367   1.202   4.519   4.336  0.4326 -0.1200 -0.4439
 5303SOL    HW127368   1.110   4.532   4.313  0.3796 -0.0698 -0.2043
 5303SOL    HW227369   1.239   4.499   4.250  2.5740  0.1313  0.4441
 5304SOL     OW27370   0.168   2.440  17.690  0.3053 -0.0416  0.0020
 5304SOL    HW127371   0.237   2.400   0.045  0.6908  1.0520  0.3310
 5304SOL    HW227372   0.141   2.375  17.627 -2.0152  2.1198 -1.2384
 5305SOL     OW27373   1.757   2.290  12.075 -0.0756 -0.4217  0.2103
 5305SOL    HW127374   1.740   2.365  12.017 -2.2746  0.5769  2.1595
 5305SOL    HW227375   1.742   2.335  12.158 -0.4829  0.2002 -0.1998
 5306SOL     OW27376   0.720   2.370   1.633 -0.6775 -0.7007 -0.1620
 5306SOL    HW127377   0.692   2.382   1.724  0.5240  0.8597 -0.0036
 5306SOL    HW227378   0.810   2.402   1.628 -0.8597 -0.3422 -1.3698
 5307SOL     OW27379   2.469   1.918  14.342  0.8385  0.2162  0.0865
 5307SOL    HW127380   2.448   1.837  14.296  1.1541  0.2666 -0.1537
 5307SOL    HW227381   2.392   1.973  14.327  0.2328 -0.5253  0.5329
 5308SOL     OW27382   1.692   0.220   2.391  0.7672  0.5426 -0.0930
 5308SOL    HW127383   1.695   0.292   2.454 -1.5401  1.1849 -0.7504
 5308SOL    HW227384   1.627   0.166   2.437 -0.0880  1.3249 -0.4020
 5309SOL     OW27385   3.031   1.979   5.040  0.0787  0.0441 -0.3477
 5309SOL    HW127386   3.122   1.954   5.059  0.2125  1.3315  0.7565
 5309SOL    HW227387   3.018   2.045   5.109 -2.0717 -0.9218  0.1443
 5310SOL     OW27388   4.611   3.390   4.228  0.3569  0.4463  0.0915
 5310SOL    HW127389   4.639   3.472   4.269 -0.1254 -0.1416  1.6111
 5310SOL    HW227390   4.656   3.330   4.287  0.6410  2.2106  1.6935
 5311SOL     OW27391   3.940   3.481   1.953 -0.1722 -0.4574  0.0746
 5311SOL    HW127392   4.029   3.449   1.970 -0.2517  0.9041  3.0197
 5311SOL    HW227393   3.923   3.422   1.880 -1.1500 -1.1527  0.8857
 5312SOL     OW27394   3.337   2.344  12.147 -0.3941  0.6457 -0.3014
 5312SOL    HW127395   3.386   2.326  12.227 -2.1651 -1.8598  0.2412
 5312SOL    HW227396   3.273   2.403  12.187 -0.2916 -0.0475  0.8781
 5313SOL     OW27397   1.910   3.816   5.853 -0.3800  0.2007 -0.0773
 5313SOL    HW127398   1.833   3.792   5.802  0.3523  0.8638 -1.5194
 5313SOL    HW227399   1.968   3.746   5.824 -2.7015 -0.8791 -2.0774
 5314SOL     OW27400   2.397   1.565   5.685  0.3819 -0.4037  0.5523
 5314SOL    HW127401   2.379   1.472   5.671 -0.0003 -0.2811  0.2383
 5314SOL    HW227402   2.319   1.609   5.650  0.3700 -1.1427 -0.3645
 5315SOL     OW27403   1.026   1.082   7.024 -0.6261 -0.2743 -0.1011
 5315SOL    HW127404   1.049   1.174   7.033  0.2540 -0.4735 -0.3169
 5315SOL    HW227405   0.964   1.072   7.097  0.6122 -1.5147  0.7740
 5316SOL     OW27406   1.212   1.819   1.252  0.4275  0.0338 -0.3372
 5316SOL    HW127407   1.302   1.830   1.282  1.1805  0.1203 -2.6558
 5316SOL    HW227408   1.226   1.732   1.214 -3.9389 -0.3191 -1.1766
 5317SOL     OW27409   0.699   2.681   2.309  0.1110  0.0832  0.2189
 5317SOL    HW127410   0.707   2.744   2.237 -0.2082 -1.8372 -1.4939
 5317SOL    HW227411   0.750   2.725   2.377  0.7829  0.8773 -0.7995
 5318SOL     OW27412   1.549   3.255  10.511 -0.2700 -0.2821 -0.2694
 5318SOL    HW127413   1.631   3.214  10.540  0.3720  0.7549 -0.5898
 5318SOL    HW227414   1.529   3.301  10.593 -0.0770  0.7879 -0.8242
 5319SOL     OW27415   0.448   1.025   3.101  0.1038 -0.1398  0.1590
 5319SOL    HW127416   0.372   1.015   3.157 -0.4401  0.7594 -0.4269
 5319SOL    HW227417   0.460   0.934   3.073  0.7466 -0.2694  0.8476
 5320SOL     OW27418   4.623   2.510   7.471 -0.1715 -0.3615 -0.2485
 5320SOL    HW127419   4.601   2.603   7.462 -1.1850 -0.5184  0.6405
 5320SOL    HW227420   4.541   2.470   7.501  0.6197 -0.9141  1.1580
 5321SOL     OW27421   4.052   3.309   0.849  0.3554  0.0530 -0.0246
 5321SOL    HW127422   4.039   3.230   0.901 -0.1625 -0.6284 -1.2021
 5321SOL    HW227423   4.020   3.377   0.908 -0.6443  0.1711 -0.7171
 5322SOL     OW27424   3.586   3.658   8.141 -0.1073  0.1156  0.0297
 5322SOL    HW127425   3.638   3.669   8.062 -1.2964 -1.6107 -0.9764
 5322SOL    HW227426   3.537   3.579   8.120 -0.8320  0.1771  1.4842
 5323SOL     OW27427   2.050   3.895   7.642 -0.1719 -0.6290 -0.5685
 5323SOL    HW127428   2.022   3.949   7.567  2.4165  1.5514  0.0064
 5323SOL    HW227429   2.038   3.811   7.597 -0.0490 -1.4098  0.8751
 5324SOL     OW27430   2.399   0.438   4.758 -0.1182 -0.2093 -0.0645
 5324SOL    HW127431   2.450   0.379   4.813  1.4707 -0.6442 -2.0193
 5324SOL    HW227432   2.317   0.388   4.759 -0.7086  0.7826  1.3165
 5325SOL     OW27433   3.396   0.203   5.430 -0.0513 -0.4323  0.7813
 5325SOL    HW127434   3.345   0.248   5.497  0.4975  1.5507 -0.1248
 5325SOL    HW227435   3.470   0.179   5.485 -1.6170 -0.1991  2.9899
 5326SOL     OW27436   3.659   3.816   4.569  0.3486 -0.0183 -0.0593
 5326SOL    HW127437   3.661   3.722   4.554 -0.8832 -0.5677  3.1517
 5326SOL    HW227438   3.674   3.853   4.482 -2.2732 -1.4401 -1.1206
 5327SOL     OW27439   4.641   2.060  14.691 -0.0701 -0.4651 -0.6333
 5327SOL    HW127440   4.716   2.118  14.696 -0.7083  0.3640 -0.6950
 5327SOL    HW227441   4.572   2.127  14.696  0.0110 -0.5005  0.8902
 5328SOL     OW27442   2.297   0.765   2.975  0.1848  0.2025 -0.2493
 5328SOL    HW127443   2.248   0.842   2.948 -1.3985 -0.3804  1.0052
 5328SOL    HW227444   2.268   0.698   2.913 -0.2995 -0.6719  0.9291
 5329SOL     OW27445   4.622   3.314   3.518 -0.4214 -0.0439  0.3279
 5329SOL    HW127446   4.676   3.317   3.597 -0.2863  2.1607  0.1533
 5329SOL    HW227447   4.593   3.405   3.512 -0.2725 -0.2048 -2.7675
 5330SOL     OW27448   0.100   1.678   4.263  0.0206  0.1375  0.5981
 5330SOL    HW127449   0.171   1.619   4.289 -0.1365  0.7091  2.3504
 5330SOL    HW227450   0.139   1.761   4.290  0.1284  0.5822 -0.9265
 5331SOL     OW27451   1.587   4.213   8.668  0.0036  0.1885  0.0269
 5331SOL    HW127452   1.571   4.247   8.580  0.1454 -0.0284 -0.0802
 5331SOL    HW227453   1.656   4.272   8.698 -1.2715  0.9200  1.5398
 5332SOL     OW27454   3.344   0.243   4.308  0.2071  0.3628 -0.7730
 5332SOL    HW127455   3.356   0.284   4.393 -0.2837  1.1440 -1.0889
 5332SOL    HW227456   3.410   0.174   4.306  0.4637  0.5972 -0.2613
 5333SOL     OW27457   1.910   2.481   3.058  0.3667  0.4134  0.3764
 5333SOL    HW127458   1.958   2.432   2.991  0.9396 -0.0142  1.1022
 5333SOL    HW227459   1.880   2.559   3.013  1.8895 -0.8258 -2.7544
 5334SOL     OW27460   0.194   2.494  14.580  0.1630  0.0984 -0.2225
 5334SOL    HW127461   0.288   2.494  14.562 -0.1442  0.8868 -1.8990
 5334SOL    HW227462   0.164   2.538  14.500 -1.0257 -0.8117 -0.2662
 5335SOL     OW27463   0.570   1.033  11.740 -0.1947 -0.1926  0.1897
 5335SOL    HW127464   0.530   1.013  11.825  2.0367  0.4496  1.3824
 5335SOL    HW227465   0.574   1.128  11.737 -0.1438 -0.2573 -1.8290
 5336SOL     OW27466   3.718   3.578  14.846  0.2641  0.3335  0.4389
 5336SOL    HW127467   3.801   3.622  14.867 -0.1164  1.1092  0.3057
 5336SOL    HW227468   3.722   3.505  14.908  0.3970 -0.4506 -0.4991
 5337SOL     OW27469   4.329   4.124  10.654 -0.0403 -0.2287  0.6361
 5337SOL    HW127470   4.243   4.121  10.695 -0.2689  0.7320  0.2263
 5337SOL    HW227471   4.345   4.208  10.696 -1.3030  0.5736 -0.5038
 5338SOL     OW27472   0.218   1.946   8.402  0.1905 -0.3591 -0.0623
 5338SOL    HW127473   0.291   2.008   8.396 -1.1703  1.3108  0.6828
 5338SOL    HW227474   0.147   2.010   8.394  1.5103  1.2825  1.3666
 5339SOL     OW27475   2.649   4.438   6.313  0.0018  0.0297 -0.2528
 5339SOL    HW127476   2.653   4.525   6.274  0.3128  0.5124  0.8537
 5339SOL    HW227477   2.709   4.441   6.387  0.6026 -0.1083 -0.7287
 5340SOL     OW27478   0.215   3.294  16.269 -0.6526 -0.6199  0.1059
 5340SOL    HW127479   0.189   3.379  16.234 -0.8382 -0.5327  0.4536
 5340SOL    HW227480   0.232   3.242  16.190  1.8927  0.6557 -0.1777
 5341SOL     OW27481   3.031   3.084   9.603  0.2892 -0.4194 -0.0336
 5341SOL    HW127482   3.115   3.044   9.578  1.5502  2.2010  0.0159
 5341SOL    HW227483   3.057   3.176   9.608  0.3905 -0.3974 -0.8688
 5342SOL     OW27484   4.495   1.256   7.705  0.1564  0.0909 -0.0796
 5342SOL    HW127485   4.507   1.345   7.740  0.3136 -0.6364  1.7174
 5342SOL    HW227486   4.416   1.216   7.741 -0.1456  0.7821  0.0350
 5343SOL     OW27487   0.544   4.400  12.781 -0.4972  0.3794  0.1850
 5343SOL    HW127488   0.483   4.472  12.797  0.9092  1.2662  1.5475
 5343SOL    HW227489   0.483   4.326  12.790  0.9603 -0.9517 -0.8713
 5344SOL     OW27490   3.382   2.226   1.612  0.0239 -0.1087  0.1315
 5344SOL    HW127491   3.426   2.259   1.691 -0.7602 -0.4285  0.7099
 5344SOL    HW227492   3.359   2.307   1.568 -1.2186 -0.6443 -0.1970
 5345SOL     OW27493   4.673   3.790   4.683  0.6197 -0.0085 -0.1789
 5345SOL    HW127494   4.626   3.802   4.600  1.5070 -0.7828 -0.7897
 5345SOL    HW227495   4.617   3.830   4.749  1.9595 -0.2918  1.1231
 5346SOL     OW27496   2.149   1.739   9.296  0.4774  0.0614  0.0171
 5346SOL    HW127497   2.169   1.740   9.390  1.8861  1.1888 -0.2915
 5346SOL    HW227498   2.209   1.674   9.258 -0.0373  1.5937 -3.3739
 5347SOL     OW27499   0.261   3.156   4.760  0.5829 -0.0229  0.2248
 5347SOL    HW127500   0.321   3.123   4.827  0.7900 -0.7434 -0.3132
 5347SOL    HW227501   0.315   3.182   4.685 -2.5582  1.9611 -1.3595
 5348SOL     OW27502   3.029   4.157  11.560 -0.0728 -0.1927 -0.5896
 5348SOL    HW127503   3.101   4.095  11.544  0.6021  0.8767 -1.7199
 5348SOL    HW227504   2.970   4.124  11.492 -2.0561  0.6643  0.7181
 5349SOL     OW27505   2.854   2.294   9.085  0.2963 -0.4424 -0.0070
 5349SOL    HW127506   2.812   2.370   9.125 -0.6033 -0.1424 -1.5617
 5349SOL    HW227507   2.846   2.222   9.148 -0.0376  1.2300  1.8822
 5350SOL     OW27508   4.516   2.594  11.461 -0.1749 -0.1529  0.5204
 5350SOL    HW127509   4.483   2.513  11.500  0.2005 -1.1065 -1.1115
 5350SOL    HW227510   4.448   2.654  11.490 -0.9584 -0.7813 -0.0193
 5351SOL     OW27511   4.634   2.237   0.043 -0.2436 -0.0674 -0.2405
 5351SOL    HW127512   4.647   2.212  17.650 -1.8626 -0.8760 -0.2583
 5351SOL    HW227513   4.585   2.320   0.035 -0.9591 -0.3328  1.3281
 5352SOL     OW27514   0.667   4.066   2.507  0.1460 -0.2949 -0.6236
 5352SOL    HW127515   0.750   4.035   2.469  0.2034  0.2322 -0.9266
 5352SOL    HW227516   0.640   4.129   2.441 -2.1575 -0.0218  0.6031
 5353SOL     OW27517   3.248   3.916   2.363  0.8261 -0.2002  0.0390
 5353SOL    HW127518   3.323   3.871   2.324  0.1643 -0.7853 -0.5560
 5353SOL    HW227519   3.193   3.844   2.393 -1.0014  2.1258  2.2733
 5354SOL     OW27520   4.514   1.740   4.510 -0.0924  0.4161 -0.2093
 5354SOL    HW127521   4.472   1.764   4.593  0.1161 -1.2074  0.3662
 5354SOL    HW227522   4.466   1.796   4.449  2.8090  3.0023 -0.0811
 5355SOL     OW27523   2.108   0.501   4.514 -0.5066 -0.2257  0.2891
 5355SOL    HW127524   2.194   0.543   4.506 -0.8074  0.1999 -0.5975
 5355SOL    HW227525   2.076   0.528   4.600 -2.1878 -1.6879  0.1129
 5356SOL     OW27526   4.299   3.275   3.540  0.5338  0.1270 -0.2011
 5356SOL    HW127527   4.311   3.254   3.632  2.2170 -0.8163 -0.6313
 5356SOL    HW227528   4.282   3.188   3.503 -1.3904  1.2182 -1.8368
 5357SOL     OW27529   2.256   4.136   4.628 -0.0793 -0.6529 -0.0933
 5357SOL    HW127530   2.175   4.167   4.587 -0.1703 -0.2169  0.4119
 5357SOL    HW227531   2.290   4.224   4.643 -0.5422 -0.6979  1.1771
 5358SOL     OW27532   1.702   3.422   5.794 -0.1347  0.2858  0.3387
 5358SOL    HW127533   1.788   3.431   5.835 -0.6885  1.0931  1.3084
 5358SOL    HW227534   1.731   3.375   5.716  0.7390  1.1660  0.1346
 5359SOL     OW27535   1.634   3.325   9.090 -0.1129 -0.4940 -0.6292
 5359SOL    HW127536   1.566   3.265   9.120  1.6306 -1.8749  0.5620
 5359SOL    HW227537   1.576   3.397   9.067 -1.1117 -1.4062 -0.9651
 5360SOL     OW27538   1.107   3.179  16.365  0.0611  0.5503 -0.3320
 5360SOL    HW127539   1.121   3.219  16.279  1.1148  0.6778 -0.0935
 5360SOL    HW227540   1.027   3.129  16.347 -0.3465  1.1770 -0.2690
 5361SOL     OW27541   4.375   1.312   7.392  0.2153 -0.6846 -0.5249
 5361SOL    HW127542   4.321   1.327   7.469  1.2473  2.0721 -0.3358
 5361SOL    HW227543   4.424   1.395   7.394 -1.2104  0.1191  0.4290
 5362SOL     OW27544   4.498   1.558   8.897  0.2287  0.7480 -0.0532
 5362SOL    HW127545   4.484   1.560   8.992 -1.4236  0.2777 -0.2894
 5362SOL    HW227546   4.556   1.635   8.890  2.4998 -0.9112  0.3275
 5363SOL     OW27547   2.463   3.002   3.480  0.6311  0.2728 -0.5697
 5363SOL    HW127548   2.479   3.094   3.502 -1.0818  0.0989  1.5364
 5363SOL    HW227549   2.543   2.984   3.431  0.9862 -0.2358  0.1964
 5364SOL     OW27550   3.235   0.841   7.695  0.1608  0.4736  0.1338
 5364SOL    HW127551   3.309   0.851   7.635  0.3488  0.6059  0.3881
 5364SOL    HW227552   3.269   0.801   7.775 -0.2553  1.5358  0.8344
 5365SOL     OW27553   1.906   1.349  16.052 -0.0742  0.5590 -0.1972
 5365SOL    HW127554   1.887   1.255  16.049  2.0253  0.0932  0.9720
 5365SOL    HW227555   1.958   1.357  16.132 -2.4321  2.2044  1.1505
 5366SOL     OW27556   0.916   1.944   9.350  0.0123 -0.0761 -0.1502
 5366SOL    HW127557   0.925   2.039   9.350  1.0344 -0.1879  2.3221
 5366SOL    HW227558   0.824   1.942   9.376  0.3946  1.0811  1.2695
 5367SOL     OW27559   0.323   3.530   5.537 -0.2770  0.3082 -0.5450
 5367SOL    HW127560   0.354   3.532   5.628 -1.5410 -0.3892 -0.1080
 5367SOL    HW227561   0.236   3.568   5.538 -0.8360 -0.9716  0.4027
 5368SOL     OW27562   4.030   2.329   8.197  0.0100  0.3460 -0.1633
 5368SOL    HW127563   4.087   2.323   8.273  1.9486  0.3819 -1.6151
 5368SOL    HW227564   3.969   2.394   8.232 -1.5729 -0.7208 -0.9421
 5369SOL     OW27565   0.832   0.217   7.969  0.0582 -0.3209  0.2036
 5369SOL    HW127566   0.771   0.144   7.959  0.3893 -0.6414  0.5297
 5369SOL    HW227567   0.801   0.269   7.895  1.8931 -1.5389 -1.4399
 5370SOL     OW27568   2.666   1.330   8.571 -0.6337  0.1746 -0.2354
 5370SOL    HW127569   2.760   1.323   8.557 -0.9159 -0.1389 -2.0085
 5370SOL    HW227570   2.648   1.412   8.616 -3.2652  0.5717 -2.0202
 5371SOL     OW27571   2.701   2.802   9.371 -0.0623  0.1470  0.8448
 5371SOL    HW127572   2.721   2.835   9.284 -2.5916  1.1450  0.6467
 5371SOL    HW227573   2.754   2.870   9.415  1.3395  0.1131 -0.7804
 5372SOL     OW27574   4.641   1.115   2.450 -0.1986  0.4411  0.7722
 5372SOL    HW127575   4.590   1.099   2.371  1.8035  1.1686 -0.6776
 5372SOL    HW227576   4.603   1.199   2.478  1.9386  0.7939  2.6382
 5373SOL     OW27577   1.471   3.318   7.602 -0.3217 -0.0989  0.4192
 5373SOL    HW127578   1.399   3.318   7.666 -1.7742 -1.7514 -1.2126
 5373SOL    HW227579   1.499   3.409   7.607  0.9804 -0.5222  0.8334
 5374SOL     OW27580   4.559   1.578  12.104 -0.1451 -0.0894  0.6142
 5374SOL    HW127581   4.587   1.516  12.171 -1.8092 -0.9780  0.4923
 5374SOL    HW227582   4.473   1.586  12.146 -0.1367 -0.2753  0.6687
 5375SOL     OW27583   4.048   1.287   1.079 -0.3443  0.3156 -0.0669
 5375SOL    HW127584   3.991   1.324   1.011  2.8396 -0.5497 -3.2339
 5375SOL    HW227585   4.135   1.284   1.038 -0.3811 -4.2548  0.2683
 5376SOL     OW27586   2.735   3.933  11.772 -0.2589  0.5362  0.0149
 5376SOL    HW127587   2.703   3.847  11.798 -1.3440  1.3238  1.3154
 5376SOL    HW227588   2.656   3.961  11.726 -0.7359 -1.2029 -0.2207
 5377SOL     OW27589   4.024   4.232  16.659 -0.0480 -0.1338  0.0175
 5377SOL    HW127590   4.026   4.136  16.665  2.7613 -0.0477  0.4253
 5377SOL    HW227591   3.949   4.251  16.602 -0.2578 -0.4721  0.1787
 5378SOL     OW27592   3.042   2.986   5.865 -0.0522 -0.1654  0.4655
 5378SOL    HW127593   3.020   2.898   5.832 -1.0590  0.3546 -0.2354
 5378SOL    HW227594   2.978   3.040   5.819  0.9118  0.4648 -0.1217
 5379SOL     OW27595   3.804   2.017   0.781  0.3777 -0.0339  0.8358
 5379SOL    HW127596   3.727   1.975   0.742 -1.1266  1.1658  2.5304
 5379SOL    HW227597   3.828   1.960   0.854 -2.3921 -1.2947  0.7546
 5380SOL     OW27598   3.948   1.703  16.008 -0.0354 -1.3502 -0.1603
 5380SOL    HW127599   3.855   1.709  15.990 -0.1980  0.0883  1.1835
 5380SOL    HW227600   3.988   1.649  15.939  1.7107 -0.9130  0.4968
 5381SOL     OW27601   1.678   0.891   5.870  0.4635  0.2938 -0.3724
 5381SOL    HW127602   1.603   0.833   5.865  2.8561 -2.9632  1.0758
 5381SOL    HW227603   1.656   0.944   5.794 -1.1615  0.9691  0.5760
 5382SOL     OW27604   1.994   0.971   1.446 -0.0044 -0.2666  0.0478
 5382SOL    HW127605   1.997   0.880   1.475 -2.9486 -0.3249  0.1788
 5382SOL    HW227606   1.951   0.969   1.361 -0.2113  1.6603  0.1030
 5383SOL     OW27607   3.909   3.665   4.568 -0.0071  0.8607 -0.6129
 5383SOL    HW127608   3.871   3.670   4.481  1.3312 -0.6710 -1.2875
 5383SOL    HW227609   3.830   3.644   4.619 -0.0068  2.9661  0.2404
 5384SOL     OW27610   0.155   0.772  13.609  0.0852 -0.2315  0.4830
 5384SOL    HW127611   0.241   0.752  13.571 -0.3550 -0.5244 -0.3550
 5384SOL    HW227612   0.122   0.683  13.601 -1.2841  0.4911 -2.0817
 5385SOL     OW27613   1.411   1.718   2.536 -0.5628 -0.6086 -0.0184
 5385SOL    HW127614   1.500   1.715   2.500  0.0544 -0.2859  1.4885
 5385SOL    HW227615   1.389   1.810   2.522  1.9028 -0.0720 -0.2964
 5386SOL     OW27616   2.364   2.337   8.372 -0.2447 -0.1973 -0.4234
 5386SOL    HW127617   2.383   2.267   8.310 -3.0460 -2.3678  1.1977
 5386SOL    HW227618   2.287   2.301   8.416 -0.8346  1.1284 -0.3802
 5387SOL     OW27619   3.142   1.490   5.526 -0.5826 -0.1861  0.0130
 5387SOL    HW127620   3.224   1.518   5.486  0.3728 -1.6174  0.9504
 5387SOL    HW227621   3.140   1.545   5.604  0.6454 -0.8998  0.5364
 5388SOL     OW27622   1.768   2.934  17.658 -0.3911 -0.5043 -0.8199
 5388SOL    HW127623   1.860   2.936  17.631  0.0787 -0.8523  0.7603
 5388SOL    HW227624   1.773   2.865   0.027 -0.9777  0.5682  0.3142
 5389SOL     OW27625   4.257   2.208  15.317 -0.1050 -0.8590 -0.6692
 5389SOL    HW127626   4.213   2.123  15.312 -1.5061 -0.2687  1.6151
 5389SOL    HW227627   4.342   2.174  15.344 -0.7490 -2.2535 -0.3866
 5390SOL     OW27628   2.319   4.643   2.652  0.2331 -0.4317 -0.1419
 5390SOL    HW127629   2.365   4.673   2.573 -1.2435  1.8235 -0.1541
 5390SOL    HW227630   2.281   0.001   2.683  0.2714  0.2234 -1.8247
 5391SOL     OW27631   4.233   1.866   2.694 -0.4205 -0.1312 -0.1941
 5391SOL    HW127632   4.203   1.804   2.627  3.9450 -1.2185 -1.1219
 5391SOL    HW227633   4.321   1.837   2.717  0.1507  1.2087 -0.6859
 5392SOL     OW27634   3.315   0.358  17.124  0.6233  0.3556  0.1935
 5392SOL    HW127635   3.262   0.402  17.058 -0.2619  1.2319  1.4906
 5392SOL    HW227636   3.265   0.372  17.203 -0.8565 -1.7051 -0.3632
 5393SOL     OW27637   3.527   1.436   0.810  0.0718  0.2057 -0.5124
 5393SOL    HW127638   3.552   1.350   0.774 -0.3310  0.4119 -1.2888
 5393SOL    HW227639   3.446   1.424   0.860 -0.0372  0.5887 -0.5982
 5394SOL     OW27640   0.324   1.667  17.591 -0.5008  0.2179  1.0265
 5394SOL    HW127641   0.398   1.612  17.617  0.3055  0.6231 -0.4105
 5394SOL    HW227642   0.363   1.735  17.536 -1.1775 -0.2197  0.0209
 5395SOL     OW27643   3.104   2.677   7.564  0.4807 -0.4109  1.2926
 5395SOL    HW127644   3.164   2.637   7.628 -0.9198 -1.5101  1.9205
 5395SOL    HW227645   3.100   2.760   7.611  2.1116  0.9002 -0.9017
 5396SOL     OW27646   0.710   3.581   7.672  0.1203  0.3734  0.2800
 5396SOL    HW127647   0.716   3.669   7.711 -0.1264  1.2069 -1.5417
 5396SOL    HW227648   0.645   3.595   7.603  0.5806  2.3022  0.2302
 5397SOL     OW27649   0.173   0.057   1.972 -0.1123  0.1898 -0.2218
 5397SOL    HW127650   0.245   0.100   1.926 -0.8342 -0.2660 -1.7643
 5397SOL    HW227651   0.114   0.035   1.900  0.5036  1.2707 -1.0527
 5398SOL     OW27652   3.857   2.674   5.977  0.5934 -0.0505 -0.1194
 5398SOL    HW127653   3.878   2.587   5.944 -0.2702 -0.9905  1.7864
 5398SOL    HW227654   3.899   2.679   6.063  1.7675 -0.5870 -0.6634
 5399SOL     OW27655   3.499   1.350   5.825 -0.1295  0.5673 -0.1045
 5399SOL    HW127656   3.460   1.430   5.789  1.1333  2.0284  1.7839
 5399SOL    HW227657   3.504   1.292   5.749  0.7000  0.3435  0.1269
 5400SOL     OW27658   4.502   2.434   8.034  0.3066 -0.0514  0.1385
 5400SOL    HW127659   4.479   2.345   8.059  0.1082 -0.0362  0.0038
 5400SOL    HW227660   4.418   2.479   8.025  0.6513  0.7170  0.7476
 5401SOL     OW27661   2.796   2.195   6.517 -0.0709  0.4836 -0.0947
 5401SOL    HW127662   2.767   2.221   6.429 -1.6137 -0.8087  0.0234
 5401SOL    HW227663   2.711   2.187   6.560  0.1741  0.0402  0.3130
 5402SOL     OW27664   3.126   2.314   9.832 -0.3253 -0.0761  0.2351
 5402SOL    HW127665   3.116   2.224   9.803  2.2527  0.0908 -1.2432
 5402SOL    HW227666   3.040   2.325   9.871 -0.8633  1.6170 -1.4254
 5403SOL     OW27667   3.352   0.514   6.907 -0.2290 -0.1618 -0.4022
 5403SOL    HW127668   3.307   0.547   6.829 -1.4609  1.7346  1.0906
 5403SOL    HW227669   3.283   0.451   6.926 -0.1734 -0.3657 -0.8795
 5404SOL     OW27670   3.914   3.713   6.917 -0.5579  0.3833 -0.3932
 5404SOL    HW127671   3.989   3.655   6.903 -0.7270  0.2782 -0.8522
 5404SOL    HW227672   3.846   3.652   6.944  0.0143 -0.4659 -0.8482
 5405SOL     OW27673   3.165   1.073   7.856 -0.2501  0.4699  0.6006
 5405SOL    HW127674   3.181   1.007   7.789 -3.6558  0.6333 -0.3728
 5405SOL    HW227675   3.192   1.025   7.934 -0.8693  3.0333  2.3876
 5406SOL     OW27676   1.433   0.632  10.902 -0.0144 -0.4313 -0.1955
 5406SOL    HW127677   1.358   0.678  10.940  0.9068 -0.5276  1.7229
 5406SOL    HW227678   1.467   0.690  10.834  0.6451  1.7933  2.0028
 5407SOL     OW27679   0.119   1.090   7.428 -0.5265  0.1784 -0.4611
 5407SOL    HW127680   0.101   1.009   7.381 -0.8514 -0.6355  1.0729
 5407SOL    HW227681   0.205   1.113   7.393  0.3030  1.9407  2.6826
 5408SOL     OW27682   1.255   2.994  14.695 -0.2032  0.3990  0.2621
 5408SOL    HW127683   1.227   3.018  14.783  1.0260 -2.5777  1.4498
 5408SOL    HW227684   1.326   3.057  14.680  0.3313  0.6946  4.1226
 5409SOL     OW27685   4.649   1.543   8.253 -0.1492  0.1589  0.0314
 5409SOL    HW127686   4.668   1.534   8.159 -0.1527 -0.7302  0.1221
 5409SOL    HW227687   4.603   1.624   8.274  2.1255  1.5632 -0.4039
 5410SOL     OW27688   4.421   0.808   1.482 -0.0869  0.6901  0.8571
 5410SOL    HW127689   4.465   0.733   1.443 -0.7314 -0.0492  1.5447
 5410SOL    HW227690   4.329   0.781   1.480 -0.5730  2.3276  1.1701
 5411SOL     OW27691   3.384   3.298   0.290  0.0671  0.3556  0.2105
 5411SOL    HW127692   3.351   3.243   0.362  0.8659  1.1309  1.1696
 5411SOL    HW227693   3.467   3.254   0.271 -0.3764 -1.4517  2.4874
 5412SOL     OW27694   3.957   4.216   5.114  0.3130  0.1881  0.5975
 5412SOL    HW127695   3.975   4.306   5.087  0.5815  0.3525  1.3148
 5412SOL    HW227696   3.863   4.218   5.134  0.5457  1.6460  1.5745
 5413SOL     OW27697   2.621   2.182   3.087  0.2917  0.1222 -0.2744
 5413SOL    HW127698   2.666   2.197   3.169  0.5425 -2.2470  0.0103
 5413SOL    HW227699   2.690   2.137   3.037  0.8858  0.6791  0.0458
 5414SOL     OW27700   1.491   3.937  13.075 -0.2125 -0.2965  0.2069
 5414SOL    HW127701   1.466   4.012  13.129  3.5640  1.9680 -1.2091
 5414SOL    HW227702   1.580   3.959  13.050 -0.2957  0.7928  0.8695
 5415SOL     OW27703   3.723   3.528   7.039 -0.4976 -0.3227 -0.0834
 5415SOL    HW127704   3.669   3.463   6.994 -1.4459 -0.9722  1.9999
 5415SOL    HW227705   3.799   3.477   7.066 -0.2834  0.5069  0.8924
 5416SOL     OW27706   2.545   0.389   3.239  0.4260  0.4826 -0.0298
 5416SOL    HW127707   2.475   0.324   3.229 -1.2248  2.5196 -1.4987
 5416SOL    HW227708   2.593   0.334   3.301  0.1545 -0.2865 -0.4888
 5417SOL     OW27709   4.475   2.408  11.007 -0.3798  0.0339 -0.1144
 5417SOL    HW127710   4.438   2.356  11.078  1.2615  0.8306  1.3358
 5417SOL    HW227711   4.508   2.480  11.062  4.2879 -0.7956 -1.8020
 5418SOL     OW27712   2.831   3.008   9.465  0.0489 -0.5726 -0.0185
 5418SOL    HW127713   2.781   3.088   9.450  0.8874  0.0056  0.2855
 5418SOL    HW227714   2.906   3.041   9.513  0.1966 -0.9576  0.0188
 5419SOL     OW27715   3.254   3.582   9.028  0.1743 -0.0466  0.5128
 5419SOL    HW127716   3.228   3.670   9.055  0.0848 -0.4036  1.5539
 5419SOL    HW227717   3.292   3.547   9.108 -0.2535  0.6234  1.0063
 5420SOL     OW27718   1.455   3.897   5.328  0.0901 -0.4846  0.7814
 5420SOL    HW127719   1.455   3.809   5.365  0.8052 -1.7221 -2.1138
 5420SOL    HW227720   1.362   3.912   5.341 -0.3922 -0.7915 -2.3799
 5421SOL     OW27721   0.037   2.144   1.004 -0.3698 -0.0078 -0.1205
 5421SOL    HW127722   4.676   2.159   1.043 -1.3979 -0.0604 -2.3282
 5421SOL    HW227723   0.014   2.165   0.913  0.5631 -2.5741 -0.9485
 5422SOL     OW27724   2.078   2.302   2.393 -0.3459  0.5422  0.2982
 5422SOL    HW127725   2.161   2.297   2.440 -1.6475  0.2540  2.5280
 5422SOL    HW227726   2.105   2.284   2.303  0.0629  1.3896  0.2483
 5423SOL     OW27727   0.667   1.679   6.866  0.0909 -0.0791 -0.2516
 5423SOL    HW127728   0.654   1.720   6.951  1.4929 -1.5235  0.6729
 5423SOL    HW227729   0.661   1.584   6.876  1.1246 -0.1840 -0.5959
 5424SOL     OW27730   3.526   0.626   3.332 -0.6404  0.0272  0.2316
 5424SOL    HW127731   3.588   0.584   3.274  1.7319  2.6156  0.8967
 5424SOL    HW227732   3.571   0.655   3.412  0.7947 -0.3498 -0.4514
 5425SOL     OW27733   1.510   2.713  14.456  0.6056  0.1026 -0.3833
 5425SOL    HW127734   1.422   2.726  14.421  0.0783 -0.4386  0.7485
 5425SOL    HW227735   1.559   2.759  14.387  2.6757  0.4943  1.3607
 5426SOL     OW27736   2.708   2.567   6.261  0.0200  0.4131 -0.0264
 5426SOL    HW127737   2.797   2.596   6.283 -0.3429  2.2578 -1.0196
 5426SOL    HW227738   2.655   2.635   6.302 -1.2616 -1.4011  1.3356
 5427SOL     OW27739   0.038   1.382  11.694 -0.3068  0.4025  0.2207
 5427SOL    HW127740   4.694   1.386  11.761  1.2324  0.4802  1.7813
 5427SOL    HW227741   0.110   1.411  11.750 -0.6713 -2.1756  2.0364
 5428SOL     OW27742   4.603   2.549  11.209 -0.3809  0.1856  0.3585
 5428SOL    HW127743   4.693   2.567  11.236 -0.2276 -1.5023  0.9921
 5428SOL    HW227744   4.571   2.576  11.295  0.5314  1.9679  0.1383
 5429SOL     OW27745   2.881   3.350  13.023  0.0365 -0.1003 -0.6639
 5429SOL    HW127746   2.792   3.370  13.051  0.2819 -0.7032  0.5524
 5429SOL    HW227747   2.928   3.377  13.102 -1.1299 -0.3215  0.0926
 5430SOL     OW27748   3.992   3.854   7.838 -0.5871 -0.1025 -0.2641
 5430SOL    HW127749   3.978   3.795   7.764 -1.4356 -0.8412  0.4719
 5430SOL    HW227750   4.000   3.931   7.783 -1.4791 -0.3468 -0.7403
 5431SOL     OW27751   3.493   1.350   5.138 -0.8794 -0.6174 -0.0315
 5431SOL    HW127752   3.580   1.390   5.132 -0.4974 -1.4072  0.2463
 5431SOL    HW227753   3.472   1.349   5.231  3.2015 -3.8838  0.8557
 5432SOL     OW27754   1.361   1.809   6.488 -0.1863 -1.0418  0.2451
 5432SOL    HW127755   1.284   1.834   6.436  0.9349 -0.3058 -1.0465
 5432SOL    HW227756   1.370   1.714   6.478  0.4718 -0.6539 -2.8261
 5433SOL     OW27757   0.449   0.214   5.301 -0.2796 -0.0723 -0.0149
 5433SOL    HW127758   0.509   0.208   5.376 -0.5916 -0.4897  0.2060
 5433SOL    HW227759   0.391   0.283   5.333 -0.1588 -0.2240  0.5289
 5434SOL     OW27760   3.421   1.632   3.930 -0.4500 -0.1783  0.1198
 5434SOL    HW127761   3.509   1.651   3.897 -0.1141 -0.0342  1.0939
 5434SOL    HW227762   3.364   1.660   3.859 -0.8531 -2.0876 -0.3009
 5435SOL     OW27763   3.263   2.373   3.969 -0.1298  0.0381 -0.7260
 5435SOL    HW127764   3.241   2.318   4.044 -1.8889  1.7680  0.0121
 5435SOL    HW227765   3.348   2.414   3.988  0.2690 -0.7459 -0.8182
 5436SOL     OW27766   3.654   1.079  16.835  0.1268  0.5194 -0.1532
 5436SOL    HW127767   3.681   1.082  16.927  1.8101 -1.9759 -0.5753
 5436SOL    HW227768   3.561   1.060  16.846  0.5026 -1.5095 -0.6636
 5437SOL     OW27769   1.712   1.964   2.258  0.1472  0.0671 -0.1595
 5437SOL    HW127770   1.765   2.010   2.193  0.2723  0.8458  0.4826
 5437SOL    HW227771   1.673   2.037   2.307  0.5155  0.1759 -0.0251
 5438SOL     OW27772   0.491   0.314  11.583  0.2548  0.4089  0.6408
 5438SOL    HW127773   0.539   0.261  11.647  2.5808  1.1683 -0.5089
 5438SOL    HW227774   0.403   0.276  11.570  0.5365  0.1396 -0.4173
 5439SOL     OW27775   3.084   2.986   2.583  0.1243 -0.1651 -0.4964
 5439SOL    HW127776   3.082   3.066   2.531 -1.7845 -1.7829 -2.8946
 5439SOL    HW227777   3.096   2.925   2.511 -1.0548  0.1229 -0.9277
 5440SOL     OW27778   4.561   1.515   7.420 -0.7811  0.0647  0.7885
 5440SOL    HW127779   4.632   1.457   7.445 -0.6731  0.4020  1.2572
 5440SOL    HW227780   4.603   1.563   7.348 -1.1290  0.8611  1.1207
 5441SOL     OW27781   0.472   0.596   0.764  0.6694 -0.0430 -0.5295
 5441SOL    HW127782   0.422   0.643   0.698  1.6436 -1.5828 -2.3854
 5441SOL    HW227783   0.495   0.670   0.820  0.5506 -0.1797 -0.2979
 5442SOL     OW27784   0.106   0.660   4.303  0.0298  0.2904  0.5939
 5442SOL    HW127785   0.052   0.582   4.317  1.7031 -0.9559  0.1233
 5442SOL    HW227786   0.148   0.667   4.389  2.1257 -0.3837 -0.3727
 5443SOL     OW27787   0.289   4.697   5.943 -0.2806 -0.5123 -0.1426
 5443SOL    HW127788   0.270   0.001   6.032  2.5758 -0.1088  0.3379
 5443SOL    HW227789   0.318   4.610   5.970  0.6295 -1.2006 -3.2806
 5444SOL     OW27790   3.249   3.903   9.634 -0.5774 -0.0379  0.3937
 5444SOL    HW127791   3.267   3.989   9.670  1.5160 -0.7376  1.0033
 5444SOL    HW227792   3.298   3.903   9.552 -0.1106  0.1150  0.6737
 5445SOL     OW27793   2.878   1.487   7.720 -0.3821 -0.1106  0.2962
 5445SOL    HW127794   2.804   1.495   7.781 -0.0604  0.9050  0.5586
 5445SOL    HW227795   2.914   1.400   7.732  0.1670 -0.3200 -2.8839
 5446SOL     OW27796   1.000   0.737   8.717  0.3404  0.1919  1.4781
 5446SOL    HW127797   0.962   0.774   8.637  0.6337 -2.0571  0.2836
 5446SOL    HW227798   1.077   0.793   8.726 -0.4317  1.0932  2.4659
 5447SOL     OW27799   3.083   2.780  17.426  0.0326 -0.3933  0.1005
 5447SOL    HW127800   3.178   2.779  17.415  0.2566 -2.5404  2.2387
 5447SOL    HW227801   3.071   2.709  17.489  1.1458 -0.5471  0.1430
 5448SOL     OW27802   2.782   1.370   6.565 -0.2226 -0.1280  0.4042
 5448SOL    HW127803   2.692   1.361   6.595 -0.6278  1.0318 -0.4770
 5448SOL    HW227804   2.839   1.319   6.623 -0.7358 -0.5240  0.5552
 5449SOL     OW27805   2.699   3.854  10.954 -0.1728 -0.1761 -0.2072
 5449SOL    HW127806   2.764   3.914  10.991  3.0511 -2.5110 -2.1379
 5449SOL    HW227807   2.746   3.845  10.871  0.7242 -0.9280  0.3859
 5450SOL     OW27808   3.390   0.056   7.790 -0.1939 -0.5235 -0.4331
 5450SOL    HW127809   3.481   0.077   7.770  0.0440 -2.6029 -1.4715
 5450SOL    HW227810   3.390   0.013   7.875  1.4513  0.5698  0.1079
 5451SOL     OW27811   3.358   4.279   4.000 -0.8253 -0.7819  0.5244
 5451SOL    HW127812   3.290   4.315   3.943  0.2653 -0.7236 -0.7587
 5451SOL    HW227813   3.439   4.286   3.949  0.0534  1.0207  2.1844
 5452SOL     OW27814   3.921   2.075   1.121  0.1552 -0.2342  0.0421
 5452SOL    HW127815   3.992   2.117   1.072  2.6352 -1.6504  2.4569
 5452SOL    HW227816   3.934   2.116   1.206  1.9323  0.7953 -0.7242
 5453SOL     OW27817   3.354   3.420  16.690 -0.2328  0.1115  0.2908
 5453SOL    HW127818   3.347   3.420  16.594  0.1537  0.1546  0.2632
 5453SOL    HW227819   3.448   3.405  16.697 -0.4459 -1.1678  0.4871
 5454SOL     OW27820   1.913   3.650   1.824 -0.7594  0.3140  0.3456
 5454SOL    HW127821   1.884   3.654   1.915 -0.8390 -1.4051  0.3953
 5454SOL    HW227822   1.961   3.731   1.808  1.3308 -0.6239  1.9631
 5455SOL     OW27823   0.494   4.235  12.449  0.0478 -0.1610  0.4798
 5455SOL    HW127824   0.523   4.145  12.459 -0.2101 -0.2186  0.7149
 5455SOL    HW227825   0.545   4.278  12.518  2.4020 -2.3401  0.0747
 5456SOL     OW27826   1.614   1.833  11.927  0.3237  0.4998  0.2618
 5456SOL    HW127827   1.556   1.800  11.996  2.0343 -0.5580  1.1927
 5456SOL    HW227828   1.681   1.883  11.973 -1.2482  1.7254  1.2293
 5457SOL     OW27829   0.084   0.936   2.247  0.2039  0.8401  0.4265
 5457SOL    HW127830   0.080   1.015   2.302 -1.5830 -0.3392  1.9955
 5457SOL    HW227831   4.718   0.908   2.235  0.3155  0.2520  0.9552
 5458SOL     OW27832   3.948   2.370  14.376  0.2581  0.4796  0.0484
 5458SOL    HW127833   4.031   2.371  14.424  0.0133  1.2505  0.4622
 5458SOL    HW227834   3.906   2.446  14.417 -1.3918  0.7345 -2.1613
 5459SOL     OW27835   2.826   0.130  15.680 -0.6226  0.2726 -0.5402
 5459SOL    HW127836   2.737   0.093  15.683 -0.1909 -0.8288 -1.3819
 5459SOL    HW227837   2.809   0.224  15.683 -2.2300 -0.1506  2.7946
 5460SOL     OW27838   4.283   2.649   0.356 -0.1649  0.0758  0.8871
 5460SOL    HW127839   4.254   2.697   0.278 -0.3316 -1.2904  0.1098
 5460SOL    HW227840   4.214   2.657   0.421 -1.0951  0.5028 -0.1510
 5461SOL     OW27841   0.503   3.140   4.917  0.2276  0.2214 -0.5064
 5461SOL    HW127842   0.507   3.200   4.991 -2.6197  0.6650 -0.7019
 5461SOL    HW227843   0.522   3.056   4.960  0.2764 -0.3482 -1.6511
 5462SOL     OW27844   2.843   2.075   3.692 -0.2955  0.1923 -0.4724
 5462SOL    HW127845   2.906   2.089   3.763 -0.6408 -0.1502 -0.1023
 5462SOL    HW227846   2.777   2.142   3.705  0.4867  0.3921  2.3920
 5463SOL     OW27847   2.764   3.002   0.632 -0.0332 -0.0180 -0.1269
 5463SOL    HW127848   2.769   2.935   0.563 -0.4149  0.5542 -0.7100
 5463SOL    HW227849   2.770   2.951   0.713 -1.8892  0.8701  0.5659
 5464SOL     OW27850   1.368   4.621   8.413 -0.1221  0.1611 -0.2291
 5464SOL    HW127851   1.334   4.641   8.325 -0.4698  2.1286  0.3470
 5464SOL    HW227852   1.278   4.626   8.446  0.3716 -2.1946  1.4310
 5465SOL     OW27853   0.030   4.488   2.779  0.1725  0.3633 -0.2473
 5465SOL    HW127854   4.713   4.551   2.719  2.0669  0.8517 -1.0455
 5465SOL    HW227855   0.109   4.452   2.738 -0.9292  0.1688 -2.2087
 5466SOL     OW27856   4.341   3.146   6.571  0.1947 -0.1301 -0.4935
 5466SOL    HW127857   4.394   3.075   6.534 -1.3623 -1.9670  0.8053
 5466SOL    HW227858   4.390   3.220   6.535  2.4583 -1.0040  0.7582
 5467SOL     OW27859   0.139   3.551  15.673 -0.0817 -0.7726 -0.2577
 5467SOL    HW127860   0.072   3.522  15.734 -0.9455 -0.5613 -1.1026
 5467SOL    HW227861   0.120   3.645  15.679  3.6739 -0.1386  2.3275
 5468SOL     OW27862   2.266   3.814   3.621  0.0441 -0.4724 -0.0784
 5468SOL    HW127863   2.176   3.842   3.603  0.4123 -1.2921 -3.1126
 5468SOL    HW227864   2.251   3.769   3.705  0.7583 -1.2097 -0.3483
 5469SOL     OW27865   1.325   0.137   4.211 -0.1575 -0.0078  0.2232
 5469SOL    HW127866   1.340   0.081   4.287 -3.1419 -0.3308  0.5850
 5469SOL    HW227867   1.237   0.169   4.231  1.0724  3.2560  0.4951
 5470SOL     OW27868   4.176   2.884   1.079  0.5433 -0.0923 -0.0678
 5470SOL    HW127869   4.100   2.825   1.082  1.0891 -0.5766  4.0416
 5470SOL    HW227870   4.237   2.837   1.022  1.7296 -0.8604  1.8548
 5471SOL     OW27871   1.000   2.928   4.568  0.5754  0.1283  0.3420
 5471SOL    HW127872   1.038   2.972   4.644  0.4580  0.1728  0.3744
 5471SOL    HW227873   0.923   2.984   4.558  2.3193  2.3608 -0.8256
 5472SOL     OW27874   4.422   3.188   2.256 -0.0985 -0.1443  0.1241
 5472SOL    HW127875   4.328   3.179   2.269 -0.1701  0.6891  0.1387
 5472SOL    HW227876   4.445   3.227   2.340 -3.8492  1.1647  0.5268
 5473SOL     OW27877   0.718   0.434   7.090  0.2721 -0.4307 -0.0569
 5473SOL    HW127878   0.641   0.491   7.097  0.8782  0.3802  0.0282
 5473SOL    HW227879   0.769   0.454   7.168  2.1152  0.2802 -1.4221
 5474SOL     OW27880   3.228   0.610   4.004  0.5556 -0.3281 -0.1645
 5474SOL    HW127881   3.210   0.704   3.998 -0.3877 -0.6592 -2.5770
 5474SOL    HW227882   3.294   0.608   4.073  2.4302  0.6984 -1.9330
 5475SOL     OW27883   0.503   1.124  10.277  0.0549 -0.0314  0.4144
 5475SOL    HW127884   0.561   1.064  10.325  3.6226  1.6466 -1.8763
 5475SOL    HW227885   0.547   1.136  10.193  1.0518 -0.4028  0.8881
 5476SOL     OW27886   0.526   2.262   5.597  0.3535  0.4218 -0.0722
 5476SOL    HW127887   0.570   2.340   5.564  3.0680 -1.2146 -0.3831
 5476SOL    HW227888   0.520   2.279   5.691 -0.3174  1.7586 -0.3595
 5477SOL     OW27889   1.362   2.281   2.285 -0.5512 -0.7829  0.4999
 5477SOL    HW127890   1.453   2.311   2.277 -0.9075  0.4396  1.0048
 5477SOL    HW227891   1.350   2.313   2.374 -0.9299  0.7038 -0.0929
 5478SOL     OW27892   3.248   3.093  14.545 -0.2464 -0.2278  0.4002
 5478SOL    HW127893   3.250   3.098  14.641  0.1022  2.7933  0.2519
 5478SOL    HW227894   3.231   3.186  14.529 -1.1323 -0.6410 -1.0392
 5479SOL     OW27895   1.569   4.645  12.606 -0.0616  0.6012  0.2999
 5479SOL    HW127896   1.518   4.593  12.668 -1.1739  0.7005 -0.5512
 5479SOL    HW227897   1.544   0.010  12.628 -0.8020  0.4930 -0.1086
 5480SOL     OW27898   3.080   0.865   8.506  0.0680  0.0526 -0.0365
 5480SOL    HW127899   3.130   0.844   8.585 -0.4873  1.6049  0.7434
 5480SOL    HW227900   2.997   0.900   8.539  0.1511 -0.4882  0.7514
 5481SOL     OW27901   2.334   2.444   4.484 -0.2112 -0.2003  0.1250
 5481SOL    HW127902   2.321   2.409   4.396  0.6844  0.6405 -0.3320
 5481SOL    HW227903   2.254   2.497   4.488 -0.4874 -0.5927 -0.2268
 5482SOL     OW27904   3.126   0.538   2.769 -0.3206  0.8348 -0.8106
 5482SOL    HW127905   3.201   0.597   2.757  0.1370  0.3639 -0.2672
 5482SOL    HW227906   3.138   0.522   2.863  0.0115 -1.6331 -1.2867
 5483SOL     OW27907   3.948   4.671  12.538  0.0698 -0.1029  0.3820
 5483SOL    HW127908   3.855   4.687  12.556  0.1123  2.0217 -1.2879
 5483SOL    HW227909   3.995   0.030  12.545 -0.8375  0.4629 -0.2364
 5484SOL     OW27910   3.113   0.288   7.491 -0.3552 -0.5559  0.2049
 5484SOL    HW127911   3.162   0.365   7.462  0.3524 -2.2397 -3.1059
 5484SOL    HW227912   3.099   0.309   7.583  0.5780  1.9675 -0.2169
 5485SOL     OW27913   1.006   1.340   5.751 -1.0272 -0.3621  0.8073
 5485SOL    HW127914   0.934   1.333   5.814  0.7284  0.5366  2.8627
 5485SOL    HW227915   0.962   1.371   5.672  1.1056 -1.5068 -0.8225
 5486SOL     OW27916   2.936   1.399  10.934 -0.0134  0.1889 -0.0148
 5486SOL    HW127917   2.897   1.337  10.872  1.4513 -1.6468  0.9064
 5486SOL    HW227918   3.028   1.391  10.910  0.0915 -2.0295  1.1082
 5487SOL     OW27919   0.570   3.735   3.388 -0.0334  0.1126  0.4072
 5487SOL    HW127920   0.623   3.663   3.353  1.5752  1.4375  0.1245
 5487SOL    HW227921   0.550   3.790   3.312 -0.1746  1.8934  1.7339
 5488SOL     OW27922   3.261   2.193  13.218 -0.5051 -0.7150 -0.1178
 5488SOL    HW127923   3.302   2.110  13.193 -1.6787 -0.8236 -1.7127
 5488SOL    HW227924   3.291   2.244  13.142 -0.7379 -2.2157 -1.2147
 5489SOL     OW27925   0.153   3.446  10.717  0.3101 -0.4156 -0.7869
 5489SOL    HW127926   0.148   3.487  10.631 -0.3619  4.0260  1.3172
 5489SOL    HW227927   0.121   3.357  10.703  0.4059 -0.4680 -0.6746
 5490SOL     OW27928   1.978   2.843   9.651 -0.1838 -0.3676 -0.0813
 5490SOL    HW127929   2.028   2.773   9.693  0.1332 -0.6849 -0.9966
 5490SOL    HW227930   1.976   2.802   9.565 -0.4839 -1.3753  0.4126
 5491SOL     OW27931   2.354   2.730   9.156  0.2742  0.3168 -0.3366
 5491SOL    HW127932   2.336   2.760   9.246  0.9055 -2.6972  0.8076
 5491SOL    HW227933   2.331   2.637   9.162  0.1772  0.3294 -0.5208
 5492SOL     OW27934   1.666   2.151  11.693  0.1443 -0.5389  0.1449
 5492SOL    HW127935   1.720   2.212  11.743 -1.1067 -0.0360  0.8946
 5492SOL    HW227936   1.718   2.145  11.613  0.7040 -0.6466  0.5200
 5493SOL     OW27937   0.573   2.164   2.220  0.8486 -0.1403  0.0414
 5493SOL    HW127938   0.614   2.221   2.154  1.4016 -0.6695 -0.0777
 5493SOL    HW227939   0.561   2.217   2.299 -1.0650 -3.0008  1.6275
 5494SOL     OW27940   3.550   0.469   4.029  0.2557  0.0075  0.7267
 5494SOL    HW127941   3.605   0.446   4.104  1.1913  0.0855  0.0625
 5494SOL    HW227942   3.492   0.535   4.068 -0.7883 -0.2845 -0.3330
 5495SOL     OW27943   2.528   1.487   7.096  0.1829 -0.3157  0.1496
 5495SOL    HW127944   2.468   1.551   7.134  1.0282 -0.7102  2.1526
 5495SOL    HW227945   2.601   1.541   7.065 -0.5849  1.9159  2.2185
 5496SOL     OW27946   3.431   2.610  11.419  0.1432 -0.2512 -0.2292
 5496SOL    HW127947   3.480   2.634  11.498  0.8656  2.6990 -1.5927
 5496SOL    HW227948   3.421   2.517  11.442  2.3974 -0.2768  0.6937
 5497SOL     OW27949   4.029   2.912   8.297 -0.2930  0.4848 -0.7211
 5497SOL    HW127950   3.957   2.851   8.279  0.4212 -0.5213 -0.1489
 5497SOL    HW227951   4.042   2.901   8.391 -1.2082  1.8718 -0.4287
 5498SOL     OW27952   3.165   3.946  12.029 -0.2277 -0.3145 -0.4120
 5498SOL    HW127953   3.075   3.978  12.023 -1.2225 -2.7209  1.7462
 5498SOL    HW227954   3.171   3.911  12.118  2.4278  1.4115  0.0970
 5499SOL     OW27955   1.408   4.353   7.873 -0.2075 -0.2616  0.2392
 5499SOL    HW127956   1.464   4.414   7.826  0.9789 -0.8502  0.8872
 5499SOL    HW227957   1.438   4.271   7.832  0.3040 -0.2525  0.5996
 5500SOL     OW27958   2.749   0.432  17.051 -0.1839 -0.2142 -0.6086
 5500SOL    HW127959   2.665   0.388  17.041  0.0200 -0.2828 -2.0102
 5500SOL    HW227960   2.776   0.404  17.139 -1.6933 -1.6495 -0.6029
 5501SOL     OW27961   0.086   1.547  11.475 -1.0161 -0.7959 -0.2099
 5501SOL    HW127962   0.089   1.631  11.522 -0.9874 -2.2267  2.3689
 5501SOL    HW227963   0.070   1.483  11.545 -0.2669 -0.9747 -0.1962
 5502SOL     OW27964   0.879   2.700   1.288  0.3121  0.0964 -0.7984
 5502SOL    HW127965   0.848   2.779   1.243  0.8223  2.3296  2.7771
 5502SOL    HW227966   0.949   2.673   1.229  1.5319  0.0266  0.6954
 5503SOL     OW27967   2.559   0.685   0.271  0.2396  0.1789  0.1501
 5503SOL    HW127968   2.636   0.654   0.222 -0.2622 -1.7186  0.5797
 5503SOL    HW227969   2.487   0.656   0.216  0.4495  0.5956 -0.3453
 5504SOL     OW27970   2.003   4.347  11.141  0.2290 -0.2425  0.1632
 5504SOL    HW127971   1.952   4.273  11.172 -1.1355 -0.3908 -2.3913
 5504SOL    HW227972   1.936   4.408  11.108 -1.7717 -1.7352  1.4893
 5505SOL     OW27973   0.172   2.689   2.181 -0.2167 -0.1890  0.4417
 5505SOL    HW127974   0.196   2.693   2.088  1.5483 -2.2124  0.8036
 5505SOL    HW227975   0.082   2.718   2.191  0.5619  2.1700  0.4545
 5506SOL     OW27976   1.620   2.717   8.822  0.2918 -0.4952  0.1575
 5506SOL    HW127977   1.673   2.639   8.805 -0.3215 -0.9821  0.4682
 5506SOL    HW227978   1.693   2.778   8.832 -0.9573  1.0238 -0.1177
 5507SOL     OW27979   1.425   4.664   2.864  0.6954 -0.1049 -0.2520
 5507SOL    HW127980   1.369   4.591   2.891 -0.1285  1.1409  1.3719
 5507SOL    HW227981   1.478   4.678   2.943 -1.0166  1.2710  0.6350
 5508SOL     OW27982   3.658   4.024   6.037 -0.1445 -0.7144 -0.3095
 5508SOL    HW127983   3.594   4.002   6.105 -0.6272  1.1293 -0.1792
 5508SOL    HW227984   3.588   4.019   5.971  1.0187 -1.6364 -1.4827
 5509SOL     OW27985   3.019   2.774   3.443 -0.2783 -0.6937  0.2161
 5509SOL    HW127986   3.094   2.761   3.385  1.3134 -1.6090  2.4840
 5509SOL    HW227987   3.030   2.868   3.460 -1.5176 -0.4816 -0.1306
 5510SOL     OW27988   0.663   0.884   3.942 -0.4795 -0.7445  0.2059
 5510SOL    HW127989   0.738   0.832   3.912  0.9061  2.3650 -1.6992
 5510SOL    HW227990   0.622   0.918   3.862  0.0097  0.5248  0.5098
 5511SOL     OW27991   2.630   0.445   3.614 -0.5217 -0.3659  0.2748
 5511SOL    HW127992   2.571   0.370   3.608 -0.9665  0.0995 -1.2098
 5511SOL    HW227993   2.719   0.427   3.584  1.5317  2.6430  4.6078
 5512SOL     OW27994   1.119   0.120  13.209 -0.2237  0.1845  0.7677
 5512SOL    HW127995   1.097   0.151  13.297 -2.3589  1.1559 -0.1124
 5512SOL    HW227996   1.054   0.170  13.161  0.4715  0.5703  0.2237
 5513SOL     OW27997   2.977   1.250   7.810  0.4855 -0.2606 -0.2933
 5513SOL    HW127998   2.974   1.297   7.894 -0.5813 -1.5477  0.3947
 5513SOL    HW227999   3.038   1.181   7.836 -1.2949 -0.9011  2.2353
 5514SOL     OW28000   0.407   3.262   7.849 -0.2029 -0.1652  0.0425
 5514SOL    HW128001   0.330   3.296   7.893  1.2293  1.3514  1.3866
 5514SOL    HW228002   0.365   3.203   7.786 -1.6005 -0.1727  1.0096
 5515SOL     OW28003   2.552   3.961   7.970  0.2282  0.1874 -0.1090
 5515SOL    HW128004   2.545   4.056   7.967  0.2909  0.1319 -2.1873
 5515SOL    HW228005   2.483   3.935   8.031  0.5689  0.2760  0.3103
 5516SOL     OW28006   4.386   0.435  12.477  0.9090 -0.2652  0.1322
 5516SOL    HW128007   4.410   0.435  12.384 -0.0706  0.2781 -0.1199
 5516SOL    HW228008   4.405   0.341  12.486 -1.5841 -0.8880 -1.3659
 5517SOL     OW28009   2.036   0.126   2.421 -0.5367  0.3827  0.4012
 5517SOL    HW128010   2.032   0.036   2.389 -0.7906 -0.0873  1.7578
 5517SOL    HW228011   2.086   0.126   2.502  2.1493  0.8027 -1.2600
 5518SOL     OW28012   2.151   3.185  16.092  0.2955  0.4592  0.0603
 5518SOL    HW128013   2.110   3.221  16.013  0.8821  1.0198  0.0127
 5518SOL    HW228014   2.236   3.228  16.095  0.3720  0.1184  2.5642
 5519SOL     OW28015   2.656   0.120   4.468 -0.1087  0.1923 -0.1255
 5519SOL    HW128016   2.714   0.049   4.440  0.5145  0.0765  1.4676
 5519SOL    HW228017   2.571   0.086   4.441  1.1030 -1.9449 -1.2772
 5520SOL     OW28018   4.504   3.051   5.102  0.1163  0.1628 -0.1873
 5520SOL    HW128019   4.410   3.052   5.087  0.4099 -1.6510 -2.1126
 5520SOL    HW228020   4.519   3.142   5.127  1.7008  0.2302 -1.4011
 5521SOL     OW28021   3.198   0.163   6.281  0.6870  0.7994 -0.4785
 5521SOL    HW128022   3.242   0.245   6.257  2.5270 -0.1456 -0.3680
 5521SOL    HW228023   3.247   0.104   6.224 -0.0340 -1.7903  1.6345
 5522SOL     OW28024   1.494   3.856   6.239 -0.0167 -0.0658  0.0849
 5522SOL    HW128025   1.472   3.933   6.292  0.8252 -0.7091  1.3800
 5522SOL    HW228026   1.572   3.895   6.199  0.8070 -3.1811 -1.3450
 5523SOL     OW28027   0.945   0.587   7.740  0.1819  0.0201 -0.4399
 5523SOL    HW128028   1.032   0.624   7.754  0.8968 -1.5214 -0.7720
 5523SOL    HW228029   0.922   0.606   7.649 -0.7126 -0.1884 -0.2621
 5524SOL     OW28030   2.606   2.475  14.707  0.2900 -0.5361  0.4420
 5524SOL    HW128031   2.555   2.482  14.789  0.2248 -1.2410  0.4628
 5524SOL    HW228032   2.668   2.407  14.733 -1.2571 -1.4659  1.7199
 5525SOL     OW28033   3.892   2.463   2.386  0.4804  0.3969 -0.7792
 5525SOL    HW128034   3.903   2.522   2.312  2.9737  1.0671  0.1452
 5525SOL    HW228035   3.937   2.387   2.351  2.0625  0.9002  0.1607
 5526SOL     OW28036   0.782   3.273   8.303  0.5625 -0.1532  0.1963
 5526SOL    HW128037   0.768   3.343   8.366 -0.4107  0.0863 -0.2862
 5526SOL    HW228038   0.789   3.196   8.359 -2.6228 -0.1018  0.6590
 5527SOL     OW28039   0.976   1.659   0.764 -0.2121  0.4792 -0.4871
 5527SOL    HW128040   0.981   1.753   0.780  2.1795  0.5044 -1.3765
 5527SOL    HW228041   1.037   1.662   0.690  0.9086  0.5540  0.4353
 5528SOL     OW28042   0.101   2.392  14.097  0.0419  0.2681 -0.2906
 5528SOL    HW128043   0.019   2.409  14.050 -1.1391 -3.9212  0.2557
 5528SOL    HW228044   0.073   2.332  14.166 -0.7815  3.5310  2.2617
 5529SOL     OW28045   2.195   1.185  16.130 -0.0269 -0.2903 -0.3635
 5529SOL    HW128046   2.278   1.233  16.133  0.1445 -0.5484 -1.1312
 5529SOL    HW228047   2.145   1.248  16.182 -0.5632 -4.0989  3.6845
 5530SOL     OW28048   0.561   1.908  11.451 -0.3267 -0.1487 -0.1621
 5530SOL    HW128049   0.581   1.895  11.544  0.6456 -0.1668 -0.3774
 5530SOL    HW228050   0.644   1.930  11.409 -1.4506 -1.6130 -3.1444
 5531SOL     OW28051   4.712   1.780   5.592  0.4925 -0.1767 -0.0672
 5531SOL    HW128052   0.017   1.736   5.512  0.5681 -0.8451  0.3216
 5531SOL    HW228053   4.623   1.744   5.594  0.2210  0.4473 -1.3002
 5532SOL     OW28054   2.799   3.080  15.464  0.0331 -0.1658 -0.2365
 5532SOL    HW128055   2.866   3.036  15.412  0.2392 -0.4880  0.3024
 5532SOL    HW228056   2.857   3.135  15.517 -0.8349 -0.9977  1.5769
 5533SOL     OW28057   1.686   4.331   3.443  0.4916  1.1328 -0.5500
 5533SOL    HW128058   1.705   4.253   3.494 -0.8105  1.3862  0.3233
 5533SOL    HW228059   1.672   4.294   3.356 -1.2830  0.7155 -0.0848
 5534SOL     OW28060   1.091   3.810   7.768 -0.0311  0.1466  0.2465
 5534SOL    HW128061   1.158   3.860   7.721  0.6460 -0.3774  0.6574
 5534SOL    HW228062   1.048   3.764   7.696  0.2822 -0.4248  0.4213
 5535SOL     OW28063   2.973   3.974  12.314 -0.0560  0.1611  0.5368
 5535SOL    HW128064   2.901   4.006  12.369 -0.9557  2.4496 -1.9915
 5535SOL    HW228065   2.965   3.880  12.329 -0.8304  0.0893 -0.2920
 5536SOL     OW28066   1.956   3.749   3.433  0.1236 -0.3475  0.0090
 5536SOL    HW128067   1.997   3.697   3.364  1.9272  0.8702  0.1727
 5536SOL    HW228068   1.936   3.833   3.390  0.9481  0.6068  1.4961
 5537SOL     OW28069   3.701   3.412   9.870 -0.0375 -0.2372 -0.0230
 5537SOL    HW128070   3.657   3.473   9.811  1.4051  0.5656 -0.2502
 5537SOL    HW228071   3.775   3.462   9.904 -0.5697  1.5875 -1.5380
 5538SOL     OW28072   3.837   4.313   6.785 -0.7784  0.5241  0.5727
 5538SOL    HW128073   3.843   4.252   6.711  0.5812 -2.1096  2.8365
 5538SOL    HW228074   3.780   4.379   6.746 -0.8643 -0.5169 -1.0259
 5539SOL     OW28075   1.849   3.812  13.920 -0.0856 -0.3629  0.1355
 5539SOL    HW128076   1.914   3.883  13.921 -1.2112  0.6743 -1.3761
 5539SOL    HW228077   1.872   3.773  13.836 -2.0743 -0.0641 -0.5462
 5540SOL     OW28078   3.640   1.703   2.429  0.1009 -0.0503  0.1491
 5540SOL    HW128079   3.705   1.645   2.468 -0.6094 -1.3674 -0.6202
 5540SOL    HW228080   3.607   1.751   2.504  1.9949  0.1887  0.8249
 5541SOL     OW28081   0.783   4.436   4.981 -0.2299  0.2839 -0.2661
 5541SOL    HW128082   0.869   4.463   4.950 -0.4153  0.9120 -0.2527
 5541SOL    HW228083   0.748   4.366   4.926  0.1362 -0.2167  0.1343
 5542SOL     OW28084   1.581   1.456   6.669 -0.3394 -0.1974 -0.2132
 5542SOL    HW128085   1.665   1.413   6.686 -0.8722 -1.4101 -0.5955
 5542SOL    HW228086   1.590   1.464   6.574 -0.8680 -1.4314 -0.3666
 5543SOL     OW28087   1.858   0.329  13.265  0.2315 -0.4228 -0.5470
 5543SOL    HW128088   1.835   0.327  13.358  1.7752 -0.2464 -0.1549
 5543SOL    HW228089   1.930   0.266  13.266  0.3224 -0.3022  0.2363
 5544SOL     OW28090   0.918   1.821   8.780 -0.2174  0.0264  0.4867
 5544SOL    HW128091   0.990   1.884   8.772 -1.6576  1.5858 -0.0220
 5544SOL    HW228092   0.840   1.875   8.767  0.1670 -0.4253 -3.7461
 5545SOL     OW28093   4.132   0.244   8.437 -0.0751 -0.3906 -0.1605
 5545SOL    HW128094   4.046   0.262   8.400 -0.5231 -0.7340  0.6905
 5545SOL    HW228095   4.108   0.202   8.520 -0.2383 -0.0149 -0.0220
 5546SOL     OW28096   4.203   2.152   7.375  0.3102  0.2537  0.5895
 5546SOL    HW128097   4.229   2.232   7.330 -1.3639 -0.0877 -0.9878
 5546SOL    HW228098   4.204   2.083   7.309 -1.6828  1.6093 -0.8992
 5547SOL     OW28099   1.064   3.992  12.803 -0.1255  0.8995 -0.0902
 5547SOL    HW128100   1.058   4.049  12.879 -1.1413  2.7579 -1.5744
 5547SOL    HW228101   1.155   3.966  12.814  0.1160  1.0788 -1.7677
 5548SOL     OW28102   4.258   3.088   8.229 -0.4314 -0.2367 -0.0387
 5548SOL    HW128103   4.333   3.066   8.285 -0.2489  1.0948  0.2203
 5548SOL    HW228104   4.198   3.026   8.270 -0.9831 -2.1511 -3.7017
 5549SOL     OW28105   0.546   2.484   2.117 -0.2692 -0.4618 -0.0118
 5549SOL    HW128106   0.486   2.510   2.187 -1.7345 -0.1350 -1.3774
 5549SOL    HW228107   0.626   2.511   2.163 -0.0510  0.7628 -1.1013
 5550SOL     OW28108   4.157   3.259   6.170 -0.1213  0.5952 -0.0278
 5550SOL    HW128109   4.142   3.280   6.262 -2.5367 -1.2789  0.0110
 5550SOL    HW228110   4.065   3.235   6.158 -0.1479  0.9784 -0.5694
 5551SOL     OW28111   3.099   4.651   4.351  0.2754 -0.6050 -0.3225
 5551SOL    HW128112   3.113   4.694   4.435 -0.3151 -0.5250 -0.2592
 5551SOL    HW228113   3.185   4.611   4.342  1.5158  1.5419  2.0692
 5552SOL     OW28114   3.759   1.717   1.364 -0.5200 -0.3469 -0.5641
 5552SOL    HW128115   3.749   1.811   1.350  1.5771 -0.3866 -2.3678
 5552SOL    HW228116   3.672   1.680   1.357 -0.5813  0.2530 -2.7752
 5553SOL     OW28117   1.433   0.005   9.541  0.9743 -0.1357 -0.7708
 5553SOL    HW128118   1.386   0.061   9.602  0.9192 -2.0874  0.9848
 5553SOL    HW228119   1.449   0.067   9.470  2.9691  1.3604  0.9846
 5554SOL     OW28120   0.207   2.820   8.851 -0.1162  0.5495  0.7591
 5554SOL    HW128121   0.210   2.797   8.758  0.6857  1.0573  0.6567
 5554SOL    HW228122   0.117   2.795   8.872 -0.6420 -0.7645 -2.9527
 5555SOL     OW28123   1.530   0.562   2.413  0.2938 -0.2717 -0.6069
 5555SOL    HW128124   1.454   0.593   2.364  1.6037  1.8885 -1.2488
 5555SOL    HW228125   1.491   0.576   2.500  0.7578  0.5942 -0.5483
 5556SOL     OW28126   1.002   0.097   9.100  0.1036  0.0475 -0.6460
 5556SOL    HW128127   0.994   0.191   9.087 -1.0826  0.2294  1.4038
 5556SOL    HW228128   0.918   0.060   9.074  1.8903 -2.2063 -3.2009
 5557SOL     OW28129   4.406   2.858   5.413  0.3767 -0.4120  0.1922
 5557SOL    HW128130   4.468   2.796   5.451  0.1367 -1.1271 -0.5671
 5557SOL    HW228131   4.408   2.922   5.484 -0.4327  2.5291 -2.4457
 5558SOL     OW28132   3.190   1.955   5.336  0.0089 -0.0235  0.1083
 5558SOL    HW128133   3.154   1.868   5.318 -0.0816 -0.3429  1.7973
 5558SOL    HW228134   3.122   1.987   5.395  0.4765 -0.0445  0.6660
 5559SOL     OW28135   0.754   4.563   3.510  0.1823  0.1373 -0.3009
 5559SOL    HW128136   0.815   4.492   3.489  0.7579  0.7829 -0.8320
 5559SOL    HW228137   0.805   4.582   3.588 -1.5123 -1.1950  1.1440
 5560SOL     OW28138   0.454   1.370  14.349  1.1080  0.2270  0.2348
 5560SOL    HW128139   0.504   1.417  14.282  0.3220  0.3346 -0.2690
 5560SOL    HW228140   0.417   1.295  14.301  1.1486 -0.4811  1.3060
 5561SOL     OW28141   0.244   1.911  16.144 -0.1054 -0.1851 -0.1651
 5561SOL    HW128142   0.284   1.893  16.229  0.7716 -2.1654 -0.9955
 5561SOL    HW228143   0.170   1.966  16.169  0.1767  0.1548 -0.0753
 5562SOL     OW28144   2.817   1.690  16.277  0.6894 -0.0713 -0.4081
 5562SOL    HW128145   2.743   1.701  16.218 -2.2396 -4.0181  2.4710
 5562SOL    HW228146   2.877   1.709  16.205  1.3704 -0.2859  0.0972
 5563SOL     OW28147   0.729   2.686   6.284  0.2591 -0.2860 -0.0432
 5563SOL    HW128148   0.769   2.605   6.317  1.5148  0.4259  0.1547
 5563SOL    HW228149   0.736   2.742   6.362  0.3441 -0.9829  0.4532
 5564SOL     OW28150   1.652   3.172   2.291  0.2905 -0.1687 -0.0005
 5564SOL    HW128151   1.744   3.175   2.269  0.1125  0.3360 -0.6497
 5564SOL    HW228152   1.619   3.093   2.248 -1.2445  0.4699 -0.0189
 5565SOL     OW28153   3.574   1.713   7.951  0.5017  0.7512 -0.0881
 5565SOL    HW128154   3.660   1.714   7.993  0.7962  0.0995 -0.6711
 5565SOL    HW228155   3.595   1.647   7.885  2.9965  0.9533  0.4935
 5566SOL     OW28156   4.451   2.350   2.865 -0.2421  0.6323  0.9825
 5566SOL    HW128157   4.464   2.423   2.804 -1.1605 -0.5701 -0.6641
 5566SOL    HW228158   4.393   2.294   2.813 -1.0418  0.8273  1.6642
 5567SOL     OW28159   0.955   2.086  10.338 -0.2134  0.1842 -0.1166
 5567SOL    HW128160   0.993   2.116  10.421  2.1265 -0.0440 -1.0978
 5567SOL    HW228161   0.864   2.065  10.359  0.0590 -1.5309 -0.6676
 5568SOL     OW28162   4.303   4.329   5.595  0.2769 -0.0003 -0.0238
 5568SOL    HW128163   4.372   4.263   5.610 -0.2204 -0.3969  0.4908
 5568SOL    HW228164   4.260   4.299   5.515  1.1238 -0.3764 -0.3483
 5569SOL     OW28165   4.528   3.920   0.318 -0.4964 -0.1888  0.1713
 5569SOL    HW128166   4.494   3.932   0.229 -0.3987 -0.5340  0.0851
 5569SOL    HW228167   4.449   3.890   0.361 -0.0089 -0.5694  0.7971
 5570SOL     OW28168   0.248   3.066   7.734  0.5171  0.0701  0.6139
 5570SOL    HW128169   0.219   3.038   7.820  0.1195 -3.4132 -0.6385
 5570SOL    HW228170   0.254   2.989   7.676  2.6029  0.6553  0.0557
 5571SOL     OW28171   3.623   0.300   8.758  0.1500 -0.7436  0.3171
 5571SOL    HW128172   3.644   0.355   8.834 -0.0422  1.4983 -1.2876
 5571SOL    HW228173   3.567   0.231   8.793 -0.0789 -1.1156 -0.7935
 5572SOL     OW28174   0.647   3.383   0.447 -0.5386 -0.0754 -0.4321
 5572SOL    HW128175   0.690   3.302   0.419  0.4235  0.2330  0.1635
 5572SOL    HW228176   0.570   3.368   0.391 -1.6073 -1.5260  1.4395
 5573SOL     OW28177   1.314   4.013   6.355  0.5253  0.4261 -0.3705
 5573SOL    HW128178   1.355   4.096   6.331 -1.0433  0.4903 -2.8336
 5573SOL    HW228179   1.220   4.032   6.354  0.6469  1.0630  0.3371
 5574SOL     OW28180   4.608   0.324   7.357 -0.7464  0.4567  0.3188
 5574SOL    HW128181   4.652   0.258   7.411 -0.1584  1.6113  1.2663
 5574SOL    HW228182   4.683   0.382   7.343 -0.2909  0.0784  1.2091
 5575SOL     OW28183   2.914   1.020   5.414 -0.2451  0.0665 -0.1183
 5575SOL    HW128184   2.968   1.005   5.336 -1.3587 -0.2016 -0.8523
 5575SOL    HW228185   2.950   1.099   5.452  0.4834  0.7278 -2.1666
 5576SOL     OW28186   0.806   3.102   1.806  1.0242  0.9599 -0.2783
 5576SOL    HW128187   0.771   3.068   1.723 -1.3133  1.1931  0.6298
 5576SOL    HW228188   0.891   3.059   1.794  1.8233  2.5721 -0.3494
 5577SOL     OW28189   1.529   3.790   7.417 -0.0368 -0.3689 -0.6400
 5577SOL    HW128190   1.534   3.712   7.361 -0.7538 -0.9434  0.0799
 5577SOL    HW228191   1.621   3.816   7.412 -0.8536  2.6698  0.1895
 5578SOL     OW28192   2.225   3.121  16.520  0.4848 -0.4405  0.8079
 5578SOL    HW128193   2.159   3.071  16.473 -0.6191  1.8005 -0.0290
 5578SOL    HW228194   2.175   3.203  16.522 -0.6063 -1.1442  1.8373
 5579SOL     OW28195   3.721   1.664  14.204  0.4622  0.7436 -0.0081
 5579SOL    HW128196   3.743   1.623  14.287  1.6353 -0.7826 -1.0724
 5579SOL    HW228197   3.668   1.741  14.223 -0.0190  0.5308 -0.5086
 5580SOL     OW28198   1.647   2.663   8.246  0.6341  0.4865  0.1708
 5580SOL    HW128199   1.618   2.671   8.337 -1.1262 -3.1903 -0.0590
 5580SOL    HW228200   1.733   2.628   8.270 -0.3390 -2.0624 -0.0421
 5581SOL     OW28201   4.721   1.682   3.817  0.6224 -0.3804  0.1453
 5581SOL    HW128202   0.016   1.749   3.882 -0.4513  0.3715 -0.3141
 5581SOL    HW228203   0.066   1.619   3.839  2.1505 -0.0350 -3.6445
 5582SOL     OW28204   0.369   3.955   6.510 -0.0735  0.0773  0.3156
 5582SOL    HW128205   0.357   4.050   6.501 -1.0065 -0.1091 -0.3828
 5582SOL    HW228206   0.464   3.951   6.499  0.0872  0.5156  1.4860
 5583SOL     OW28207   2.976   1.775   4.247 -0.4237 -0.4980 -0.1008
 5583SOL    HW128208   2.919   1.835   4.294 -0.3742 -0.4435 -0.1113
 5583SOL    HW228209   3.039   1.833   4.205 -1.2421 -1.4135 -2.6116
 5584SOL     OW28210   3.076   1.203  12.161 -0.2451 -0.2420  0.4887
 5584SOL    HW128211   3.002   1.243  12.116 -0.7498 -0.2299  1.3310
 5584SOL    HW228212   3.148   1.240  12.110  0.8747 -0.7447  1.7024
 5585SOL     OW28213   1.710   0.328  10.779  0.2249 -0.3855  0.0631
 5585SOL    HW128214   1.686   0.256  10.837  2.5392  0.3558  1.9788
 5585SOL    HW228215   1.747   0.378  10.853  1.4075  1.0441 -1.5047
 5586SOL     OW28216   4.621   0.529   6.850 -0.1210 -0.5750  0.1218
 5586SOL    HW128217   4.615   0.574   6.934 -0.2837 -0.8188  0.2411
 5586SOL    HW228218   4.535   0.532   6.807 -0.3880  0.6568  0.7630
 5587SOL     OW28219   1.340   3.027   7.608  0.1541 -0.4357  0.4927
 5587SOL    HW128220   1.259   3.025   7.557 -1.2309 -0.8826  2.7162
 5587SOL    HW228221   1.345   3.119   7.634  2.0330 -0.8298  1.5372
 5588SOL     OW28222   4.661   3.243  12.240 -0.1725  1.0778 -0.1062
 5588SOL    HW128223   4.633   3.200  12.321  2.1198 -2.5505 -1.2176
 5588SOL    HW228224   4.717   3.176  12.200  1.9190  0.9611  3.0165
 5589SOL     OW28225   0.700   3.782  12.160 -0.3788  0.2051  0.5053
 5589SOL    HW128226   0.704   3.728  12.082 -0.5532 -0.4511  0.9552
 5589SOL    HW228227   0.730   3.716  12.223 -0.1740  1.8401  2.1496
 5590SOL     OW28228   4.470   3.251   3.932 -0.1685 -0.3041 -0.1881
 5590SOL    HW128229   4.497   3.190   4.002 -0.4279  0.1781  0.3313
 5590SOL    HW228230   4.506   3.203   3.858  0.2495  0.6768 -0.6156
 5591SOL     OW28231   3.584   2.574   3.635 -0.1444 -0.3805 -0.0730
 5591SOL    HW128232   3.631   2.523   3.701 -0.2571 -2.0890 -1.3084
 5591SOL    HW228233   3.577   2.523   3.554  0.7736 -0.3492 -0.1791
 5592SOL     OW28234   0.449   4.627   5.006  0.7277  0.2969  0.8050
 5592SOL    HW128235   0.365   4.595   5.039  0.2386  0.4331 -0.3495
 5592SOL    HW228236   0.499   4.545   5.000  1.3194  0.7111  0.1650
 5593SOL     OW28237   2.140   0.478   2.261  0.3673 -0.1183  0.0658
 5593SOL    HW128238   2.108   0.492   2.172  0.0743 -0.5139  0.1071
 5593SOL    HW228239   2.233   0.498   2.254  0.2602  0.7626  1.4283
 5594SOL     OW28240   2.034   1.291  11.581  0.5105  0.1877  0.1903
 5594SOL    HW128241   2.121   1.332  11.583  3.1530 -5.2946 -0.3723
 5594SOL    HW228242   1.999   1.332  11.502  2.2935  0.9002 -0.2337
 5595SOL     OW28243   2.618   0.915   5.831 -0.0712  0.1149  0.3503
 5595SOL    HW128244   2.658   0.995   5.865 -2.3948  1.0562  0.9077
 5595SOL    HW228245   2.690   0.874   5.784 -0.5103 -1.3173  0.9240
 5596SOL     OW28246   3.657   0.591   8.315 -0.5025  0.4284 -0.2316
 5596SOL    HW128247   3.568   0.557   8.323 -0.6756  1.0964  0.7209
 5596SOL    HW228248   3.647   0.670   8.368  2.9372 -0.3313  1.5507
 5597SOL     OW28249   0.731   1.582   1.229 -0.1358 -0.2288 -0.4176
 5597SOL    HW128250   0.746   1.518   1.298  1.6563  1.2838  0.5857
 5597SOL    HW228251   0.679   1.650   1.271  0.3944 -0.0132 -0.0975
 5598SOL     OW28252   3.247   2.309   6.946 -0.5768  0.1202  0.1842
 5598SOL    HW128253   3.308   2.323   7.018 -0.6907 -2.2366  0.7382
 5598SOL    HW228254   3.278   2.363   6.874 -1.6687 -1.6324 -1.5996
 5599SOL     OW28255   2.303   3.642   8.291 -0.9087  0.3410  0.6652
 5599SOL    HW128256   2.300   3.546   8.296  0.2120  0.2519 -0.5852
 5599SOL    HW228257   2.333   3.651   8.381 -0.8327  0.6957  0.6057
 5600SOL     OW28258   1.795   0.065   5.480 -0.2672 -0.4170  0.0758
 5600SOL    HW128259   1.704   0.078   5.452  0.0032 -1.9266 -1.4995
 5600SOL    HW228260   1.819   4.713   5.427 -0.9775  0.1009 -0.9903
 5601SOL     OW28261   2.183   4.087   8.631 -0.6303 -0.0271 -0.0392
 5601SOL    HW128262   2.141   4.016   8.582  1.4115 -0.4464 -1.1947
 5601SOL    HW228263   2.257   4.041   8.671  0.6529  1.0599 -1.1609
 5602SOL     OW28264   1.129   1.880  13.596  0.0379  0.0060 -0.4897
 5602SOL    HW128265   1.196   1.813  13.581 -1.2552 -1.0453 -1.5766
 5602SOL    HW228266   1.064   1.847  13.534 -0.0779  2.1082 -1.4884
 5603SOL     OW28267   4.035   0.484   3.625  0.3428  0.1870 -0.6750
 5603SOL    HW128268   3.990   0.568   3.635 -0.8256 -0.5214  0.0275
 5603SOL    HW228269   4.038   0.453   3.716  1.7028  1.5353 -0.2654
 5604SOL     OW28270   1.819   0.875   5.457 -0.2213 -0.0445  0.2191
 5604SOL    HW128271   1.830   0.943   5.523 -0.2668 -0.3949  0.5821
 5604SOL    HW228272   1.858   0.909   5.376 -0.2292 -0.3973  0.0649
 5605SOL     OW28273   3.070   1.605   8.118  0.2621  0.1453  0.1523
 5605SOL    HW128274   3.041   1.515   8.104 -1.1711  0.7017 -0.4263
 5605SOL    HW228275   3.158   1.589   8.082 -0.0248 -0.4149 -0.2952
 5606SOL     OW28276   0.685   3.771   8.205  0.3337 -0.0903  0.9295
 5606SOL    HW128277   0.630   3.827   8.150 -0.2657 -0.7653  0.8390
 5606SOL    HW228278   0.710   3.697   8.151  0.0544 -0.7489  1.7136
 5607SOL     OW28279   4.040   0.328  15.134  0.3509 -0.2068 -0.1244
 5607SOL    HW128280   4.130   0.299  15.120 -0.0281 -1.4960  0.1133
 5607SOL    HW228281   4.036   0.309  15.228 -1.6477  2.1236  0.2813
 5608SOL     OW28282   2.045   0.226  17.116  0.2031  0.2626  0.0360
 5608SOL    HW128283   2.006   0.205  17.201 -2.5237 -0.6494 -1.4510
 5608SOL    HW228284   2.033   0.320  17.124  1.2877  0.5263 -1.4913
 5609SOL     OW28285   3.418   1.917   2.343 -0.3834 -0.0391 -0.0293
 5609SOL    HW128286   3.382   1.970   2.415  3.1581  0.2946  1.4676
 5609SOL    HW228287   3.409   1.833   2.387 -1.0553  0.2303  0.3512
 5610SOL     OW28288   0.121   2.114  12.942 -0.1018 -0.1398  0.1931
 5610SOL    HW128289   0.142   2.202  12.910 -0.0841 -0.8891 -1.8352
 5610SOL    HW228290   0.078   2.140  13.024  0.1487  1.2990 -0.1360
 5611SOL     OW28291   1.187   4.683  12.568  0.4070  0.1453 -0.7269
 5611SOL    HW128292   1.110   4.681  12.625  0.9191  0.1439 -0.0386
 5611SOL    HW228293   1.193   4.589  12.550  1.0215  0.0631 -0.0791
 5612SOL     OW28294   4.663   1.574   2.812 -0.3215 -0.4928  0.0081
 5612SOL    HW128295   0.031   1.600   2.823 -0.9328  1.3827  0.6761
 5612SOL    HW228296   4.669   1.488   2.854  0.3300 -0.0199  0.8664
 5613SOL     OW28297   1.880   1.958  13.666  0.1022 -0.5508 -0.2393
 5613SOL    HW128298   1.939   1.993  13.599 -2.3079  1.4808 -1.2995
 5613SOL    HW228299   1.869   1.870  13.631 -1.2290 -0.8240  0.8515
 5614SOL     OW28300   3.811   4.586   4.297 -0.0166  0.4329  0.3912
 5614SOL    HW128301   3.890   4.532   4.297  1.2056  2.2137  1.2174
 5614SOL    HW228302   3.819   4.617   4.207 -1.9067 -1.5863 -0.4695
 5615SOL     OW28303   4.427   2.161   6.264  0.1711  0.2283 -0.0829
 5615SOL    HW128304   4.501   2.213   6.293 -0.5033  1.3330 -0.3376
 5615SOL    HW228305   4.450   2.074   6.296  0.1229  0.6278  1.0446
 5616SOL     OW28306   1.019   2.296  13.607  0.1130  0.4180 -0.0235
 5616SOL    HW128307   1.033   2.379  13.563 -0.2240 -0.7653 -2.3534
 5616SOL    HW228308   1.107   2.283  13.643 -0.6331 -0.3594  1.5372
 5617SOL     OW28309   1.281   2.222   2.864 -0.0059  0.1622 -0.1612
 5617SOL    HW128310   1.212   2.288   2.870  2.7590  3.0499 -0.1332
 5617SOL    HW228311   1.364   2.270   2.872 -0.3163  0.8982 -1.3357
 5618SOL     OW28312   1.597   0.259  14.154  0.0915  0.2502  0.0949
 5618SOL    HW128313   1.527   0.267  14.218 -1.5216  0.9381 -1.7355
 5618SOL    HW228314   1.657   0.332  14.171  1.7631 -1.0260 -0.4316
 5619SOL     OW28315   3.703   0.120  15.978  0.1771  0.8870 -0.2761
 5619SOL    HW128316   3.737   0.034  15.999  0.3545  0.7426 -1.1375
 5619SOL    HW228317   3.628   0.132  16.036  0.3015 -0.7884  0.2229
 5620SOL     OW28318   3.688   4.187   9.326  0.3257 -0.5470  0.2167
 5620SOL    HW128319   3.604   4.154   9.295 -1.1285  1.8983  1.6423
 5620SOL    HW228320   3.743   4.161   9.252 -1.1424  0.9608 -1.3842
 5621SOL     OW28321   0.595   2.855   6.091 -0.4896  0.2415 -0.4819
 5621SOL    HW128322   0.660   2.863   6.021  1.3006  0.8491  1.2345
 5621SOL    HW228323   0.637   2.803   6.160 -1.3034  2.1515  1.4441
 5622SOL     OW28324   0.828   1.351   5.533 -0.5465  0.0935 -0.3777
 5622SOL    HW128325   0.852   1.387   5.448 -1.2754  2.3365  0.3647
 5622SOL    HW228326   0.742   1.391   5.548  0.2427  1.8515 -0.6016
 5623SOL     OW28327   4.234   4.613   5.522  0.3337  0.0849  0.1758
 5623SOL    HW128328   4.260   4.526   5.492  0.1972  0.6445 -1.5755
 5623SOL    HW228329   4.262   4.678   5.458 -2.3351  1.4224  0.3482
 5624SOL     OW28330   1.384   2.195   2.595 -0.4272 -0.1573 -0.4624
 5624SOL    HW128331   1.294   2.172   2.622  0.0430 -0.8355  0.5249
 5624SOL    HW228332   1.422   2.208   2.682 -1.0885 -1.3567  0.0127
 5625SOL     OW28333   1.810   3.520  12.066  0.2398  0.3206 -0.1542
 5625SOL    HW128334   1.826   3.427  12.055 -0.2662  0.3062 -0.8033
 5625SOL    HW228335   1.761   3.527  12.149  0.7380 -1.0377  0.2556
 5626SOL     OW28336   1.725   1.336   3.912 -0.2456 -0.0867 -0.0300
 5626SOL    HW128337   1.746   1.363   3.823  2.9284 -0.7325  0.5258
 5626SOL    HW228338   1.806   1.364   3.956  0.0494 -0.1784 -0.5161
 5627SOL     OW28339   2.581   0.011   2.828  0.0878  0.4403 -0.1507
 5627SOL    HW128340   2.520   0.080   2.854  0.6212 -0.4389  3.3499
 5627SOL    HW228341   2.660   0.039   2.874 -2.1378  2.0820  2.7200
 5628SOL     OW28342   2.656   2.048   1.566  0.0756 -0.4167  0.0850
 5628SOL    HW128343   2.590   1.978   1.570 -0.9543  0.5993  0.8279
 5628SOL    HW228344   2.620   2.109   1.502 -1.6027  0.5604  1.9557
 5629SOL     OW28345   4.395   1.258  10.542 -0.1965 -0.3486 -0.1072
 5629SOL    HW128346   4.452   1.237  10.468 -0.3307  0.2180 -0.3649
 5629SOL    HW228347   4.407   1.180  10.596  0.2879  0.4983  1.0133
 5630SOL     OW28348   0.321   0.866   4.355 -0.2774  0.7027  0.2762
 5630SOL    HW128349   0.290   0.783   4.391  4.6356 -0.3569  2.0257
 5630SOL    HW228350   0.381   0.832   4.288  0.0202 -0.8154  1.3146
 5631SOL     OW28351   3.322   0.771   2.110 -0.4588 -0.3635  0.5107
 5631SOL    HW128352   3.334   0.735   2.198 -1.8086 -0.5347  0.6198
 5631SOL    HW228353   3.268   0.848   2.129  0.2812  0.1964  0.3597
 5632SOL     OW28354   2.979   3.234   6.798  0.1196 -0.3741 -0.4316
 5632SOL    HW128355   3.015   3.276   6.877  0.5103  0.8251 -1.2422
 5632SOL    HW228356   2.994   3.141   6.813  0.4566 -0.6786 -2.6705
 5633SOL     OW28357   0.871   2.744  15.456 -0.1105  0.0767 -0.1312
 5633SOL    HW128358   0.781   2.750  15.424  0.2686  3.0928 -0.5765
 5633SOL    HW228359   0.923   2.717  15.380 -1.1188  1.1497 -1.2102
 5634SOL     OW28360   1.398   3.260  16.847  0.4822 -0.3122 -0.1271
 5634SOL    HW128361   1.345   3.183  16.863 -0.4751  0.4703  0.4642
 5634SOL    HW228362   1.327   3.324  16.842  1.7150  1.0275 -0.5289
 5635SOL     OW28363   2.604   4.296   3.354  0.3282  0.0658  0.1840
 5635SOL    HW128364   2.610   4.231   3.283 -1.0714  1.7395 -1.4801
 5635SOL    HW228365   2.697   4.300   3.378  0.3542  2.5494 -0.2900
 5636SOL     OW28366   1.936   2.108  15.514 -0.0786  0.1581  0.2024
 5636SOL    HW128367   1.854   2.155  15.529 -0.9186 -0.9486 -0.9895
 5636SOL    HW228368   1.909   2.058  15.438  0.4323  0.2427 -0.0335
 5637SOL     OW28369   3.326   0.452  15.424  0.3767 -0.2636 -0.1301
 5637SOL    HW128370   3.255   0.515  15.429 -1.0083 -1.8770  0.7992
 5637SOL    HW228371   3.312   0.402  15.505 -1.2756 -2.5789 -1.8469
 5638SOL     OW28372   4.064   2.009   8.217 -0.4707  0.3998 -0.2540
 5638SOL    HW128373   4.097   2.079   8.273 -0.7358 -0.4372  0.9367
 5638SOL    HW228374   3.972   2.038   8.217 -0.6581 -0.2208  0.4104
 5639SOL     OW28375   1.703   0.885  11.041 -0.0808 -0.2998 -0.0282
 5639SOL    HW128376   1.767   0.945  11.002 -0.3028 -1.1232 -1.6805
 5639SOL    HW228377   1.755   0.844  11.110  3.2695  1.2742 -1.5834
 5640SOL     OW28378   0.808   1.955   8.193 -0.1244 -0.3557  0.4204
 5640SOL    HW128379   0.729   1.901   8.198  0.4435 -1.0655  1.6711
 5640SOL    HW228380   0.778   2.021   8.130  3.0272 -0.5912 -1.3332
 5641SOL     OW28381   1.850   2.764   2.117 -0.4866 -0.2848  0.1847
 5641SOL    HW128382   1.891   2.679   2.102  0.0955  0.2962 -1.4786
 5641SOL    HW228383   1.897   2.806   2.045 -1.8506 -2.2542 -1.8287
 5642SOL     OW28384   4.030   0.436   9.406 -0.3681 -0.7742 -0.1293
 5642SOL    HW128385   3.975   0.513   9.406  1.5816  0.6141  1.6399
 5642SOL    HW228386   3.969   0.363   9.394 -0.5897 -0.3358 -1.5724
 5643SOL     OW28387   0.464   2.439   6.908 -0.5045 -0.4607  0.0218
 5643SOL    HW128388   0.553   2.428   6.874  0.1722 -2.6116  2.4377
 5643SOL    HW228389   0.417   2.496   6.847 -0.1293 -0.8709 -0.6515
 5644SOL     OW28390   4.446   2.680  10.845 -0.1658 -0.2039 -0.4585
 5644SOL    HW128391   4.420   2.727  10.924  0.7393  0.0334 -0.3060
 5644SOL    HW228392   4.540   2.674  10.857 -0.2752  0.7016  0.8438
 5645SOL     OW28393   0.988   3.792   7.216 -0.2551 -0.4000  0.0610
 5645SOL    HW128394   1.019   3.708   7.251  2.4324  0.2693 -0.6555
 5645SOL    HW228395   0.913   3.818   7.268 -0.2729 -1.4209  0.5502
 5646SOL     OW28396   0.161   4.672   8.006  0.1791 -0.1002 -0.0079
 5646SOL    HW128397   0.155   4.582   8.039 -0.8685  0.6584  1.8931
 5646SOL    HW228398   0.187   4.665   7.914 -0.8978 -1.3829 -0.2178
 5647SOL     OW28399   0.005   3.384   3.784  0.0879 -0.0335 -0.2945
 5647SOL    HW128400   0.010   3.453   3.850 -2.5119 -0.1203 -0.0379
 5647SOL    HW228401   0.082   3.332   3.810  0.0114 -0.1427 -0.2854
 5648SOL     OW28402   1.443   0.138  17.341 -0.1348 -0.1265 -0.2244
 5648SOL    HW128403   1.441   0.073  17.271 -3.9488 -0.9850  0.6906
 5648SOL    HW228404   1.453   0.084  17.419  2.6874  0.2870 -0.2833
 5649SOL     OW28405   4.377   2.919   3.898  0.7826  0.1343 -0.1167
 5649SOL    HW128406   4.425   2.977   3.839 -1.5556  1.6823 -0.4914
 5649SOL    HW228407   4.350   2.848   3.840 -1.8416  1.4348 -0.5328
 5650SOL     OW28408   3.224   4.452  12.489  0.1033  0.0829  0.6076
 5650SOL    HW128409   3.238   4.511  12.416 -1.4668 -1.3591 -0.8456
 5650SOL    HW228410   3.303   4.400  12.473 -0.6095 -0.2300 -1.8022
 5651SOL     OW28411   3.480   4.236   2.270 -0.2058  0.2002 -0.1846
 5651SOL    HW128412   3.405   4.218   2.213  0.9359  2.6746 -2.4659
 5651SOL    HW228413   3.546   4.243   2.202  0.5673 -0.7065  0.4797
 5652SOL     OW28414   3.558   4.584   5.478  0.3836 -0.0122  0.0508
 5652SOL    HW128415   3.647   4.563   5.450  0.5914  2.3152 -0.9969
 5652SOL    HW228416   3.565   4.601   5.572  2.2177  0.1168 -0.1211
 5653SOL     OW28417   3.605   4.168   1.738 -0.6670  0.5047 -0.1562
 5653SOL    HW128418   3.694   4.140   1.721 -0.5033 -1.0974  3.3388
 5653SOL    HW228419   3.584   4.216   1.658  1.5966  0.2884 -0.8668
 5654SOL     OW28420   0.771   0.930   6.471  0.0644  0.1752 -0.0500
 5654SOL    HW128421   0.849   0.886   6.436 -1.1622 -1.3745 -0.8487
 5654SOL    HW228422   0.724   0.865   6.524 -0.5845  1.3467  0.7998
 5655SOL     OW28423   1.844   2.172   6.571  0.4338 -0.1424 -0.4408
 5655SOL    HW128424   1.939   2.165   6.587  0.4347  0.1947 -0.2857
 5655SOL    HW228425   1.811   2.194   6.658  4.9723  2.4364  0.6674
 5656SOL     OW28426   0.492   1.634  16.415 -0.2370 -0.2397 -0.0700
 5656SOL    HW128427   0.484   1.720  16.457 -0.1739 -0.7656  1.0087
 5656SOL    HW228428   0.415   1.636  16.358 -0.1690 -2.4684 -0.2372
 5657SOL     OW28429   4.179   1.459   4.043 -0.2392 -0.2201  0.2846
 5657SOL    HW128430   4.166   1.410   3.963 -0.3320 -1.6096  1.1493
 5657SOL    HW228431   4.147   1.396   4.108 -0.7373  0.4219  0.6612
 5658SOL     OW28432   1.305   3.648  14.372 -0.1572 -0.2255  0.2926
 5658SOL    HW128433   1.337   3.703  14.444  1.5120 -1.4243  0.4726
 5658SOL    HW228434   1.304   3.713  14.302  0.7086 -1.3732 -0.7966
 5659SOL     OW28435   0.954   4.627  10.558 -0.7443 -0.2790 -0.1497
 5659SOL    HW128436   1.049   4.633  10.571 -0.7733  3.3396 -1.7213
 5659SOL    HW228437   0.939   4.549  10.611 -1.1131  0.2596  0.5461
 5660SOL     OW28438   0.323   0.095   6.197 -0.3312 -0.0900 -0.0032
 5660SOL    HW128439   0.229   0.080   6.197 -0.7227  2.2034 -3.0804
 5660SOL    HW228440   0.338   0.128   6.285  1.7044 -1.2394  0.0804
 5661SOL     OW28441   2.815   4.035   2.290  0.2674  0.3876  0.3716
 5661SOL    HW128442   2.760   3.986   2.351  0.3998  0.9094  0.9123
 5661SOL    HW228443   2.746   4.097   2.268  1.5529  1.1217 -1.5630
 5662SOL     OW28444   2.169   2.561  10.499  0.0308 -0.2303  0.0150
 5662SOL    HW128445   2.085   2.561  10.544 -0.2381 -3.5842 -0.5418
 5662SOL    HW228446   2.154   2.510  10.420 -1.3980  2.1809 -1.2764
 5663SOL     OW28447   0.019   2.153   6.347 -0.0195 -0.6629  0.2540
 5663SOL    HW128448   0.111   2.139   6.368 -0.1900 -2.3419 -0.1376
 5663SOL    HW228449   4.696   2.074   6.320  0.2582 -0.7470  0.0241
 5664SOL     OW28450   4.375   0.163   4.045 -0.2361 -0.0963 -0.4039
 5664SOL    HW128451   4.387   0.237   3.985  0.7818 -0.2887 -0.4429
 5664SOL    HW228452   4.442   0.099   4.019 -0.7777 -0.8443  0.0541
 5665SOL     OW28453   2.500   3.951   9.367 -0.7130 -0.3088  0.1646
 5665SOL    HW128454   2.549   3.908   9.438 -1.8283  0.6965  1.5494
 5665SOL    HW228455   2.423   3.975   9.418 -0.5477 -0.4377  0.4756
 5666SOL     OW28456   3.237   4.051   9.065 -0.5014  0.6416  0.1374
 5666SOL    HW128457   3.166   3.990   9.084  0.7794 -0.7820  0.3420
 5666SOL    HW228458   3.259   4.031   8.974  0.4485  1.9390  0.0847
 5667SOL     OW28459   2.586   2.253   4.429 -0.0923  0.4066  0.0549
 5667SOL    HW128460   2.635   2.335   4.442  0.6706  0.0737 -0.7535
 5667SOL    HW228461   2.499   2.289   4.412 -0.4396 -1.3183 -1.7477
 5668SOL     OW28462   0.118   0.552   2.108 -0.5632  0.2363 -0.2760
 5668SOL    HW128463   0.152   0.474   2.064 -0.0435  0.1362  0.2968
 5668SOL    HW228464   0.199   0.586   2.145 -0.6580  0.1993 -0.0320
 5669SOL     OW28465   2.564   4.348   6.033  0.1665  0.0801  0.3790
 5669SOL    HW128466   2.549   4.426   6.086  1.1903  0.9739 -0.6571
 5669SOL    HW228467   2.475   4.315   6.025 -0.0787  1.2862 -1.7611
 5670SOL     OW28468   1.869   0.529   3.735  1.0442  0.5989  0.7717
 5670SOL    HW128469   1.932   0.471   3.777  1.2817  0.8046  0.7036
 5670SOL    HW228470   1.848   0.592   3.804 -0.3422  0.8646  0.1069
 5671SOL     OW28471   0.041   3.105   7.259 -0.2118  0.4803 -0.1847
 5671SOL    HW128472   0.061   3.110   7.165  0.5968 -0.9786 -0.0943
 5671SOL    HW228473   4.689   3.163   7.251  0.1629  1.1406  1.2588
 5672SOL     OW28474   1.390   3.630   1.799 -0.5403 -0.5914 -0.4073
 5672SOL    HW128475   1.454   3.679   1.747  0.0349 -2.7282 -1.7015
 5672SOL    HW228476   1.310   3.679   1.780 -2.4161 -3.2016  0.8246
 5673SOL     OW28477   1.621   4.501   6.088 -0.2119 -0.7477  1.0048
 5673SOL    HW128478   1.711   4.510   6.057 -0.8200 -0.4292 -0.7042
 5673SOL    HW228479   1.601   4.408   6.075 -0.7761 -0.2694 -1.5800
 5674SOL     OW28480   3.680   3.111   5.165 -0.2174  0.6557  0.5561
 5674SOL    HW128481   3.627   3.175   5.118  0.6412  1.3005  0.4558
 5674SOL    HW228482   3.725   3.175   5.221 -0.7390 -0.4542  2.2172
 5675SOL     OW28483   2.007   1.385   7.486  0.2744  0.1914 -0.2265
 5675SOL    HW128484   2.096   1.349   7.480 -0.4945 -2.0916  1.8681
 5675SOL    HW228485   1.991   1.398   7.393 -0.4239  0.8901 -0.0086
 5676SOL     OW28486   1.645   1.046  16.816 -0.0763  0.4693  0.0444
 5676SOL    HW128487   1.560   1.005  16.825 -1.1114  1.8870 -3.2832
 5676SOL    HW228488   1.640   1.116  16.881 -2.2347 -1.0289  1.5183
 5677SOL     OW28489   4.453   1.374  16.953  0.7811 -0.2889 -0.3664
 5677SOL    HW128490   4.460   1.395  16.860 -0.0222  3.1446  0.3423
 5677SOL    HW228491   4.467   1.462  16.987  0.9509 -0.7756  0.8601
 5678SOL     OW28492   0.404   3.702   7.770 -0.1067  0.1618 -0.1347
 5678SOL    HW128493   0.348   3.726   7.696 -1.5127  0.1592  0.9298
 5678SOL    HW228494   0.453   3.629   7.733  0.9704  1.6719 -1.7065
 5679SOL     OW28495   3.837   4.708  16.325 -0.0368  0.3375 -0.1312
 5679SOL    HW128496   3.897   4.651  16.373  0.9108  0.9748 -0.5728
 5679SOL    HW228497   3.830   4.672  16.237  0.7144 -0.4811  0.1379
 5680SOL     OW28498   2.832   4.712   5.965  0.4223 -0.3224  0.1269
 5680SOL    HW128499   2.802   0.045   5.895 -2.0761  0.7195  2.0673
 5680SOL    HW228500   2.922   0.018   5.978  0.2994  0.8148 -1.8400
 5681SOL     OW28501   2.584   3.949   3.888 -0.4825  0.0314 -0.1277
 5681SOL    HW128502   2.657   3.912   3.937  0.1295 -0.0921 -1.1366
 5681SOL    HW228503   2.634   3.995   3.820  0.3624  0.8893  1.0689
 5682SOL     OW28504   4.616   1.222   4.520  0.4157 -0.2419  0.1621
 5682SOL    HW128505   4.701   1.194   4.486  0.1893 -1.6626  0.7421
 5682SOL    HW228506   4.564   1.196   4.444  1.4021  1.8219 -1.2125
 5683SOL     OW28507   2.284   1.397  11.637  0.5070  0.4073  0.0558
 5683SOL    HW128508   2.262   1.436  11.722 -1.9366  0.3608 -0.5430
 5683SOL    HW228509   2.344   1.325  11.656  0.3082 -0.4083 -2.4832
 5684SOL     OW28510   2.723   1.200   7.414 -0.3599 -0.4434 -0.3012
 5684SOL    HW128511   2.740   1.120   7.465  1.1838  1.4267  2.0709
 5684SOL    HW228512   2.629   1.197   7.429  0.1496 -0.4099  2.7633
 5685SOL     OW28513   0.204   4.584   6.914  0.1750  0.5329 -0.2836
 5685SOL    HW128514   0.273   4.579   6.979 -0.2363 -1.1703  0.0173
 5685SOL    HW228515   0.151   4.657   6.947 -0.3773 -0.6087  1.3871
 5686SOL     OW28516   3.831   3.248   6.438  0.1846  0.0075 -0.2131
 5686SOL    HW128517   3.911   3.197   6.453 -0.2625 -1.2014 -1.9691
 5686SOL    HW228518   3.770   3.188   6.481 -0.0194 -1.0089 -1.9275
 5687SOL     OW28519   0.442   4.122  10.847  0.4967 -0.2834 -0.3348
 5687SOL    HW128520   0.533   4.096  10.837  0.7007  1.5087 -3.0703
 5687SOL    HW228521   0.394   4.040  10.834 -0.2442 -0.1635  1.5598
 5688SOL     OW28522   4.158   0.712   1.436 -0.2176  0.3078  0.5028
 5688SOL    HW128523   4.121   0.800   1.440 -0.4952  0.2570 -0.7653
 5688SOL    HW228524   4.098   0.666   1.495 -0.9205 -1.7921 -1.8278
 5689SOL     OW28525   4.479   0.584   2.515  0.2409 -0.0026  0.1651
 5689SOL    HW128526   4.551   0.633   2.554  0.5044 -0.5621  0.3831
 5689SOL    HW228527   4.499   0.574   2.422 -0.1124  0.3596  0.0499
 5690SOL     OW28528   4.615   0.478   4.947  0.0637  0.2327  0.1557
 5690SOL    HW128529   4.575   0.555   4.907 -1.3881 -1.4699 -1.6650
 5690SOL    HW228530   4.547   0.414   4.969  0.3294  0.7377  2.4863
 5691SOL     OW28531   2.270   4.678   3.478 -0.3976  0.1198 -0.5070
 5691SOL    HW128532   2.210   4.645   3.544  0.5999  0.0365  0.3500
 5691SOL    HW228533   2.333   4.607   3.465  0.1409  0.3469  0.8268
 5692SOL     OW28534   2.947   3.757   9.424  0.6794 -0.1494 -0.2850
 5692SOL    HW128535   2.920   3.826   9.485  2.8258 -2.0225  2.7623
 5692SOL    HW228536   3.040   3.762   9.402  0.7167  1.4453  0.2667
 5693SOL     OW28537   1.234   3.297  10.583 -0.3070  0.0455  0.2412
 5693SOL    HW128538   1.316   3.318  10.628  0.5242  1.0148 -1.7390
 5693SOL    HW228539   1.185   3.379  10.581 -0.4369 -0.1014 -2.1010
 5694SOL     OW28540   0.696   2.206   6.748  0.3417  0.0972  0.4992
 5694SOL    HW128541   0.608   2.168   6.761  0.1501  0.2193 -0.4933
 5694SOL    HW228542   0.729   2.187   6.836 -0.2701 -0.9022  0.5143
 5695SOL     OW28543   1.441   4.091  11.208  0.0480 -0.3681  0.4950
 5695SOL    HW128544   1.400   4.016  11.251 -2.0607  2.5495  3.5997
 5695SOL    HW228545   1.391   4.163  11.246 -1.9443 -0.9058 -1.1296
 5696SOL     OW28546   1.980   4.455   7.973 -0.3117 -0.0651 -0.0260
 5696SOL    HW128547   1.935   4.403   8.040 -0.9481 -2.4071 -2.2686
 5696SOL    HW228548   2.056   4.487   8.022 -0.4755  2.3810 -1.3701
 5697SOL     OW28549   1.831   2.311   1.829  0.3476 -0.0439 -0.0257
 5697SOL    HW128550   1.781   2.390   1.809 -0.5156  0.1544  2.8706
 5697SOL    HW228551   1.918   2.345   1.810 -0.5430  0.7110 -2.7683
 5698SOL     OW28552   2.635   4.702   3.259  0.1088 -0.0148  0.6704
 5698SOL    HW128553   2.553   4.691   3.211  0.3543  2.7023 -0.4155
 5698SOL    HW228554   2.673   0.027   3.185 -0.2691  0.7018  0.9531
 5699SOL     OW28555   0.251   1.851   2.524 -0.2560 -0.1112  0.1139
 5699SOL    HW128556   0.272   1.813   2.609 -1.3662 -0.4127  0.2566
 5699SOL    HW228557   0.328   1.905   2.506 -0.6004 -0.0643 -1.1944
 5700SOL     OW28558   0.284   3.322   3.301 -0.3408 -0.0305  0.0505
 5700SOL    HW128559   0.379   3.306   3.300 -0.3716 -0.2152 -0.0595
 5700SOL    HW228560   0.268   3.342   3.393  0.5962  1.9674 -0.2187
 5701SOL     OW28561   2.290   1.112   0.391  0.1429  0.4688 -0.4690
 5701SOL    HW128562   2.325   1.199   0.407 -0.8630  0.9916 -1.1297
 5701SOL    HW228563   2.362   1.063   0.431  0.3815  1.0684 -0.1661
 5702SOL     OW28564   4.440   2.262  15.996  0.1755 -0.4592  0.5685
 5702SOL    HW128565   4.469   2.257  15.905 -3.0861 -0.1645 -0.4714
 5702SOL    HW228566   4.448   2.175  16.033  0.7884 -0.3734  0.6410
 5703SOL     OW28567   0.615   4.087   1.403  0.2769  0.6223 -0.2780
 5703SOL    HW128568   0.522   4.078   1.424  0.3530  0.4691 -0.0089
 5703SOL    HW228569   0.603   4.111   1.311 -2.3374  0.2664 -0.0261
 5704SOL     OW28570   2.829   2.549   4.948 -0.1162 -0.7478 -0.5437
 5704SOL    HW128571   2.850   2.461   4.978  0.9978 -1.6046 -3.8882
 5704SOL    HW228572   2.738   2.548   4.918 -0.4227 -2.3714  0.4056
 5705SOL     OW28573   3.326   3.072   5.852 -0.0826 -0.1008 -0.1913
 5705SOL    HW128574   3.285   3.064   5.765  2.2494 -1.9309 -1.1476
 5705SOL    HW228575   3.256   3.022   5.894  0.9597  0.2825  1.9667
 5706SOL     OW28576   4.483   4.593   8.895 -0.5391  0.1166  0.4190
 5706SOL    HW128577   4.472   4.686   8.916 -1.8355  0.1065 -0.1593
 5706SOL    HW228578   4.402   4.569   8.939 -1.3657 -1.5576 -1.9954
 5707SOL     OW28579   4.716   3.583   5.894  0.2307 -0.0330 -0.0790
 5707SOL    HW128580   4.695   3.610   5.805  1.7992 -0.7695 -0.6676
 5707SOL    HW228581   0.087   3.577   5.887  0.1093  1.3281 -2.8876
 5708SOL     OW28582   0.145   2.634   7.664  0.0033  0.2797 -0.2534
 5708SOL    HW128583   0.092   2.620   7.742 -0.0170 -0.9797 -0.4958
 5708SOL    HW228584   0.137   2.557   7.608 -0.8349  0.5142 -0.4529
 5709SOL     OW28585   0.892   0.605   5.280 -0.1458 -0.1855 -0.2192
 5709SOL    HW128586   0.977   0.578   5.313  0.9044  1.3707 -1.5859
 5709SOL    HW228587   0.887   0.551   5.201 -1.5949 -2.8710  1.7293
 5710SOL     OW28588   3.084   4.670   2.497 -0.2774 -0.7412 -0.0312
 5710SOL    HW128589   3.032   4.669   2.416 -1.8199  1.1279  0.9220
 5710SOL    HW228590   3.057   4.590   2.542 -0.0527 -0.1058  1.2388
 5711SOL     OW28591   3.704   0.374   3.557  0.0463  0.6249  0.5147
 5711SOL    HW128592   3.733   0.452   3.511 -1.2462  1.8546  1.8199
 5711SOL    HW228593   3.695   0.410   3.645 -0.4300 -0.7920  1.0428
 5712SOL     OW28594   3.835   0.319   1.591 -0.0955 -0.1304  0.1334
 5712SOL    HW128595   3.870   0.231   1.605 -0.3167 -0.6288 -2.4416
 5712SOL    HW228596   3.757   0.301   1.538  0.7016 -1.9403 -0.4292
 5713SOL     OW28597   0.343   3.574   1.966  0.0060  0.3147 -0.2260
 5713SOL    HW128598   0.355   3.660   1.926  0.4527  1.7776  2.9851
 5713SOL    HW228599   0.264   3.544   1.922 -1.3058  2.7237  0.4545
 5714SOL     OW28600   2.284   2.623   0.939 -0.0533 -0.3611 -0.9432
 5714SOL    HW128601   2.257   2.533   0.956  2.1064 -0.7006  0.7343
 5714SOL    HW228602   2.313   2.617   0.848  2.8002  2.6721 -0.2608
 5715SOL     OW28603   4.165   2.871   7.811 -0.4688 -0.8922  0.3491
 5715SOL    HW128604   4.143   2.862   7.719 -1.2487  0.8870  0.3690
 5715SOL    HW228605   4.158   2.966   7.819  1.2495 -0.7304  0.1057
 5716SOL     OW28606   4.666   0.271   4.656  0.8845 -0.2736 -0.0716
 5716SOL    HW128607   4.637   0.265   4.747 -0.4436  1.9159 -0.3475
 5716SOL    HW228608   4.610   0.344   4.632 -1.9765 -2.3271  0.3987
 5717SOL     OW28609   1.296   1.955   2.937 -0.6878  0.3559  0.3250
 5717SOL    HW128610   1.221   1.917   2.890 -1.5516  0.6066  1.5183
 5717SOL    HW228611   1.279   2.048   2.921 -0.4018  0.3627  0.0677
 5718SOL     OW28612   2.352   3.450   6.127 -0.1827 -0.0128 -0.1284
 5718SOL    HW128613   2.402   3.514   6.077  2.4683 -2.5743 -0.7070
 5718SOL    HW228614   2.273   3.460   6.073 -0.1146  0.0727 -0.2120
 5719SOL     OW28615   1.644   0.095  10.066  0.7251 -0.3783 -0.0530
 5719SOL    HW128616   1.599   0.037  10.005  1.5610  0.1155 -1.1453
 5719SOL    HW228617   1.731   0.102  10.027  0.0958 -1.6336 -1.7430
 5720SOL     OW28618   2.861   1.755   5.739  0.0590  0.5879  0.1911
 5720SOL    HW128619   2.823   1.694   5.677  2.8730  0.9425 -1.8775
 5720SOL    HW228620   2.805   1.733   5.813 -1.1255  1.6785 -0.3871
 5721SOL     OW28621   2.809   4.416   5.936  0.6142  0.2516 -0.0868
 5721SOL    HW128622   2.809   4.512   5.939 -0.1362  0.2086  1.2960
 5721SOL    HW228623   2.717   4.392   5.945  1.3261 -2.9127 -1.5330
 5722SOL     OW28624   1.085   4.025   4.853  0.4654 -0.1996 -0.3919
 5722SOL    HW128625   1.146   3.961   4.816  0.8654 -0.2179  0.3110
 5722SOL    HW228626   1.132   4.093   4.902  0.8712 -0.3629 -0.5477
 5723SOL     OW28627   4.447   3.116   5.563 -0.0035 -0.2661  0.1873
 5723SOL    HW128628   4.534   3.078   5.553  0.4100  0.4301  1.1108
 5723SOL    HW228629   4.468   3.200   5.521 -0.1112  0.6977  2.0562
 5724SOL     OW28630   1.507   3.492  12.959 -0.2712  0.1264 -0.2862
 5724SOL    HW128631   1.598   3.462  12.964 -1.0510 -2.2816 -0.9783
 5724SOL    HW228632   1.463   3.407  12.960 -1.3577  0.7307  2.1228
 5725SOL     OW28633   4.615   3.496  12.185 -0.0912 -0.1930  0.5088
 5725SOL    HW128634   4.649   3.408  12.206  0.6038 -0.5869 -2.3427
 5725SOL    HW228635   4.619   3.489  12.090  0.6714 -2.9457  0.7212
 5726SOL     OW28636   1.241   1.487   9.308  0.1406  0.6653  0.2246
 5726SOL    HW128637   1.308   1.420   9.320 -0.5806  0.0402  0.7590
 5726SOL    HW228638   1.193   1.490   9.391 -1.2374 -0.0752 -0.5301
 5727SOL     OW28639   1.868   0.110   2.700 -0.5283 -0.4334 -0.5066
 5727SOL    HW128640   1.882   0.157   2.617 -0.9657 -1.7122 -1.2973
 5727SOL    HW228641   1.936   0.145   2.758  0.4991 -0.2778 -1.7786
 5728SOL     OW28642   2.996   3.549   8.761 -0.1631 -0.5698  0.2327
 5728SOL    HW128643   3.058   3.479   8.738 -2.3772 -2.4740  0.0003
 5728SOL    HW228644   2.981   3.589   8.676 -1.1022 -2.2883 -0.4186
 5729SOL     OW28645   0.544   1.040   8.874 -0.5456 -0.2405  0.0391
 5729SOL    HW128646   0.565   1.023   8.782  1.0465  1.5143  0.0831
 5729SOL    HW228647   0.613   1.103   8.895 -0.8716  0.4014 -0.8121
 5730SOL     OW28648   1.762   4.624   0.912 -0.0006  0.7271  1.1642
 5730SOL    HW128649   1.681   4.596   0.869  1.7795 -1.3998 -0.8110
 5730SOL    HW228650   1.730   4.612   1.001  1.5495 -0.7147  1.5211
 5731SOL     OW28651   3.013   1.690   6.197 -0.4924  0.4175  0.5611
 5731SOL    HW128652   2.959   1.699   6.276 -0.6191 -0.6517  0.5956
 5731SOL    HW228653   3.023   1.596   6.185  0.1652  0.3651  1.5255
 5732SOL     OW28654   0.966   3.697   4.021 -0.2687  0.1120 -0.2275
 5732SOL    HW128655   1.060   3.699   4.042 -1.1839 -0.3672  3.8239
 5732SOL    HW228656   0.930   3.770   4.071 -1.5718 -0.7262  0.0504
 5733SOL     OW28657   0.532   2.704   7.457 -0.5544 -0.1155 -0.5659
 5733SOL    HW128658   0.439   2.721   7.471 -0.3984 -0.3655  0.7690
 5733SOL    HW228659   0.550   2.757   7.380  1.3324 -0.4731 -0.3782
 5734SOL     OW28660   1.082   4.219  10.333 -0.1270  0.3488 -0.5939
 5734SOL    HW128661   1.171   4.228  10.299  0.4633 -1.9805  0.3566
 5734SOL    HW228662   1.031   4.216  10.252  1.2355  0.3251 -1.4626
 5735SOL     OW28663   4.130   0.704   8.596 -0.0321 -0.2828 -0.2385
 5735SOL    HW128664   4.183   0.784   8.601  2.5101 -1.9898  0.1737
 5735SOL    HW228665   4.177   0.643   8.539  0.2909  0.4005 -0.7009
 5736SOL     OW28666   2.214   0.273   3.708  0.5765 -0.1195  0.4088
 5736SOL    HW128667   2.277   0.258   3.638  1.4519  0.5253  1.0652
 5736SOL    HW228668   2.276   0.276   3.781  1.5467 -0.0812 -0.4192
 5737SOL     OW28669   0.337   0.903   5.500 -0.5437  0.0928 -0.0810
 5737SOL    HW128670   0.304   0.976   5.449 -2.4069  0.7227  2.0565
 5737SOL    HW228671   0.347   0.943   5.586  0.6484  1.1519 -0.7117
 5738SOL     OW28672   0.760   4.449   9.283 -0.2464  0.3089  0.1173
 5738SOL    HW128673   0.771   4.447   9.188 -0.7213  1.9482  0.0423
 5738SOL    HW228674   0.667   4.428   9.291 -0.3702  0.0458 -2.0970
 5739SOL     OW28675   3.240   3.773   9.277  0.9578 -0.3778  0.1035
 5739SOL    HW128676   3.302   3.833   9.317  2.7434 -1.6640 -0.7586
 5739SOL    HW228677   3.282   3.690   9.298  0.8676 -0.4878 -0.1430
 5740SOL     OW28678   2.099   0.772   5.929  0.1077  0.3391 -0.5415
 5740SOL    HW128679   2.085   0.865   5.950 -0.8520  0.0879 -0.0721
 5740SOL    HW228680   2.010   0.739   5.913 -0.0035  0.2569  0.2232
 5741SOL     OW28681   1.358   3.515   3.345  0.0100 -0.0202 -0.4102
 5741SOL    HW128682   1.377   3.540   3.255 -0.0450  1.0754 -0.1222
 5741SOL    HW228683   1.281   3.572   3.352  0.5713  0.5785  0.8610
 5742SOL     OW28684   0.075   2.899   1.919 -0.1980 -0.0683  0.4774
 5742SOL    HW128685   0.130   2.965   1.878  0.8956  0.3644  2.6562
 5742SOL    HW228686   0.046   2.937   2.002 -1.0490 -0.6010  0.4317
 5743SOL     OW28687   0.122   3.980  14.662 -0.1726 -0.0047  0.1406
 5743SOL    HW128688   0.051   3.923  14.633  0.4072 -0.7475  0.1692
 5743SOL    HW228689   0.130   3.960  14.755 -0.7676 -1.4167 -0.1001
 5744SOL     OW28690   2.570   2.960  14.715 -0.9059 -0.4373  0.1915
 5744SOL    HW128691   2.551   2.886  14.657 -1.6083  0.7126 -1.0331
 5744SOL    HW228692   2.644   2.939  14.772  0.3096  0.4052 -1.0632
 5745SOL     OW28693   3.864   3.275   5.270  0.4360  0.2592  0.5437
 5745SOL    HW128694   3.893   3.185   5.283 -0.2764 -0.3885 -2.5324
 5745SOL    HW228695   3.898   3.308   5.187  0.7651 -0.3403  0.4459
 5746SOL     OW28696   2.570   3.707   5.046 -0.2439  0.3855 -0.0521
 5746SOL    HW128697   2.542   3.791   5.082  0.7228 -0.1316  1.8641
 5746SOL    HW228698   2.663   3.727   5.041  0.0249 -0.7425  0.4096
 5747SOL     OW28699   3.023   2.557   4.018  0.4435  0.4806 -0.2660
 5747SOL    HW128700   3.105   2.522   3.983  0.6625  1.3790 -0.6564
 5747SOL    HW228701   2.972   2.559   3.938 -1.0453  2.1139  0.7189
 5748SOL     OW28702   4.575   0.823   6.731  0.1270 -0.3508 -0.2440
 5748SOL    HW128703   4.618   0.749   6.689  0.8975 -1.1728  1.9725
 5748SOL    HW228704   4.483   0.804   6.712  0.3181  1.1436 -2.6688
 5749SOL     OW28705   1.555   1.585   6.113 -0.1157  0.5188  0.1115
 5749SOL    HW128706   1.463   1.575   6.137 -0.5741  2.0068 -1.0220
 5749SOL    HW228707   1.555   1.675   6.080  1.7614  0.6883  0.6101
 5750SOL     OW28708   0.096   2.125   9.539  0.0661  0.1268  0.2143
 5750SOL    HW128709   0.076   2.219   9.535 -0.7838 -0.0244  1.0536
 5750SOL    HW228710   0.066   2.095   9.624 -0.0615 -0.5509 -0.0686
 5751SOL     OW28711   2.097   3.070  10.345  0.4917 -0.0934 -0.3743
 5751SOL    HW128712   2.180   3.037  10.311  1.0039 -0.6708  1.4179
 5751SOL    HW228713   2.052   2.990  10.374 -1.0436  0.5439 -0.9838
 5752SOL     OW28714   4.666   1.906   6.942 -0.0617 -0.8963  0.4512
 5752SOL    HW128715   0.033   1.934   6.951  0.1541 -0.7046 -2.5865
 5752SOL    HW228716   4.664   1.881   6.850  0.3377  4.1231 -0.9158
 5753SOL     OW28717   0.789   2.869   2.970  0.1654  0.1201  0.0595
 5753SOL    HW128718   0.767   2.936   2.905 -0.3730  0.1999  0.3205
 5753SOL    HW228719   0.856   2.816   2.928  0.8427 -0.0400  1.3281
 5754SOL     OW28720   2.332   2.330   2.217  0.0721  0.0428  0.2463
 5754SOL    HW128721   2.387   2.259   2.185  0.8470  1.3303 -1.3052
 5754SOL    HW228722   2.382   2.366   2.290 -1.4926  0.1655  1.2710
 5755SOL     OW28723   2.466   4.299  14.847  0.0242  0.2176  0.4127
 5755SOL    HW128724   2.375   4.293  14.874 -0.0887 -1.4629 -0.2804
 5755SOL    HW228725   2.508   4.216  14.872  0.1690  0.3785  0.7038
 5756SOL     OW28726   4.455   4.382   0.347 -0.0911 -0.3070 -0.4699
 5756SOL    HW128727   4.509   4.430   0.284 -0.3221 -1.0594 -1.2314
 5756SOL    HW228728   4.515   4.311   0.371  0.4092 -0.0854 -1.0500
 5757SOL     OW28729   0.087   2.005  13.601  0.4132  0.4224  0.2618
 5757SOL    HW128730   0.138   2.079  13.569  2.2950 -0.6660  0.7015
 5757SOL    HW228731   0.022   2.048  13.657  0.5189  0.9127  0.0022
 5758SOL     OW28732   1.100   1.264   4.337 -0.0633  0.3032 -0.0892
 5758SOL    HW128733   1.116   1.285   4.245 -2.0486 -0.7026 -0.6632
 5758SOL    HW228734   1.123   1.172   4.350 -0.7144  0.0479 -0.7767
 5759SOL     OW28735   0.042   4.093   2.581 -0.0050  0.6672  0.8534
 5759SOL    HW128736   0.075   4.005   2.595 -0.5622  0.3671  0.2792
 5759SOL    HW228737   0.023   4.087   2.487  1.0099 -0.4154  0.7094
 5760SOL     OW28738   3.125   3.709  10.422  0.3582  0.5307 -0.4055
 5760SOL    HW128739   3.034   3.686  10.439  0.9066 -1.5621 -0.2834
 5760SOL    HW228740   3.164   3.660  10.494 -0.1469 -0.1451 -0.6008
 5761SOL     OW28741   2.224   3.701   7.901 -0.5586 -0.4878  0.0767
 5761SOL    HW128742   2.279   3.626   7.924  1.3097  0.8267 -0.0648
 5761SOL    HW228743   2.272   3.724   7.821 -0.5050  1.4982  0.6802
 5762SOL     OW28744   0.644   2.169   8.434 -0.4527 -0.9027 -0.0610
 5762SOL    HW128745   0.619   2.163   8.526  0.1891 -0.6312  0.1257
 5762SOL    HW228746   0.731   2.130   8.429  0.6565  1.5944 -0.0849
 5763SOL     OW28747   3.454   3.087   0.113 -0.4562 -0.1195  0.6154
 5763SOL    HW128748   3.441   3.075   0.207 -0.6841  0.3701  0.6501
 5763SOL    HW228749   3.540   3.047   0.099 -1.3312 -2.2132  1.3110
 5764SOL     OW28750   1.275   1.955   2.389  0.4247 -0.0535  0.8761
 5764SOL    HW128751   1.212   2.006   2.440  0.7592  1.8694 -0.6448
 5764SOL    HW228752   1.331   2.020   2.348  1.2424 -3.1365 -2.9102
 5765SOL     OW28753   1.182   1.082   4.685  0.2314  0.4003 -0.5132
 5765SOL    HW128754   1.263   1.124   4.715 -1.3976  0.7674  3.3165
 5765SOL    HW228755   1.194   1.096   4.591 -0.0909 -0.0576 -0.6255
 5766SOL     OW28756   1.258   1.295   5.078 -0.1356  0.2757 -0.5338
 5766SOL    HW128757   1.340   1.294   5.127  0.3122 -2.9163 -1.3657
 5766SOL    HW228758   1.212   1.226   5.126  1.1483 -0.7216 -0.7462
 5767SOL     OW28759   1.759   0.880   6.126 -0.2530  0.2682  0.0226
 5767SOL    HW128760   1.675   0.922   6.141 -0.1395  0.2147  0.7636
 5767SOL    HW228761   1.752   0.894   6.031  0.4870  0.1999 -0.0442
 5768SOL     OW28762   3.404   4.290  10.542 -0.2581  0.4305  0.2395
 5768SOL    HW128763   3.333   4.327  10.489 -0.7891 -0.2976  0.4382
 5768SOL    HW228764   3.410   4.365  10.602  3.6130 -0.7139  1.2103
 5769SOL     OW28765   4.260   0.192  10.283 -0.1481  0.2509 -0.8247
 5769SOL    HW128766   4.188   0.180  10.345  1.4272  0.6403  1.0568
 5769SOL    HW228767   4.314   0.114  10.292  1.4099  1.5774  1.1836
 5770SOL     OW28768   2.748   4.361   8.761  0.3144 -0.2872 -0.1780
 5770SOL    HW128769   2.754   4.450   8.727  0.3615 -1.5633 -3.4452
 5770SOL    HW228770   2.714   4.325   8.680 -1.0074 -0.1588  0.3236
 5771SOL     OW28771   3.163   2.647   9.646 -0.5553 -0.4208  0.8013
 5771SOL    HW128772   3.210   2.725   9.676 -0.0698 -0.3855 -0.0344
 5771SOL    HW228773   3.218   2.571   9.667 -0.5437 -0.4524  0.6592
 5772SOL     OW28774   1.930   2.525   9.910 -0.4487  0.0588 -0.2518
 5772SOL    HW128775   1.954   2.501  10.000  0.2768 -1.3245 -0.8170
 5772SOL    HW228776   2.014   2.511   9.867 -0.7724  0.5047 -1.0359
 5773SOL     OW28777   4.156   1.363  16.162  0.3618 -0.6954  0.2638
 5773SOL    HW128778   4.175   1.361  16.068 -0.6430  0.6653  0.0415
 5773SOL    HW228779   4.062   1.357  16.175  0.1092  1.5637 -0.5828
 5774SOL     OW28780   3.222   3.813  15.817  0.1090 -0.4370  0.1016
 5774SOL    HW128781   3.153   3.841  15.877 -1.0919  1.2515 -2.0839
 5774SOL    HW228782   3.238   3.894  15.768  0.5411 -0.2267  0.5887
 5775SOL     OW28783   2.107   1.957   1.752  0.4182 -0.1200 -0.6197
 5775SOL    HW128784   2.155   1.885   1.793 -1.1570  0.2434  1.8632
 5775SOL    HW228785   2.191   1.996   1.728  1.4846 -1.3576  1.1343
 5776SOL     OW28786   1.137   2.237  16.113 -0.1323 -0.1005 -0.0247
 5776SOL    HW128787   1.176   2.159  16.073  1.0836 -0.2924  1.5024
 5776SOL    HW228788   1.058   2.196  16.150 -1.0431 -1.2561 -3.2965
 5777SOL     OW28789   0.577   3.924   7.596  0.9391 -0.1202  0.8370
 5777SOL    HW128790   0.487   3.914   7.567  0.6447  0.5576  1.5120
 5777SOL    HW228791   0.599   4.011   7.562 -0.6290  0.3841  1.1400
 5778SOL     OW28792   3.345   1.796  16.495  0.1140  0.3326 -0.6122
 5778SOL    HW128793   3.409   1.835  16.435  2.7721 -3.0892  0.0251
 5778SOL    HW228794   3.289   1.873  16.507  0.5964  0.6219 -0.1909
 5779SOL     OW28795   2.685   2.882  15.619 -0.1222  0.1326 -0.4456
 5779SOL    HW128796   2.741   2.936  15.563 -2.1301  0.9870 -1.6481
 5779SOL    HW228797   2.685   2.802  15.566 -1.5276  0.0452 -0.2938
 5780SOL     OW28798   2.801   0.873   4.669  0.0799  0.5151 -0.3617
 5780SOL    HW128799   2.831   0.797   4.619 -2.4487  0.0369 -1.1441
 5780SOL    HW228800   2.712   0.848   4.691  0.7058 -3.4762 -2.4590
 5781SOL     OW28801   0.028   2.565   3.906 -0.3161 -0.1426 -0.4514
 5781SOL    HW128802   0.111   2.537   3.866  0.9190  0.0336  2.0245
 5781SOL    HW228803   0.057   2.594   3.992  0.4688 -1.5554 -0.2392
 5782SOL     OW28804   4.060   1.376   7.295  0.1541  0.0786  0.1166
 5782SOL    HW128805   4.143   1.345   7.332  0.7379  3.2266  1.5184
 5782SOL    HW228806   4.078   1.467   7.268  0.6684  1.1408  4.0582
 5783SOL     OW28807   3.338   4.166   8.106  0.4422 -0.8080  0.1449
 5783SOL    HW128808   3.393   4.230   8.061 -1.7882  0.9063 -0.1309
 5783SOL    HW228809   3.396   4.147   8.181 -0.5752 -1.0797  0.8627
 5784SOL     OW28810   3.185   1.561   8.428 -0.1087  0.1972 -0.4266
 5784SOL    HW128811   3.137   1.603   8.357 -2.5115 -0.5274  0.7541
 5784SOL    HW228812   3.209   1.641   8.475  0.8173  0.5746 -1.5522
 5785SOL     OW28813   3.185   0.554   6.654  0.5648  0.1918 -0.9216
 5785SOL    HW128814   3.177   0.464   6.622  1.6798 -0.8118  1.6854
 5785SOL    HW228815   3.095   0.586   6.640  0.2256  0.5165  2.1459
 5786SOL     OW28816   2.538   3.128   8.107  0.1314 -0.1338 -0.0474
 5786SOL    HW128817   2.587   3.047   8.091  0.1064  0.0038 -0.7882
 5786SOL    HW228818   2.529   3.135   8.202 -1.8285  1.8225 -0.3841
 5787SOL     OW28819   2.554   2.109   4.057  0.1569  0.2465 -0.1033
 5787SOL    HW128820   2.575   2.050   4.128  2.3526 -0.8010 -1.6393
 5787SOL    HW228821   2.565   2.054   3.979 -0.0040  0.3713 -0.2153
 5788SOL     OW28822   4.148   0.373  15.465 -0.3249 -0.0346  0.0160
 5788SOL    HW128823   4.181   0.296  15.511  1.3795  0.6832 -0.0000
 5788SOL    HW228824   4.203   0.439  15.508  2.4039 -1.2707 -1.5715
 5789SOL     OW28825   4.134   1.827   0.110 -0.1514 -0.3623  0.1678
 5789SOL    HW128826   4.201   1.875   0.061 -0.6768 -0.4449 -0.6464
 5789SOL    HW228827   4.122   1.882   0.187 -0.4158  2.1661 -1.6756
 5790SOL     OW28828   2.490   1.430   4.252 -0.2123  0.1652 -0.1232
 5790SOL    HW128829   2.540   1.430   4.170 -1.4388  0.5595 -0.8770
 5790SOL    HW228830   2.495   1.337   4.274 -0.9411 -0.4657 -2.6088
 5791SOL     OW28831   1.271   0.702   7.946  0.3011  0.6488  0.1634
 5791SOL    HW128832   1.332   0.774   7.932  1.0456  0.0626  0.4329
 5791SOL    HW228833   1.288   0.682   8.038  1.0857 -0.9677 -0.3294
 5792SOL     OW28834   1.302   4.184   1.988 -0.4914  0.2146  0.6580
 5792SOL    HW128835   1.364   4.236   2.039  0.3220  1.2384 -1.3815
 5792SOL    HW228836   1.292   4.227   1.904 -0.3393 -0.2372  0.4088
 5793SOL     OW28837   2.325   0.566  15.455  0.4443  0.2345  0.0600
 5793SOL    HW128838   2.241   0.521  15.458  1.9571 -2.6096 -0.1597
 5793SOL    HW228839   2.298   0.656  15.437 -2.2554 -0.6041 -0.0865
 5794SOL     OW28840   4.247   4.146  13.395 -0.4849  0.0926 -0.1964
 5794SOL    HW128841   4.224   4.056  13.372 -2.8657  0.5504  0.4043
 5794SOL    HW228842   4.166   4.180  13.435 -1.7068 -2.7208 -0.3139
 5795SOL     OW28843   3.871   3.082   6.994  0.4283  0.1683 -0.4083
 5795SOL    HW128844   3.942   3.084   7.058  0.2657  2.1163 -0.2893
 5795SOL    HW228845   3.811   3.027   7.046 -2.2519  3.4430  0.0054
 5796SOL     OW28846   2.056   3.203  13.103 -0.4853 -0.1807  0.5729
 5796SOL    HW128847   2.030   3.118  13.137  0.1984  0.1347  1.9237
 5796SOL    HW228848   2.150   3.189  13.114 -0.2850  1.2123  0.7080
 5797SOL     OW28849   0.124   0.998   9.461 -0.1896 -0.1702  0.1001
 5797SOL    HW128850   0.134   0.983   9.367  0.4151 -2.1007  0.4772
 5797SOL    HW228851   0.040   0.953   9.467 -1.3375  1.7425 -1.4634
 5798SOL     OW28852   4.435   3.566   9.341  0.3050 -0.3724  0.1429
 5798SOL    HW128853   4.523   3.578   9.305 -0.4458  0.5087 -1.3860
 5798SOL    HW228854   4.460   3.533   9.427  0.6725 -2.6104 -0.8245
 5799SOL     OW28855   1.126   3.647   3.265  0.1316  0.0649  0.5997
 5799SOL    HW128856   1.070   3.716   3.301 -1.4925 -0.8053 -0.2380
 5799SOL    HW228857   1.107   3.656   3.171  1.0789  1.6086  0.5586
 5800SOL     OW28858   2.869   1.921  15.395  0.6388  0.3566 -0.5569
 5800SOL    HW128859   2.933   1.963  15.453 -1.3774  0.3073  1.7007
 5800SOL    HW228860   2.919   1.847  15.361 -1.3858 -1.5600  0.6312
 5801SOL     OW28861   1.839   2.435   7.388 -0.2021  0.3916 -0.0749
 5801SOL    HW128862   1.893   2.370   7.434 -1.1452  0.4128  1.0792
 5801SOL    HW228863   1.757   2.428   7.438 -0.1870 -1.4000 -0.3011
 5802SOL     OW28864   1.347   0.615   8.796  0.2788 -0.2179  0.5851
 5802SOL    HW128865   1.298   0.696   8.785  2.2298  1.0066  0.7775
 5802SOL    HW228866   1.373   0.619   8.889 -2.1756 -1.3000  1.3183
 5803SOL     OW28867   2.463   2.600   4.091 -0.1545  0.0547  0.3153
 5803SOL    HW128868   2.492   2.509   4.093  1.4385  0.5375 -0.1592
 5803SOL    HW228869   2.461   2.636   4.179 -0.8493 -2.0129  1.1350
 5804SOL     OW28870   2.300   3.379   4.583  0.0420 -0.2532 -0.0960
 5804SOL    HW128871   2.211   3.409   4.566 -0.0671  0.8601  2.3458
 5804SOL    HW228872   2.349   3.461   4.573  2.1360 -1.1391  2.6139
 5805SOL     OW28873   0.276   2.846  12.458 -0.1065  0.1838 -0.0434
 5805SOL    HW128874   0.235   2.818  12.376  1.7872  0.3547 -1.0319
 5805SOL    HW228875   0.318   2.928  12.433  2.2117 -0.9086  0.3407
 5806SOL     OW28876   2.986   0.033  13.045 -0.0180 -0.5708 -0.3415
 5806SOL    HW128877   2.969   4.674  12.999 -0.6016 -0.5450 -0.1751
 5806SOL    HW228878   2.935   0.084  12.982 -2.0562 -2.3282 -0.1229
 5807SOL     OW28879   3.195   0.803  15.241  0.3457  0.3848  0.3011
 5807SOL    HW128880   3.256   0.856  15.190  0.5188  1.8682  2.0412
 5807SOL    HW228881   3.133   0.869  15.270  3.0361  2.8313  0.5550
 5808SOL     OW28882   3.008   2.835   8.082 -0.0397 -0.0017  0.2140
 5808SOL    HW128883   2.931   2.887   8.056 -0.1722 -0.9554 -1.2848
 5808SOL    HW228884   2.986   2.829   8.175  2.8830 -0.9238  0.8333
 5809SOL     OW28885   3.104   2.577   2.532  0.1661  0.2097  0.2801
 5809SOL    HW128886   3.129   2.662   2.494  1.9151 -0.0585  0.8378
 5809SOL    HW228887   3.188   2.546   2.565 -1.6436 -2.0091  2.7620
 5810SOL     OW28888   0.448   4.457  15.199 -0.4652 -0.3135  0.1880
 5810SOL    HW128889   0.375   4.504  15.158  1.7933  1.8558 -1.4061
 5810SOL    HW228890   0.432   4.470  15.292 -4.0949  2.5628 -0.8368
 5811SOL     OW28891   0.699   2.942   4.997  0.1759  0.3795 -0.6679
 5811SOL    HW128892   0.788   2.976   4.997  0.7494 -1.1442  0.0114
 5811SOL    HW228893   0.702   2.853   5.033 -3.2543  0.8384  0.7921
 5812SOL     OW28894   0.996   0.385   6.603 -0.0409 -0.0420  0.0560
 5812SOL    HW128895   0.965   0.301   6.570  0.9644  0.4147 -2.0597
 5812SOL    HW228896   0.958   0.395   6.690 -0.2546  1.5142 -0.2140
 5813SOL     OW28897   0.042   2.321   3.526 -0.0009 -0.5036 -0.0566
 5813SOL    HW128898   4.686   2.283   3.490  0.4739  0.5909 -2.2728
 5813SOL    HW228899   0.068   2.243   3.574  0.2747 -0.1955  0.2963
 5814SOL     OW28900   3.122   1.744   7.278 -0.9308  0.1901  0.2090
 5814SOL    HW128901   3.072   1.771   7.355  0.4814  2.4021  0.3554
 5814SOL    HW228902   3.168   1.671   7.321 -0.0189  0.9066  0.4490
 5815SOL     OW28903   1.181   0.549  14.435  0.9429  0.0701  0.1203
 5815SOL    HW128904   1.139   0.635  14.430 -1.4897 -1.2687 -2.6277
 5815SOL    HW228905   1.101   0.496  14.435  2.1443 -1.7192 -2.3450
 5816SOL     OW28906   1.294   1.722   4.643 -0.3989 -0.3961  0.0776
 5816SOL    HW128907   1.232   1.687   4.579 -1.5897 -0.5360  1.2985
 5816SOL    HW228908   1.378   1.725   4.596 -1.3430 -1.4874 -1.7034
 5817SOL     OW28909   3.466   3.549   4.546 -0.1192  0.4181  0.2101
 5817SOL    HW128910   3.395   3.552   4.482 -0.0921 -0.8992  0.1288
 5817SOL    HW228911   3.539   3.525   4.489  1.5595  2.7661  1.3475
 5818SOL     OW28912   4.547   1.351   9.835 -0.1511 -0.6468 -0.6485
 5818SOL    HW128913   4.545   1.287   9.763 -2.2842 -1.4759  0.1564
 5818SOL    HW228914   4.500   1.307   9.905 -0.6229 -0.0450 -0.5938
 5819SOL     OW28915   2.347   2.924  16.680 -0.4289 -0.5351 -0.0091
 5819SOL    HW128916   2.366   2.958  16.767 -0.3775  1.7791 -0.9216
 5819SOL    HW228917   2.287   2.988  16.641  1.6583  1.4676  0.1134
 5820SOL     OW28918   1.398   4.298   2.762  0.2239  0.2139  0.1101
 5820SOL    HW128919   1.325   4.317   2.703  1.2382 -0.8191 -1.4758
 5820SOL    HW228920   1.357   4.341   2.837 -1.1550 -0.6038 -0.1722
 5821SOL     OW28921   4.197   1.664  10.683  0.3886  0.0192  0.3748
 5821SOL    HW128922   4.164   1.753  10.689 -2.4583 -1.0431  0.3983
 5821SOL    HW228923   4.153   1.629  10.761  1.5795 -4.2930 -0.8585
 5822SOL     OW28924   3.632   1.481   0.281  0.9505  0.4044  0.2323
 5822SOL    HW128925   3.643   1.462   0.375 -0.4873 -0.3600  0.2403
 5822SOL    HW228926   3.570   1.554   0.285  0.1028 -0.3091  0.3248
 5823SOL     OW28927   3.267   3.241   2.199 -0.1333 -0.2424  0.5206
 5823SOL    HW128928   3.233   3.233   2.288 -1.0075  1.2904  0.3303
 5823SOL    HW228929   3.328   3.314   2.212  2.5892 -2.2898 -0.9188
 5824SOL     OW28930   0.781   1.931  14.325  0.2802 -0.0214  0.5330
 5824SOL    HW128931   0.818   2.020  14.326  1.4735 -0.4942 -1.6030
 5824SOL    HW228932   0.780   1.918  14.420 -2.2579  1.1356  0.6622
 5825SOL     OW28933   3.428   0.264   7.488  0.0550 -0.0717  0.6670
 5825SOL    HW128934   3.371   0.187   7.481  1.4080 -0.9160 -0.9755
 5825SOL    HW228935   3.510   0.234   7.449 -1.2659 -2.5256 -0.2035
 5826SOL     OW28936   0.085   4.593   6.651  0.4532 -0.2287  0.3808
 5826SOL    HW128937   0.100   4.505   6.616 -0.5016  1.4902 -4.2953
 5826SOL    HW228938   0.122   4.588   6.739 -0.5505 -2.3459  0.6773
 5827SOL     OW28939   3.926   1.045   3.024 -0.1476 -0.1298 -0.2351
 5827SOL    HW128940   3.908   1.008   2.938 -1.4936 -2.3195  0.9945
 5827SOL    HW228941   3.852   1.105   3.034 -0.8135 -0.6297 -2.1716
 5828SOL     OW28942   4.580   3.287   7.252  0.4693  0.0906  0.6112
 5828SOL    HW128943   4.588   3.298   7.346 -2.3097 -2.1127  1.1059
 5828SOL    HW228944   4.585   3.379   7.225  2.9478 -0.7075 -1.6828
 5829SOL     OW28945   1.272   3.597   7.051 -0.3450 -0.1113  0.4102
 5829SOL    HW128946   1.230   3.590   7.137 -0.7588  2.8989  0.4518
 5829SOL    HW228947   1.210   3.536   7.011  0.2260 -0.7425  0.4651
 5830SOL     OW28948   1.006   3.372   6.023  0.0340  0.8058 -0.1641
 5830SOL    HW128949   1.084   3.427   6.029  1.7526 -1.9225  2.2862
 5830SOL    HW228950   1.033   3.298   6.077  0.6689  2.2297  1.4672
 5831SOL     OW28951   0.395   2.392   3.225  0.0839  0.2471 -0.0998
 5831SOL    HW128952   0.341   2.317   3.200  1.4313 -0.5153 -0.7481
 5831SOL    HW228953   0.414   2.443   3.146  0.8177  0.1817  0.0285
 5832SOL     OW28954   0.197   3.198   3.847 -0.3941  0.1198  0.1023
 5832SOL    HW128955   0.152   3.182   3.930 -0.7643 -0.0841 -0.1380
 5832SOL    HW228956   0.273   3.141   3.857  0.2750  1.2220  1.3759
 5833SOL     OW28957   3.297   1.718   9.084 -0.2772  0.2616  0.2822
 5833SOL    HW128958   3.251   1.652   9.135 -2.0701  1.2872 -0.0054
 5833SOL    HW228959   3.362   1.750   9.146 -0.1885  1.5801 -0.4776
 5834SOL     OW28960   0.307   0.807   7.428  0.5466 -0.1233 -0.1994
 5834SOL    HW128961   0.322   0.804   7.333  0.6652 -1.6815 -0.1393
 5834SOL    HW228962   0.391   0.844   7.454  0.9253  0.4251 -2.2456
 5835SOL     OW28963   2.546   3.832  14.355  0.0208  0.1567 -0.4928
 5835SOL    HW128964   2.459   3.859  14.326  0.9768  1.9973 -1.5977
 5835SOL    HW228965   2.602   3.885  14.298  0.6740  0.6200  0.5796
 5836SOL     OW28966   1.803   0.466  10.979  0.0222  0.4931 -0.1293
 5836SOL    HW128967   1.807   0.518  11.059  0.4023 -3.0507  2.1954
 5836SOL    HW228968   1.849   0.388  11.010  2.3423  2.3612  1.1590
 5837SOL     OW28969   3.810   3.799   1.459  0.6463 -0.2698 -0.3942
 5837SOL    HW128970   3.806   3.751   1.377 -0.4669  1.9685 -1.6650
 5837SOL    HW228971   3.898   3.776   1.489  1.0519 -0.4670 -1.7474
 5838SOL     OW28972   0.900   2.596   3.348 -0.0641  0.0068 -0.1648
 5838SOL    HW128973   0.898   2.522   3.288 -0.1303  0.8990 -1.2589
 5838SOL    HW228974   0.822   2.643   3.322 -1.0971 -0.0320  2.8512
 5839SOL     OW28975   1.380   3.846   3.445  0.0068 -0.2163 -0.1768
 5839SOL    HW128976   1.322   3.787   3.494 -2.1977  0.3461 -2.0798
 5839SOL    HW228977   1.396   3.804   3.361  0.9719  1.1575 -0.6839
 5840SOL     OW28978   0.613   0.290   9.042 -0.3423  0.1293  0.0225
 5840SOL    HW128979   0.545   0.261   9.103 -1.0375  3.2535  0.7110
 5840SOL    HW228980   0.662   0.208   9.029  2.0507  1.3098  1.5809
 5841SOL     OW28981   4.703   0.929   7.272 -0.5536  0.3121 -0.3344
 5841SOL    HW128982   4.615   0.960   7.295  0.1105  1.2955  0.8554
 5841SOL    HW228983   4.720   0.983   7.195 -2.6065  0.7686 -0.4845
 5842SOL     OW28984   0.068   0.801   7.620  0.3255  0.1891 -0.2321
 5842SOL    HW128985   0.049   0.894   7.607  1.6384  0.3395 -0.9979
 5842SOL    HW228986   0.146   0.798   7.566 -0.6212  0.6383 -1.6229
 5843SOL     OW28987   1.427   2.708   2.331  0.0088  0.1748  0.1336
 5843SOL    HW128988   1.467   2.753   2.256  2.7144 -1.1869  0.7686
 5843SOL    HW228989   1.448   2.768   2.403 -0.2688  0.3426  0.0742
 5844SOL     OW28990   0.981   3.662  16.706 -0.4384 -0.0204 -0.4500
 5844SOL    HW128991   0.894   3.698  16.689  1.0757  2.4370 -3.1141
 5844SOL    HW228992   0.966   3.575  16.671  0.4298 -1.0639  1.7729
 5845SOL     OW28993   3.363   2.435   0.027  0.3943 -0.5724  0.4992
 5845SOL    HW128994   3.315   2.365  17.681  0.2047  0.8154 -1.4794
 5845SOL    HW228995   3.450   2.425  17.685  1.0977  0.6346  1.7534
 5846SOL     OW28996   2.801   3.161   9.857  0.4984  0.4325 -0.3717
 5846SOL    HW128997   2.815   3.094   9.925  1.2726  1.0152  0.0521
 5846SOL    HW228998   2.865   3.136   9.790 -0.3575 -2.0292 -0.2785
 5847SOL     OW28999   0.625   3.832  12.587 -0.7816 -0.4261  0.1597
 5847SOL    HW129000   0.696   3.895  12.598  0.9308 -2.4681  0.8355
 5847SOL    HW229001   0.678   3.753  12.588 -0.3590 -0.1096  1.7419
 5848SOL     OW29002   2.948   1.883  12.551 -0.3251 -0.1834 -0.4389
 5848SOL    HW129003   2.868   1.831  12.550 -0.6411  0.2750  1.8408
 5848SOL    HW229004   2.954   1.915  12.641  1.3132  0.0173 -0.6185
 5849SOL     OW29005   3.843   2.310  14.113 -0.0023 -0.0574 -0.1207
 5849SOL    HW129006   3.796   2.369  14.173  1.5705  1.6327 -0.5301
 5849SOL    HW229007   3.819   2.226  14.152  3.1514 -0.5007  0.8860
 5850SOL     OW29008   3.844   3.509   9.548 -0.1045  0.0317 -0.1409
 5850SOL    HW129009   3.815   3.597   9.527  0.3377  0.2728  0.2608
 5850SOL    HW229010   3.762   3.460   9.558 -0.3131  0.4351  0.1395
 5851SOL     OW29011   1.828   4.375   5.128 -0.0754 -0.1047 -0.0310
 5851SOL    HW129012   1.837   4.397   5.035 -2.9811  0.6538 -0.1283
 5851SOL    HW229013   1.886   4.300   5.118  0.7984  0.8055 -1.7477
 5852SOL     OW29014   2.221   0.922   8.772  0.1238 -0.3009  0.4544
 5852SOL    HW129015   2.176   0.848   8.731 -2.6609  1.6148  0.0757
 5852SOL    HW229016   2.177   0.932   8.857 -1.6302 -0.2738 -0.4493
 5853SOL     OW29017   0.260   1.328   4.716  0.1548  0.2734 -0.1717
 5853SOL    HW129018   0.232   1.419   4.728  1.6851  0.6248  0.7366
 5853SOL    HW229019   0.345   1.351   4.678  0.3463  0.9777  0.6676
 5854SOL     OW29020   2.785   0.776   3.171  0.4466  0.3738  0.3808
 5854SOL    HW129021   2.858   0.714   3.178  1.3831  1.4706  0.3936
 5854SOL    HW229022   2.713   0.722   3.204  0.4023 -0.4009 -0.9670
 5855SOL     OW29023   1.778   1.073   3.939  0.2750  0.4542  0.2413
 5855SOL    HW129024   1.743   1.073   3.850 -0.8363 -2.8763  0.6846
 5855SOL    HW229025   1.791   1.167   3.948 -0.0615  0.3391  2.0223
 5856SOL     OW29026   2.646   3.990   4.594 -0.6251 -0.0883  0.1076
 5856SOL    HW129027   2.714   4.055   4.579 -1.4566  0.9513  0.7402
 5856SOL    HW229028   2.685   3.903   4.591  1.6228  1.0970 -3.6653
 5857SOL     OW29029   2.572   1.584   3.287  0.5527 -0.0730  0.5266
 5857SOL    HW129030   2.503   1.542   3.236 -0.0832  0.2896  1.0889
 5857SOL    HW229031   2.523   1.659   3.320  3.0990  2.3338 -1.0966
 5858SOL     OW29032   4.272   0.923   8.607  0.0725 -0.3235  0.2136
 5858SOL    HW129033   4.246   0.964   8.689 -0.8696  3.4667 -1.9913
 5858SOL    HW229034   4.231   0.981   8.543 -1.2046  0.6942  1.9688
 5859SOL     OW29035   3.578   1.916   0.631 -0.1850  0.1573 -0.5103
 5859SOL    HW129036   3.520   1.849   0.667 -1.2762  0.4366 -1.7475
 5859SOL    HW229037   3.536   1.993   0.669  2.2921  0.5512  1.4546
 5860SOL     OW29038   1.553   3.375  15.865  0.2216  0.6772  0.2312
 5860SOL    HW129039   1.616   3.409  15.928  1.2816  1.0398 -1.0312
 5860SOL    HW229040   1.525   3.287  15.893 -1.3749  0.9347 -0.5629
 5861SOL     OW29041   3.949   2.567   6.324 -0.1971 -0.3689 -0.1389
 5861SOL    HW129042   3.992   2.533   6.245  0.9144 -1.5892  0.9880
 5861SOL    HW229043   4.018   2.625   6.354  1.0778 -0.6519 -2.4749
 5862SOL     OW29044   1.554   1.000   6.653  0.0388  0.3809  0.1048
 5862SOL    HW129045   1.629   0.970   6.602 -2.3760 -0.9432 -2.6894
 5862SOL    HW229046   1.514   0.917   6.679 -2.7493  1.6327 -0.1501
 5863SOL     OW29047   4.551   1.904   6.399  0.6964 -0.2177 -0.2397
 5863SOL    HW129048   4.565   1.908   6.304  0.6568  0.9553 -0.1977
 5863SOL    HW229049   4.567   1.813   6.425 -3.5279 -0.5154  1.2972
 5864SOL     OW29050   2.894   0.293   0.995  0.0010  0.4178  0.7264
 5864SOL    HW129051   2.908   0.385   1.017 -1.6531  0.1337  2.8955
 5864SOL    HW229052   2.809   0.287   0.951  0.8249  0.0414 -0.8138
 5865SOL     OW29053   1.994   3.964   2.547  0.0657 -0.4174  0.2612
 5865SOL    HW129054   1.919   3.905   2.544 -0.8308  0.7525 -0.3888
 5865SOL    HW229055   2.068   3.921   2.504  1.3860  2.7033 -0.5920
 5866SOL     OW29056   3.699   2.830   4.406  0.1709  0.2310  0.1580
 5866SOL    HW129057   3.656   2.905   4.448 -0.8213  0.6389 -1.5884
 5866SOL    HW229058   3.723   2.868   4.321  0.8225  0.6247  0.5157
 5867SOL     OW29059   0.488   3.220   2.975 -0.1481 -0.0238  0.0389
 5867SOL    HW129060   0.572   3.215   2.930 -0.2958  0.8036 -0.3295
 5867SOL    HW229061   0.510   3.195   3.064 -2.6394  2.5960  1.3884
 5868SOL     OW29062   4.645   2.996  10.260 -0.1630 -0.1975  0.1689
 5868SOL    HW129063   4.580   3.050  10.215 -0.8910  1.8938  3.7321
 5868SOL    HW229064   4.605   2.989  10.346 -1.5163 -2.2268 -0.6188
 5869SOL     OW29065   4.507   0.342   8.180 -0.4638  0.9530 -0.2119
 5869SOL    HW129066   4.554   0.330   8.263 -1.4484 -1.0463  0.0515
 5869SOL    HW229067   4.453   0.263   8.182  1.7305 -0.5614 -1.5576
 5870SOL     OW29068   0.781   1.050   4.538 -0.3360  0.0947 -0.6798
 5870SOL    HW129069   0.802   0.985   4.605 -2.1174 -0.2545 -0.4541
 5870SOL    HW229070   0.848   1.035   4.472 -0.6182 -0.4671 -0.8427
 5871SOL     OW29071   3.710   2.556   1.393  0.0046  0.1050 -0.1369
 5871SOL    HW129072   3.682   2.516   1.475 -3.6545 -0.9262 -1.8553
 5871SOL    HW229073   3.630   2.602   1.365 -1.5538 -2.3922  0.1543
 5872SOL     OW29074   0.444   2.989   6.493  0.4632  0.0322 -0.4268
 5872SOL    HW129075   0.366   2.964   6.444 -1.5909  2.3512  1.6178
 5872SOL    HW229076   0.505   3.015   6.425  2.6887 -1.0822  1.1313
 5873SOL     OW29077   4.672   3.798   9.334 -0.1639 -0.3794 -0.5600
 5873SOL    HW129078   4.630   3.814   9.249 -0.3033  2.0025 -0.0234
 5873SOL    HW229079   4.694   3.705   9.342 -0.4922 -0.4070  0.0174
 5874SOL     OW29080   1.254   2.650   4.568 -0.5647 -0.0060  0.4167
 5874SOL    HW129081   1.296   2.728   4.531  0.9304 -1.2017 -0.4301
 5874SOL    HW229082   1.176   2.687   4.609  0.2484  1.1373  0.9382
 5875SOL     OW29083   1.612   2.152   7.713 -0.5635  0.2128 -0.5910
 5875SOL    HW129084   1.572   2.117   7.793  0.3741 -2.8601 -1.4718
 5875SOL    HW229085   1.682   2.092   7.686  0.9170  2.6397 -2.0785
 5876SOL     OW29086   2.108   3.342   9.092 -0.4416 -0.1848 -0.1177
 5876SOL    HW129087   2.193   3.376   9.064 -1.2609  0.9374 -1.2137
 5876SOL    HW229088   2.131   3.286   9.167  0.2567  0.1290 -0.0982
 5877SOL     OW29089   3.130   1.053   4.255  0.1592  0.1256 -0.4713
 5877SOL    HW129090   3.086   1.069   4.338  2.0659  0.9262  0.3999
 5877SOL    HW229091   3.148   1.145   4.232 -0.1580  0.0004 -1.2042
 5878SOL     OW29092   2.837   1.890   6.238  0.6121 -0.1595 -0.3199
 5878SOL    HW129093   2.888   1.829   6.185  0.0658 -0.9698  0.0960
 5878SOL    HW229094   2.766   1.838   6.275  0.7681  0.4240  0.8091
 5879SOL     OW29095   2.634   1.489   3.582  0.1695  0.3137  0.6239
 5879SOL    HW129096   2.684   1.474   3.662 -0.9568 -0.3894  1.2058
 5879SOL    HW229097   2.621   1.396   3.562 -4.0160  1.1580 -0.6905
 5880SOL     OW29098   4.560   1.355   2.573 -0.5790 -0.0136 -0.6797
 5880SOL    HW129099   4.481   1.392   2.534 -0.2618  3.0886  1.5683
 5880SOL    HW229100   4.557   1.378   2.666  0.4512 -0.5464 -0.5194
 5881SOL     OW29101   0.283   4.603  13.339 -0.2315  0.1225  0.2211
 5881SOL    HW129102   0.244   4.557  13.414 -0.9414 -0.3076 -0.4141
 5881SOL    HW229103   0.205   4.620  13.286  0.6089 -1.4665 -1.5090
 5882SOL     OW29104   4.225   1.614   4.645 -0.4733  0.1696  0.0021
 5882SOL    HW129105   4.238   1.650   4.733  0.4807 -0.3934  0.0971
 5882SOL    HW229106   4.132   1.594   4.656 -0.8165  2.3466  1.1847
 5883SOL     OW29107   3.946   2.035   5.549 -0.4370 -0.1165  0.2158
 5883SOL    HW129108   3.920   1.997   5.465  0.0142  2.4827 -1.1112
 5883SOL    HW229109   4.019   2.088   5.517 -1.3059 -1.0564 -3.3809
 5884SOL     OW29110   3.585   4.286   3.831  0.6309 -0.1359 -0.4689
 5884SOL    HW129111   3.671   4.270   3.870  0.7414 -2.1510 -1.5489
 5884SOL    HW229112   3.621   4.310   3.745 -0.7533  0.2886 -0.9312
 5885SOL     OW29113   2.662   1.148   1.765 -0.0352  0.5864  0.5652
 5885SOL    HW129114   2.679   1.216   1.699 -0.6028  1.0056  0.8552
 5885SOL    HW229115   2.584   1.186   1.805 -0.9317 -0.0570 -0.5818
 5886SOL     OW29116   1.296   1.184   7.212 -0.2872 -0.0290  0.3415
 5886SOL    HW129117   1.283   1.221   7.125  0.1458  2.0885  1.1776
 5886SOL    HW229118   1.246   1.238   7.273 -0.2133  1.8926 -1.3065
 5887SOL     OW29119   0.728   1.330   2.028  0.3025 -0.0156 -0.4070
 5887SOL    HW129120   0.791   1.262   2.003  0.9674  0.4263  0.0685
 5887SOL    HW229121   0.780   1.410   2.023 -2.0729  1.6382  1.0567
 5888SOL     OW29122   1.602   0.231  15.647  0.3150  0.2399  0.1738
 5888SOL    HW129123   1.508   0.216  15.654 -0.1215  2.7919  0.0377
 5888SOL    HW229124   1.635   0.152  15.688  0.5121 -0.2786 -0.9818
 5889SOL     OW29125   3.516   2.393   3.188 -0.4147 -0.0660 -0.0084
 5889SOL    HW129126   3.556   2.323   3.137  2.8725  1.7705  0.0416
 5889SOL    HW229127   3.424   2.369   3.201  0.3741 -1.7239  2.4711
 5890SOL     OW29128   1.319   3.241   8.785  0.2585 -0.0507 -0.3481
 5890SOL    HW129129   1.277   3.155   8.796  0.2901  0.0717  0.7252
 5890SOL    HW229130   1.308   3.245   8.690  0.5703  1.9413 -0.3012
 5891SOL     OW29131   3.918   0.877   2.211  0.0132  0.2696 -0.6123
 5891SOL    HW129132   3.894   0.866   2.119 -0.8721  0.2144 -0.3835
 5891SOL    HW229133   3.948   0.968   2.212 -0.3856  0.3962  0.6360
 5892SOL     OW29134   1.795   3.105   8.572 -0.1186 -0.8763 -0.7190
 5892SOL    HW129135   1.859   3.048   8.529  0.6077 -0.6376  0.0539
 5892SOL    HW229136   1.779   3.049   8.648 -0.3667  1.0189  0.6237
 5893SOL     OW29137   2.888   1.619   6.450  0.3411  0.2468 -0.3802
 5893SOL    HW129138   2.843   1.548   6.495 -1.2093  3.7460  3.6210
 5893SOL    HW229139   2.979   1.589   6.463  0.1487 -0.5556 -0.9104
 5894SOL     OW29140   1.238   2.098   5.354  0.6725 -0.4393 -0.2575
 5894SOL    HW129141   1.332   2.112   5.361  0.7175 -0.6274 -0.4684
 5894SOL    HW229142   1.241   2.071   5.262  2.3853 -1.0073 -0.0301
 5895SOL     OW29143   2.950   4.490   1.442  0.0953  0.7621 -0.2561
 5895SOL    HW129144   3.014   4.484   1.513 -1.4164 -1.5629  0.9201
 5895SOL    HW229145   2.898   4.569   1.456 -2.1005 -0.4650 -1.4022
 5896SOL     OW29146   2.854   2.823  17.316  0.1423  0.3499  0.6455
 5896SOL    HW129147   2.883   2.774  17.238 -1.4157  0.7552 -0.1765
 5896SOL    HW229148   2.936   2.819  17.366 -1.8006  0.9606  3.8297
 5897SOL     OW29149   3.043   4.669   6.227 -0.0733 -0.0138 -0.7263
 5897SOL    HW129150   3.084   0.024   6.264 -0.8686 -0.0416  0.2134
 5897SOL    HW229151   3.096   4.596   6.260  0.5025 -0.0937 -1.8290
 5898SOL     OW29152   0.209   2.747   4.499 -0.6228 -0.4310 -0.1481
 5898SOL    HW129153   0.191   2.833   4.538 -0.5437 -0.1142 -0.8219
 5898SOL    HW229154   0.127   2.698   4.496 -0.4527 -0.9465  3.4408
 5899SOL     OW29155   3.662   0.422   7.585 -0.0627  0.0622  0.3346
 5899SOL    HW129156   3.584   0.367   7.577 -1.1039  1.2959  1.9941
 5899SOL    HW229157   3.624   0.510   7.582  2.9676  1.2927 -1.2537
 5900SOL     OW29158   1.771   1.042   0.767  0.7214 -0.5278 -0.1026
 5900SOL    HW129159   1.767   0.960   0.717 -2.8966 -0.3705 -0.0778
 5900SOL    HW229160   1.863   1.038   0.793  0.5353 -0.5241  0.5595
 5901SOL     OW29161   0.052   0.164  11.059  0.1818 -0.1197  0.3010
 5901SOL    HW129162   0.026   0.248  11.022  0.9288 -0.1050 -0.1973
 5901SOL    HW229163   0.146   0.184  11.064  0.0345  0.0074  2.7311
 5902SOL     OW29164   1.041   1.042   7.609  0.1921  0.0901 -0.1151
 5902SOL    HW129165   1.042   1.021   7.702  0.0975 -0.4683 -0.2437
 5902SOL    HW229166   0.984   1.118   7.594  0.0486 -0.2008 -1.0558
 5903SOL     OW29167   1.481   0.009  10.837  0.3333  0.2360 -0.0895
 5903SOL    HW129168   1.408   0.067  10.814  0.9281  0.2806 -1.8356
 5903SOL    HW229169   1.522   0.051  10.912  0.1549  0.1282  0.0709
 5904SOL     OW29170   0.428   1.317   3.057  0.0623  0.5221 -0.3216
 5904SOL    HW129171   0.469   1.233   3.077 -0.9830  0.0833 -0.0236
 5904SOL    HW229172   0.358   1.321   3.122  2.1456  0.2339  1.9409
 5905SOL     OW29173   1.060   2.997   6.874 -0.2454 -0.6789  0.6743
 5905SOL    HW129174   1.047   2.902   6.874  0.5438 -0.7937  1.9345
 5905SOL    HW229175   1.128   3.007   6.940  0.6698  1.8837 -0.6570
 5906SOL     OW29176   1.279   0.261  12.987  0.5877  0.2198  0.4783
 5906SOL    HW129177   1.245   0.242  13.074 -1.2304  1.9257  0.1294
 5906SOL    HW229178   1.334   0.335  13.012  1.5578 -0.2459 -0.2578
 5907SOL     OW29179   2.557   4.420   9.122 -0.1837  0.4278  0.3990
 5907SOL    HW129180   2.649   4.411   9.100 -0.4778 -0.5628 -0.4298
 5907SOL    HW229181   2.554   4.433   9.217  3.9535 -0.9578  0.7274
 5908SOL     OW29182   4.392   3.873   5.952 -0.1239  0.1371  0.2178
 5908SOL    HW129183   4.328   3.944   5.963  1.3459  1.5194 -0.0975
 5908SOL    HW229184   4.371   3.856   5.860  1.6047  0.3048 -0.2016
 5909SOL     OW29185   1.607   2.828   4.094  0.4478 -0.0182  0.0259
 5909SOL    HW129186   1.663   2.823   4.016  1.4024 -0.3911  0.7367
 5909SOL    HW229187   1.530   2.869   4.055  1.0839 -1.2546 -2.5959
 5910SOL     OW29188   2.716   1.763  12.638  0.3328 -0.2538  0.0456
 5910SOL    HW129189   2.705   1.782  12.731  0.6639  1.6512 -0.3088
 5910SOL    HW229190   2.634   1.804  12.611 -0.0422 -0.4791  0.8282
 5911SOL     OW29191   3.740   1.716  13.413  0.8272 -0.3315 -0.3124
 5911SOL    HW129192   3.724   1.643  13.472  0.3510 -0.4969 -0.6496
 5911SOL    HW229193   3.769   1.669  13.335  1.1232 -1.9930  0.8040
 5912SOL     OW29194   0.479   3.911   3.185 -0.1121  0.5742  0.2275
 5912SOL    HW129195   0.503   3.988   3.237  1.5364 -0.6302  1.2656
 5912SOL    HW229196   0.516   3.937   3.101  2.4615  0.0561  1.2139
 5913SOL     OW29197   1.662   2.013   4.832  0.2687 -0.0206 -0.2352
 5913SOL    HW129198   1.740   2.052   4.792  0.6502  0.0227  0.5410
 5913SOL    HW229199   1.600   2.050   4.769 -1.9211 -2.7044  0.3435
 5914SOL     OW29200   0.539   0.557   7.619  0.3801 -0.2131 -0.3395
 5914SOL    HW129201   0.502   0.640   7.649  1.4435 -0.4838  1.7125
 5914SOL    HW229202   0.625   0.572   7.658 -0.2813  1.5216  0.4546
 5915SOL     OW29203   3.792   1.075   7.538 -0.3254 -0.5214 -0.9152
 5915SOL    HW129204   3.754   1.071   7.626 -0.6178  0.9569 -0.9746
 5915SOL    HW229205   3.740   1.149   7.506  0.1802  0.2349 -0.0174
 5916SOL     OW29206   0.176   4.504   4.935  0.4501 -0.3569 -0.1777
 5916SOL    HW129207   0.089   4.488   4.900  0.2491  0.9347 -0.2402
 5916SOL    HW229208   0.238   4.493   4.862 -0.5525 -1.5731 -0.8324
 5917SOL     OW29209   2.200   0.475   4.015  1.0458 -0.2418 -0.1613
 5917SOL    HW129210   2.264   0.410   3.986 -0.1923 -0.6320 -2.0134
 5917SOL    HW229211   2.205   0.548   3.954  2.0659 -1.2311 -1.2702
 5918SOL     OW29212   1.796   3.118   4.053 -0.0054 -0.5671  0.5273
 5918SOL    HW129213   1.860   3.053   4.026 -1.7585 -1.9331 -0.3244
 5918SOL    HW229214   1.720   3.060   4.062 -0.7211  0.4141  0.8211
 5919SOL     OW29215   1.171   0.791   6.281  0.8717  0.1475 -0.0663
 5919SOL    HW129216   1.093   0.760   6.326  0.4797 -1.2563 -1.7394
 5919SOL    HW229217   1.240   0.784   6.347  0.7482 -1.0610 -0.0742
 5920SOL     OW29218   4.040   0.832  13.252 -0.0146 -0.1885 -0.4256
 5920SOL    HW129219   4.015   0.743  13.226  0.5267 -0.7081  0.8196
 5920SOL    HW229220   4.121   0.844  13.202  1.2808 -1.2943  1.3630
 5921SOL     OW29221   4.145   2.199   1.054 -0.0921  0.1485  0.1598
 5921SOL    HW129222   4.195   2.277   1.078  1.0578 -0.3957 -0.4679
 5921SOL    HW229223   4.214   2.145   1.015 -1.5061 -0.4326 -1.5514
 5922SOL     OW29224   0.280   3.522  14.460  0.2399  0.6069  0.3879
 5922SOL    HW129225   0.289   3.602  14.409  1.0145  0.5661  0.4519
 5922SOL    HW229226   0.260   3.461  14.389  1.4372  0.8957 -0.2107
 5923SOL     OW29227   4.399   2.732  10.573 -0.4109  0.5528  0.1155
 5923SOL    HW129228   4.423   2.732  10.666  0.2969 -0.7289 -0.0607
 5923SOL    HW229229   4.485   2.755  10.535  0.6266  0.1459  2.2415
 5924SOL     OW29230   0.403   2.594   2.993 -0.4194 -0.4874 -0.1114
 5924SOL    HW129231   0.452   2.595   2.911  1.0026  0.6499  0.7627
 5924SOL    HW229232   0.471   2.638   3.044 -1.7675 -0.5053  1.7307
 5925SOL     OW29233   1.832   2.706   8.583  0.3755 -0.2582  0.5416
 5925SOL    HW129234   1.833   2.632   8.522  0.7189  0.4037 -0.2550
 5925SOL    HW229235   1.760   2.760   8.551  0.7142 -1.3791 -2.0957
 5926SOL     OW29236   1.780   2.441   1.109 -0.2565 -0.1173 -0.4083
 5926SOL    HW129237   1.866   2.399   1.097 -1.5712 -3.2043  1.2028
 5926SOL    HW229238   1.734   2.366   1.146  2.0100 -1.2299  0.1894
 5927SOL     OW29239   1.501   4.139   8.092 -0.0726 -0.0841 -0.0027
 5927SOL    HW129240   1.441   4.077   8.134 -2.3594  2.2430  0.1601
 5927SOL    HW229241   1.490   4.218   8.144 -0.4018 -0.4209  0.4445
 5928SOL     OW29242   0.792   4.561   2.905  0.3257  0.4740  0.1994
 5928SOL    HW129243   0.775   4.581   2.813 -0.1182  0.0704  0.1908
 5928SOL    HW229244   0.704   4.575   2.940  0.2142 -2.5080  1.1397
 5929SOL     OW29245   0.730   2.060   8.739 -0.3932  0.0776  0.5814
 5929SOL    HW129246   0.669   2.025   8.674 -1.3426  3.2294 -0.2353
 5929SOL    HW229247   0.662   2.061   8.806  0.6219  1.1274  1.6080
 5930SOL     OW29248   1.348   2.321   9.430  0.0266  0.0773  0.4652
 5930SOL    HW129249   1.323   2.390   9.368 -1.1136 -0.9850 -0.2511
 5930SOL    HW229250   1.399   2.381   9.485 -1.1988 -0.3875  2.1183
 5931SOL     OW29251   4.091   2.478   4.080 -0.5411  0.2237  0.4462
 5931SOL    HW129252   4.032   2.548   4.053 -1.2541 -1.0553 -1.3274
 5931SOL    HW229253   4.023   2.446   4.139 -0.3886 -0.9285 -0.0005
 5932SOL     OW29254   0.139   2.287   1.704 -0.4057  0.7443 -0.2143
 5932SOL    HW129255   0.138   2.220   1.635  0.0511 -1.5342  1.9931
 5932SOL    HW229256   0.078   2.252   1.769  1.4213  0.0302  1.0964
 5933SOL     OW29257   3.770   2.401   8.332 -0.5807  0.0333  0.0188
 5933SOL    HW129258   3.728   2.330   8.380  1.4539 -0.5130  0.9871
 5933SOL    HW229259   3.837   2.430   8.393  0.6765  0.3641 -1.4972
 5934SOL     OW29260   0.439   4.611   2.726 -0.0791 -0.3733  0.6786
 5934SOL    HW129261   0.388   4.562   2.662 -1.4942  1.4301  0.4294
 5934SOL    HW229262   0.428   4.562   2.808  0.9193  0.5058  1.3392
 5935SOL     OW29263   0.574   4.146   6.021  0.1889 -0.1547  0.3161
 5935SOL    HW129264   0.664   4.115   6.006  0.7882  1.4866  0.5551
 5935SOL    HW229265   0.593   4.194   6.102  2.1050  0.8422 -0.7231
 5936SOL     OW29266   0.576   3.911   0.946 -0.0683  0.0854  0.1802
 5936SOL    HW129267   0.510   3.902   0.876 -2.0888  0.9733  1.9897
 5936SOL    HW229268   0.650   3.866   0.906  0.9134  1.2410  0.7060
 5937SOL     OW29269   2.202   4.688  14.359 -0.1106 -0.5280 -0.2675
 5937SOL    HW129270   2.256   4.686  14.439 -0.8597  0.3632  0.2627
 5937SOL    HW229271   2.212   4.606  14.311 -3.0095 -1.3634  0.5303
 5938SOL     OW29272   0.593   3.794   2.504 -0.2407  0.2871 -0.0208
 5938SOL    HW129273   0.587   3.773   2.411 -2.0658 -2.2975  0.6636
 5938SOL    HW229274   0.584   3.889   2.513  0.7224  0.1716  2.1913
 5939SOL     OW29275   1.748   1.916   6.307  0.0366 -0.7532  0.2782
 5939SOL    HW129276   1.653   1.907   6.309 -0.1619  0.7089 -2.0983
 5939SOL    HW229277   1.764   1.915   6.212 -1.8564 -1.7411 -0.0255
 5940SOL     OW29278   0.319   3.761  16.749  0.4238 -0.6019 -0.1814
 5940SOL    HW129279   0.238   3.728  16.711  0.7053 -0.5993 -0.7854
 5940SOL    HW229280   0.347   3.680  16.791  1.1299 -0.2862 -0.0484
 5941SOL     OW29281   4.068   1.131   4.578 -0.2305  0.7588 -0.5703
 5941SOL    HW129282   4.004   1.078   4.626 -0.1208 -1.0822 -2.4648
 5941SOL    HW229283   4.102   1.193   4.643  1.7282 -0.3212 -0.5437
 5942SOL     OW29284   1.404   4.631  11.456  0.7149  0.0287  0.2034
 5942SOL    HW129285   1.442   4.677  11.530 -2.1039  1.9206  0.4838
 5942SOL    HW229286   1.343   4.569  11.495 -0.4622  0.5687 -0.7886
 5943SOL     OW29287   2.551   3.263  10.558 -0.1508  0.4603  0.0255
 5943SOL    HW129288   2.599   3.205  10.617  0.9636  2.2103  0.8233
 5943SOL    HW229289   2.513   3.186  10.515  0.3623 -0.7278  1.7022
 5944SOL     OW29290   4.581   0.384  15.329  0.5160  0.2232 -0.5690
 5944SOL    HW129291   4.569   0.407  15.421  0.6768 -1.6866 -0.0601
 5944SOL    HW229292   4.523   0.452  15.296 -0.6108 -0.9097 -0.9368
 5945SOL     OW29293   1.852   1.391   6.728  0.0207  0.4829 -0.2253
 5945SOL    HW129294   1.850   1.485   6.745  2.0263  0.5111 -0.1486
 5945SOL    HW229295   1.912   1.374   6.800 -1.5810  0.7885  1.1695
 5946SOL     OW29296   3.189   2.883   8.998  0.0125 -0.3456  0.6180
 5946SOL    HW129297   3.214   2.940   8.925  1.6659 -1.0182  0.6739
 5946SOL    HW229298   3.108   2.839   8.971 -1.3009  2.1513  0.4750
 5947SOL     OW29299   4.400   3.882   2.642  0.0673  0.2459 -0.2481
 5947SOL    HW129300   4.309   3.886   2.672 -0.3044  0.3312 -1.3683
 5947SOL    HW229301   4.409   3.796   2.601  0.3915 -1.0131  2.4514
 5948SOL     OW29302   0.960   2.660   4.668 -0.4241  0.5346  0.4395
 5948SOL    HW129303   0.893   2.625   4.609  0.4927 -0.3546 -0.0731
 5948SOL    HW229304   0.951   2.751   4.638 -0.8530 -0.4964 -2.6272
 5949SOL     OW29305   4.699   2.908   0.622 -0.0190 -0.2102 -0.3024
 5949SOL    HW129306   0.069   2.920   0.611 -0.0465  0.2532 -0.0439
 5949SOL    HW229307   4.670   2.975   0.560  0.0438 -0.5314 -0.6800
 5950SOL     OW29308   2.506   4.156  11.387 -0.5554 -0.0831 -0.1432
 5950SOL    HW129309   2.473   4.162  11.297  1.4894  0.1960 -0.8759
 5950SOL    HW229310   2.579   4.096  11.373  1.3867  2.2043  0.2459
 5951SOL     OW29311   2.197   3.821   6.135 -1.3998  0.2098  0.1543
 5951SOL    HW129312   2.288   3.831   6.165 -1.1219  1.3529 -1.0898
 5951SOL    HW229313   2.162   3.887   6.196  0.2522 -0.8099  2.2149
 5952SOL     OW29314   0.550   0.528  10.823 -0.5489  0.0883  0.3835
 5952SOL    HW129315   0.619   0.466  10.799 -0.1085  1.1557 -1.0408
 5952SOL    HW229316   0.558   0.601  10.763  0.0857 -0.2881  0.0118
 5953SOL     OW29317   4.101   1.875   3.645 -0.3048  0.0010  0.1421
 5953SOL    HW129318   4.149   1.955   3.624  2.1709 -1.2697  1.0148
 5953SOL    HW229319   4.037   1.897   3.577 -2.2923  1.2707  2.4076
 5954SOL     OW29320   3.345   2.674  17.354  0.0990 -0.4290  0.1031
 5954SOL    HW129321   3.346   2.696  17.261 -0.9343  0.6193  0.3547
 5954SOL    HW229322   3.321   2.581  17.351  3.1131 -1.2331 -0.0391
 5955SOL     OW29323   3.753   1.420  17.279 -0.6976 -0.2779  0.5138
 5955SOL    HW129324   3.700   1.449  17.354 -0.1381 -1.7067  1.4625
 5955SOL    HW229325   3.701   1.410  17.199  1.3161 -3.0409 -0.4264
 5956SOL     OW29326   1.334   4.181   4.176 -0.0288 -0.0404  0.1436
 5956SOL    HW129327   1.365   4.125   4.105 -0.8244  0.1330 -0.3492
 5956SOL    HW229328   1.364   4.269   4.152  0.2691 -0.1373  0.1563
 5957SOL     OW29329   3.669   2.362   3.458 -0.1759 -0.0248 -0.3082
 5957SOL    HW129330   3.764   2.358   3.453 -0.1331  1.2808 -0.6378
 5957SOL    HW229331   3.637   2.370   3.368 -1.2927  0.0589  0.0963
 5958SOL     OW29332   1.507   0.787   0.305 -1.0661  0.3014  0.3218
 5958SOL    HW129333   1.533   0.879   0.301 -0.4096  0.0566 -1.2122
 5958SOL    HW229334   1.417   0.792   0.337 -1.6802 -0.7329 -1.1909
 5959SOL     OW29335   0.518   3.875   6.981  0.2181  0.0848 -0.5246
 5959SOL    HW129336   0.569   3.829   7.048 -0.5182  0.3972  0.2457
 5959SOL    HW229337   0.436   3.825   6.983  0.8458 -0.9657 -0.9782
 5960SOL     OW29338   2.458   2.987  12.075 -0.2848 -0.2296 -0.2357
 5960SOL    HW129339   2.532   3.034  12.037 -1.2674  2.6322  1.4206
 5960SOL    HW229340   2.388   3.051  12.064 -1.0740 -0.8622  1.1067
 5961SOL     OW29341   0.531   2.812   1.872 -0.0825  0.1987  0.2114
 5961SOL    HW129342   0.498   2.889   1.918  0.1675  1.4175 -1.6579
 5961SOL    HW229343   0.563   2.853   1.792 -0.7533  0.6030  0.1464
 5962SOL     OW29344   4.601   3.296   2.086  0.3733  0.3948 -0.2544
 5962SOL    HW129345   4.608   3.389   2.107 -3.6851  0.5271  0.4731
 5962SOL    HW229346   4.545   3.273   2.160 -0.2794  1.0966 -0.5305
 5963SOL     OW29347   2.427   2.762   3.559 -0.1970 -0.5172 -0.5244
 5963SOL    HW129348   2.430   2.855   3.538 -0.0074 -0.5436 -0.6148
 5963SOL    HW229349   2.426   2.761   3.655 -0.5327 -0.6376 -0.5297
 5964SOL     OW29350   3.994   4.507   8.134 -0.0665 -0.2198 -0.5455
 5964SOL    HW129351   3.906   4.536   8.111  0.2399 -1.0444 -2.8250
 5964SOL    HW229352   4.035   4.591   8.153 -1.1882 -0.0005  0.9071
 5965SOL     OW29353   2.900   1.185   6.707 -0.6678  0.1239 -0.3415
 5965SOL    HW129354   2.965   1.210   6.773 -1.0840 -0.2670  0.2135
 5965SOL    HW229355   2.836   1.130   6.752 -0.1678 -0.4684 -0.3526
 5966SOL     OW29356   2.232   2.197   7.303 -0.1000  0.4119 -0.7090
 5966SOL    HW129357   2.238   2.103   7.289  2.6556  0.5584 -0.4692
 5966SOL    HW229358   2.314   2.207   7.352 -1.5925 -2.8065  2.3978
 5967SOL     OW29359   0.472   3.931   8.833 -0.1334  0.4117 -0.1982
 5967SOL    HW129360   0.390   3.923   8.881  0.3936 -2.3585  0.2799
 5967SOL    HW229361   0.431   3.913   8.748  1.3781  0.7548 -1.0071
 5968SOL     OW29362   0.404   4.185  12.846  0.5320 -0.1817 -0.5503
 5968SOL    HW129363   0.389   4.115  12.783 -0.9783  0.5889 -1.0473
 5968SOL    HW229364   0.465   4.138  12.904 -1.2768  0.3346  1.7605
 5969SOL     OW29365   2.299   2.596   5.141  0.0413  0.2354  0.0545
 5969SOL    HW129366   2.284   2.511   5.182  1.4206  0.7500  1.6576
 5969SOL    HW229367   2.324   2.651   5.216  2.8558 -0.8944 -0.0647
 5970SOL     OW29368   3.643   1.114   4.226 -0.2504 -0.5187  0.7981
 5970SOL    HW129369   3.722   1.068   4.197  0.7924  0.3923  2.2048
 5970SOL    HW229370   3.669   1.204   4.205 -1.8602  0.0824  1.4185
 5971SOL     OW29371   0.174   2.216   0.348  0.3924  0.0945  0.0040
 5971SOL    HW129372   0.093   2.258   0.378  0.8515 -0.3269  1.8454
 5971SOL    HW229373   0.238   2.256   0.407 -0.0786  1.2930 -0.2930
 5972SOL     OW29374   2.869   0.650   5.197  0.1146  0.2697 -0.1863
 5972SOL    HW129375   2.946   0.596   5.179  0.2662  0.5605 -0.4081
 5972SOL    HW229376   2.856   0.685   5.109  2.2217  0.9075 -0.2471
 5973SOL     OW29377   0.546   2.250   4.305  0.2773 -0.2291 -0.0339
 5973SOL    HW129378   0.529   2.241   4.398 -0.7838 -0.2198 -0.2274
 5973SOL    HW229379   0.537   2.157   4.282  0.1246 -0.0590 -0.6711
 5974SOL     OW29380   2.485   3.476   5.254  0.0239 -0.0747  0.3313
 5974SOL    HW129381   2.560   3.438   5.299 -1.7682 -3.9335  0.0198
 5974SOL    HW229382   2.530   3.540   5.198 -2.4126  1.9745  0.6753
 5975SOL     OW29383   0.340   0.700   8.618 -0.1659 -0.5532  0.0816
 5975SOL    HW129384   0.308   0.789   8.631  0.6726 -0.1629 -0.4898
 5975SOL    HW229385   0.433   0.723   8.613 -0.1831 -0.1117  1.7775
 5976SOL     OW29386   2.104   3.164   7.331  0.2817  0.4993  0.2696
 5976SOL    HW129387   2.074   3.150   7.421  0.0435 -1.5037 -0.1281
 5976SOL    HW229388   2.174   3.227   7.346 -0.0516  1.1530 -0.9477
 5977SOL     OW29389   2.215   0.269   3.427 -0.1311 -0.2546 -0.0962
 5977SOL    HW129390   2.162   0.196   3.393 -0.1331 -0.6907  0.8395
 5977SOL    HW229391   2.280   0.226   3.482  0.3426 -0.1283 -0.5525
 5978SOL     OW29392   1.968   1.149   7.663 -0.4002 -0.3196 -0.3064
 5978SOL    HW129393   1.968   1.245   7.656  1.6117 -0.2979  0.0788
 5978SOL    HW229394   2.061   1.136   7.679 -0.0474  0.8601 -1.4349
 5979SOL     OW29395   1.712   2.419  12.307  0.2249 -0.7707  0.2916
 5979SOL    HW129396   1.709   2.379  12.394  2.2434  1.8924  1.5909
 5979SOL    HW229397   1.686   2.509  12.328 -0.4261 -0.6275 -1.1840
 5980SOL     OW29398   2.331   2.260   2.533 -0.6211  0.7062 -0.2895
 5980SOL    HW129399   2.366   2.342   2.499  1.6978 -0.0097  0.2905
 5980SOL    HW229400   2.336   2.275   2.628 -0.6886  1.2123 -0.3694
 5981SOL     OW29401   2.023   4.052  13.989  0.7230  0.1836  0.6427
 5981SOL    HW129402   2.019   4.138  14.032  1.6863 -0.2552  1.6265
 5981SOL    HW229403   2.067   4.007  14.061  0.3027 -2.5188 -0.8110
 5982SOL     OW29404   2.213   2.604  14.645 -0.2770 -0.4179 -0.5644
 5982SOL    HW129405   2.195   2.698  14.635  0.9936 -0.2653 -1.4238
 5982SOL    HW229406   2.287   2.597  14.706 -0.9350  0.2278  0.3217
 5983SOL     OW29407   1.759   3.652  11.830  0.5854  0.4211  0.3650
 5983SOL    HW129408   1.836   3.659  11.773 -0.2419  1.2975 -0.6460
 5983SOL    HW229409   1.794   3.613  11.910 -1.0866  0.2863  1.0393
 5984SOL     OW29410   0.443   1.136   4.410 -0.1696 -0.6516 -0.4046
 5984SOL    HW129411   0.412   1.046   4.413 -0.5827 -0.6194 -3.6476
 5984SOL    HW229412   0.372   1.183   4.366  0.0209 -0.5165 -0.5680
 5985SOL     OW29413   4.710   3.958   6.271 -0.0064 -0.3684 -0.3115
 5985SOL    HW129414   4.673   3.937   6.185 -2.3178  2.3673  0.0206
 5985SOL    HW229415   4.642   3.959   6.338  2.3451 -0.8711  2.0705
 5986SOL     OW29416   4.655   0.256  15.679 -0.2599 -0.4659  0.1354
 5986SOL    HW129417   4.694   0.309  15.748  2.9320 -1.0064 -1.2503
 5986SOL    HW229418   4.599   0.327  15.646 -1.5900 -1.4356  0.2995
 5987SOL     OW29419   1.501   0.325   8.938  0.3610  0.0486  0.0218
 5987SOL    HW129420   1.530   0.234   8.932  0.0197  0.1218 -2.4325
 5987SOL    HW229421   1.479   0.325   9.031  1.6231 -0.8477  0.3239
 5988SOL     OW29422   0.847   2.153   3.062  0.1660  0.1815  0.0567
 5988SOL    HW129423   0.889   2.131   2.979 -1.0455  0.9524 -0.7590
 5988SOL    HW229424   0.843   2.067   3.105  2.9269  0.1512  0.2389
 5989SOL     OW29425   4.171   3.502   2.524  0.7939 -0.1720  0.1859
 5989SOL    HW129426   4.086   3.520   2.564  0.2127  0.5616 -1.3818
 5989SOL    HW229427   4.144   3.480   2.434 -2.5138  1.2015  0.8499
 5990SOL     OW29428   3.426   1.441   9.269  0.6632 -0.2038  0.2270
 5990SOL    HW129429   3.375   1.522   9.272  0.2922 -0.4152 -0.3852
 5990SOL    HW229430   3.461   1.430   9.181 -2.6148 -2.7515 -0.7440
 5991SOL     OW29431   0.237   0.516   4.095 -0.1901  0.2212  0.1849
 5991SOL    HW129432   0.205   0.585   4.153  0.6309  1.0936 -0.3892
 5991SOL    HW229433   0.283   0.567   4.028  0.9187  0.9123  1.4894
 5992SOL     OW29434   2.166   4.659   0.684  0.1120  0.2761  0.1507
 5992SOL    HW129435   2.138   4.635   0.772 -1.6612 -1.7211 -0.9934
 5992SOL    HW229436   2.119   0.018   0.674  1.8573  1.6018  2.7505
 5993SOL     OW29437   1.581   0.911   2.295 -0.1982  0.3769  0.0278
 5993SOL    HW129438   1.609   0.859   2.219  1.2774  2.6030 -0.9489
 5993SOL    HW229439   1.517   0.851   2.332  1.2871  0.9417  3.4848
 5994SOL     OW29440   1.984   0.496   9.277  0.9064  0.4158 -0.1187
 5994SOL    HW129441   2.060   0.546   9.246  0.4684  0.9289 -0.3677
 5994SOL    HW229442   2.027   0.431   9.332  0.6611  0.7360  0.4537
 5995SOL     OW29443   1.505   3.609   5.757 -0.4175  0.2819 -0.3094
 5995SOL    HW129444   1.488   3.618   5.850 -0.6353 -3.4693 -0.0031
 5995SOL    HW229445   1.570   3.541   5.743  0.2111  1.0401 -1.1305
 5996SOL     OW29446   0.352   2.235   6.503 -0.1905 -0.4390  0.3272
 5996SOL    HW129447   0.331   2.151   6.461  0.6308 -0.1656 -0.6360
 5996SOL    HW229448   0.313   2.216   6.588  0.3346  0.8870  0.8494
 5997SOL     OW29449   2.820   0.570   6.002  0.0262  0.2053  0.0070
 5997SOL    HW129450   2.872   0.540   5.927 -1.3572 -0.6675 -0.5981
 5997SOL    HW229451   2.825   0.665   5.988 -1.0998  0.1137 -0.9824
 5998SOL     OW29452   0.940   2.849   2.186  0.0563  0.4564 -0.1580
 5998SOL    HW129453   0.882   2.829   2.112  1.3461  0.4948 -1.1728
 5998SOL    HW229454   0.916   2.940   2.204  1.5949  0.5226  1.5486
 5999SOL     OW29455   3.203   1.496   8.809  0.5629 -0.0688 -0.2199
 5999SOL    HW129456   3.117   1.536   8.806  0.4497 -0.3431 -0.8328
 5999SOL    HW229457   3.252   1.575   8.784  0.9839 -0.0131  0.7949
 6000SOL     OW29458   3.884   4.033  16.181 -0.1297  0.0510  0.2539
 6000SOL    HW129459   3.954   3.984  16.137  2.3481 -0.5031  4.8412
 6000SOL    HW229460   3.809   4.016  16.124  1.2803 -2.2792 -0.9330
 6001SOL     OW29461   4.334   1.547  16.270 -0.7240  0.9053 -0.5850
 6001SOL    HW129462   4.266   1.502  16.219 -0.8693 -0.1754  0.5472
 6001SOL    HW229463   4.350   1.486  16.342  2.4976  0.6647 -1.5234
 6002SOL     OW29464   0.334   0.480   5.273  0.1201 -0.0217  0.0988
 6002SOL    HW129465   0.388   0.511   5.201  0.3112 -3.4004 -1.2155
 6002SOL    HW229466   0.307   0.562   5.314 -1.9680  0.2732 -1.8936
 6003SOL     OW29467   3.971   1.507   0.401 -0.3406 -0.0878  0.2193
 6003SOL    HW129468   4.008   1.505   0.313  2.5894 -1.5637  1.4807
 6003SOL    HW229469   3.977   1.601   0.421 -0.1795 -0.2607  0.9765
 6004SOL     OW29470   3.032   4.103   2.431 -0.1013 -0.2553  0.7480
 6004SOL    HW129471   2.964   4.085   2.366  0.3864  1.8805 -0.3671
 6004SOL    HW229472   3.088   4.027   2.422  0.7969  0.4057  0.7620
 6005SOL     OW29473   2.575   3.178  13.554 -0.0674 -0.0869 -0.6658
 6005SOL    HW129474   2.558   3.143  13.641  1.8834  0.0538 -0.2396
 6005SOL    HW229475   2.557   3.096  13.508 -3.4813  0.8365 -0.9591
 6006SOL     OW29476   3.277   4.211   1.196  0.1299 -0.7131  0.3651
 6006SOL    HW129477   3.232   4.197   1.279  1.3539 -1.1550  0.9549
 6006SOL    HW229478   3.202   4.237   1.142  0.4521 -0.7724 -0.1202
 6007SOL     OW29479   3.726   0.375   9.569 -0.2774 -0.1208  0.6587
 6007SOL    HW129480   3.717   0.332   9.655  0.2228  0.3991  0.9656
 6007SOL    HW229481   3.791   0.443   9.585 -0.3422  0.0398  0.2270
 6008SOL     OW29482   3.100   3.875  11.150  0.5681 -0.0948  0.3629
 6008SOL    HW129483   3.167   3.939  11.176  1.5916 -0.1975 -1.9890
 6008SOL    HW229484   3.027   3.933  11.130  1.9225  0.5573 -2.8043
 6009SOL     OW29485   0.264   1.739   6.718 -0.2771 -0.2691  0.4545
 6009SOL    HW129486   0.353   1.769   6.702 -0.5991  0.1462 -0.5133
 6009SOL    HW229487   0.288   1.660   6.766 -0.3067  0.4652  1.6733
 6010SOL     OW29488   2.455   1.093   7.413 -0.1290 -0.2570  0.2816
 6010SOL    HW129489   2.447   0.998   7.409  0.5392 -0.2340 -1.4218
 6010SOL    HW229490   2.449   1.116   7.320 -1.5478  1.0026  0.6844
 6011SOL     OW29491   2.641   2.305   6.256 -0.5056  0.4865  0.1373
 6011SOL    HW129492   2.546   2.304   6.252 -0.4430  0.1705 -1.4048
 6011SOL    HW229493   2.665   2.398   6.265 -2.9191  1.0990  0.2682
 6012SOL     OW29494   2.059   2.509   4.730 -0.1188  0.3164 -0.1575
 6012SOL    HW129495   2.047   2.500   4.825 -0.6519  2.7981  0.0120
 6012SOL    HW229496   2.133   2.569   4.719  1.8951 -2.6776 -2.8304
 6013SOL     OW29497   1.348   0.429  10.729 -0.2446  0.2446  0.2082
 6013SOL    HW129498   1.389   0.467  10.807 -0.3897  2.1656 -0.6533
 6013SOL    HW229499   1.295   0.506  10.710 -1.6970 -0.7980  0.0921
 6014SOL     OW29500   2.531   2.286  12.757 -0.0319  0.1882  0.0783
 6014SOL    HW129501   2.590   2.352  12.795 -0.0262  0.4069 -0.3132
 6014SOL    HW229502   2.575   2.207  12.786  0.3638  0.4018  0.0554
 6015SOL     OW29503   3.240   4.289  14.681  0.1336 -0.2213  0.5386
 6015SOL    HW129504   3.332   4.303  14.659  0.3617 -2.9528 -0.1302
 6015SOL    HW229505   3.238   4.195  14.668 -0.1751 -0.2428  0.7383
 6016SOL     OW29506   4.552   2.122   4.706 -0.3386 -0.0259 -0.4105
 6016SOL    HW129507   4.469   2.167   4.692 -0.4340 -0.0324  0.1218
 6016SOL    HW229508   4.579   2.155   4.792  2.2797 -0.7123 -0.9693
 6017SOL     OW29509   1.823   1.658   5.617 -0.3525 -0.2667 -0.5102
 6017SOL    HW129510   1.751   1.608   5.656 -1.3750 -0.2105 -2.3487
 6017SOL    HW229511   1.807   1.740   5.664 -0.6001 -0.1280 -0.8410
 6018SOL     OW29512   3.151   1.538  14.573  0.0155 -0.2738  0.9450
 6018SOL    HW129513   3.153   1.506  14.483  1.2345  1.3303  0.4041
 6018SOL    HW229514   3.092   1.613  14.570  1.2112  0.6700  0.8347
 6019SOL     OW29515   3.524   1.950  15.217 -0.1406  0.0852 -0.2403
 6019SOL    HW129516   3.609   1.922  15.183 -0.3477  0.0697 -0.7494
 6019SOL    HW229517   3.518   2.033  15.170  2.8841 -1.2696 -2.9725
 6020SOL     OW29518   0.241   1.038  14.634  0.3495  0.2873  0.2985
 6020SOL    HW129519   0.223   1.125  14.596 -1.5204  0.5803  1.8798
 6020SOL    HW229520   0.218   0.978  14.563  1.1320  0.7979 -0.3906
 6021SOL     OW29521   0.546   0.657   2.678 -0.3337 -0.0159  0.2127
 6021SOL    HW129522   0.549   0.703   2.594 -0.5819 -0.1290  0.1418
 6021SOL    HW229523   0.606   0.583   2.669 -1.3264 -0.6898 -0.7425
 6022SOL     OW29524   3.909   0.683   7.712  0.8580 -0.0317 -0.0482
 6022SOL    HW129525   3.835   0.719   7.760 -1.6175  0.5649 -4.2992
 6022SOL    HW229526   3.908   0.741   7.636 -2.2633 -2.0066 -1.5107
 6023SOL     OW29527   3.095   3.993  14.860  0.5228  0.7364 -0.0112
 6023SOL    HW129528   3.176   4.002  14.911  1.7429 -1.3062 -1.5971
 6023SOL    HW229529   3.118   3.976  14.769  0.2603 -0.0618  0.0742
 6024SOL     OW29530   0.428   2.478   6.389  0.3886  0.0768  0.2702
 6024SOL    HW129531   0.390   2.559   6.424 -0.9464 -0.3505 -0.2026
 6024SOL    HW229532   0.405   2.407   6.449 -1.4149  0.7710  0.3992
 6025SOL     OW29533   1.573   3.725   3.960  0.0577  0.0713 -0.1825
 6025SOL    HW129534   1.518   3.667   4.013 -1.4773  1.6031 -0.0579
 6025SOL    HW229535   1.658   3.723   4.003  0.0838  3.7242 -0.0111
 6026SOL     OW29536   0.653   3.058   8.534 -0.3348 -0.1283 -0.1121
 6026SOL    HW129537   0.659   3.146   8.570  0.7047 -0.0030 -0.6235
 6026SOL    HW229538   0.560   3.045   8.514 -0.4432  1.2046 -0.4203
 6027SOL     OW29539   1.340   3.548   4.780  0.0551 -0.5851 -0.0094
 6027SOL    HW129540   1.409   3.594   4.732 -2.3474  2.3245 -0.6130
 6027SOL    HW229541   1.338   3.597   4.862  0.2729  2.0567 -1.5821
 6028SOL     OW29542   0.174   4.556   7.345 -0.6567  0.4314  0.2416
 6028SOL    HW129543   0.223   4.530   7.267 -0.7611 -0.7371  0.5532
 6028SOL    HW229544   0.221   4.637   7.359 -1.2176  0.8234 -0.1509
 6029SOL     OW29545   0.055   1.652   4.543  0.6033  0.6753  0.0565
 6029SOL    HW129546   0.059   1.623   4.452  1.7439  0.3959  0.1854
 6029SOL    HW229547   4.697   1.700   4.541  0.9899  1.1318 -4.2890
 6030SOL     OW29548   1.580   4.396   5.247 -0.0629  0.0318 -0.2584
 6030SOL    HW129549   1.552   4.313   5.286  3.7108 -0.9295  0.4804
 6030SOL    HW229550   1.664   4.378   5.204 -1.1507 -0.6151 -2.0932
 6031SOL     OW29551   0.047   1.761  15.172  0.3691  0.8402 -0.0286
 6031SOL    HW129552   0.010   1.771  15.084 -0.3746 -0.1983  0.1651
 6031SOL    HW229553   0.076   1.670  15.167  0.3993  0.7928  1.1950
 6032SOL     OW29554   4.222   1.860   5.561 -0.1207  0.3706  0.0420
 6032SOL    HW129555   4.196   1.799   5.492  1.8555 -1.2184  0.7334
 6032SOL    HW229556   4.196   1.945   5.524  0.6611  0.5408 -0.1033
 6033SOL     OW29557   0.123   2.424   2.325  0.0809  0.1816 -0.3418
 6033SOL    HW129558   0.156   2.378   2.249 -0.0223 -1.1422  0.4195
 6033SOL    HW229559   0.106   2.505   2.277  0.4366  0.4935  0.0546
 6034SOL     OW29560   1.163   2.671  10.140  0.9178  0.1499 -0.1858
 6034SOL    HW129561   1.154   2.641  10.230 -1.1699  1.3088  0.0042
 6034SOL    HW229562   1.084   2.726  10.139  1.4530  0.9033 -1.5499
 6035SOL     OW29563   3.048   0.161   5.594 -0.3912  0.5957  0.1476
 6035SOL    HW129564   3.122   0.222   5.597 -0.8006  1.1744 -1.3107
 6035SOL    HW229565   2.980   0.219   5.561  0.4645  0.1422 -2.4225
 6036SOL     OW29566   2.897   2.769   0.534 -0.4741 -0.1497  0.2879
 6036SOL    HW129567   2.871   2.678   0.522  0.7835 -0.0344 -3.2301
 6036SOL    HW229568   2.962   2.766   0.464  0.7757  0.3560  1.4110
 6037SOL     OW29569   3.192   2.116   2.970 -0.2796  0.1259 -0.0078
 6037SOL    HW129570   3.098   2.111   2.985 -0.1238  1.5842  1.5216
 6037SOL    HW229571   3.217   2.024   2.961 -0.0923  0.4334 -2.5281
 6038SOL     OW29572   4.202   4.286  17.640  0.2255  0.0184 -0.3267
 6038SOL    HW129573   4.135   4.340  17.599 -0.8149 -1.4035 -0.5120
 6038SOL    HW229574   4.273   4.291  17.575  0.9162  1.4448  0.5304
 6039SOL     OW29575   4.318   0.276   4.739 -0.2038  0.1035  0.3712
 6039SOL    HW129576   4.332   0.358   4.691  1.2914  0.4352  1.3663
 6039SOL    HW229577   4.271   0.312   4.814 -0.7581 -0.0258  0.0835
 6040SOL     OW29578   0.241   1.207  14.101  0.3492  0.5676 -0.1419
 6040SOL    HW129579   0.296   1.152  14.044  0.8499  1.5223 -0.5805
 6040SOL    HW229580   0.224   1.141  14.168  0.3758 -1.1743 -1.8565
 6041SOL     OW29581   1.870   1.382   9.422 -0.3179  0.3893 -0.0415
 6041SOL    HW129582   1.776   1.371   9.439  0.3188 -2.5591  1.5790
 6041SOL    HW229583   1.863   1.477   9.411 -0.5566  0.4779  0.8541
 6042SOL     OW29584   1.165   0.931   2.187 -0.2892 -0.0916 -0.5705
 6042SOL    HW129585   1.209   1.016   2.189  0.9937 -0.8092  1.5489
 6042SOL    HW229586   1.126   0.932   2.099 -0.2792 -3.1421 -0.6089
 6043SOL     OW29587   3.896   4.372   7.783 -0.0520  0.1964 -0.4168
 6043SOL    HW129588   3.892   4.443   7.719 -0.1794  1.7234  1.3106
 6043SOL    HW229589   3.816   4.382   7.836 -1.0308  3.0856 -2.4277
 6044SOL     OW29590   0.258   1.174   8.496  0.1710 -0.6784 -0.6746
 6044SOL    HW129591   0.211   1.234   8.553  3.1163  1.4486 -0.4612
 6044SOL    HW229592   0.319   1.234   8.452  1.6069 -2.4980 -1.1533
 6045SOL     OW29593   2.681   4.070   5.949 -0.3271 -0.5395 -0.4155
 6045SOL    HW129594   2.713   4.031   6.031 -1.5417  0.5628  0.5898
 6045SOL    HW229595   2.640   4.151   5.981 -1.1003 -2.1900  2.7955
 6046SOL     OW29596   4.235   3.835   2.342  0.1594 -0.1456 -0.4761
 6046SOL    HW129597   4.289   3.911   2.362  1.9463 -0.8919 -2.4470
 6046SOL    HW229598   4.198   3.821   2.429 -0.6146  0.8558 -0.6410
 6047SOL     OW29599   1.585   3.978   6.830  0.2898 -0.2707  0.1191
 6047SOL    HW129600   1.543   3.964   6.745 -1.0585 -0.3794  0.8108
 6047SOL    HW229601   1.527   3.925   6.884  1.3180 -1.5268 -0.0083
 6048SOL     OW29602   0.130   3.461   1.843 -0.6318 -0.1031 -0.0775
 6048SOL    HW129603   0.105   3.475   1.752  1.3552  1.7871 -0.3287
 6048SOL    HW229604   0.122   3.365   1.841 -4.9070  0.2558 -0.2780
 6049SOL     OW29605   0.047   4.147   8.912 -0.1229 -0.4388 -0.0924
 6049SOL    HW129606   0.023   4.105   8.995 -0.1336 -1.2946 -0.5245
 6049SOL    HW229607   4.716   4.225   8.922 -0.5067 -1.1192  2.9665
 6050SOL     OW29608   1.686   1.215   7.927  0.2223 -0.2848  0.1256
 6050SOL    HW129609   1.740   1.139   7.904 -0.7687 -0.4619 -1.5993
 6050SOL    HW229610   1.661   1.265   7.849 -1.2973 -1.6047 -0.2308
 6051SOL     OW29611   3.173   0.614   1.215 -0.2620  0.2194  0.1291
 6051SOL    HW129612   3.195   0.602   1.308 -1.2251  1.7797  0.5579
 6051SOL    HW229613   3.217   0.537   1.179 -0.0067  0.1065  0.6900
 6052SOL     OW29614   4.096   3.976   3.632 -0.5785  0.3791  0.3752
 6052SOL    HW129615   4.025   3.914   3.617 -0.8406  0.6750  0.4019
 6052SOL    HW229616   4.168   3.936   3.583 -0.8112  0.7194 -0.2378
 6053SOL     OW29617   0.849   1.938   6.845  0.2998  0.2289  0.5062
 6053SOL    HW129618   0.907   1.958   6.772 -0.2975 -0.4338 -0.1402
 6053SOL    HW229619   0.805   1.863   6.805  0.0949  0.5224  0.1842
 6054SOL     OW29620   4.428   0.044   7.547  0.1922  0.0588 -0.0597
 6054SOL    HW129621   4.367   4.716   7.600  0.8543 -0.6052  0.0572
 6054SOL    HW229622   4.506   4.712   7.549 -0.8216 -1.3975 -0.9892
 6055SOL     OW29623   0.858   2.978   3.577 -0.7127  0.3550 -0.6299
 6055SOL    HW129624   0.923   2.985   3.646  0.9222  0.1335 -2.1580
 6055SOL    HW229625   0.783   2.958   3.633 -1.3398  0.9068 -1.2681
 6056SOL     OW29626   1.097   3.681   0.470  0.2252 -0.3819  0.2115
 6056SOL    HW129627   1.020   3.625   0.461 -0.4799  0.7366 -0.7659
 6056SOL    HW229628   1.162   3.622   0.509  1.3887 -0.1640 -1.3566
 6057SOL     OW29629   2.766   1.981   4.299 -0.3756  0.0506  0.1854
 6057SOL    HW129630   2.754   2.011   4.390  0.7919  0.6624  0.1424
 6057SOL    HW229631   2.677   1.949   4.283 -0.6672  0.7811  0.3207
 6058SOL     OW29632   4.548   0.629   8.537  0.6246  0.1395 -0.1133
 6058SOL    HW129633   4.488   0.645   8.464 -0.9922 -1.7354  0.8140
 6058SOL    HW229634   4.629   0.671   8.508  1.2740  0.0526  1.5877
 6059SOL     OW29635   1.250   1.279   0.114 -0.4945  0.0466 -0.3277
 6059SOL    HW129636   1.182   1.258   0.178 -1.0615  2.1387 -0.2155
 6059SOL    HW229637   1.263   1.194   0.074 -0.1003 -0.3508  0.6419
 6060SOL     OW29638   2.188   4.713   4.231 -0.0915  0.3573 -0.2124
 6060SOL    HW129639   2.128   4.670   4.170  0.4921  1.2631 -1.4047
 6060SOL    HW229640   2.137   0.059   4.270 -3.7714 -2.2662 -0.2977
 6061SOL     OW29641   0.888   2.577   5.607 -0.0632  0.0921  0.1031
 6061SOL    HW129642   0.941   2.614   5.678 -0.4955  2.0525 -0.5927
 6061SOL    HW229643   0.900   2.486   5.635 -1.0698  0.0619  0.4380
 6062SOL     OW29644   3.541   1.999  10.188 -0.0789  0.3566 -0.3143
 6062SOL    HW129645   3.539   2.041  10.274 -2.1240 -1.2657  0.4323
 6062SOL    HW229646   3.629   2.020  10.158  0.5658 -0.9622  0.6503
 6063SOL     OW29647   3.169   0.675   2.374 -0.2157 -0.0527 -0.7010
 6063SOL    HW129648   3.137   0.760   2.402  1.9723  0.8685 -0.9640
 6063SOL    HW229649   3.264   0.690   2.376 -0.2720  0.1273  0.3423
 6064SOL     OW29650   0.480   4.382   7.066  0.1064 -0.5265  0.0105
 6064SOL    HW129651   0.470   4.288   7.076 -1.0120 -0.4957 -0.8711
 6064SOL    HW229652   0.568   4.379   7.104  0.7277 -1.9798 -1.5222
 6065SOL     OW29653   1.880   0.710  11.152  0.0552  0.6365 -0.5170
 6065SOL    HW129654   1.885   0.747  11.240 -0.0874  2.1263 -1.1266
 6065SOL    HW229655   1.953   0.756  11.110  1.8048 -0.4695  1.3427
 6066SOL     OW29656   3.758   3.935  17.475  0.0233  0.4070 -0.2116
 6066SOL    HW129657   3.839   3.985  17.486 -0.4240  1.4473 -1.7212
 6066SOL    HW229658   3.726   3.912  17.562 -2.0084 -1.7336 -1.5322
 6067SOL     OW29659   4.452   1.252   4.315  0.1114 -0.4291 -0.5172
 6067SOL    HW129660   4.517   1.322   4.320  1.0059 -1.2044 -1.2605
 6067SOL    HW229661   4.376   1.298   4.352  1.0701  0.7961 -0.0767
 6068SOL     OW29662   2.515   4.407  17.175  0.0827  0.0124  1.0594
 6068SOL    HW129663   2.583   4.406  17.242  0.3256  2.2343  0.8243
 6068SOL    HW229664   2.516   4.500  17.154  1.7559  0.3884  2.8369
 6069SOL     OW29665   3.745   4.475  13.780 -0.4657 -0.5483  0.1001
 6069SOL    HW129666   3.724   4.430  13.699  1.6366 -0.7057 -0.3532
 6069SOL    HW229667   3.653   4.494  13.800 -0.1441  0.7494  0.3407
 6070SOL     OW29668   0.911   1.297   7.749 -0.0820 -0.0281 -0.1444
 6070SOL    HW129669   0.982   1.349   7.709  0.0339 -1.2536 -1.5353
 6070SOL    HW229670   0.835   1.323   7.697 -1.7652 -1.5899  1.5845
 6071SOL     OW29671   0.697   1.203  17.295  0.0359  0.0155  0.5387
 6071SOL    HW129672   0.610   1.223  17.259  0.4830  0.1970 -0.4557
 6071SOL    HW229673   0.668   1.162  17.376 -1.7610  2.2675  1.0372
 6072SOL     OW29674   3.156   0.500   1.836 -0.2215  0.3883  0.8056
 6072SOL    HW129675   3.162   0.441   1.761 -1.6615  0.3705  0.7004
 6072SOL    HW229676   3.248   0.500   1.860  0.5036  1.4490 -1.9831
 6073SOL     OW29677   2.444   4.604   8.932 -0.3968  0.7816 -0.1715
 6073SOL    HW129678   2.519   4.661   8.917 -0.9012  1.1151 -1.4523
 6073SOL    HW229679   2.477   4.541   8.996 -0.1679 -0.0010 -1.0669
 6074SOL     OW29680   2.403   4.347   7.241  0.0932 -0.6776  0.3888
 6074SOL    HW129681   2.442   4.359   7.155 -1.5975 -2.3102 -0.6030
 6074SOL    HW229682   2.383   4.254   7.228  0.1975 -0.1085 -3.6339
 6075SOL     OW29683   2.421   2.172   7.842 -0.3962  0.0021 -0.2427
 6075SOL    HW129684   2.384   2.192   7.928 -1.2302  2.9509 -1.2665
 6075SOL    HW229685   2.507   2.212   7.855 -2.2360  3.0467  2.5033
 6076SOL     OW29686   1.746   0.501   2.831  0.2417 -0.2169  0.1867
 6076SOL    HW129687   1.692   0.489   2.909  1.3487  0.3580  1.0417
 6076SOL    HW229688   1.708   0.584   2.802  0.8457  0.2428  0.6975
 6077SOL     OW29689   2.838   0.448   8.487  0.3938  0.0901 -1.0456
 6077SOL    HW129690   2.870   0.528   8.444  1.4105  1.4699  2.2385
 6077SOL    HW229691   2.863   0.463   8.578 -0.4026  0.7082 -0.9304
 6078SOL     OW29692   1.443   1.314   3.789  0.2134  0.0534  0.1573
 6078SOL    HW129693   1.357   1.329   3.827  0.9610  0.4842  1.7027
 6078SOL    HW229694   1.454   1.382   3.722  0.7786 -1.7954 -1.6095
 6079SOL     OW29695   0.353   0.207   1.207 -0.1941 -0.3337  0.0444
 6079SOL    HW129696   0.278   0.222   1.264 -0.1517 -1.5095  0.4258
 6079SOL    HW229697   0.398   0.156   1.275 -0.5423  0.1697  0.6396
 6080SOL     OW29698   0.920   3.104   3.219 -0.2240 -0.3621  0.0800
 6080SOL    HW129699   0.908   3.198   3.202 -0.8750 -0.3523  0.5773
 6080SOL    HW229700   0.998   3.078   3.171  0.3781  3.4079 -1.0137
 6081SOL     OW29701   0.094   0.324   4.314 -0.1627  0.2874  0.1671
 6081SOL    HW129702   0.028   0.259   4.290 -2.1590  2.2148  0.4701
 6081SOL    HW229703   0.096   0.329   4.409  2.3648  2.7949 -0.0293
 6082SOL     OW29704   0.833   3.894  12.936 -0.0275  0.1109  0.4000
 6082SOL    HW129705   0.872   3.931  12.857  1.8208  1.0010  1.7180
 6082SOL    HW229706   0.877   3.809  12.936 -3.4474 -1.6460  1.5745
 6083SOL     OW29707   0.148   1.672   8.464  0.2744  0.2861  0.5284
 6083SOL    HW129708   0.216   1.736   8.442  0.7964 -1.2257 -2.2131
 6083SOL    HW229709   0.138   1.630   8.379 -0.9958  0.2170  0.7103
 6084SOL     OW29710   0.606   4.124   3.011  0.7116 -0.1994  0.1916
 6084SOL    HW129711   0.667   4.129   2.937 -0.8871 -2.2460 -1.2514
 6084SOL    HW229712   0.541   4.065   2.973  0.6999  1.7593 -2.8092
 6085SOL     OW29713   2.317   2.295   3.783  0.0612  0.1094  1.0135
 6085SOL    HW129714   2.301   2.357   3.854  1.4298 -1.2724  2.5172
 6085SOL    HW229715   2.269   2.331   3.709 -1.8228 -0.2111  2.0674
 6086SOL     OW29716   4.083   4.529  13.507  0.1667  0.1620  0.4503
 6086SOL    HW129717   3.990   4.554  13.517  0.5852  1.1525  1.9003
 6086SOL    HW229718   4.067   4.435  13.514  0.2440 -0.0257 -1.9070
 6087SOL     OW29719   3.355   4.039  11.875 -0.0551 -0.1671  0.3891
 6087SOL    HW129720   3.305   3.987  11.937  1.8345  0.1765  2.1943
 6087SOL    HW229721   3.393   4.100  11.938  1.2284 -0.2150 -0.3406
 6088SOL     OW29722   3.001   1.289  12.410 -0.4918  0.0290  0.3368
 6088SOL    HW129723   3.047   1.255  12.333  0.2395 -0.6441  1.0653
 6088SOL    HW229724   2.960   1.368  12.377 -0.6244 -0.5262 -0.8191
 6089SOL     OW29725   1.153   4.286   9.326 -0.0322  0.3895  0.7048
 6089SOL    HW129726   1.103   4.224   9.273 -1.2877  0.8641  1.3286
 6089SOL    HW229727   1.090   4.339   9.376 -0.5425 -0.5297  1.0427
 6090SOL     OW29728   3.050   1.311   5.188  0.5784  0.2047 -0.6528
 6090SOL    HW129729   2.957   1.310   5.163  0.8756 -0.1997 -1.7411
 6090SOL    HW229730   3.056   1.234   5.245 -0.7954  1.5947  1.3653
 6091SOL     OW29731   2.831   1.949  11.584  0.0011 -0.5122  0.4840
 6091SOL    HW129732   2.804   1.952  11.493 -0.4524  1.9850  0.7083
 6091SOL    HW229733   2.837   2.042  11.607  0.4058 -0.4651  0.1737
 6092SOL     OW29734   2.482   2.837  10.637  0.3983  0.1583  0.5827
 6092SOL    HW129735   2.505   2.889  10.559 -0.5312  0.4069  0.4826
 6092SOL    HW229736   2.564   2.855  10.684  0.4769 -1.4801  1.0446
 6093SOL     OW29737   1.096   1.760   1.700 -0.0868  0.5527 -0.2352
 6093SOL    HW129738   1.172   1.757   1.758  0.7290 -0.2620 -1.3499
 6093SOL    HW229739   1.041   1.681   1.700 -0.1753  0.6106  2.2158
 6094SOL     OW29740   4.138   3.668   5.457 -0.4376 -0.2581  0.0515
 6094SOL    HW129741   4.130   3.583   5.500 -1.9169  0.7870  1.8559
 6094SOL    HW229742   4.075   3.671   5.385 -0.5380  0.6042  0.1732
 6095SOL     OW29743   2.377   0.829   9.109  0.5092  0.3702 -0.5013
 6095SOL    HW129744   2.419   0.885   9.043 -0.0320  0.6800 -0.5771
 6095SOL    HW229745   2.451   0.823   9.169  0.8793 -2.7642 -1.2487
 6096SOL     OW29746   4.353   2.508  13.989 -0.1995  0.6567  0.3384
 6096SOL    HW129747   4.275   2.455  14.006  0.3882 -0.2121  0.2924
 6096SOL    HW229748   4.371   2.530  14.080 -1.5522  0.2726  0.6997
 6097SOL     OW29749   0.584   0.308   4.704  0.2685  0.5402 -0.2504
 6097SOL    HW129750   0.560   0.216   4.694 -0.4920  0.5764  1.3415
 6097SOL    HW229751   0.656   0.312   4.641  0.8989 -0.1449  0.4255
 6098SOL     OW29752   1.807   4.657   9.696 -0.0487 -0.3959 -0.4408
 6098SOL    HW129753   1.831   4.622   9.611 -0.7273 -2.1068  0.0805
 6098SOL    HW229754   1.810   0.027   9.677 -0.7107 -0.6915 -2.0032
 6099SOL     OW29755   1.996   1.872  17.438 -0.8134 -0.3230 -0.2297
 6099SOL    HW129756   2.072   1.821  17.463 -1.1259 -0.4328  0.5118
 6099SOL    HW229757   1.998   1.946  17.499  1.5990 -0.0944 -0.6064
 6100SOL     OW29758   4.386   2.650   6.409  0.0299 -0.7814 -0.0703
 6100SOL    HW129759   4.454   2.664   6.474  1.2352 -1.9361 -1.0695
 6100SOL    HW229760   4.333   2.576   6.441  0.8242 -1.4905 -0.3827
 6101SOL     OW29761   0.796   2.317   7.311 -0.0818 -0.5930 -0.3604
 6101SOL    HW129762   0.810   2.227   7.341  2.0389 -0.1903 -0.1899
 6101SOL    HW229763   0.778   2.368   7.390 -1.2456 -2.6972  0.7304
 6102SOL     OW29764   4.037   0.475   8.746 -0.5324  0.2217  0.3662
 6102SOL    HW129765   4.065   0.565   8.732 -0.3998 -0.4006 -3.3007
 6102SOL    HW229766   3.954   0.471   8.699 -0.0717 -0.9504 -0.3602
 6103SOL     OW29767   2.391   0.681   6.428 -0.1350 -0.0697 -0.1407
 6103SOL    HW129768   2.394   0.624   6.505  0.3984  0.7398  0.4338
 6103SOL    HW229769   2.425   0.624   6.360 -0.4181 -1.1023  0.5788
 6104SOL     OW29770   1.857   2.300   9.400 -0.3448  0.9221 -0.4477
 6104SOL    HW129771   1.782   2.245   9.423  0.3628  0.7483  1.3845
 6104SOL    HW229772   1.858   2.358   9.476 -3.6220  0.5179 -0.0917
 6105SOL     OW29773   0.401   3.387   8.300 -0.0865 -0.0313  0.2480
 6105SOL    HW129774   0.415   3.342   8.384  0.6548 -1.1097 -0.4510
 6105SOL    HW229775   0.451   3.465   8.323 -1.5701  0.4595  1.7265
 6106SOL     OW29776   3.824   2.142  14.391 -0.2697 -0.6786  0.1051
 6106SOL    HW129777   3.865   2.228  14.387 -0.1562 -0.7689 -0.7344
 6106SOL    HW229778   3.885   2.104  14.328 -0.8529 -1.8243  0.2196
 6107SOL     OW29779   1.526   1.669  15.143  0.0291 -0.2443 -0.5689
 6107SOL    HW129780   1.461   1.607  15.112 -0.3165  0.6741 -1.6747
 6107SOL    HW229781   1.529   1.646  15.236  0.6465  1.5598 -0.1353
 6108SOL     OW29782   2.485   0.879  12.713 -0.7938 -0.1467 -0.0716
 6108SOL    HW129783   2.521   0.815  12.652 -0.0713  0.1069  0.0899
 6108SOL    HW229784   2.560   0.936  12.731 -0.2642  0.1728 -3.3624
 6109SOL     OW29785   3.215   1.109   2.882 -0.1419  0.4197  0.5377
 6109SOL    HW129786   3.205   1.014   2.878  2.0681  0.1980  0.1760
 6109SOL    HW229787   3.207   1.122   2.977 -2.0362  0.1484  0.4143
 6110SOL     OW29788   3.198   2.690   8.254  0.1182 -0.6249  0.3017
 6110SOL    HW129789   3.197   2.724   8.165 -2.1037  1.7359  1.2153
 6110SOL    HW229790   3.227   2.599   8.244  1.5084  0.0511 -1.6225
 6111SOL     OW29791   4.530   2.287  16.328 -0.0985 -0.1976 -0.5028
 6111SOL    HW129792   4.441   2.296  16.361 -0.1864  1.9547 -1.3524
 6111SOL    HW229793   4.511   2.208  16.276 -0.0126  0.9027 -2.2009
 6112SOL     OW29794   1.400   0.615   9.905  0.0750  0.1631 -0.4076
 6112SOL    HW129795   1.447   0.533   9.888  1.1741  0.8280 -0.5631
 6112SOL    HW229796   1.474   0.675   9.896  0.2058 -0.1034 -1.1182
 6113SOL     OW29797   4.466   4.114   5.685  0.4691 -0.1051 -0.1340
 6113SOL    HW129798   4.412   4.059   5.628 -0.4768 -0.4016  1.0426
 6113SOL    HW229799   4.556   4.093   5.664  0.2623 -1.6503  0.5491
 6114SOL     OW29800   0.600   4.202   8.615 -0.2780  0.0314 -0.3804
 6114SOL    HW129801   0.546   4.278   8.634  1.4610  1.2498 -0.3165
 6114SOL    HW229802   0.535   4.157   8.561 -0.3426 -0.8113  0.3987
 6115SOL     OW29803   3.019   4.243   1.319  0.5749  0.6831  0.2621
 6115SOL    HW129804   3.021   4.268   1.227  0.3637 -0.5175 -0.0700
 6115SOL    HW229805   2.986   4.326   1.355 -1.6307 -0.4806  0.9433
 6116SOL     OW29806   2.814   1.393   3.750 -0.1135  0.0301 -0.2604
 6116SOL    HW129807   2.902   1.377   3.717 -0.2229 -0.6575 -0.2180
 6116SOL    HW229808   2.794   1.308   3.791  0.2994 -0.0170 -0.1631
 6117SOL     OW29809   1.533   3.694   8.710 -0.3687 -0.5021  0.5592
 6117SOL    HW129810   1.599   3.750   8.669  0.1942 -1.0081  0.7730
 6117SOL    HW229811   1.459   3.754   8.718 -0.7796 -1.0069  0.5899
 6118SOL     OW29812   1.117   1.633  15.441 -0.3021  0.0401  0.6496
 6118SOL    HW129813   1.158   1.557  15.482 -0.6045 -1.2182 -1.3835
 6118SOL    HW229814   1.198   1.677  15.416 -2.3687  1.3633 -3.7019
 6119SOL     OW29815   4.101   4.661   2.729  0.1507  0.4436  0.6612
 6119SOL    HW129816   4.008   4.644   2.740  0.7990 -3.0360  0.7366
 6119SOL    HW229817   4.126   4.722   2.798 -0.3750 -1.2153  2.3286
 6120SOL     OW29818   1.053   4.254   7.081 -0.5659 -0.2004  0.2320
 6120SOL    HW129819   1.079   4.334   7.127  1.7937  0.0533 -1.5516
 6120SOL    HW229820   1.079   4.183   7.139  0.7421  0.2634  0.2074
 6121SOL     OW29821   3.345   2.797   1.409 -0.0158 -0.5012 -0.1102
 6121SOL    HW129822   3.272   2.758   1.361  0.3582 -3.9104  2.0802
 6121SOL    HW229823   3.417   2.752   1.365  0.5821  2.1839 -1.8186
 6122SOL     OW29824   1.903   1.734   5.244 -0.3413  0.1835  0.4595
 6122SOL    HW129825   1.836   1.754   5.178  0.8908  0.2154 -0.7842
 6122SOL    HW229826   1.984   1.726   5.192 -0.6996 -0.1814 -0.0429
 6123SOL     OW29827   1.211   3.887   5.091 -0.7065 -0.8568  0.2665
 6123SOL    HW129828   1.154   3.914   5.163  0.6065  0.0861  0.9648
 6123SOL    HW229829   1.167   3.807   5.063 -1.6090 -0.0833 -0.5023
 6124SOL     OW29830   3.696   2.841   7.611  0.3829  0.0813  0.0377
 6124SOL    HW129831   3.709   2.746   7.620  1.8201 -0.0483 -3.3959
 6124SOL    HW229832   3.761   2.836   7.541 -0.7358 -0.3929 -0.9668
 6125SOL     OW29833   2.103   3.520   4.048  0.1734 -0.2162 -0.1899
 6125SOL    HW129834   2.115   3.426   4.063 -1.7558 -0.1190  2.0593
 6125SOL    HW229835   2.170   3.554   4.107 -0.3346  0.2248  0.1343
 6126SOL     OW29836   1.204   3.964   8.546 -0.4223 -0.4942  0.1019
 6126SOL    HW129837   1.276   3.953   8.608 -1.5309 -0.1325  1.4720
 6126SOL    HW229838   1.195   4.058   8.527  0.4861 -0.9447 -2.5048
 6127SOL     OW29839   1.433   0.175   3.078 -0.2482  0.5951 -0.0749
 6127SOL    HW129840   1.458   0.265   3.098  0.9272  0.9642 -3.0747
 6127SOL    HW229841   1.381   0.194   2.999  0.5332  0.6703 -0.5688
 6128SOL     OW29842   3.027   4.293   2.011 -0.0251  0.8959  0.3102
 6128SOL    HW129843   2.934   4.283   1.989  0.3704  0.5366 -1.2157
 6128SOL    HW229844   3.060   4.210   2.044 -0.3143  0.0523 -1.5295
 6129SOL     OW29845   1.252   0.853   4.048 -0.6304  0.1250  0.0465
 6129SOL    HW129846   1.317   0.888   4.109 -0.4605  0.9041 -0.5881
 6129SOL    HW229847   1.221   0.931   4.001 -1.6836 -0.6635 -0.5734
 6130SOL     OW29848   2.201   2.819  12.068  0.3185 -0.3806 -0.1131
 6130SOL    HW129849   2.288   2.800  12.034  0.1192 -2.8293  0.7728
 6130SOL    HW229850   2.180   2.890  12.007  0.1946 -1.0858 -0.8991
 6131SOL     OW29851   0.639   1.751  17.417 -0.0594 -0.2386 -0.0602
 6131SOL    HW129852   0.683   1.686  17.472  0.6535  0.9830  0.8065
 6131SOL    HW229853   0.614   1.815  17.484 -1.3302  0.9679 -1.6886
 6132SOL     OW29854   3.076   2.114   5.907  0.1833  0.3893 -0.0365
 6132SOL    HW129855   3.038   2.196   5.938 -0.8615 -0.4804  1.0377
 6132SOL    HW229856   3.007   2.073   5.854 -1.3362  2.0103  0.6999
 6133SOL     OW29857   4.632   3.304   7.524  0.1021  0.1938 -0.4705
 6133SOL    HW129858   0.001   3.301   7.546  0.1633 -2.0436 -1.0276
 6133SOL    HW229859   4.599   3.307   7.614 -1.6411 -0.7214 -1.0786
 6134SOL     OW29860   2.536   2.521   7.415  1.0332 -0.2164  0.5764
 6134SOL    HW129861   2.468   2.550   7.355  0.2750 -0.2926  1.3947
 6134SOL    HW229862   2.574   2.606   7.437  1.3172 -0.2827  0.3321
 6135SOL     OW29863   1.424   0.674   3.740  0.2077  0.3397 -0.1275
 6135SOL    HW129864   1.389   0.764   3.739  2.2530  1.1402  0.0350
 6135SOL    HW229865   1.398   0.634   3.823  2.4985 -0.5236  0.1684
 6136SOL     OW29866   4.404   3.689  12.943  0.3360 -0.5510  0.0953
 6136SOL    HW129867   4.415   3.784  12.948  1.2089 -0.6840  0.6145
 6136SOL    HW229868   4.405   3.673  12.849  1.6082 -0.2895  0.0650
 6137SOL     OW29869   2.065   4.620   2.317  0.0420 -0.3934  0.2410
 6137SOL    HW129870   2.068   4.564   2.239 -0.2280  1.6237 -1.2149
 6137SOL    HW229871   2.089   4.565   2.392  1.1483  1.9259  1.5737
 6138SOL     OW29872   0.283   3.356   2.876 -0.1880 -0.1263  0.3781
 6138SOL    HW129873   0.325   3.401   2.803 -1.5520  0.9211  0.2389
 6138SOL    HW229874   0.355   3.307   2.915  1.6867  3.9877  2.0797
 6139SOL     OW29875   0.424   0.556   6.086  0.1125  0.4741 -0.5763
 6139SOL    HW129876   0.403   0.547   5.993 -0.3808 -2.6801 -0.1656
 6139SOL    HW229877   0.378   0.478   6.118  0.2091  0.6866  0.0727
 6140SOL     OW29878   4.125   2.015   0.300 -0.0518  0.1496  0.1159
 6140SOL    HW129879   4.127   1.980   0.389  1.4230 -1.0707 -0.3944
 6140SOL    HW229880   4.095   2.105   0.314  1.3131  0.6598 -0.2760
 6141SOL     OW29881   0.771   1.506   8.874  0.6546 -0.4445  0.0702
 6141SOL    HW129882   0.708   1.492   8.804 -0.3510  1.0309  0.6901
 6141SOL    HW229883   0.850   1.540   8.831 -0.0895  0.9381 -0.1975
 6142SOL     OW29884   1.681   2.645   1.257  0.6306 -0.2165 -0.4867
 6142SOL    HW129885   1.734   2.584   1.207  0.5814 -0.9666  0.3586
 6142SOL    HW229886   1.601   2.642   1.205 -0.2241  1.7540  0.7036
 6143SOL     OW29887   1.456   3.359   4.386  0.3675  0.1562  0.2288
 6143SOL    HW129888   1.373   3.310   4.391  1.0988 -1.2948 -2.0231
 6143SOL    HW229889   1.463   3.345   4.292 -1.5164 -2.2231  0.4343
 6144SOL     OW29890   1.089   3.599   8.276 -0.3208 -0.4053  0.3838
 6144SOL    HW129891   1.138   3.533   8.228  1.7761  0.8158  0.8443
 6144SOL    HW229892   1.129   3.607   8.363  0.5260 -1.2128  0.0673
 6145SOL     OW29893   2.080   1.215   3.871  0.6358  0.0104  0.1420
 6145SOL    HW129894   2.171   1.230   3.898  0.5285  1.2672 -0.1994
 6145SOL    HW229895   2.086   1.150   3.800 -3.1740  0.0512 -0.1763
 6146SOL     OW29896   3.288   0.444   3.581  0.3854  0.4938  0.0751
 6146SOL    HW129897   3.230   0.411   3.649  0.6282 -2.1248 -1.0056
 6146SOL    HW229898   3.308   0.526   3.627  2.2078  0.2488 -0.2861
 6147SOL     OW29899   4.037   3.122   4.834 -0.6698 -0.0495 -0.3107
 6147SOL    HW129900   3.944   3.124   4.812 -0.2878 -2.8310 -2.1419
 6147SOL    HW229901   4.080   3.164   4.759  0.0809 -1.8761 -0.9004
 6148SOL     OW29902   3.711   3.966   6.629  0.4916  0.2504  0.3951
 6148SOL    HW129903   3.759   3.982   6.711 -1.5285  0.5676  1.4992
 6148SOL    HW229904   3.754   3.884   6.606  0.5581  0.3839  0.0420
 6149SOL     OW29905   4.018   0.369   6.493  0.4539 -0.0463  0.4999
 6149SOL    HW129906   4.052   0.404   6.575  0.9629  0.5447  0.0352
 6149SOL    HW229907   4.053   0.444   6.446  0.9076 -0.8507 -0.4490
 6150SOL     OW29908   0.023   1.673   2.591  0.0719 -0.2048 -0.3306
 6150SOL    HW129909   4.676   1.614   2.617 -0.0233  0.5702  1.1167
 6150SOL    HW229910   4.718   1.732   2.521 -0.8744 -1.4201 -0.9671
 6151SOL     OW29911   4.356   0.389   9.617  0.0345 -0.1820 -0.0956
 6151SOL    HW129912   4.335   0.409   9.525 -0.3770  0.4761  0.1405
 6151SOL    HW229913   4.355   0.294   9.621  0.3650 -0.2776 -2.2531
 6152SOL     OW29914   1.227   2.837   5.308 -0.1406 -0.6766  0.2466
 6152SOL    HW129915   1.155   2.784   5.341 -0.0867 -0.0423  1.4050
 6152SOL    HW229916   1.264   2.869   5.390  0.6787 -1.5290  0.2086
 6153SOL     OW29917   0.034   3.361  15.981  0.0363  0.1173  0.5013
 6153SOL    HW129918   0.070   3.433  16.033  1.0777 -0.2475  0.2916
 6153SOL    HW229919   0.097   3.290  15.992  0.5951  0.7892  1.5525
 6154SOL     OW29920   0.408   3.689  12.785  0.0517  0.1472 -0.3609
 6154SOL    HW129921   0.476   3.706  12.720 -1.3971  1.0025 -1.6573
 6154SOL    HW229922   0.445   3.614  12.830 -1.6618  1.0240  2.5181
 6155SOL     OW29923   1.079   0.671   3.043  0.0066 -0.2951  0.1716
 6155SOL    HW129924   1.023   0.609   2.996 -1.3937  0.1890  1.1978
 6155SOL    HW229925   1.024   0.747   3.025 -0.1386 -0.2066  0.9931
 6156SOL     OW29926   2.732   2.671   7.964 -0.0111  0.0023 -1.0764
 6156SOL    HW129927   2.692   2.642   7.882 -1.0618  0.2430 -0.6585
 6156SOL    HW229928   2.727   2.582   8.001 -0.2642  1.3355  2.0878
 6157SOL     OW29929   1.961   4.427   3.302 -0.1470  0.6924 -0.3639
 6157SOL    HW129930   1.890   4.409   3.363  1.0628 -1.6443  0.3632
 6157SOL    HW229931   1.903   4.461   3.234  0.1261  0.6177 -0.6366
 6158SOL     OW29932   3.897   4.282  15.889  0.0976  0.0361  0.2596
 6158SOL    HW129933   3.894   4.251  15.979 -0.7210 -0.4325  0.0748
 6158SOL    HW229934   3.974   4.338  15.878  0.1428 -0.1806 -0.4999
 6159SOL     OW29935   0.791   3.443   4.283 -0.0776  0.2731 -0.2585
 6159SOL    HW129936   0.763   3.435   4.192 -1.0891  0.4623  0.0354
 6159SOL    HW229937   0.850   3.368   4.283  1.9626  1.8723 -2.0454
 6160SOL     OW29938   2.989   2.483   5.571 -0.2927 -0.0123 -0.0469
 6160SOL    HW129939   3.036   2.550   5.521 -1.0327  0.7821  0.3265
 6160SOL    HW229940   3.067   2.431   5.592 -0.0598 -0.0606 -1.0619
 6161SOL     OW29941   0.021   3.639   7.960  0.6034  1.0214 -0.3154
 6161SOL    HW129942   4.706   3.561   7.921 -1.3685  0.6398  2.3953
 6161SOL    HW229943   0.044   3.620   8.051  1.4013 -0.7979 -0.8983
 6162SOL     OW29944   1.290   4.437   6.151 -0.1965  0.1074 -0.1781
 6162SOL    HW129945   1.316   4.467   6.238  0.5413 -0.0190 -0.3524
 6162SOL    HW229946   1.307   4.511   6.093  2.4392 -1.0802 -0.9278
 6163SOL     OW29947   1.029   0.097  13.468  0.0167 -0.0137 -0.0779
 6163SOL    HW129948   0.960   0.033  13.453  1.3536 -0.7785 -2.9330
 6163SOL    HW229949   1.110   0.046  13.476  0.6159  1.0040  0.3682
 6164SOL     OW29950   3.083   0.042  11.984 -0.4955 -0.1074  0.4063
 6164SOL    HW129951   3.027   0.035  12.061 -0.6308  1.1701  0.4281
 6164SOL    HW229952   3.088   4.680  11.944 -0.5036 -0.6771  1.6536
 6165SOL     OW29953   3.845   3.771   5.890 -0.4726 -0.1558 -0.0340
 6165SOL    HW129954   3.821   3.745   5.801  0.6254  1.3624 -0.7791
 6165SOL    HW229955   3.922   3.720   5.915 -1.9709 -1.2278  2.4555
 6166SOL     OW29956   4.253   3.921   8.416 -0.0991  0.0051  0.2625
 6166SOL    HW129957   4.262   3.839   8.367 -0.2039 -0.8092  1.6160
 6166SOL    HW229958   4.264   3.980   8.342 -0.8723  1.0055  0.9500
 6167SOL     OW29959   2.249   2.213   6.824 -0.2922 -0.0315 -0.7356
 6167SOL    HW129960   2.241   2.117   6.826  0.3362 -0.0993 -1.5250
 6167SOL    HW229961   2.312   2.229   6.894  0.5478  2.0132 -1.9835
 6168SOL     OW29962   0.045   0.206   2.168  0.3332  0.0573 -0.5957
 6168SOL    HW129963   0.118   0.226   2.109  1.2122 -1.0418  0.1334
 6168SOL    HW229964   4.712   0.154   2.112 -1.1273 -1.0675  1.9405
 6169SOL     OW29965   3.749   4.307   6.041 -0.1940  0.0561 -0.4060
 6169SOL    HW129966   3.706   4.328   6.124  0.1179 -1.4579  0.1421
 6169SOL    HW229967   3.712   4.221   6.021 -0.8649  1.0303 -3.2679
 6170SOL     OW29968   1.103   3.909  12.271  0.3075  0.0623 -0.3656
 6170SOL    HW129969   1.065   3.840  12.326  1.3488 -0.9124 -0.8651
 6170SOL    HW229970   1.024   3.935  12.223  0.4438 -0.1391 -0.7044
 6171SOL     OW29971   2.498   3.898   6.647 -0.0034 -0.4279  0.4796
 6171SOL    HW129972   2.493   3.945   6.564  1.1515 -2.5497 -0.7789
 6171SOL    HW229973   2.429   3.936   6.702  0.2043  0.5558  0.0654
 6172SOL     OW29974   3.881   1.479   3.978 -0.1006  0.0705  0.3508
 6172SOL    HW129975   3.966   1.439   3.961 -1.7877 -2.9619 -0.9548
 6172SOL    HW229976   3.918   1.567   3.987  0.9202 -0.3711  0.4233
 6173SOL     OW29977   1.602   2.635  13.400 -0.2753 -0.6404  0.1786
 6173SOL    HW129978   1.523   2.688  13.406  0.5362  0.6077 -0.3075
 6173SOL    HW229979   1.630   2.609  13.487  2.1283  1.5705  0.0295
 6174SOL     OW29980   3.612   3.288  13.145  0.3047 -0.9826  0.2273
 6174SOL    HW129981   3.595   3.378  13.171 -2.1437 -1.6531  1.0286
 6174SOL    HW229982   3.673   3.311  13.075  1.0494  2.5670  2.0661
 6175SOL     OW29983   0.701   2.612   4.850  0.0129 -0.0409  0.3324
 6175SOL    HW129984   0.729   2.619   4.941  1.9903  1.4132 -0.3948
 6175SOL    HW229985   0.705   2.518   4.833 -0.3589 -0.3805  2.1417
 6176SOL     OW29986   4.181   3.005  12.302  0.1254  0.4048  0.0752
 6176SOL    HW129987   4.222   2.922  12.326  0.9285  0.9482  0.5923
 6176SOL    HW229988   4.248   3.066  12.334  0.1866 -1.7918  4.1097
 6177SOL     OW29989   3.917   3.014   0.276 -0.6508  0.2844 -0.0703
 6177SOL    HW129990   3.938   3.074   0.347  1.0525 -0.2209 -0.1345
 6177SOL    HW229991   3.989   3.035   0.216  1.8679  0.6306  3.0281
 6178SOL     OW29992   1.938   3.779   2.256 -0.3022  0.3588 -0.0765
 6178SOL    HW129993   1.992   3.857   2.247  1.7262 -1.1130 -0.5724
 6178SOL    HW229994   1.898   3.759   2.171  0.0548 -0.8516  0.0399
 6179SOL     OW29995   4.386   1.198   3.553  0.3277 -0.3138  0.2587
 6179SOL    HW129996   4.427   1.284   3.555 -1.4618  0.5748 -1.4354
 6179SOL    HW229997   4.452   1.153   3.501 -1.6336 -0.9053 -1.7394
 6180SOL     OW29998   3.422   3.449   2.338 -0.3154  0.6526  0.3231
 6180SOL    HW129999   3.479   3.377   2.367  0.4474  0.4005 -1.8268
 6180SOL    HW230000   3.483   3.523   2.332 -0.5982  0.7549 -1.3304
 6181SOL     OW30001   1.127   3.858  16.960  0.1368 -0.2306 -0.2925
 6181SOL    HW130002   1.127   3.870  17.055 -1.4935 -1.0450 -0.1997
 6181SOL    HW230003   1.119   3.951  16.937  1.4713  0.0029  0.1468
 6182SOL     OW30004   0.017   2.246   8.843  0.6528 -0.0733  0.0335
 6182SOL    HW130005   0.075   2.319   8.868  0.7354 -0.0332 -0.2696
 6182SOL    HW230006   0.025   2.203   8.928  2.8238  1.3604  0.5722
 6183SOL     OW30007   4.222   4.394   5.873  0.4698  0.7153 -0.2662
 6183SOL    HW130008   4.127   4.402   5.886  0.7754  0.4867  2.1468
 6183SOL    HW230009   4.223   4.367   5.781 -0.7429 -1.9523  0.4920
 6184SOL     OW30010   4.692   4.550   5.479 -0.0889  0.4873  0.0507
 6184SOL    HW130011   4.715   4.607   5.407  0.7912  2.8563  2.2191
 6184SOL    HW230012   0.037   4.558   5.545 -1.4811  0.4329  1.5352
 6185SOL     OW30013   2.109   0.953   0.674 -0.3139 -0.7701  0.0951
 6185SOL    HW130014   2.116   0.895   0.598  0.3329 -0.3133 -0.1941
 6185SOL    HW230015   2.129   1.036   0.630  0.5115 -0.7052  0.5945
 6186SOL     OW30016   2.958   0.684   1.864 -0.3076  0.3390  0.4170
 6186SOL    HW130017   2.917   0.618   1.808 -2.5849 -1.3641  4.0969
 6186SOL    HW230018   3.045   0.644   1.873 -1.0571 -0.6116  3.2930
 6187SOL     OW30019   3.318   3.335   2.627 -0.1056  0.3094 -0.1045
 6187SOL    HW130020   3.365   3.412   2.596 -1.7568  1.5695  0.5138
 6187SOL    HW230021   3.389   3.289   2.672  0.1879  0.2170 -0.6645
 6188SOL     OW30022   0.034   2.688  16.206 -0.1613  0.0128  0.5497
 6188SOL    HW130023   0.025   2.643  16.290 -0.1508 -2.3830 -0.7449
 6188SOL    HW230024   4.720   2.617  16.154 -1.5503  1.2034 -0.0550
 6189SOL     OW30025   3.631   0.506   5.380  0.5821 -0.2738  0.6398
 6189SOL    HW130026   3.554   0.542   5.336  0.2982  1.4277  2.5447
 6189SOL    HW230027   3.652   0.433   5.322 -0.0282 -0.7259  0.9863
 6190SOL     OW30028   2.348   0.970  16.077  0.1775  0.1539 -0.8675
 6190SOL    HW130029   2.308   1.056  16.090  1.2183  0.5844 -0.5573
 6190SOL    HW230030   2.288   0.904  16.113 -1.0001  1.5561 -0.2513
 6191SOL     OW30031   0.938   3.383  12.710  0.1527 -0.5000 -0.2746
 6191SOL    HW130032   0.954   3.315  12.776  2.5499  0.4275  0.0897
 6191SOL    HW230033   0.970   3.334  12.635 -1.3286 -1.4144 -0.3230
 6192SOL     OW30034   1.705   0.778   0.708  0.0081  0.8552  0.2420
 6192SOL    HW130035   1.756   0.706   0.672 -2.6250 -0.9262  0.0225
 6192SOL    HW230036   1.632   0.801   0.650  0.7998 -0.8638 -1.4641
 6193SOL     OW30037   2.317   2.995   5.248 -0.4660 -0.2259 -0.4492
 6193SOL    HW130038   2.340   3.063   5.311 -1.3803  0.7310 -1.1476
 6193SOL    HW230039   2.285   3.052   5.179  0.6018  2.0691  0.9619
 6194SOL     OW30040   2.819   2.828   7.746 -0.2925  0.0677  0.0372
 6194SOL    HW130041   2.914   2.819   7.748 -0.2305  0.8353  0.8511
 6194SOL    HW230042   2.793   2.777   7.823 -1.7438  0.6783 -0.0429
 6195SOL     OW30043   3.226   0.197   4.046  0.0051 -0.5318  0.0625
 6195SOL    HW130044   3.283   0.234   4.113  0.0722  1.1687 -0.9061
 6195SOL    HW230045   3.149   0.190   4.102  0.5663  0.0396  0.8981
 6196SOL     OW30046   0.119   1.359   2.501 -0.2106 -0.1089 -0.5233
 6196SOL    HW130047   0.042   1.393   2.546  1.4127  1.7541  0.8574
 6196SOL    HW230048   0.084   1.354   2.412 -0.3029 -0.3496 -0.4746
 6197SOL     OW30049   0.525   3.505  14.595  0.1271 -0.6901  0.1737
 6197SOL    HW130050   0.581   3.541  14.526 -1.0908 -0.2426 -0.5712
 6197SOL    HW230051   0.449   3.474  14.545  0.5532 -0.1416 -0.8040
 6198SOL     OW30052   4.174   2.084   5.803  0.1312  0.1281  0.4149
 6198SOL    HW130053   4.166   1.995   5.771 -2.6371  1.1732 -1.8213
 6198SOL    HW230054   4.201   2.055   5.890 -2.3435  0.5468  1.3020
 6199SOL     OW30055   1.492   0.405   4.639  0.1431 -0.1702  0.6428
 6199SOL    HW130056   1.495   0.455   4.557  0.1865  0.6632  1.1518
 6199SOL    HW230057   1.584   0.383   4.652 -0.0973 -0.8558  1.1369
 6200SOL     OW30058   0.635   1.598   3.667 -0.1461 -0.1388 -0.9146
 6200SOL    HW130059   0.710   1.651   3.642  2.4921 -4.0711 -1.3407
 6200SOL    HW230060   0.587   1.605   3.584 -0.1243  0.3514 -0.8825
 6201SOL     OW30061   2.411   2.754  16.458  0.0829 -0.0764 -0.5975
 6201SOL    HW130062   2.376   2.820  16.518 -1.2389 -0.7257 -0.6463
 6201SOL    HW230063   2.333   2.737  16.404 -0.0746 -1.1412 -0.0205
 6202SOL     OW30064   0.748   1.499   4.336  0.0989 -0.3080 -0.6660
 6202SOL    HW130065   0.725   1.414   4.300 -0.5001 -0.0001 -1.0066
 6202SOL    HW230066   0.822   1.474   4.393 -0.3882  0.4738  0.3188
 6203SOL     OW30067   1.501   1.598   0.551 -0.3259 -0.2637 -0.1316
 6203SOL    HW130068   1.571   1.609   0.487 -0.6538  0.3305 -0.3909
 6203SOL    HW230069   1.429   1.632   0.499 -0.0385 -2.5490 -2.0562
 6204SOL     OW30070   1.260   2.217  13.733  0.8318 -0.8517  0.3445
 6204SOL    HW130071   1.338   2.264  13.761 -0.7770  1.2505  1.2953
 6204SOL    HW230072   1.281   2.202  13.641 -1.7901  3.1013 -0.8751
 6205SOL     OW30073   2.584   2.077  15.806 -0.1036 -0.1981 -0.4062
 6205SOL    HW130074   2.677   2.072  15.784 -0.6174  0.6533 -2.7477
 6205SOL    HW230075   2.537   2.057  15.725 -3.8728  1.6968  1.2738
 6206SOL     OW30076   1.756   0.295   4.922 -0.1547 -0.1502 -0.1989
 6206SOL    HW130077   1.758   0.255   5.009  0.7070 -1.2852 -0.7288
 6206SOL    HW230078   1.667   0.270   4.898 -0.5292  0.7044  0.3114
 6207SOL     OW30079   3.333   4.661   2.407 -0.3887  0.2105  0.3701
 6207SOL    HW130080   3.245   4.692   2.426 -0.5714  1.3035 -2.2550
 6207SOL    HW230081   3.394   4.722   2.449  0.3110 -0.9081  0.9820
 6208SOL     OW30082   3.913   3.445   7.588 -0.2531 -0.3264 -0.5940
 6208SOL    HW130083   3.934   3.370   7.532  0.7374 -0.8843  0.5078
 6208SOL    HW230084   3.898   3.395   7.669  0.9231  0.9902  0.4323
 6209SOL     OW30085   2.715   3.884   3.077 -0.2066 -0.2158  0.5979
 6209SOL    HW130086   2.689   3.976   3.073  0.1537 -0.2335 -2.3597
 6209SOL    HW230087   2.658   3.852   3.007  0.4351 -1.5523  0.6855
 6210SOL     OW30088   0.879   4.623  11.724  0.4726 -0.2254  1.1707
 6210SOL    HW130089   0.902   4.675  11.801 -0.3902  3.6323 -1.2085
 6210SOL    HW230090   0.902   4.532  11.743 -2.5035 -1.7402 -2.4416
 6211SOL     OW30091   0.292   1.556   2.503 -0.2540 -0.2883 -0.0108
 6211SOL    HW130092   0.226   1.488   2.514 -0.5256 -0.2164 -1.2605
 6211SOL    HW230093   0.236   1.634   2.506 -0.7017 -0.4863 -4.0969
 6212SOL     OW30094   1.795   4.147   6.882 -0.7248 -0.0040 -0.0521
 6212SOL    HW130095   1.727   4.087   6.852 -1.5401  1.4107 -1.0805
 6212SOL    HW230096   1.762   4.228   6.844 -0.0686  0.7812  1.0637
 6213SOL     OW30097   4.101   1.264   0.227  0.2664 -0.5152  0.1724
 6213SOL    HW130098   4.140   1.346   0.199 -0.0260  0.6853  3.3587
 6213SOL    HW230099   4.015   1.278   0.187  0.9906  1.6486 -0.6252
 6214SOL     OW30100   4.448   2.967   2.803  0.1880  0.5366 -0.3201
 6214SOL    HW130101   4.434   2.963   2.708 -2.1391  0.0229  0.0578
 6214SOL    HW230102   4.530   3.015   2.817  0.3117 -0.0126  0.7754
 6215SOL     OW30103   3.143   2.514   3.135 -0.3936 -0.1692 -0.2530
 6215SOL    HW130104   3.164   2.421   3.125 -0.4703  0.0334 -2.3332
 6215SOL    HW230105   3.049   2.508   3.152 -0.7474  0.6176 -1.9287
 6216SOL     OW30106   0.661   0.042   8.504 -0.2780  0.5552 -0.1922
 6216SOL    HW130107   0.664   0.065   8.411  0.9044 -1.6310 -0.6842
 6216SOL    HW230108   0.578   4.720   8.514 -0.0733  0.4518  0.9759
 6217SOL     OW30109   2.988   0.347  12.153 -0.4562 -0.5306  0.1808
 6217SOL    HW130110   3.058   0.352  12.089 -1.4680 -0.2308 -0.9031
 6217SOL    HW230111   2.907   0.357  12.103 -1.7679 -1.8472  2.0145
 6218SOL     OW30112   0.844   3.946   4.170 -0.4521  0.6652  0.0786
 6218SOL    HW130113   0.939   3.947   4.164 -0.5397  3.6631 -0.8946
 6218SOL    HW230114   0.825   4.021   4.226 -2.1636  1.2534 -1.2979
 6219SOL     OW30115   2.985   3.283   2.185 -0.1900  0.6074 -0.1151
 6219SOL    HW130116   3.021   3.371   2.186  0.1795  0.4831 -1.6917
 6219SOL    HW230117   3.059   3.231   2.154  0.8379  2.4165 -0.7025
 6220SOL     OW30118   4.380   2.797   4.542 -0.4256  0.1767 -0.3697
 6220SOL    HW130119   4.347   2.713   4.511  0.7749 -0.4885  0.1553
 6220SOL    HW230120   4.326   2.821   4.617 -0.9424  3.5282 -1.7949
 6221SOL     OW30121   2.859   4.019   5.738  0.4282  0.0646 -0.0912
 6221SOL    HW130122   2.785   4.027   5.798 -0.4267 -3.0588 -0.7659
 6221SOL    HW230123   2.890   4.109   5.747 -0.2132  0.2754 -0.0328
 6222SOL     OW30124   0.291   0.774   7.085  0.1633 -0.5148  0.5293
 6222SOL    HW130125   0.239   0.728   7.018  0.8935  0.3436 -0.6292
 6222SOL    HW230126   0.312   0.858   7.043  0.3194 -0.5251  0.5907
 6223SOL     OW30127   3.686   2.818  11.543  0.5873 -0.4531  0.6307
 6223SOL    HW130128   3.682   2.832  11.448  1.2319  0.3054  0.7159
 6223SOL    HW230129   3.608   2.765  11.561 -0.5150  0.8225 -0.3665
 6224SOL     OW30130   2.478   3.482  10.098 -0.3071 -0.2576 -0.0565
 6224SOL    HW130131   2.493   3.572  10.072 -0.1931 -0.6175 -1.2248
 6224SOL    HW230132   2.554   3.468  10.156  0.0027 -0.2444 -0.4583
 6225SOL     OW30133   1.374   0.948   3.745 -0.5902 -0.3821 -0.2878
 6225SOL    HW130134   1.465   0.977   3.735 -0.4586 -0.1326  1.6574
 6225SOL    HW230135   1.340   1.014   3.806  2.0904  0.8624 -0.1577
 6226SOL     OW30136   1.596   2.850   8.047 -0.2568 -0.2565  0.3548
 6226SOL    HW130137   1.619   2.779   8.106 -1.7653 -0.2201  1.0088
 6226SOL    HW230138   1.606   2.920   8.111 -1.0429 -1.5726  1.9107
 6227SOL     OW30139   1.293   1.747   4.208 -0.2428  0.3215 -0.1455
 6227SOL    HW130140   1.257   1.743   4.119  1.0070  0.0831 -0.6449
 6227SOL    HW230141   1.219   1.720   4.262 -0.3058 -0.5253 -0.6555
 6228SOL     OW30142   0.561   0.960  15.675  0.2362 -0.4341 -0.2726
 6228SOL    HW130143   0.498   1.030  15.691 -0.2603 -1.2370  1.2373
 6228SOL    HW230144   0.612   0.999  15.604  0.6705  1.2134  0.9606
 6229SOL     OW30145   0.019   2.967  12.852  0.0886  0.3639  0.0092
 6229SOL    HW130146   4.650   2.987  12.866 -0.0366  0.1548 -0.5563
 6229SOL    HW230147   0.015   2.905  12.780  1.6907 -0.6870  0.8335
 6230SOL     OW30148   2.103   3.087  10.772 -0.1611  0.3718  0.6076
 6230SOL    HW130149   2.131   3.151  10.837  0.7898  0.9070 -0.3294
 6230SOL    HW230150   2.103   3.134  10.688  1.3414  0.7773  0.8307
 6231SOL     OW30151   3.055   2.611   6.036  0.0751 -0.2684 -0.2989
 6231SOL    HW130152   3.045   2.516   6.036 -0.9936 -0.1546 -0.2598
 6231SOL    HW230153   2.969   2.643   6.064  0.4315 -0.6692  1.2492
 6232SOL     OW30154   1.878   2.083   7.673 -0.4220  0.3259 -0.4890
 6232SOL    HW130155   1.905   2.154   7.733  1.8956 -0.4624 -0.6201
 6232SOL    HW230156   1.890   2.002   7.722 -0.7114 -0.8338 -2.3856
 6233SOL     OW30157   0.816   0.131  10.622  0.5386 -0.1105  0.2697
 6233SOL    HW130158   0.745   0.074  10.650 -0.4591  1.8328  1.6717
 6233SOL    HW230159   0.888   0.069  10.608 -1.2615 -1.4626 -2.9555
 6234SOL     OW30160   0.433   4.116   7.053  0.1518  0.6788 -0.1940
 6234SOL    HW130161   0.341   4.098   7.036  0.6840 -0.3812 -1.9026
 6234SOL    HW230162   0.479   4.039   7.020  0.2763  0.4009  0.6171
 6235SOL     OW30163   0.711   1.819   6.477 -0.3105  0.3527  0.2854
 6235SOL    HW130164   0.628   1.824   6.525 -0.4921  1.1382 -0.1158
 6235SOL    HW230165   0.774   1.833   6.547  2.6697  0.2645 -2.3821
 6236SOL     OW30166   3.821   3.138   3.726  0.5981  0.3310  0.1280
 6236SOL    HW130167   3.849   3.140   3.635 -0.7947 -1.4680 -0.3442
 6236SOL    HW230168   3.731   3.164   3.710  0.5828  0.7787  0.9293
 6237SOL     OW30169   3.590   3.870   7.811  0.4158  0.2612  0.0166
 6237SOL    HW130170   3.638   3.943   7.850 -0.9142  0.1418  1.8497
 6237SOL    HW230171   3.513   3.868   7.868  1.2267 -0.2684  1.0805
 6238SOL     OW30172   4.431   2.991  11.266  0.0100  0.0031 -0.1376
 6238SOL    HW130173   4.521   2.962  11.272 -0.0071 -0.1656 -0.7035
 6238SOL    HW230174   4.443   3.084  11.247 -0.0921  0.6131  2.7943
 6239SOL     OW30175   1.018   1.778   9.561  0.2272  0.5333  0.1345
 6239SOL    HW130176   1.019   1.842   9.490 -1.4188  0.1438 -0.2421
 6239SOL    HW230177   0.934   1.785   9.605 -0.2351 -1.3648 -0.4441
 6240SOL     OW30178   3.522   4.670   4.837 -0.2877 -0.2136 -0.0961
 6240SOL    HW130179   3.473   4.690   4.917 -0.3669  1.7788 -0.6391
 6240SOL    HW230180   3.480   0.013   4.783 -0.2048  0.6152  0.8559
 6241SOL     OW30181   0.683   2.857   5.341  0.7319 -0.0616  0.0150
 6241SOL    HW130182   0.745   2.810   5.285  0.0520 -0.5426 -0.3350
 6241SOL    HW230183   0.607   2.862   5.283 -0.8756 -2.0870  1.9634
 6242SOL     OW30184   0.743   2.415   9.347  0.6209 -0.7417  0.3587
 6242SOL    HW130185   0.660   2.397   9.302  1.8104 -0.2763 -2.0276
 6242SOL    HW230186   0.725   2.489   9.404  2.1457 -2.3805  2.9557
 6243SOL     OW30187   3.402   3.338   1.653  0.1368 -0.3520  0.4878
 6243SOL    HW130188   3.374   3.246   1.659  1.6555 -0.6935  2.4360
 6243SOL    HW230189   3.463   3.347   1.727 -0.6268  1.4526  0.8933
 6244SOL     OW30190   2.137   0.860  11.821 -0.8859 -0.2078  0.0852
 6244SOL    HW130191   2.088   0.787  11.857  1.0869 -1.1622  0.8687
 6244SOL    HW230192   2.226   0.825  11.810 -0.7439 -0.9463  3.5697
 6245SOL     OW30193   3.635   3.422   4.392  0.3994  0.2276 -0.2697
 6245SOL    HW130194   3.634   3.340   4.442  1.0644 -0.5224 -1.4876
 6245SOL    HW230195   3.655   3.382   4.308 -1.0783  1.0902 -1.0383
 6246SOL     OW30196   2.718   0.359   7.771  0.0975 -0.0944  0.3592
 6246SOL    HW130197   2.801   0.390   7.733 -0.1691 -0.3869 -0.4594
 6246SOL    HW230198   2.703   0.405   7.853  0.6739 -0.1905  0.5222
 6247SOL     OW30199   3.927   2.672   4.409  0.2662 -1.2292 -0.2574
 6247SOL    HW130200   3.971   2.723   4.341  0.2534  0.9806  1.4189
 6247SOL    HW230201   3.853   2.729   4.431  0.3173 -0.7030 -1.4525
 6248SOL     OW30202   1.268   3.292   3.002 -0.2514 -0.1696 -0.6805
 6248SOL    HW130203   1.273   3.362   2.937  3.8992 -0.9748 -1.1774
 6248SOL    HW230204   1.315   3.341   3.069 -0.0820 -0.5879 -0.4946
 6249SOL     OW30205   3.180   1.376  13.080  0.0161  0.2054 -0.1649
 6249SOL    HW130206   3.145   1.445  13.023 -0.6189  1.5743  1.8587
 6249SOL    HW230207   3.267   1.374  13.041  0.3399 -0.2478  0.5833
 6250SOL     OW30208   1.499   3.896   2.405 -0.3161  0.2202 -0.5761
 6250SOL    HW130209   1.410   3.862   2.393  0.0798 -1.7011  2.0104
 6250SOL    HW230210   1.494   3.951   2.327  0.1956  0.5137 -0.4024
 6251SOL     OW30211   1.148   2.982  16.682  0.0987  0.6647 -0.0756
 6251SOL    HW130212   1.066   3.018  16.648 -1.3952 -0.9779  1.8340
 6251SOL    HW230213   1.149   3.032  16.763  2.1132  1.7073 -0.7351
 6252SOL     OW30214   3.051   1.714   5.386  0.3938 -0.5244  0.1192
 6252SOL    HW130215   3.047   1.687   5.478 -0.2139 -0.9983 -0.0479
 6252SOL    HW230216   3.002   1.643   5.345 -0.6905  0.2625  0.0517
 6253SOL     OW30217   3.027   1.063  11.714 -0.5610  0.0377  0.0233
 6253SOL    HW130218   3.113   1.036  11.746  0.3664  2.3789 -0.4800
 6253SOL    HW230219   2.974   1.049  11.792  0.0633 -0.4882  0.3565
 6254SOL     OW30220   1.370   0.661   4.735  0.5866 -0.5677  0.3796
 6254SOL    HW130221   1.395   0.594   4.799  1.5387 -1.5456 -1.0303
 6254SOL    HW230222   1.340   0.730   4.794  0.6379  0.2456 -0.5437
 6255SOL     OW30223   2.834   3.423   9.928 -0.0362 -0.0655  0.0979
 6255SOL    HW130224   2.816   3.334   9.898 -2.4761  0.6273 -0.5108
 6255SOL    HW230225   2.845   3.404  10.021 -0.0350  0.0513  0.1208
 6256SOL     OW30226   2.192   1.146  15.274  0.1170  0.0830  0.6186
 6256SOL    HW130227   2.186   1.218  15.337  1.8172  0.5484  0.2496
 6256SOL    HW230228   2.228   1.185  15.194 -0.4554  1.4477  1.0256
 6257SOL     OW30229   3.634   2.474  14.216  0.0079 -0.3716 -0.2087
 6257SOL    HW130230   3.668   2.563  14.225  1.0601 -0.6327 -1.6196
 6257SOL    HW230231   3.593   2.472  14.130 -1.6015  1.6909  0.5016
 6258SOL     OW30232   1.977   1.281  13.463 -0.3312  0.1196 -0.5391
 6258SOL    HW130233   1.903   1.254  13.518 -0.0248 -0.4214 -0.3949
 6258SOL    HW230234   1.991   1.192  13.431  2.0601 -0.3768  1.9501
 6259SOL     OW30235   0.664   0.345   6.235 -0.2921 -0.2514 -0.0114
 6259SOL    HW130236   0.584   0.358   6.286 -0.0098 -0.2835  0.4308
 6259SOL    HW230237   0.626   0.312   6.153 -0.0941  1.3194 -0.7412
 6260SOL     OW30238   4.620   3.454   5.136 -0.2437 -0.2368  0.8495
 6260SOL    HW130239   4.675   3.399   5.080  1.6529  1.6179  0.9027
 6260SOL    HW230240   4.665   3.538   5.141 -1.6331  0.5974 -0.7097
 6261SOL     OW30241   0.093   3.903  10.442 -0.0429 -0.1656 -0.5356
 6261SOL    HW130242   0.065   3.956  10.367 -2.8775 -0.3428  0.3770
 6261SOL    HW230243   0.155   3.961  10.486  1.7208 -0.3482 -2.8029
 6262SOL     OW30244   3.683   1.971   7.260  0.0971  0.6084  0.0684
 6262SOL    HW130245   3.610   2.032   7.269 -2.2545 -2.2105  0.1083
 6262SOL    HW230246   3.738   2.014   7.326 -0.8986  0.0306  1.2790
 6263SOL     OW30247   0.729   0.317  14.531  0.2120  0.1347  0.4524
 6263SOL    HW130248   0.687   0.234  14.508  2.3960  0.2169 -3.8800
 6263SOL    HW230249   0.708   0.383  14.465 -1.4489  1.1219  1.9742
 6264SOL     OW30250   2.641   0.134   8.727  0.6721  0.1825 -0.9485
 6264SOL    HW130251   2.552   0.124   8.693  0.2960 -1.0519  0.3781
 6264SOL    HW230252   2.685   0.049   8.723 -0.0778 -0.3163  1.2355
 6265SOL     OW30253   0.264   4.061  12.443 -0.3291  0.0724 -0.1110
 6265SOL    HW130254   0.306   4.020  12.519 -1.1036  1.9717  1.3126
 6265SOL    HW230255   0.345   4.101  12.412  0.2240 -0.6051  0.4571
 6266SOL     OW30256   0.360   4.668  17.072 -0.2441 -0.4018 -0.0910
 6266SOL    HW130257   0.425   0.005  17.039 -0.6474 -0.8946 -1.7930
 6266SOL    HW230258   0.284   4.724  17.084  0.2534  0.0687  0.8733
 6267SOL     OW30259   4.036   4.262  13.555  0.3389 -0.2569  0.4616
 6267SOL    HW130260   4.073   4.223  13.635  2.5334  0.4782 -0.1750
 6267SOL    HW230261   3.948   4.226  13.552  0.1577  0.0559  1.9201
 6268SOL     OW30262   0.703   0.722   4.948 -0.3788  0.1255 -0.3505
 6268SOL    HW130263   0.713   0.749   5.040  0.1003  0.8704 -0.6238
 6268SOL    HW230264   0.642   0.649   4.959 -0.4550  0.2350 -0.0272
 6269SOL     OW30265   4.187   0.466  12.659 -0.2793 -0.2708  0.1236
 6269SOL    HW130266   4.247   0.438  12.591 -1.4807 -0.3061 -0.9200
 6269SOL    HW230267   4.253   0.460  12.728 -0.6719 -0.8340  0.4536
 6270SOL     OW30268   4.055   0.092  10.440  0.5443 -0.1091 -0.0910
 6270SOL    HW130269   3.977   0.124  10.485  1.3788 -0.2933  1.4796
 6270SOL    HW230270   4.086   0.031  10.507 -2.9736  2.0880  3.5524
 6271SOL     OW30271   1.777   3.921  12.435  0.7313 -0.2859  0.7006
 6271SOL    HW130272   1.817   3.841  12.468  1.4757 -0.5959 -0.9443
 6271SOL    HW230273   1.741   3.960  12.515 -3.4579 -0.2030 -1.2348
 6272SOL     OW30274   2.419   2.922   8.505  0.5669 -0.0440  0.0471
 6272SOL    HW130275   2.325   2.931   8.489  0.4045 -0.7250  0.6363
 6272SOL    HW230276   2.430   2.975   8.584 -0.0635 -1.5628  1.1344
 6273SOL     OW30277   4.096   4.137   3.844  0.3522 -0.4228 -0.0912
 6273SOL    HW130278   4.188   4.146   3.871  1.1640 -1.5653 -2.4095
 6273SOL    HW230279   4.106   4.070   3.776 -2.4672 -2.6655  1.7232
 6274SOL     OW30280   2.513   3.521   9.316 -0.3759 -0.4538  0.6287
 6274SOL    HW130281   2.594   3.571   9.321 -1.1934  1.1141 -2.0714
 6274SOL    HW230282   2.463   3.575   9.255 -1.1720 -1.4630  0.3962
 6275SOL     OW30283   3.455   4.719   6.444  0.0489  0.1570  0.2186
 6275SOL    HW130284   3.372   4.678   6.469  0.7222 -0.8722  0.7376
 6275SOL    HW230285   3.445   0.050   6.366 -1.4505 -1.0356 -0.4389
 6276SOL     OW30286   1.016   0.367   9.061  0.5132 -0.1215  0.1422
 6276SOL    HW130287   0.946   0.422   9.095  0.6303 -0.9967  1.7816
 6276SOL    HW230288   1.010   0.390   8.968 -0.0256  0.3224  0.2897
 6277SOL     OW30289   0.109   3.295   1.067  0.8881  0.2946  0.3262
 6277SOL    HW130290   0.175   3.341   1.015  0.8146  0.7752  0.6546
 6277SOL    HW230291   0.141   3.205   1.078  0.6231 -0.0119 -1.4760
 6278SOL     OW30292   1.138   4.486   7.185 -0.5771 -0.0246 -0.5270
 6278SOL    HW130293   1.192   4.521   7.256  0.2431 -0.9293 -0.6961
 6278SOL    HW230294   1.177   4.523   7.107  0.4717 -1.4296 -0.6700
 6279SOL     OW30295   0.140   2.675  16.712  0.2035 -0.4505 -0.5626
 6279SOL    HW130296   0.072   2.723  16.664 -0.8232 -0.6108  0.7324
 6279SOL    HW230297   0.220   2.683  16.660  0.7310 -2.0582  0.0092
 6280SOL     OW30298   3.245   2.857   0.503  0.4233  0.2218 -0.4010
 6280SOL    HW130299   3.183   2.822   0.440  0.1759  0.1645 -0.1249
 6280SOL    HW230300   3.194   2.879   0.582  0.6906  1.2867 -0.5152
 6281SOL     OW30301   1.915   2.756   7.471  0.2726 -0.1027 -1.0216
 6281SOL    HW130302   1.910   2.839   7.519 -0.1292  0.4788 -2.0482
 6281SOL    HW230303   1.987   2.706   7.510  0.5535 -2.5088 -4.6171
 6282SOL     OW30304   3.708   3.610   2.980  0.7438 -0.8369  0.0283
 6282SOL    HW130305   3.657   3.530   2.989 -0.4814 -0.4953 -3.6630
 6282SOL    HW230306   3.668   3.657   2.906 -1.5276 -0.7157  1.3417
 6283SOL     OW30307   0.780   3.936   5.896  0.2394  1.4196 -0.3144
 6283SOL    HW130308   0.853   3.913   5.840  0.3619 -0.6100  0.6832
 6283SOL    HW230309   0.819   4.015   5.935 -0.7767  0.5505  2.4895
 6284SOL     OW30310   3.002   4.329  11.749  0.2816  0.4862 -0.1146
 6284SOL    HW130311   2.929   4.293  11.800  0.1785  1.4987  0.4681
 6284SOL    HW230312   3.011   4.280  11.668 -0.1934  1.0677 -0.5215
 6285SOL     OW30313   2.299   2.429   9.462 -0.1313 -0.2138 -0.0130
 6285SOL    HW130314   2.323   2.342   9.431 -1.5994  0.2563 -2.4844
 6285SOL    HW230315   2.375   2.485   9.445 -1.5857  1.7916  0.0375
 6286SOL     OW30316   2.276   2.818   7.715  0.1031 -1.1055  0.0702
 6286SOL    HW130317   2.307   2.877   7.646 -3.9756  0.2625 -0.5600
 6286SOL    HW230318   2.324   2.857   7.788  0.9446 -1.0192 -0.5269
 6287SOL     OW30319   4.088   2.340   6.091 -0.1904  0.4680  0.1239
 6287SOL    HW130320   4.034   2.373   6.020 -0.9530 -0.6504  0.1950
 6287SOL    HW230321   4.137   2.419   6.116  0.5048  0.1395 -0.2060
 6288SOL     OW30322   0.013   1.978   5.042  0.2434  0.2059  0.3040
 6288SOL    HW130323   0.078   1.956   5.109  0.8342 -0.4202 -0.4872
 6288SOL    HW230324   0.049   1.918   4.977 -2.2079  1.6917 -2.4374
 6289SOL     OW30325   3.381   4.149   7.006  0.0276  0.7982 -0.6530
 6289SOL    HW130326   3.405   4.189   6.923 -1.2490  4.2913  0.6941
 6289SOL    HW230327   3.381   4.062   6.966 -1.2263  1.1717 -1.4195
 6290SOL     OW30328   0.993   3.915   6.603  0.6262  0.5865  0.0115
 6290SOL    HW130329   0.927   3.846   6.600  0.5532  0.8532 -4.2247
 6290SOL    HW230330   1.050   3.893   6.676  1.5136  0.2337 -0.7795
 6291SOL     OW30331   0.333   1.832   5.499 -0.6142  0.4871  0.2595
 6291SOL    HW130332   0.284   1.797   5.573  1.2024 -1.2120  0.6669
 6291SOL    HW230333   0.419   1.791   5.512 -1.9374 -2.7629 -1.1981
 6292SOL     OW30334   2.895   1.770   9.073 -0.2796  0.7189 -0.4280
 6292SOL    HW130335   2.812   1.724   9.061 -0.1753 -0.0211  1.8008
 6292SOL    HW230336   2.918   1.724   9.153 -0.7372  0.0230 -0.6894
 6293SOL     OW30337   4.432   1.443  16.691 -0.4586 -0.2625 -0.0319
 6293SOL    HW130338   4.409   1.383  16.620  1.7122 -0.2953 -0.7098
 6293SOL    HW230339   4.503   1.489  16.647  0.4648  1.0684  2.8950
 6294SOL     OW30340   3.010   2.663  16.318 -0.4701 -0.0792  0.0434
 6294SOL    HW130341   2.922   2.680  16.286 -0.9240  0.9147  1.8622
 6294SOL    HW230342   3.027   2.744  16.365 -1.5898 -0.0028  0.3003
 6295SOL     OW30343   4.084   1.066   7.679  0.1728 -0.2022  0.2297
 6295SOL    HW130344   4.125   1.129   7.738  1.3505 -0.0275 -0.7613
 6295SOL    HW230345   4.033   1.119   7.618 -0.3185  0.9770  1.6776
 6296SOL     OW30346   0.509   0.204   0.996  0.0317  0.3375  0.0720
 6296SOL    HW130347   0.512   0.109   0.983  0.6780  0.2719  0.7047
 6296SOL    HW230348   0.452   0.220   1.072 -0.3076 -0.7785  0.0562
 6297SOL     OW30349   1.457   4.085  11.856  0.1216  0.2496 -0.1577
 6297SOL    HW130350   1.504   4.002  11.851 -0.8955 -0.3346 -0.0811
 6297SOL    HW230351   1.520   4.150  11.888 -1.4010  1.9257 -0.5789
 6298SOL     OW30352   3.504   1.334   7.692 -0.1106 -0.6986 -0.0075
 6298SOL    HW130353   3.419   1.335   7.737 -0.0070  0.8005  0.1623
 6298SOL    HW230354   3.549   1.264   7.739 -1.1648 -0.7609  0.9244
 6299SOL     OW30355   1.385   4.116   0.271 -0.5177  0.0501  0.6137
 6299SOL    HW130356   1.429   4.144   0.352 -2.0482  2.3018  0.6660
 6299SOL    HW230357   1.430   4.166   0.203  0.1258 -1.9857 -0.4404
 6300SOL     OW30358   1.597   0.392   5.300 -0.3499 -0.0736 -0.3684
 6300SOL    HW130359   1.640   0.322   5.252  0.4375 -0.1772  0.4840
 6300SOL    HW230360   1.557   0.440   5.227 -0.3677  0.2071 -0.1761
 6301SOL     OW30361   0.955   1.148  17.609 -0.2184 -0.2831  0.1427
 6301SOL    HW130362   1.010   1.196  17.548 -1.1961 -0.1153 -0.6067
 6301SOL    HW230363   0.935   1.068  17.560  0.5083 -0.0966 -0.4459
 6302SOL     OW30364   2.007   1.601   5.443 -0.0027 -0.4478 -0.0056
 6302SOL    HW130365   1.931   1.613   5.500  1.3815  1.1413  1.4896
 6302SOL    HW230366   1.963   1.644   5.370 -1.4629 -1.5596  0.1932
 6303SOL     OW30367   1.340   1.478  15.035  0.1418  0.4320 -0.2943
 6303SOL    HW130368   1.309   1.439  15.117  1.3383 -3.5012 -1.7696
 6303SOL    HW230369   1.289   1.429  14.971 -1.9577  0.7310  1.1480
 6304SOL     OW30370   3.646   2.993   1.691 -0.4525  1.0517 -0.1295
 6304SOL    HW130371   3.600   3.074   1.670  1.2478  2.2794  0.8719
 6304SOL    HW230372   3.738   3.016   1.704 -0.0694  1.3594 -3.4114
 6305SOL     OW30373   3.115   3.305   2.812 -0.2193 -0.5030  0.1035
 6305SOL    HW130374   3.097   3.399   2.807  1.2443 -0.3277 -1.8876
 6305SOL    HW230375   3.197   3.311   2.763  0.3366  0.4932  1.1581
 6306SOL     OW30376   2.859   3.680   4.987  0.6409 -0.2220  0.0002
 6306SOL    HW130377   2.929   3.667   4.923 -1.8472  1.3511 -3.0508
 6306SOL    HW230378   2.908   3.723   5.057  0.0272 -0.6188  0.6689
 6307SOL     OW30379   0.830   1.090   7.254 -0.0105 -0.2298  0.0697
 6307SOL    HW130380   0.794   1.045   7.330 -0.9374 -0.1931 -0.3583
 6307SOL    HW230381   0.884   1.151   7.305 -1.0301  1.4343 -0.8468
 6308SOL     OW30382   2.736   3.719   8.939  0.2784  0.0340 -0.2238
 6308SOL    HW130383   2.771   3.804   8.964 -0.7750  0.0696  1.0889
 6308SOL    HW230384   2.645   3.736   8.915 -0.0418  2.0226  2.4068
 6309SOL     OW30385   0.583   3.159   8.012  0.0800  0.2595 -0.5482
 6309SOL    HW130386   0.525   3.205   7.951 -0.1098 -3.3179 -3.0479
 6309SOL    HW230387   0.558   3.070   7.988 -1.2649  0.7597 -1.0034
 6310SOL     OW30388   1.055   2.321   2.176  0.5187 -0.7318 -0.5116
 6310SOL    HW130389   1.145   2.306   2.206  0.4019 -0.1330  0.1362
 6310SOL    HW230390   1.066   2.352   2.086 -1.3946 -1.5037 -1.0035
 6311SOL     OW30391   3.987   1.141  13.621 -0.3861  0.6339  0.1625
 6311SOL    HW130392   3.956   1.127  13.532  1.6851 -1.5097 -0.2342
 6311SOL    HW230393   3.926   1.078  13.659 -0.9791  0.0864 -1.6908
 6312SOL     OW30394   3.477   3.944   6.198  0.0416  0.0618 -0.1827
 6312SOL    HW130395   3.393   3.902   6.178  0.1289  0.0787 -0.5887
 6312SOL    HW230396   3.462   3.958   6.291  0.6667 -0.5682  0.0096
 6313SOL     OW30397   4.192   2.730   7.128  0.4764 -0.2164 -0.5425
 6313SOL    HW130398   4.105   2.715   7.091  1.1572 -2.3285 -1.2918
 6313SOL    HW230399   4.225   2.643   7.108  0.7453  0.1249 -1.5599
 6314SOL     OW30400   1.210   2.921   6.559 -0.1257 -0.4533  0.1162
 6314SOL    HW130401   1.302   2.895   6.556  0.2054  0.6919  0.6141
 6314SOL    HW230402   1.197   2.987   6.627  0.1632 -0.1683 -0.1073
 6315SOL     OW30403   0.118   2.019  11.819 -0.4693  0.3017 -0.8204
 6315SOL    HW130404   0.198   2.067  11.796  0.0290  0.2722  0.8745
 6315SOL    HW230405   0.073   2.083  11.874  1.7882  0.7215  0.5465
 6316SOL     OW30406   1.827   0.979   7.867 -0.1661 -0.2306  0.2838
 6316SOL    HW130407   1.831   0.885   7.847  1.0594 -0.3284  0.9728
 6316SOL    HW230408   1.885   1.027   7.809  0.8756 -1.0308  0.6450
 6317SOL     OW30409   1.136   0.403   9.370  0.2139 -0.2369 -0.4866
 6317SOL    HW130410   1.092   0.486   9.383  0.7082 -0.5755  3.2259
 6317SOL    HW230411   1.185   0.401   9.452  1.2942 -0.7015 -1.1395
 6318SOL     OW30412   1.265   2.683   7.913 -0.2159  0.3331  0.0873
 6318SOL    HW130413   1.318   2.762   7.927  0.1493  0.0724  0.1849
 6318SOL    HW230414   1.189   2.714   7.864 -1.4780 -0.5526  1.5043
 6319SOL     OW30415   4.005   2.823   2.456  0.5056  0.4202 -0.2850
 6319SOL    HW130416   4.055   2.882   2.512  0.7902  0.6678 -0.7910
 6319SOL    HW230417   4.077   2.769   2.423  0.0598 -0.3694  0.0539
 6320SOL     OW30418   4.440   3.853   9.853  0.1694  0.4802  0.5093
 6320SOL    HW130419   4.472   3.862   9.763 -0.5549  0.6211  0.2691
 6320SOL    HW230420   4.423   3.759   9.856  1.9113  0.1354 -0.1065
 6321SOL     OW30421   2.277   2.323   6.543 -0.0715  0.1715 -0.2128
 6321SOL    HW130422   2.261   2.259   6.612  5.2939 -0.6361  0.2901
 6321SOL    HW230423   2.254   2.409   6.578 -1.5573 -0.2187 -0.2491
 6322SOL     OW30424   1.150   2.268   4.772 -0.3656 -0.1429  0.3340
 6322SOL    HW130425   1.147   2.183   4.728  0.2420  0.3144 -0.6032
 6322SOL    HW230426   1.078   2.303   4.719  0.3542  3.2229  1.5488
 6323SOL     OW30427   1.391   3.286   4.121 -0.0239  0.4107  0.0250
 6323SOL    HW130428   1.317   3.232   4.093 -0.2606  1.0746 -0.6177
 6323SOL    HW230429   1.377   3.356   4.057 -1.2474 -0.3520 -0.5477
 6324SOL     OW30430   0.620   4.170  11.308 -0.5418  0.5286  0.3832
 6324SOL    HW130431   0.554   4.133  11.249  1.9473 -0.7235 -1.5761
 6324SOL    HW230432   0.569   4.236  11.357  1.0364  0.9105  1.5284
 6325SOL     OW30433   2.827   0.602   9.174 -0.1893  0.6133 -0.1321
 6325SOL    HW130434   2.875   0.659   9.114  0.7122  0.9636  0.9356
 6325SOL    HW230435   2.888   0.528   9.176 -1.1212 -0.1123  1.4664
 6326SOL     OW30436   3.741   3.657  16.735 -0.7374 -0.0186 -0.1203
 6326SOL    HW130437   3.804   3.686  16.801  0.7614 -0.3055 -1.4303
 6326SOL    HW230438   3.692   3.732  16.700  1.2135  0.3826 -1.9772
 6327SOL     OW30439   4.408   1.302  16.444 -0.1880 -0.0593 -0.1034
 6327SOL    HW130440   4.333   1.263  16.398 -0.2191  0.0599 -0.1532
 6327SOL    HW230441   4.471   1.240  16.407  0.0505  0.0569  0.1086
 6328SOL     OW30442   3.010   1.818   1.791  0.2449 -0.2106  0.6663
 6328SOL    HW130443   2.997   1.912   1.785 -1.4947 -0.5034 -0.2080
 6328SOL    HW230444   2.928   1.774   1.767 -0.5419  1.4172  0.3505
 6329SOL     OW30445   1.789   4.198   7.173  0.2595  0.0024  0.0159
 6329SOL    HW130446   1.698   4.228   7.167  0.2472 -0.2154 -0.8796
 6329SOL    HW230447   1.798   4.149   7.091 -2.2632 -2.1686  1.0551
 6330SOL     OW30448   1.440   0.958   1.911  0.1141  0.5076 -0.0821
 6330SOL    HW130449   1.386   0.945   1.833 -0.5426 -1.1818  0.6481
 6330SOL    HW230450   1.437   0.868   1.944 -0.2145  0.7300  0.5095
 6331SOL     OW30451   4.183   3.357   5.095 -0.4036 -0.6172  0.2187
 6331SOL    HW130452   4.118   3.335   5.028 -0.1773 -1.2707  0.2104
 6331SOL    HW230453   4.120   3.387   5.160  0.1896 -1.5910  1.2515
 6332SOL     OW30454   2.867   0.787   2.100 -0.5334 -0.0598 -0.4879
 6332SOL    HW130455   2.776   0.762   2.088 -0.5056 -0.0759 -0.6721
 6332SOL    HW230456   2.895   0.775   2.009  1.8264 -1.1066  0.3791
 6333SOL     OW30457   2.484   1.914   2.637  0.1698 -0.3556  0.2290
 6333SOL    HW130458   2.468   1.822   2.659  2.4013 -0.8013 -0.0022
 6333SOL    HW230459   2.401   1.960   2.652  0.4619  0.0959  0.4637
 6334SOL     OW30460   0.639   2.901   1.650  0.0921  0.4406 -0.2166
 6334SOL    HW130461   0.583   2.902   1.572  0.3275  0.5777 -0.3826
 6334SOL    HW230462   0.716   2.872   1.602  1.2758  1.3820  1.1156
 6335SOL     OW30463   1.831   1.155   4.644 -0.2112 -0.0130 -0.5054
 6335SOL    HW130464   1.894   1.188   4.579 -0.3355 -2.0396 -1.6610
 6335SOL    HW230465   1.894   1.121   4.707 -0.4407  0.4764 -0.0138
 6336SOL     OW30466   0.907   3.721   2.487 -0.5055 -0.3111 -0.2270
 6336SOL    HW130467   0.835   3.773   2.453 -0.9211 -0.7286  0.0059
 6336SOL    HW230468   0.937   3.790   2.546  2.2321 -0.0828 -1.9047
 6337SOL     OW30469   3.063   3.028   3.993  0.1703  0.3488  0.3777
 6337SOL    HW130470   3.104   3.022   3.907  1.6208  0.1258  1.0868
 6337SOL    HW230471   3.111   2.961   4.042 -1.2210 -1.9432 -1.4342
 6338SOL     OW30472   2.223   4.209  11.236  0.3140  0.2235 -0.0884
 6338SOL    HW130473   2.141   4.254  11.217  0.6882  0.2108 -1.6932
 6338SOL    HW230474   2.243   4.189  11.145  0.6915  1.8997 -0.3843
 6339SOL     OW30475   2.230   2.591   6.723  0.0026  0.3962  0.1426
 6339SOL    HW130476   2.287   2.548   6.786 -1.7848 -3.4849 -0.8849
 6339SOL    HW230477   2.170   2.632   6.786 -0.8321  0.4868 -0.7072
 6340SOL     OW30478   4.701   1.059  14.063 -0.4179  0.1529  0.6836
 6340SOL    HW130479   0.019   1.035  14.146  0.1047  2.3552  1.0520
 6340SOL    HW230480   0.022   1.139  14.036 -2.1715  0.3630 -1.6447
 6341SOL     OW30481   2.279   2.223   7.618 -0.3136  0.5281 -0.6925
 6341SOL    HW130482   2.337   2.189   7.686 -2.9611  1.3840  1.9525
 6341SOL    HW230483   2.351   2.225   7.554 -0.8584 -0.9618 -1.3344
 6342SOL     OW30484   2.820   2.170   8.270 -0.5960  0.2214  0.2587
 6342SOL    HW130485   2.806   2.139   8.359 -1.7727 -1.1941 -0.4127
 6342SOL    HW230486   2.810   2.092   8.215  0.9872 -1.2545  2.1155
 6343SOL     OW30487   2.553   3.014  10.402 -0.2473 -0.0962 -0.5148
 6343SOL    HW130488   2.642   2.981  10.408 -0.2503  0.1511  0.9818
 6343SOL    HW230489   2.558   3.065  10.321 -0.2125  0.6838 -0.0182
 6344SOL     OW30490   0.190   3.764  16.382 -0.4038  0.2804  0.0431
 6344SOL    HW130491   0.196   3.851  16.420  0.9372 -0.4717  1.5450
 6344SOL    HW230492   0.284   3.745  16.375 -1.2022 -3.5047 -0.3446
 6345SOL     OW30493   0.846   1.207  11.868  0.1523 -0.4032  0.2589
 6345SOL    HW130494   0.845   1.192  11.962 -1.1675 -0.3950  0.2423
 6345SOL    HW230495   0.809   1.296  11.869  1.2104  0.0539 -1.1197
 6346SOL     OW30496   3.221   1.342   4.258  0.0286 -0.6333  0.3258
 6346SOL    HW130497   3.190   1.417   4.309 -1.1464 -0.4817 -0.6057
 6346SOL    HW230498   3.308   1.333   4.296  0.4970 -0.2299 -0.6639
 6347SOL     OW30499   0.651   2.694   3.473 -0.0206  0.7256  0.3656
 6347SOL    HW130500   0.614   2.743   3.399  0.9346  0.9957  0.0705
 6347SOL    HW230501   0.654   2.765   3.538  1.3735 -1.3796  2.6105
 6348SOL     OW30502   3.727   1.135  17.091  0.2915 -0.5989 -0.1522
 6348SOL    HW130503   3.699   1.221  17.061 -1.0846 -1.0421 -0.1546
 6348SOL    HW230504   3.799   1.145  17.153  0.3006  0.3635 -0.3231
 6349SOL     OW30505   1.761   1.330  15.610  0.3547 -0.3091 -0.1595
 6349SOL    HW130506   1.813   1.353  15.533 -1.0535 -0.1745 -1.0820
 6349SOL    HW230507   1.795   1.397  15.669 -0.4694  0.1960 -0.2422
 6350SOL     OW30508   3.882   4.503   6.269 -0.3844  0.5922  0.3713
 6350SOL    HW130509   3.845   4.566   6.331 -2.1588 -1.9932  1.9106
 6350SOL    HW230510   3.814   4.436   6.274 -1.1996  1.4187  0.2881
 6351SOL     OW30511   1.236   1.005   1.010 -0.4229 -0.4655 -0.7421
 6351SOL    HW130512   1.269   1.077   1.064 -0.6417 -0.8521 -0.1030
 6351SOL    HW230513   1.171   0.964   1.067  1.0533 -0.5045  0.9214
 6352SOL     OW30514   0.014   1.250   7.979  0.1565  0.2566 -0.3047
 6352SOL    HW130515   0.079   1.217   8.041 -0.5131  1.6619  1.1237
 6352SOL    HW230516   4.654   1.222   8.015 -0.1315  0.5229 -0.7730
 6353SOL     OW30517   4.394   2.597   4.968 -0.1759 -0.0283  0.2272
 6353SOL    HW130518   4.436   2.583   5.054  0.3215 -1.9733 -0.3277
 6353SOL    HW230519   4.327   2.663   4.982 -0.2075  0.4250 -2.1872
 6354SOL     OW30520   2.454   1.948   9.178 -0.2549  0.1094 -0.5029
 6354SOL    HW130521   2.446   1.861   9.215  0.3987  0.9235  1.5531
 6354SOL    HW230522   2.360   1.969   9.173 -0.7369 -1.5871  1.4121
 6355SOL     OW30523   0.263   2.326   4.261  0.5899  0.4071  0.2084
 6355SOL    HW130524   0.347   2.280   4.254  1.5617  1.9304  1.9365
 6355SOL    HW230525   0.265   2.392   4.192  0.9342 -1.0318 -1.1735
 6356SOL     OW30526   1.215   1.981   7.605  0.3595 -0.2106  0.2039
 6356SOL    HW130527   1.232   1.970   7.699 -0.9842 -0.5464  0.4069
 6356SOL    HW230528   1.128   1.942   7.610  0.7715 -0.8545  2.4415
 6357SOL     OW30529   4.540   3.789   2.284  0.1896 -0.2133  0.1155
 6357SOL    HW130530   4.512   3.804   2.193  1.6919 -0.3760 -0.3655
 6357SOL    HW230531   4.519   3.874   2.323 -2.3993 -0.5370 -0.5409
 6358SOL     OW30532   0.275   3.302  14.250  0.2621  0.0928  0.1218
 6358SOL    HW130533   0.366   3.308  14.277  0.5008  0.8758 -0.8743
 6358SOL    HW230534   0.308   3.245  14.180  0.6105 -0.0347  0.3950
 6359SOL     OW30535   2.120   4.632   3.692  0.2109 -0.1883 -0.4100
 6359SOL    HW130536   2.032   4.603   3.668  0.3822 -1.3021  0.2918
 6359SOL    HW230537   2.091   4.703   3.751 -1.1164 -1.4606  0.4783
 6360SOL     OW30538   4.000   0.863   3.708 -0.2179  0.0780  0.0716
 6360SOL    HW130539   3.972   0.886   3.620  0.2683  0.0437 -0.0938
 6360SOL    HW230540   3.937   0.796   3.734 -0.8363 -0.4371 -2.8276
 6361SOL     OW30541   1.768   0.995   0.433 -0.2306 -0.0871  0.0629
 6361SOL    HW130542   1.840   1.057   0.426 -0.1970 -0.2787 -1.1897
 6361SOL    HW230543   1.728   1.016   0.349  0.5613 -0.2520 -0.3592
 6362SOL     OW30544   2.303   2.787   5.444  0.2443  0.4774  0.4140
 6362SOL    HW130545   2.330   2.856   5.384  0.0499  0.3283  0.1543
 6362SOL    HW230546   2.208   2.801   5.438 -0.1281 -1.0611  2.4484
 6363SOL     OW30547   2.444   0.594  14.739  0.1485 -0.4125 -1.0079
 6363SOL    HW130548   2.465   0.583  14.832 -0.8896  1.4468 -0.5543
 6363SOL    HW230549   2.399   0.512  14.719 -1.7753  0.2628  0.6158
 6364SOL     OW30550   2.420   2.892   9.384 -0.4410 -0.1518  0.1611
 6364SOL    HW130551   2.513   2.868   9.390 -0.6064 -1.4394 -2.4462
 6364SOL    HW230552   2.392   2.854   9.467  1.5098 -0.0371  0.8879
 6365SOL     OW30553   4.620   2.140  13.780 -0.5032 -0.3743  0.2484
 6365SOL    HW130554   4.571   2.184  13.850  0.6151  0.3531  0.5797
 6365SOL    HW230555   4.629   2.216  13.723  1.0827  0.3911  1.5021
 6366SOL     OW30556   1.593   1.748  16.814  0.6194  0.8188  0.3672
 6366SOL    HW130557   1.529   1.814  16.843  1.1403  1.1039  0.8769
 6366SOL    HW230558   1.577   1.759  16.721 -0.8752  1.4601  0.6905
 6367SOL     OW30559   4.232   0.697   1.193  0.5252  0.4919 -0.1115
 6367SOL    HW130560   4.178   0.702   1.272  2.6989  0.6943  1.3752
 6367SOL    HW230561   4.214   0.778   1.146 -1.3390  0.1316  0.0143
 6368SOL     OW30562   0.015   4.627   8.412 -0.4759  0.4890  0.4841
 6368SOL    HW130563   0.058   4.592   8.334  1.1634  2.2632  0.5838
 6368SOL    HW230564   0.066   4.580   8.477 -0.3851  2.0924  1.5749
 6369SOL     OW30565   1.570   1.197   7.191 -0.1837  0.2053 -0.2470
 6369SOL    HW130566   1.567   1.275   7.135 -0.0657  0.7334  0.4738
 6369SOL    HW230567   1.478   1.179   7.210 -0.6084 -0.3482 -2.8358
 6370SOL     OW30568   0.933   4.395  10.733 -0.1237  0.2365  0.1573
 6370SOL    HW130569   0.932   4.405  10.828  1.0956  0.7327  0.1230
 6370SOL    HW230570   1.027   4.374  10.731 -0.7949 -2.5645 -1.4027
 6371SOL     OW30571   1.805   1.465   8.037 -0.1229  0.0624  0.5933
 6371SOL    HW130572   1.773   1.385   7.996  0.3022 -0.1330  0.6443
 6371SOL    HW230573   1.761   1.472   8.121  0.0619 -0.4747  0.7364
 6372SOL     OW30574   2.563   0.547   7.242  0.2842  0.2487  0.1251
 6372SOL    HW130575   2.619   0.484   7.287  0.1107  0.2867  0.3923
 6372SOL    HW230576   2.602   0.625   7.282  0.2076 -0.2246  1.1185
 6373SOL     OW30577   2.801   4.167   9.927 -0.1848 -0.4734 -0.0533
 6373SOL    HW130578   2.839   4.247   9.964  3.0921 -2.6554  1.2438
 6373SOL    HW230579   2.882   4.143   9.883  0.8777  0.3580  1.4494
 6374SOL     OW30580   2.467   3.598   6.809 -0.2168 -0.8329  0.1419
 6374SOL    HW130581   2.428   3.510   6.815  0.5110 -1.1652 -0.0227
 6374SOL    HW230582   2.399   3.638   6.755  2.6923  0.0648 -2.8271
 6375SOL     OW30583   1.250   2.204   6.870  0.2850 -0.3811 -0.1667
 6375SOL    HW130584   1.247   2.159   6.955  2.1649 -1.4057 -0.6619
 6375SOL    HW230585   1.339   2.226   6.844  1.4956 -3.7404  1.0741
 6376SOL     OW30586   2.051   1.707   5.897 -0.2297  0.5257  0.1941
 6376SOL    HW130587   2.045   1.711   5.992  1.9091  1.0314  0.2986
 6376SOL    HW230588   2.110   1.781   5.884 -1.7744  1.6867 -0.2904
 6377SOL     OW30589   2.117   1.761   8.937  0.5950  0.8608 -0.0920
 6377SOL    HW130590   2.186   1.738   8.999 -1.4127 -0.6232  1.5576
 6377SOL    HW230591   2.041   1.786   8.988 -0.7462  0.8560 -2.0768
 6378SOL     OW30592   2.735   2.043   7.592  0.1466 -0.1028  0.2964
 6378SOL    HW130593   2.694   1.960   7.567 -1.0109  0.2412  1.0644
 6378SOL    HW230594   2.757   2.023   7.683  0.2193 -0.5793  0.1753
 6379SOL     OW30595   4.078   1.807  16.495 -0.0282  0.2233  0.0232
 6379SOL    HW130596   4.116   1.725  16.528 -0.7938 -0.1354  0.0278
 6379SOL    HW230597   4.021   1.758  16.435 -1.3347  0.7796  0.8116
 6380SOL     OW30598   4.649   0.536   3.225 -0.4610 -0.2965  0.0233
 6380SOL    HW130599   4.669   0.629   3.235  1.4818 -0.8645  1.3986
 6380SOL    HW230600   0.009   0.498   3.250  0.5204  0.2045 -2.5126
 6381SOL     OW30601   2.496   0.213   4.885 -0.0550 -0.1432 -0.2854
 6381SOL    HW130602   2.428   0.175   4.941 -1.4721  2.1482 -0.4463
 6381SOL    HW230603   2.546   0.269   4.944  2.0153 -2.5646  0.2751
 6382SOL     OW30604   2.656   0.789   9.308 -0.5799  0.1426  0.0620
 6382SOL    HW130605   2.688   0.717   9.254 -1.1246  1.9877 -2.6875
 6382SOL    HW230606   2.710   0.774   9.386 -1.5607 -0.5464  0.6160
 6383SOL     OW30607   2.818   1.243   5.719  0.3274  0.8474 -0.3703
 6383SOL    HW130608   2.752   1.227   5.786  0.0594 -0.1914 -0.8751
 6383SOL    HW230609   2.758   1.250   5.644 -0.2232  0.5170  0.0443
 6384SOL     OW30610   2.342   3.907   5.719 -0.2044 -0.1465 -0.8197
 6384SOL    HW130611   2.279   3.925   5.789  1.1074 -1.5624  0.7370
 6384SOL    HW230612   2.381   3.995   5.720 -1.1045  0.2669 -2.8532
 6385SOL     OW30613   3.499   2.725  12.872  0.4143  0.3370  0.3354
 6385SOL    HW130614   3.585   2.731  12.831 -0.0246 -1.8005 -0.9239
 6385SOL    HW230615   3.431   2.729  12.805 -0.2508  0.8417  1.0502
 6386SOL     OW30616   1.924   1.778   0.637  0.1642  0.1977  0.4199
 6386SOL    HW130617   1.891   1.695   0.602 -0.0399  0.3203  0.3171
 6386SOL    HW230618   1.900   1.769   0.729 -0.3179 -0.5202  0.2246
 6387SOL     OW30619   4.438   4.445   8.470 -0.6448  0.3470  0.2856
 6387SOL    HW130620   4.352   4.473   8.438 -0.2643 -0.6331 -1.5624
 6387SOL    HW230621   4.503   4.510   8.444 -0.3002  0.1544  0.6611
 6388SOL     OW30622   1.677   3.461   2.570  0.0054  0.3422 -0.3299
 6388SOL    HW130623   1.756   3.413   2.548 -0.4068 -0.7096  0.4922
 6388SOL    HW230624   1.663   3.427   2.658 -2.3066  1.3162 -0.3151
 6389SOL     OW30625   2.412   4.228   8.463 -0.1914  0.0339  0.6605
 6389SOL    HW130626   2.380   4.152   8.414  0.6201  1.8006 -2.6428
 6389SOL    HW230627   2.341   4.292   8.457  0.1632  0.4465  0.9024
 6390SOL     OW30628   3.306   0.747  17.591 -0.1904 -0.2485 -0.4333
 6390SOL    HW130629   3.341   0.676  17.645  0.8082 -1.0562 -2.1342
 6390SOL    HW230630   3.295   0.818  17.655  2.3218  0.7510 -1.1182
 6391SOL     OW30631   3.120   0.746   9.450 -0.2802  0.1936  0.0078
 6391SOL    HW130632   3.140   0.775   9.539  0.5316 -0.8164  0.1447
 6391SOL    HW230633   3.185   0.676   9.451  0.7791  1.1828 -0.1944
 6392SOL     OW30634   2.052   3.876   1.764  0.5744 -0.8074 -0.1925
 6392SOL    HW130635   2.117   3.806   1.773  0.4887 -0.9137 -0.3822
 6392SOL    HW230636   2.092   3.940   1.704  1.2324 -0.1725  0.9208
 6393SOL     OW30637   2.659   0.347  16.239 -0.3619 -0.0929 -0.0316
 6393SOL    HW130638   2.681   0.284  16.170  0.5971  1.4615 -1.1440
 6393SOL    HW230639   2.649   0.427  16.188 -0.0704  0.6928  1.1317
 6394SOL     OW30640   0.364   4.605   7.125 -0.2708  0.5120 -0.8694
 6394SOL    HW130641   0.411   4.523   7.115 -2.1949 -0.8624  1.3205
 6394SOL    HW230642   0.428   4.648   7.182 -0.1229 -2.0115  0.8772
 6395SOL     OW30643   4.133   3.642   9.719 -0.4812  0.0170  0.7471
 6395SOL    HW130644   4.120   3.735   9.736 -0.3765 -0.0771  1.3407
 6395SOL    HW230645   4.214   3.632   9.769  0.0462 -0.3224 -0.1797
 6396SOL     OW30646   3.784   3.432  12.170  0.0878  0.4131 -0.7108
 6396SOL    HW130647   3.733   3.467  12.244 -0.8052 -0.0518 -1.0968
 6396SOL    HW230648   3.808   3.349  12.213  0.6876 -0.2578 -2.3686
 6397SOL     OW30649   2.138   2.840  10.632 -0.0320  0.0024  0.0355
 6397SOL    HW130650   2.057   2.839  10.581 -0.9928 -1.4454  1.6082
 6397SOL    HW230651   2.122   2.922  10.679 -0.6220 -0.2042  0.2021
 6398SOL     OW30652   3.456   2.267   8.044 -0.0424 -0.0814 -0.6433
 6398SOL    HW130653   3.492   2.309   7.967  0.3462  0.5314 -0.1315
 6398SOL    HW230654   3.442   2.173   8.033  1.9812 -0.1431 -2.4809
 6399SOL     OW30655   3.467   0.388   9.964  0.3220 -0.3112  0.0893
 6399SOL    HW130656   3.545   0.427   9.926 -1.2527  1.6139 -1.1547
 6399SOL    HW230657   3.418   0.461  10.003 -1.5123 -0.2971 -2.2509
 6400SOL     OW30658   1.023   2.050   6.037 -0.2535 -0.5998  0.0511
 6400SOL    HW130659   0.981   2.121   5.988 -1.8324 -0.2262  1.9385
 6400SOL    HW230660   0.959   2.043   6.108 -2.1183 -0.8663 -1.6497
 6401SOL     OW30661   3.664   0.772   2.714  0.2642 -0.1819  0.5022
 6401SOL    HW130662   3.719   0.695   2.730 -0.8653 -1.0139  0.3846
 6401SOL    HW230663   3.605   0.734   2.649  0.3179  3.4688 -1.6650
 6402SOL     OW30664   1.987   1.068   5.902  0.2061  0.2348  0.0689
 6402SOL    HW130665   1.919   1.055   5.836 -0.5767 -1.1581  1.1854
 6402SOL    HW230666   1.939   1.114   5.971 -1.1501  0.1979 -0.8416
 6403SOL     OW30667   3.482   1.281   2.775  0.2075  0.7735  0.3019
 6403SOL    HW130668   3.521   1.195   2.792 -0.1291  0.4314 -0.6300
 6403SOL    HW230669   3.399   1.266   2.730 -1.4382 -0.3670  3.7572
 6404SOL     OW30670   0.182   0.580   8.451 -0.1527  0.5143 -0.2316
 6404SOL    HW130671   0.239   0.630   8.510  0.7221 -2.4291  1.4268
 6404SOL    HW230672   0.124   0.651   8.423  0.3224 -0.4224 -3.5151
 6405SOL     OW30673   4.446   1.073   2.254 -0.2513  0.1216 -0.2359
 6405SOL    HW130674   4.488   0.989   2.237  0.8217  0.3875  1.0856
 6405SOL    HW230675   4.356   1.067   2.223  0.1388 -1.1310 -1.1506
 6406SOL     OW30676   1.550   2.896  17.221 -0.4801  0.0033 -0.1252
 6406SOL    HW130677   1.561   2.927  17.311  0.5469 -2.8361  0.7523
 6406SOL    HW230678   1.625   2.945  17.189  0.3751 -1.5751 -0.5605
 6407SOL     OW30679   0.442   1.609  13.473 -0.0746 -1.1707  0.1936
 6407SOL    HW130680   0.443   1.693  13.518  0.7435  0.6649 -3.2452
 6407SOL    HW230681   0.505   1.626  13.403  1.2053  2.4174  2.1942
 6408SOL     OW30682   1.950   1.018   6.749 -0.0076  0.2573  0.0947
 6408SOL    HW130683   2.022   1.009   6.812 -1.2430  2.9245  1.9131
 6408SOL    HW230684   1.882   1.042   6.811 -1.8207 -2.2504 -0.9731
 6409SOL     OW30685   3.127   1.955  16.500  0.3841  0.1217  0.5417
 6409SOL    HW130686   3.124   2.049  16.520  0.3965 -0.0929  1.5340
 6409SOL    HW230687   3.127   1.953  16.404  0.0885 -1.4202  0.5899
 6410SOL     OW30688   2.378   1.685  12.993 -0.4265 -0.6774 -0.4353
 6410SOL    HW130689   2.297   1.697  13.043 -0.9702 -2.4676 -0.8596
 6410SOL    HW230690   2.364   1.595  12.961 -2.7988 -1.2402  2.1696
 6411SOL     OW30691   2.569   0.722   5.591  0.4236 -0.3388 -0.2391
 6411SOL    HW130692   2.662   0.716   5.612  0.4999  1.9296  0.0405
 6411SOL    HW230693   2.548   0.791   5.654  0.8631  0.2649 -0.7475
 6412SOL     OW30694   3.513   0.870   5.257 -0.5689 -0.1029  0.1002
 6412SOL    HW130695   3.495   0.964   5.261  0.8916  0.2206 -0.9734
 6412SOL    HW230696   3.607   0.862   5.245 -0.4671 -1.7297  2.0512
 6413SOL     OW30697   2.133   1.816   2.536 -0.0654  0.0321  0.3554
 6413SOL    HW130698   2.090   1.898   2.515 -1.8127 -0.8769  0.3823
 6413SOL    HW230699   2.215   1.823   2.486 -0.8399  1.8780 -0.6530
 6414SOL     OW30700   1.807   4.076  13.814 -0.2949 -0.2644  0.1251
 6414SOL    HW130701   1.774   3.992  13.783 -1.7012 -0.1987  1.4198
 6414SOL    HW230702   1.865   4.061  13.888 -1.8473 -1.4874  1.1079
 6415SOL     OW30703   2.235   3.144  12.029 -0.7061  0.2132  0.4516
 6415SOL    HW130704   2.164   3.101  11.982  0.5179 -1.6571  0.3236
 6415SOL    HW230705   2.182   3.191  12.094 -0.0504 -1.9088  2.5172
 6416SOL     OW30706   4.172   2.143   3.519 -0.2746 -0.3578 -0.3135
 6416SOL    HW130707   4.092   2.193   3.533 -0.8032 -0.8476 -1.5818
 6416SOL    HW230708   4.222   2.217   3.485  0.0216 -0.8117 -0.8834
 6417SOL     OW30709   3.180   1.004   5.673 -0.3579  0.2268  0.7184
 6417SOL    HW130710   3.202   1.034   5.762 -0.4884  2.9461 -0.1458
 6417SOL    HW230711   3.147   1.080   5.625 -2.3193 -0.7014  0.5925
 6418SOL     OW30712   3.705   1.307   5.404  0.3793 -0.5483  0.2929
 6418SOL    HW130713   3.725   1.218   5.375 -0.0157 -0.9163  1.1713
 6418SOL    HW230714   3.751   1.309   5.488  2.3509 -0.3118 -0.7907
 6419SOL     OW30715   2.144   2.360   3.556 -0.2746 -0.9522  0.1283
 6419SOL    HW130716   2.068   2.352   3.613 -0.4218  0.4100  0.1290
 6419SOL    HW230717   2.100   2.376   3.472 -1.2538  1.7963  1.1733
 6420SOL     OW30718   4.701   4.314   3.571 -0.2497 -0.0921 -0.2400
 6420SOL    HW130719   0.033   4.297   3.495  0.3676  0.4145  0.1030
 6420SOL    HW230720   0.031   4.273   3.638 -0.4923  0.4652  0.2919
 6421SOL     OW30721   3.919   4.415   3.282 -0.1941  0.3330 -0.8113
 6421SOL    HW130722   3.943   4.426   3.374 -2.3216  1.8325 -0.4216
 6421SOL    HW230723   3.858   4.487   3.266  1.7643  2.3181  0.6010
 6422SOL     OW30724   3.182   0.275   6.522  0.1274 -0.0978  0.6648
 6422SOL    HW130725   3.206   0.204   6.582  2.3728  1.4000  1.5521
 6422SOL    HW230726   3.180   0.227   6.440 -0.1988  0.5260  0.3076
 6423SOL     OW30727   0.771   0.031   9.746  0.1255  0.7277 -0.3474
 6423SOL    HW130728   0.835   4.693   9.780 -0.3124 -0.0482 -0.9278
 6423SOL    HW230729   0.750   0.077   9.827 -0.8346 -0.7409  0.2471
 6424SOL     OW30730   0.588   2.366  10.219 -0.0334 -0.0932 -0.5526
 6424SOL    HW130731   0.581   2.456  10.189 -0.9664 -0.5531 -1.7097
 6424SOL    HW230732   0.621   2.319  10.141 -2.2467  0.4834 -1.8346
 6425SOL     OW30733   3.782   0.501   6.349 -0.1838  0.0771  0.3758
 6425SOL    HW130734   3.787   0.406   6.342  1.3196  0.4002 -2.8176
 6425SOL    HW230735   3.873   0.524   6.329 -0.2915  0.2506  0.0863
 6426SOL     OW30736   3.830   2.080   8.061  0.2360  0.3759 -0.2693
 6426SOL    HW130737   3.830   2.049   7.971  1.6123 -1.0790  0.2302
 6426SOL    HW230738   3.785   2.006   8.102 -0.5528  1.1431  0.2558
 6427SOL     OW30739   0.016   1.583   1.816  0.4367 -0.4424 -0.2357
 6427SOL    HW130740   0.101   1.624   1.798  1.1687 -0.8656  2.2315
 6427SOL    HW230741   4.689   1.661   1.838 -0.7808 -0.3633 -3.4329
 6428SOL     OW30742   1.878   2.212   5.068 -0.6699 -0.2101  0.9283
 6428SOL    HW130743   1.948   2.277   5.075 -1.4777  0.4102  3.3934
 6428SOL    HW230744   1.846   2.237   4.981  2.7282 -0.0184 -0.2488
 6429SOL     OW30745   1.433   1.832   4.427  0.6813 -0.7449 -0.1857
 6429SOL    HW130746   1.370   1.903   4.440 -0.1065 -1.6625  1.0023
 6429SOL    HW230747   1.396   1.782   4.355 -0.5993  0.5116 -0.4006
 6430SOL     OW30748   2.354   3.249   4.829  0.1546  0.8726 -0.3747
 6430SOL    HW130749   2.437   3.294   4.822  0.5284  0.2969  0.3389
 6430SOL    HW230750   2.317   3.281   4.747 -1.0458 -2.2909 -1.0929
 6431SOL     OW30751   2.422   3.653  11.797 -0.5853 -0.3745 -0.3149
 6431SOL    HW130752   2.512   3.632  11.820  0.0513  1.7592 -0.8495
 6431SOL    HW230753   2.375   3.570  11.801  1.1739 -1.2867  1.2361
 6432SOL     OW30754   1.927   0.138   3.858 -0.1175 -0.6128  0.0209
 6432SOL    HW130755   1.926   0.165   3.766  0.5430 -0.9024 -0.0748
 6432SOL    HW230756   1.930   0.227   3.892  1.1472 -0.2624 -0.9930
 6433SOL     OW30757   2.789   0.268   7.135  1.0000  0.5508  0.0444
 6433SOL    HW130758   2.798   0.360   7.158  0.9477  0.3400  0.9046
 6433SOL    HW230759   2.788   0.274   7.040 -1.2313 -0.0727  0.0339
 6434SOL     OW30760   3.328   2.404   8.248  0.4242  0.0102  0.1014
 6434SOL    HW130761   3.383   2.355   8.187 -0.1010 -0.1876 -0.2138
 6434SOL    HW230762   3.247   2.353   8.251  1.3465 -1.3977  0.9400
 6435SOL     OW30763   0.756   0.717   3.073 -0.3422 -0.7439  0.5708
 6435SOL    HW130764   0.782   0.739   2.984 -2.1035 -1.3192 -0.0835
 6435SOL    HW230765   0.694   0.645   3.060  0.0449 -1.0058  0.1612
 6436SOL     OW30766   1.611   4.083  12.829 -0.4432 -0.7826 -0.3844
 6436SOL    HW130767   1.670   4.077  12.903  0.1816 -1.6502 -0.9546
 6436SOL    HW230768   1.599   3.993  12.798  1.3091 -0.6970 -1.3056
 6437SOL     OW30769   4.412   2.011   6.999  0.2506  0.4730  0.4165
 6437SOL    HW130770   4.467   1.941   6.963 -0.1133  0.5585 -0.3126
 6437SOL    HW230771   4.422   2.082   6.935 -0.0843 -0.2415 -0.4282
 6438SOL     OW30772   2.004   3.495   7.756 -0.4934 -0.1304  0.3871
 6438SOL    HW130773   2.081   3.534   7.715 -1.8985  0.5889 -1.6083
 6438SOL    HW230774   2.042   3.436   7.821  0.4603 -0.5217 -0.5207
 6439SOL     OW30775   4.182   1.265   5.688  0.9648 -0.2335  0.3578
 6439SOL    HW130776   4.167   1.259   5.783  0.0879  0.7165  0.2803
 6439SOL    HW230777   4.186   1.360   5.678 -1.5258 -0.0076  1.3722
 6440SOL     OW30778   3.873   0.255  16.368  0.8772 -0.0710 -0.3116
 6440SOL    HW130779   3.916   0.253  16.453 -1.2410  4.7925  0.9101
 6440SOL    HW230780   3.879   0.163  16.342  0.3202  0.0523 -0.8775
 6441SOL     OW30781   4.337   4.482   6.889  0.2217 -1.1538  0.4679
 6441SOL    HW130782   4.399   4.542   6.931  0.0697  0.3968 -1.5181
 6441SOL    HW230783   4.364   4.481   6.797 -0.1443 -0.4719  0.3512
 6442SOL     OW30784   0.514   0.794   4.177  0.5493 -0.5980  0.1463
 6442SOL    HW130785   0.602   0.816   4.148 -0.5182  2.2517 -0.9433
 6442SOL    HW230786   0.488   0.764   4.089 -0.0144 -1.4333  0.5978
 6443SOL     OW30787   0.914   4.027   2.999  0.0596  0.2074  0.8445
 6443SOL    HW130788   0.869   4.047   2.917  0.9611  0.8033  0.5037
 6443SOL    HW230789   0.874   3.944   3.027 -0.3927  0.7087  1.6684
 6444SOL     OW30790   2.331   1.615   7.225  0.2239  0.2414 -0.0146
 6444SOL    HW130791   2.324   1.621   7.320 -1.3128  0.5864 -0.1380
 6444SOL    HW230792   2.250   1.663   7.207  0.7018  1.1933  0.3673
 6445SOL     OW30793   1.706   4.050   2.202  0.1951 -0.1068  0.1141
 6445SOL    HW130794   1.655   4.002   2.137 -3.2732  1.8518  1.3692
 6445SOL    HW230795   1.758   4.104   2.142  1.8293 -2.4961 -0.6094
 6446SOL     OW30796   4.114   4.558   6.123  0.6005  0.3966 -0.3541
 6446SOL    HW130797   4.079   4.523   6.041  0.7351  1.9738 -1.0820
 6446SOL    HW230798   4.041   4.532   6.181 -0.5778 -0.8838 -2.4082
 6447SOL     OW30799   1.574   4.407  15.939  0.0634  1.0547 -0.1680
 6447SOL    HW130800   1.555   4.313  15.944  0.5079  0.9822  0.1266
 6447SOL    HW230801   1.497   4.447  15.899 -0.3935 -0.6149 -0.9755
 6448SOL     OW30802   0.555   2.910   5.599  0.1648  0.5619  1.1149
 6448SOL    HW130803   0.622   2.976   5.616  1.3829 -0.5652  0.6069
 6448SOL    HW230804   0.593   2.865   5.524  0.7082  0.2460  1.5837
 6449SOL     OW30805   2.794   3.405  10.560 -0.5067 -0.0646 -0.1225
 6449SOL    HW130806   2.708   3.371  10.584  0.5259 -1.6499  1.3270
 6449SOL    HW230807   2.835   3.319  10.559 -1.0744 -0.3211 -1.2399
 6450SOL     OW30808   3.930   1.454   0.865  0.0154 -0.1983 -0.0492
 6450SOL    HW130809   3.844   1.471   0.902  0.1772  3.1532 -1.1909
 6450SOL    HW230810   3.970   1.537   0.890 -0.5117  0.1188 -0.2722
 6451SOL     OW30811   2.499   3.392   3.100  0.2116  0.5060  0.0069
 6451SOL    HW130812   2.486   3.433   3.185  0.8168 -0.4021  0.5447
 6451SOL    HW230813   2.444   3.451   3.049 -0.9200 -0.6238 -0.1038
 6452SOL     OW30814   3.649   3.932   4.315 -0.7423  0.2379 -0.4934
 6452SOL    HW130815   3.573   3.956   4.263 -0.4736  1.0020 -0.5348
 6452SOL    HW230816   3.670   3.848   4.275 -1.4407 -1.5483  2.8512
 6453SOL     OW30817   2.333   1.421   3.237 -0.3077 -0.0495 -0.4537
 6453SOL    HW130818   2.282   1.428   3.156  1.6243  1.0825 -1.5773
 6453SOL    HW230819   2.266   1.399   3.301 -1.3949  0.3881 -1.4276
 6454SOL     OW30820   1.080   2.206   4.043  0.6368 -0.4283 -0.0468
 6454SOL    HW130821   1.122   2.129   4.081  1.5143 -1.7009 -3.6355
 6454SOL    HW230822   1.040   2.235   4.125  0.7175  0.7429 -0.4280
 6455SOL     OW30823   3.711   1.883   2.230  0.2630  0.1281 -0.2464
 6455SOL    HW130824   3.618   1.893   2.251  0.5968 -0.2142  1.3457
 6455SOL    HW230825   3.725   1.798   2.271  1.3414  1.1103  1.3694
 6456SOL     OW30826   3.443   0.647   5.178  0.8175  0.0260 -0.9399
 6456SOL    HW130827   3.477   0.735   5.196  2.5018 -0.7573 -0.3169
 6456SOL    HW230828   3.354   0.675   5.154 -0.2667 -3.0370 -0.4746
 6457SOL     OW30829   2.706   0.460   2.178 -0.3627  0.2249  0.5261
 6457SOL    HW130830   2.722   0.447   2.084 -0.7318  0.8159  0.3786
 6457SOL    HW230831   2.788   0.439   2.221  0.7600 -1.6343 -2.5729
 6458SOL     OW30832   0.766   4.656   8.006 -0.1863 -0.1256  0.1937
 6458SOL    HW130833   0.858   4.630   7.996 -0.6498 -1.3962 -0.8907
 6458SOL    HW230834   0.728   4.593   7.945 -0.6604  1.0272 -0.6951
 6459SOL     OW30835   1.971   3.682   3.048  0.8461 -0.2263 -0.0097
 6459SOL    HW130836   1.986   3.777   3.051 -2.6957  0.3667 -1.1888
 6459SOL    HW230837   2.032   3.652   3.115 -0.1389  0.6162  1.2686
 6460SOL     OW30838   3.168   3.614   8.384  0.7252 -0.2997  0.2194
 6460SOL    HW130839   3.136   3.589   8.297 -2.4386 -1.3237  1.6814
 6460SOL    HW230840   3.092   3.657   8.423  0.8232 -0.6311  0.7751
 6461SOL     OW30841   2.304   0.941   5.795 -0.2255  0.2618 -0.4640
 6461SOL    HW130842   2.279   0.860   5.839 -1.5587  1.0921  0.2872
 6461SOL    HW230843   2.398   0.930   5.809 -0.2114  2.2749  1.0293
 6462SOL     OW30844   3.341   2.419   4.500 -0.5236 -0.3713 -0.8788
 6462SOL    HW130845   3.285   2.432   4.577 -0.3947 -0.4911 -0.7659
 6462SOL    HW230846   3.368   2.328   4.513 -0.7287 -0.9524 -4.6208
 6463SOL     OW30847   2.203   2.016   8.780 -0.3090 -0.1588  0.4510
 6463SOL    HW130848   2.269   1.983   8.719  0.7920  0.1224  1.4827
 6463SOL    HW230849   2.184   1.944   8.841  0.2592  0.7020  1.6333
 6464SOL     OW30850   0.416   3.792  14.407  0.2028 -0.4314  0.2300
 6464SOL    HW130851   0.388   3.851  14.477  0.3350  0.6196 -0.6104
 6464SOL    HW230852   0.504   3.769  14.437 -0.1751  1.5443  2.7670
 6465SOL     OW30853   4.467   2.629   2.718  0.2353 -0.1793  0.0771
 6465SOL    HW130854   4.529   2.650   2.788  0.4801 -1.1635  0.1541
 6465SOL    HW230855   4.515   2.664   2.643  0.7105 -0.0037  0.4561
 6466SOL     OW30856   3.819   1.548  10.020  1.0698 -0.0170  0.2742
 6466SOL    HW130857   3.827   1.507  10.106  1.2933  1.1430  0.8091
 6466SOL    HW230858   3.843   1.474   9.965  1.8787 -0.2898  1.0040
 6467SOL     OW30859   1.785   3.936   6.301  0.7001  0.0243  0.6488
 6467SOL    HW130860   1.801   4.022   6.341  1.0369  0.0807  0.3902
 6467SOL    HW230861   1.861   3.927   6.243  1.3395  1.1433  1.3130
 6468SOL     OW30862   3.288   1.077   3.607  0.5481  0.0892 -0.1519
 6468SOL    HW130863   3.347   1.002   3.597  0.1072 -0.3688  0.6639
 6468SOL    HW230864   3.287   1.110   3.517  1.3876  1.0999  0.2092
 6469SOL     OW30865   1.004   2.519   5.165 -0.7662  0.1061 -0.0187
 6469SOL    HW130866   1.042   2.437   5.135 -0.1453  0.5841 -0.5276
 6469SOL    HW230867   1.053   2.574   5.104  0.1940 -0.4045  0.3048
 6470SOL     OW30868   1.496   2.950   3.611 -0.3150  0.2293 -0.5193
 6470SOL    HW130869   1.529   2.902   3.535 -0.1198  0.9220 -0.8716
 6470SOL    HW230870   1.493   2.884   3.681  0.8629  0.2719 -0.4180
 6471SOL     OW30871   1.332   3.017   5.574  0.1194  0.3508  0.4358
 6471SOL    HW130872   1.388   3.071   5.630  1.2983 -0.8246  0.3578
 6471SOL    HW230873   1.388   2.946   5.542 -1.1726 -1.5797  2.4990
 6472SOL     OW30874   0.215   0.094   2.657  0.4282  0.4471 -0.4508
 6472SOL    HW130875   0.267   0.014   2.652  1.8519  1.3660 -0.0413
 6472SOL    HW230876   0.196   0.111   2.564  0.4834  2.1018 -0.1512
 6473SOL     OW30877   3.614   0.540   3.753 -0.4843 -0.1926 -0.0139
 6473SOL    HW130878   3.530   0.580   3.729 -0.8701  0.6553  2.6509
 6473SOL    HW230879   3.602   0.547   3.848  1.5763 -2.0172  0.3787
 6474SOL     OW30880   3.425   3.275   5.340 -0.0127 -0.1839 -0.4276
 6474SOL    HW130881   3.374   3.203   5.376  1.8482 -0.3438  1.8818
 6474SOL    HW230882   3.489   3.291   5.409 -0.4208 -1.0856  0.1662
 6475SOL     OW30883   1.152   0.943   0.432  0.1489  0.6571  0.0745
 6475SOL    HW130884   1.141   0.935   0.527  0.1216  1.8677  0.1761
 6475SOL    HW230885   1.173   0.853   0.410 -1.4479  0.0635  0.9569
 6476SOL     OW30886   0.003   0.182  15.431  0.0535  0.2448 -0.0143
 6476SOL    HW130887   4.674   0.256  15.400 -0.6248 -0.1922  0.1105
 6476SOL    HW230888   4.709   0.195  15.525  0.4070  2.9198 -0.3118
 6477SOL     OW30889   0.788   2.692   5.110 -0.1347  0.0380 -0.1677
 6477SOL    HW130890   0.868   2.654   5.076  0.5096 -0.3655  1.8092
 6477SOL    HW230891   0.753   2.626   5.170 -2.2712  0.5801 -0.8322
 6478SOL     OW30892   0.311   1.504   5.333  0.2866 -0.2964  0.3335
 6478SOL    HW130893   0.272   1.524   5.418  0.4508 -1.5785  0.7204
 6478SOL    HW230894   0.404   1.490   5.348  0.5006  0.8985  0.0848
 6479SOL     OW30895   2.020   2.238   8.098  0.0877 -0.0023 -0.2998
 6479SOL    HW130896   2.013   2.250   8.192  0.6095 -3.0343  0.1532
 6479SOL    HW230897   1.928   2.230   8.072 -0.0230 -0.6296  0.2904
 6480SOL     OW30898   2.006   3.731   5.496  0.2706 -0.3651  0.3129
 6480SOL    HW130899   2.072   3.699   5.435 -0.0778 -1.2878  0.4232
 6480SOL    HW230900   2.047   3.813   5.525  0.9274 -0.0905 -1.3746
 6481SOL     OW30901   3.338   3.812   5.208  0.1814 -0.0203  1.0788
 6481SOL    HW130902   3.391   3.869   5.263  3.5491 -0.6269 -1.5364
 6481SOL    HW230903   3.369   3.732   5.252  1.7077  1.9784  3.6629
 6482SOL     OW30904   2.638   0.330   1.205  0.9074 -0.1384 -0.5333
 6482SOL    HW130905   2.649   0.416   1.246 -1.1171 -0.5727  0.9090
 6482SOL    HW230906   2.543   0.324   1.203  0.8272  0.1514  2.2259
 6483SOL     OW30907   1.546   0.127   8.407 -0.1090  0.4656  0.5730
 6483SOL    HW130908   1.495   0.049   8.429  0.3830 -0.2241 -0.7255
 6483SOL    HW230909   1.528   0.184   8.482 -0.6987  2.0565 -0.7689
 6484SOL     OW30910   3.691   2.987   0.842  0.3344  0.4182 -0.2202
 6484SOL    HW130911   3.634   3.035   0.782  0.0189 -2.4502 -2.2112
 6484SOL    HW230912   3.662   2.896   0.832 -0.3374  0.6093  0.0030
 6485SOL     OW30913   2.874   4.377  13.411 -0.3685 -0.5642  0.3227
 6485SOL    HW130914   2.904   4.466  13.398 -0.5892 -0.6468 -0.6955
 6485SOL    HW230915   2.833   4.357  13.327  0.6880 -0.2556 -0.2673
 6486SOL     OW30916   2.308   2.659   3.316 -0.5728  0.3638 -0.0700
 6486SOL    HW130917   2.337   2.710   3.391  2.6331 -1.7586  0.1754
 6486SOL    HW230918   2.299   2.722   3.244  0.2878  0.5548 -0.0102
 6487SOL     OW30919   3.773   0.980  10.224  0.4649  0.3122 -0.1471
 6487SOL    HW130920   3.744   1.034  10.298  0.4442 -2.0241  1.5320
 6487SOL    HW230921   3.860   0.955  10.255  0.7349  0.2948 -0.9291
 6488SOL     OW30922   1.735   3.056   5.753  0.3628 -0.6451  0.0860
 6488SOL    HW130923   1.651   3.079   5.794  0.2264 -0.3024 -0.3855
 6488SOL    HW230924   1.736   3.134   5.698  0.4601 -1.0308 -0.4521
 6489SOL     OW30925   2.105   0.252   5.232  0.0712 -0.4170  0.0999
 6489SOL    HW130926   2.062   0.294   5.158  0.8446 -0.0683 -0.1594
 6489SOL    HW230927   2.073   0.302   5.306 -0.2283  1.2451 -1.1500
 6490SOL     OW30928   0.217   1.536   7.741  0.0811 -0.3444  0.0551
 6490SOL    HW130929   0.300   1.572   7.772  0.1636 -1.8085  1.4771
 6490SOL    HW230930   0.179   1.610   7.693 -1.4851 -0.4648  1.1306
 6491SOL     OW30931   1.436   4.606   4.928 -0.2342  0.0130  0.4266
 6491SOL    HW130932   1.368   4.649   4.876  0.0249  0.3402  0.3551
 6491SOL    HW230933   1.517   4.605   4.878 -1.1230  1.5995 -1.0387
 6492SOL     OW30934   3.115   4.580   5.913  0.3451 -0.6643 -0.2061
 6492SOL    HW130935   3.180   4.647   5.893 -1.5515  1.5944  1.1079
 6492SOL    HW230936   3.075   4.624   5.988 -2.0106  0.3510 -2.0062
 6493SOL     OW30937   2.314   3.392   9.762  0.2034 -0.2350  0.0561
 6493SOL    HW130938   2.376   3.389   9.689  0.7027  3.0100  0.3572
 6493SOL    HW230939   2.292   3.299   9.765 -0.7899  0.0249  0.7050
 6494SOL     OW30940   0.804   4.624   6.512 -0.5488  0.0634 -0.5104
 6494SOL    HW130941   0.774   4.543   6.554  1.9325 -0.1452  0.8606
 6494SOL    HW230942   0.715   4.642   6.481 -0.8391  1.2748  1.0338
 6495SOL     OW30943   1.919   2.778  10.484  0.2145 -0.6570  0.7815
 6495SOL    HW130944   1.891   2.715  10.418  1.6195  0.4635 -0.8936
 6495SOL    HW230945   1.866   2.755  10.560  0.8122 -1.0993  1.0647
 6496SOL     OW30946   4.543   3.457  13.920 -0.1044 -0.1840 -0.4433
 6496SOL    HW130947   4.471   3.485  13.976 -1.1101 -0.7628 -1.4485
 6496SOL    HW230948   4.596   3.419  13.990  0.0975  0.3452 -0.3070
 6497SOL     OW30949   0.886   0.913   8.930 -0.5177 -0.2173  0.5865
 6497SOL    HW130950   0.867   1.002   8.901 -0.3020 -0.3472  0.0375
 6497SOL    HW230951   0.893   0.875   8.842  2.5433 -2.9510  1.9949
 6498SOL     OW30952   1.675   3.186   3.220  0.2771 -0.1078 -0.3262
 6498SOL    HW130953   1.689   3.274   3.256  0.7318  0.1788 -1.2061
 6498SOL    HW230954   1.762   3.148   3.234 -0.8709 -2.5774 -0.0103
 6499SOL     OW30955   2.923   4.563   2.298  0.2892 -0.3262  0.0748
 6499SOL    HW130956   2.827   4.571   2.302  0.4464  2.1435 -0.7466
 6499SOL    HW230957   2.935   4.482   2.348  0.0887  0.4468  1.3926
 6500SOL     OW30958   3.092   0.127   9.085 -0.4182  0.0091 -0.2920
 6500SOL    HW130959   3.147   0.048   9.089 -2.1436 -1.1467  0.3437
 6500SOL    HW230960   3.120   0.151   8.997 -1.6727 -0.6067 -0.8499
 6501SOL     OW30961   4.476   0.473  11.639 -0.0529 -0.0041  0.2038
 6501SOL    HW130962   4.534   0.548  11.629  2.7524 -1.6320  4.1020
 6501SOL    HW230963   4.400   0.509  11.593  1.4184  4.6123  1.3287
 6502SOL     OW30964   2.338   4.570   1.770 -0.0188  0.5552 -0.1716
 6502SOL    HW130965   2.262   4.585   1.713  1.0983 -0.8306 -2.0464
 6502SOL    HW230966   2.367   4.661   1.778  3.4458 -0.4219 -1.7351
 6503SOL     OW30967   0.161   3.691   4.817 -0.7663  0.5314 -0.4609
 6503SOL    HW130968   0.084   3.718   4.767 -2.1635 -0.8831  0.9313
 6503SOL    HW230969   0.175   3.777   4.857 -1.8759  0.4614  0.0663
 6504SOL     OW30970   3.806   1.336   1.233  0.3161  0.1293  0.1101
 6504SOL    HW130971   3.887   1.371   1.195 -1.8963  1.4299 -3.4452
 6504SOL    HW230972   3.749   1.407   1.203  1.5846  1.6933  1.4147
 6505SOL     OW30973   0.948   1.121   4.841  0.0927 -0.1667  0.1437
 6505SOL    HW130974   0.950   1.034   4.881 -1.5206 -0.7455 -1.0503
 6505SOL    HW230975   1.025   1.114   4.784  1.4354  1.2212  1.7611
 6506SOL     OW30976   1.695   4.108   7.510 -0.1528  0.5005 -0.1473
 6506SOL    HW130977   1.722   4.028   7.466  0.3303  1.5278 -1.7061
 6506SOL    HW230978   1.618   4.126   7.455 -0.2027 -1.8992 -0.8621
 6507SOL     OW30979   2.446   0.166   3.579  0.2750  0.7028 -0.0041
 6507SOL    HW130980   2.436   0.076   3.548  0.3418  0.7093 -0.0465
 6507SOL    HW230981   2.521   0.191   3.524  0.8412  0.2513  0.5707
 6508SOL     OW30982   2.166   2.621   2.706  0.0028 -0.3234  0.4646
 6508SOL    HW130983   2.110   2.618   2.628 -0.4887 -4.7130  0.9917
 6508SOL    HW230984   2.112   2.651   2.779 -1.9576  1.0164 -1.5407
 6509SOL     OW30985   0.753   1.596   3.013 -0.6131 -0.1189 -0.3054
 6509SOL    HW130986   0.763   1.641   2.929  2.6346 -0.2429 -0.0083
 6509SOL    HW230987   0.743   1.503   2.994 -1.1793 -0.2206  0.5024
 6510SOL     OW30988   1.331   3.006   7.015  0.4911  0.4502  0.0278
 6510SOL    HW130989   1.334   2.937   7.081  2.4063 -0.1659 -0.6879
 6510SOL    HW230990   1.332   3.086   7.068  0.4977 -0.8235  1.9238
 6511SOL     OW30991   1.998   2.069   2.517  0.2114  0.4456  0.0877
 6511SOL    HW130992   2.002   2.155   2.474 -1.3795  0.0287 -0.8890
 6511SOL    HW230993   2.051   2.084   2.595 -0.8978  2.7288  0.4325
 6512SOL     OW30994   1.438   2.475   2.480  0.3087 -0.5778 -0.9159
 6512SOL    HW130995   1.529   2.485   2.509 -0.6450  1.7885  1.2772
 6512SOL    HW230996   1.429   2.549   2.419  1.8111  1.0000  0.7501
 6513SOL     OW30997   3.525   4.629   2.703  0.4649 -0.2013  0.2514
 6513SOL    HW130998   3.467   4.647   2.777  0.0691  0.5129 -0.2334
 6513SOL    HW230999   3.471   4.581   2.641  0.3289 -1.0220  0.9998
 6514SOL     OW31000   2.133   1.173   1.294  0.1829 -0.0289 -0.0742
 6514SOL    HW131001   2.108   1.111   1.362 -0.6605 -2.0252 -2.1928
 6514SOL    HW231002   2.103   1.142   1.209 -0.9838 -0.5236  0.5243
 6515SOL     OW31003   1.507   3.121   3.019  0.1858  0.1337  0.1028
 6515SOL    HW131004   1.501   3.028   3.041  0.2849 -0.5918 -2.9248
 6515SOL    HW231005   1.574   3.145   3.082 -1.8879  0.6533  2.1066
 6516SOL     OW31006   4.445   3.728   2.954 -0.0153 -0.0759  0.4355
 6516SOL    HW131007   4.506   3.655   2.945 -0.9736 -0.6965 -1.0855
 6516SOL    HW231008   4.374   3.706   2.893  0.1121  1.3537 -0.2444
 6517SOL     OW31009   1.188   1.669   5.539  0.1431 -0.3574  0.2899
 6517SOL    HW131010   1.201   1.591   5.485 -1.4318 -0.4387  0.0393
 6517SOL    HW231011   1.221   1.636   5.623  1.3092  2.3682  0.9250
 6518SOL     OW31012   3.493   0.894   3.569 -0.3248  0.0041 -0.0955
 6518SOL    HW131013   3.535   0.815   3.603  1.8745  2.0817  2.0137
 6518SOL    HW231014   3.531   0.912   3.483  0.5800 -3.0456 -0.3266
 6519SOL     OW31015   1.901   1.915   9.000  0.1067  0.2092 -0.1524
 6519SOL    HW131016   1.834   1.938   9.064 -0.2463 -1.2791  0.0003
 6519SOL    HW231017   1.875   1.976   8.931  0.9071  0.4600 -0.2375
 6520SOL     OW31018   4.428   3.310   2.865  0.3425  0.2702 -0.1171
 6520SOL    HW131019   4.495   3.251   2.830 -1.3959  0.3802 -3.5773
 6520SOL    HW231020   4.492   3.369   2.905  0.3423 -0.0174  0.3051
 6521SOL     OW31021   0.673   2.353   8.980 -0.0915  0.7713 -0.1727
 6521SOL    HW131022   0.611   2.311   8.922  1.4141  1.5608 -2.3607
 6521SOL    HW231023   0.711   2.273   9.016 -0.6403  1.3998  1.7864
 6522SOL     OW31024   0.227   2.089   1.184  0.5014  0.5800 -0.0617
 6522SOL    HW131025   0.149   2.087   1.129  0.5495 -1.3477 -0.0743
 6522SOL    HW231026   0.295   2.057   1.124  1.0437  0.8268  0.4150
 6523SOL     OW31027   0.484   0.942   5.211 -0.1035  0.1090  0.1395
 6523SOL    HW131028   0.571   0.945   5.251 -0.4852 -0.9932  1.0729
 6523SOL    HW231029   0.451   1.030   5.222  1.0692  0.4682  0.8098
 6524SOL     OW31030   1.757   3.386   8.518 -0.1416  0.1612 -0.2276
 6524SOL    HW131031   1.711   3.415   8.597 -0.2728  1.5864 -0.8468
 6524SOL    HW231032   1.755   3.291   8.535  0.6240  0.8067  3.5371
 6525SOL     OW31033   2.730   3.193   3.698 -0.2064  0.2664 -0.0563
 6525SOL    HW131034   2.725   3.199   3.794 -1.8952 -1.4167 -0.0222
 6525SOL    HW231035   2.788   3.265   3.675  0.2904  0.0768  0.5897
 6526SOL     OW31036   3.457   4.332   3.438 -0.1626  0.3132 -0.1436
 6526SOL    HW131037   3.523   4.302   3.377 -1.2728 -0.0688 -1.1649
 6526SOL    HW231038   3.512   4.399   3.479 -0.6411  0.2891  0.5462
 6527SOL     OW31039   1.194   4.641   4.031 -0.5777  0.1017  0.1074
 6527SOL    HW131040   1.190   4.649   3.936  1.1536 -0.9800 -0.0691
 6527SOL    HW231041   1.290   4.641   4.042 -0.8502 -0.7320  2.5230
 6528SOL     OW31042   3.008   1.744   0.318  0.0998  0.0916 -0.7002
 6528SOL    HW131043   2.960   1.661   0.310 -0.5446  0.4115 -0.1560
 6528SOL    HW231044   2.963   1.776   0.396 -0.6760  0.5230 -1.3233
 6529SOL     OW31045   1.330   1.201   0.770 -0.6189 -0.4662  0.4563
 6529SOL    HW131046   1.404   1.260   0.756  0.1478 -0.8548  2.8989
 6529SOL    HW231047   1.256   1.259   0.754 -1.1802 -1.5387 -0.8798
 6530SOL     OW31048   0.822   3.875  15.587 -0.1696 -0.2186 -0.5808
 6530SOL    HW131049   0.760   3.857  15.658  0.9033  0.7040  0.5906
 6530SOL    HW231050   0.784   3.957  15.555  0.0133 -0.5443 -1.6437
 6531SOL     OW31051   4.364   2.529   2.088 -0.0390 -0.1143 -0.4953
 6531SOL    HW131052   4.383   2.484   2.006 -2.6686  0.8527 -1.6535
 6531SOL    HW231053   4.313   2.604   2.057 -2.6609 -2.8329 -2.7195
 6532SOL     OW31054   2.180   2.919  16.075  0.0947 -0.4292  0.1064
 6532SOL    HW131055   2.163   3.013  16.083 -0.3347 -0.4008 -1.3078
 6532SOL    HW231056   2.107   2.876  16.030 -0.8317  2.4917 -1.1577
 6533SOL     OW31057   1.002   3.001   3.839 -0.1769 -0.0666  0.5588
 6533SOL    HW131058   1.041   2.918   3.866 -1.8965 -0.7834  0.8123
 6533SOL    HW231059   0.920   3.011   3.887  0.2974 -1.2850  1.6464
 6534SOL     OW31060   1.708   3.468   3.291 -0.1442  0.1835 -0.5356
 6534SOL    HW131061   1.680   3.517   3.368  3.5770  0.3181  0.7355
 6534SOL    HW231062   1.690   3.534   3.223  2.6684  1.2104 -0.2579
 6535SOL     OW31063   4.025   1.157   8.603 -0.0263  0.0924 -0.2923
 6535SOL    HW131064   4.090   1.184   8.539  0.1053  2.6700  0.9339
 6535SOL    HW231065   3.966   1.233   8.605  0.2852  0.3505 -0.9838
 6536SOL     OW31066   2.644   4.157  17.482  0.1256 -0.1375  0.0529
 6536SOL    HW131067   2.644   4.095  17.409  0.6224 -0.4006  0.2776
 6536SOL    HW231068   2.671   4.098  17.552  1.6787  1.5347  0.8576
 6537SOL     OW31069   3.747   3.921   2.350 -0.3446  0.0942 -0.4646
 6537SOL    HW131070   3.745   3.942   2.256 -1.0731  1.1861 -0.2108
 6537SOL    HW231071   3.801   3.990   2.387 -0.3266 -0.9321  1.3887
 6538SOL     OW31072   1.278   2.045   4.139  0.2412 -0.3481  0.2309
 6538SOL    HW131073   1.361   2.090   4.128  0.0898  0.0406  0.6873
 6538SOL    HW231074   1.316   1.957   4.144 -1.3679 -1.1085 -0.8123
 6539SOL     OW31075   3.928   0.483  15.374  0.2786 -0.4567 -0.3538
 6539SOL    HW131076   4.014   0.451  15.402  1.0702 -1.4721 -3.9673
 6539SOL    HW231077   3.949   0.561  15.321 -1.1205  0.2156  0.0914
 6540SOL     OW31078   0.524   4.712   0.197  0.3320 -0.3632 -0.3228
 6540SOL    HW131079   0.609   0.024   0.174  0.4801 -0.4594  0.0871
 6540SOL    HW231080   0.543   4.663   0.277 -3.4188 -0.9295  0.2105
 6541SOL     OW31081   1.435   0.884  12.085  0.2080  0.5030 -0.0557
 6541SOL    HW131082   1.384   0.961  12.060 -0.3590 -0.1817 -0.9953
 6541SOL    HW231083   1.455   0.896  12.178  0.9425  1.2961 -0.3185
 6542SOL     OW31084   2.998   2.238  11.902 -0.0287 -0.0219 -0.6523
 6542SOL    HW131085   3.018   2.200  11.988  1.3267  0.7556 -0.6117
 6542SOL    HW231086   2.954   2.320  11.923 -1.1496 -0.4739 -1.2485
 6543SOL     OW31087   2.469   3.540   7.877  0.0143 -0.6938 -0.0310
 6543SOL    HW131088   2.517   3.620   7.901  1.0381 -1.2920 -0.0962
 6543SOL    HW231089   2.510   3.469   7.926  0.1912  1.3632  2.8473
 6544SOL     OW31090   1.092   4.166   3.103  0.6268 -0.0836  0.4461
 6544SOL    HW131091   1.053   4.249   3.079 -1.4213 -1.0092  0.6242
 6544SOL    HW231092   1.033   4.098   3.070 -1.8674  2.9421 -1.2068
 6545SOL     OW31093   2.870   1.507   5.402  0.2705 -0.0394  0.2771
 6545SOL    HW131094   2.835   1.421   5.380  2.5946 -0.9944  0.3355
 6545SOL    HW231095   2.948   1.488   5.455 -1.3996 -3.5505  1.4611
 6546SOL     OW31096   2.370   2.293  15.633 -0.5032  0.2244  0.4195
 6546SOL    HW131097   2.440   2.241  15.594  1.3169  2.2362  1.0217
 6546SOL    HW231098   2.336   2.238  15.703  0.0935  2.9743  2.8829
 6547SOL     OW31099   4.614   3.436  15.768  0.9072  0.4992 -0.0840
 6547SOL    HW131100   4.582   3.348  15.749 -0.7784  1.3771 -1.3202
 6547SOL    HW231101   4.654   3.425  15.854  1.6525  0.1445 -0.4740
 6548SOL     OW31102   1.928   0.104   9.306  0.3399  0.2548 -0.1647
 6548SOL    HW131103   1.997   0.159   9.341  1.9836 -1.6350 -0.3885
 6548SOL    HW231104   1.923   0.035   9.373 -0.9226 -0.2825 -0.7978
 6549SOL     OW31105   1.937   1.198   6.545  0.2328 -0.2352 -0.5149
 6549SOL    HW131106   1.955   1.127   6.607  2.1740  0.1699 -0.6312
 6549SOL    HW231107   1.891   1.258   6.604  0.3830 -0.4043 -0.2254
 6550SOL     OW31108   3.247   1.634  10.256  0.5607 -0.1014  0.3516
 6550SOL    HW131109   3.162   1.612  10.219  0.1667  1.0115  0.5852
 6550SOL    HW231110   3.283   1.553  10.292  2.6359  0.5671 -0.2065
 6551SOL     OW31111   3.550   1.997   4.881  0.1852 -0.6326 -0.3329
 6551SOL    HW131112   3.497   2.068   4.916  0.5835 -0.5960  0.1931
 6551SOL    HW231113   3.490   1.961   4.816 -1.9650 -1.5858  2.1721
 6552SOL     OW31114   1.311   3.796   2.135 -0.6709 -0.5272  0.0755
 6552SOL    HW131115   1.259   3.728   2.178 -1.4548  0.3889  0.5934
 6552SOL    HW231116   1.243   3.840   2.083  0.1430  0.0840 -0.4692
 6553SOL     OW31117   2.043   0.092   3.332  0.7779  0.3035 -0.5267
 6553SOL    HW131118   2.106   0.021   3.347 -1.4479 -1.4201  0.6321
 6553SOL    HW231119   1.955   0.058   3.318 -0.2212  1.8047  2.0828
 6554SOL     OW31120   2.396   3.806   7.732  0.4339 -0.3686 -0.0945
 6554SOL    HW131121   2.453   3.827   7.658  0.7508 -2.6196 -0.4929
 6554SOL    HW231122   2.421   3.880   7.789 -0.4261 -0.4631  0.3990
 6555SOL     OW31123   1.766   1.932   2.596 -0.3268 -0.1487 -0.0893
 6555SOL    HW131124   1.715   1.991   2.541  0.1163  0.2050 -0.1235
 6555SOL    HW231125   1.849   1.974   2.574 -0.2650 -0.5480 -0.6335
 6556SOL     OW31126   4.656   3.701   3.513  0.0041 -0.5772  0.1460
 6556SOL    HW131127   4.677   3.634   3.449  2.3984 -0.5862  0.9261
 6556SOL    HW231128   4.582   3.656   3.555  0.0744 -0.7560  0.0753
 6557SOL     OW31129   2.014   3.811   6.788 -0.5920 -0.0452 -0.6241
 6557SOL    HW131130   1.958   3.820   6.865 -1.7053 -0.3423 -1.4037
 6557SOL    HW231131   2.009   3.716   6.779  0.6189  0.0837 -2.4826
 6558SOL     OW31132   2.854   4.587   9.664  0.3912  0.6871 -0.7067
 6558SOL    HW131133   2.949   4.587   9.655  0.4902  4.6808  0.4645
 6558SOL    HW231134   2.849   4.632   9.749 -0.0589 -0.5833 -0.0496
 6559SOL     OW31135   4.613   1.743  11.190 -0.3074 -0.7834  0.0228
 6559SOL    HW131136   4.612   1.653  11.220 -2.3111 -1.7635 -2.9523
 6559SOL    HW231137   4.523   1.764  11.168 -0.1203  0.5706  0.5182
 6560SOL     OW31138   4.375   1.736   0.274 -0.5332 -0.5258 -0.0381
 6560SOL    HW131139   4.319   1.681   0.219  1.7435 -1.0453 -1.8140
 6560SOL    HW231140   4.342   1.708   0.360  0.5145 -0.1274  0.4789
 6561SOL     OW31141   1.514   3.409  14.008  0.3498 -0.3656  0.3817
 6561SOL    HW131142   1.519   3.495  13.965 -0.9760  1.5050  4.0060
 6561SOL    HW231143   1.434   3.420  14.058 -0.0988  0.8401 -0.6018
 6562SOL     OW31144   3.667   2.405   1.611  0.0128 -0.4907  0.1341
 6562SOL    HW131145   3.625   2.450   1.684  1.8327  1.5538 -0.1029
 6562SOL    HW231146   3.668   2.311   1.631  0.3098 -0.3309  0.8716
 6563SOL     OW31147   2.381   2.973   5.686  0.5801  0.1451  0.1214
 6563SOL    HW131148   2.363   3.042   5.750 -1.4906  1.0850 -1.4800
 6563SOL    HW231149   2.297   2.928   5.688  1.3351 -1.3124 -2.0285
 6564SOL     OW31150   2.188   2.239   8.949 -0.3545  0.1170  0.2569
 6564SOL    HW131151   2.215   2.312   8.893 -1.9217  1.0088  0.6594
 6564SOL    HW231152   2.191   2.172   8.881  1.1742  0.4377 -0.0007
 6565SOL     OW31153   3.944   3.661  14.954 -0.1842 -0.3411 -0.4213
 6565SOL    HW131154   4.007   3.634  15.022 -1.0990  2.2565  1.4714
 6565SOL    HW231155   3.999   3.726  14.910 -1.3447  0.8377 -0.0989
 6566SOL     OW31156   1.666   3.716   3.431 -0.0868  0.0628 -0.6618
 6566SOL    HW131157   1.636   3.738   3.520 -0.2263  0.5387 -0.8288
 6566SOL    HW231158   1.760   3.730   3.435 -0.1364  0.1603  0.3736
 6567SOL     OW31159   0.260   2.165   3.148  0.1812 -0.6011  0.1091
 6567SOL    HW131160   0.171   2.142   3.175 -1.2700  3.9482 -0.7846
 6567SOL    HW231161   0.257   2.168   3.053  2.9060  1.5925  0.0883
 6568SOL     OW31162   3.116   0.873   3.714  0.0111  0.0531 -0.6483
 6568SOL    HW131163   3.146   0.907   3.799  3.0847 -0.2055 -1.6372
 6568SOL    HW231164   3.140   0.946   3.656 -1.3093  0.5103 -0.6203
 6569SOL     OW31165   0.663   3.552  13.159  0.0232  0.1632 -0.6131
 6569SOL    HW131166   0.616   3.578  13.238  0.6659 -0.0809 -0.1514
 6569SOL    HW231167   0.745   3.519  13.195  2.4551  4.1506 -2.5682
 6570SOL     OW31168   1.995   1.888  11.454 -0.2848 -0.0703 -0.6538
 6570SOL    HW131169   2.089   1.869  11.460 -0.3492  0.5261  2.3035
 6570SOL    HW231170   1.960   1.803  11.428  1.1175 -0.8303 -0.1013
 6571SOL     OW31171   3.894   4.073  10.243  0.1598 -0.0324  0.4670
 6571SOL    HW131172   3.903   4.121  10.161  3.6852 -0.4609  0.6182
 6571SOL    HW231173   3.980   4.088  10.281  0.4044 -1.1968  0.3696
 6572SOL     OW31174   2.970   0.500   7.678  0.6417 -0.4076 -0.4553
 6572SOL    HW131175   2.965   0.574   7.618  1.0686 -0.3725 -0.4483
 6572SOL    HW231176   2.972   0.548   7.761 -0.6506 -1.5838  0.2486
 6573SOL     OW31177   1.867   0.238  14.315  0.2444 -0.0811  0.0997
 6573SOL    HW131178   1.920   0.203  14.243  1.9749  0.8761  0.8847
 6573SOL    HW231179   1.826   0.314  14.274 -2.4758 -0.6483  1.7551
 6574SOL     OW31180   3.658   3.975   4.783  0.4849 -0.2909  0.7390
 6574SOL    HW131181   3.663   3.923   4.703  2.7877  0.5633  0.3339
 6574SOL    HW231182   3.649   4.064   4.748 -0.6298 -0.4248  0.6960
 6575SOL     OW31183   3.492   3.491   3.694 -0.1218  0.0023 -0.0071
 6575SOL    HW131184   3.448   3.446   3.621  0.2005  0.0808 -0.2493
 6575SOL    HW231185   3.582   3.494   3.662 -0.1527 -2.5923 -0.3409
 6576SOL     OW31186   2.231   0.510   6.855  0.4882 -0.5657 -0.4792
 6576SOL    HW131187   2.139   0.490   6.836 -0.0661  1.1222  0.4306
 6576SOL    HW231188   2.251   0.424   6.892  0.7065 -1.6371 -3.0817
 6577SOL     OW31189   1.803   1.813   8.293 -0.4436  0.6897 -0.4829
 6577SOL    HW131190   1.875   1.768   8.336  1.2538  1.7204 -2.2229
 6577SOL    HW231191   1.759   1.737   8.256  0.7489 -0.5477  0.6400
 6578SOL     OW31192   0.754   2.753   2.007  0.2756  0.2355 -0.0927
 6578SOL    HW131193   0.673   2.782   1.966 -1.0898 -0.4819  2.1322
 6578SOL    HW231194   0.790   2.708   1.930  1.7030 -2.7429  2.3441
 6579SOL     OW31195   0.265   2.894  17.426 -1.1851 -0.6522  0.0750
 6579SOL    HW131196   0.286   2.803  17.408  3.6411  0.0526  1.9259
 6579SOL    HW231197   0.247   2.926  17.338 -1.9343 -2.2780 -0.3575
 6580SOL     OW31198   1.865   4.202  16.621  0.6596 -0.3576  0.1770
 6580SOL    HW131199   1.802   4.263  16.583  0.7817 -1.8352 -2.4192
 6580SOL    HW231200   1.953   4.223  16.589 -0.3718  2.6186 -0.6422
 6581SOL     OW31201   2.595   3.888   7.562  0.0814 -0.3889 -0.2610
 6581SOL    HW131202   2.685   3.876   7.533 -0.0501 -1.2682 -0.3039
 6581SOL    HW231203   2.596   3.983   7.576 -1.0173 -0.3110 -0.7366
 6582SOL     OW31204   3.537   2.793   0.733  0.0816  0.0208 -0.0480
 6582SOL    HW131205   3.541   2.698   0.730  0.2908  0.0144  0.3538
 6582SOL    HW231206   3.442   2.799   0.725  0.3863 -0.0148 -3.4371
 6583SOL     OW31207   3.807   1.939   4.043 -0.1250  0.1076 -0.5985
 6583SOL    HW131208   3.854   2.010   3.998  1.5833  1.0917  2.7639
 6583SOL    HW231209   3.726   1.931   3.993 -0.9858  1.6537  0.5351
 6584SOL     OW31210   1.206   4.217  11.724 -0.4516  0.0107 -0.5237
 6584SOL    HW131211   1.180   4.267  11.801  1.3783  1.2695 -0.7214
 6584SOL    HW231212   1.296   4.192  11.745 -0.2837  0.2811 -0.9263
 6585SOL     OW31213   3.590   2.454   7.867 -0.0448 -0.5526 -0.3605
 6585SOL    HW131214   3.537   2.505   7.929  1.6138 -0.5666  1.0740
 6585SOL    HW231215   3.667   2.447   7.924  1.2722  1.1106 -1.9707
 6586SOL     OW31216   1.398   2.550  16.145  0.4732  0.0245  0.3589
 6586SOL    HW131217   1.453   2.545  16.223  0.2546 -0.1758  0.4980
 6586SOL    HW231218   1.393   2.642  16.117  1.8703 -0.3382 -1.1114
 6587SOL     OW31219   1.241   1.412   2.482  0.4222  0.1007  1.2231
 6587SOL    HW131220   1.150   1.409   2.454  0.4990 -0.4111  1.0395
 6587SOL    HW231221   1.296   1.383   2.409 -1.5666 -0.8740  0.1151
 6588SOL     OW31222   0.751   0.268  17.647 -0.2411 -0.0968 -0.1992
 6588SOL    HW131223   0.781   0.177  17.656  1.0022  0.1978 -1.3660
 6588SOL    HW231224   0.776   0.288   0.038  0.8583  0.7770 -0.7035
 6589SOL     OW31225   2.142   3.964   5.888 -0.0836 -0.3486  0.0543
 6589SOL    HW131226   2.048   3.947   5.876 -0.2005  1.0201 -1.0605
 6589SOL    HW231227   2.152   3.928   5.976 -2.1236 -0.2172  0.3403
 6590SOL     OW31228   2.399   2.876   4.999 -0.2460  0.4738 -0.0160
 6590SOL    HW131229   2.343   2.879   5.076 -3.1653  0.0819 -2.0760
 6590SOL    HW231230   2.443   2.957   5.023  0.2513  0.3077 -0.3660
 6591SOL     OW31231   4.266   3.629   2.791  0.5810  0.2104  0.9539
 6591SOL    HW131232   4.237   3.598   2.705  2.2561 -0.0393  0.4677
 6591SOL    HW231233   4.236   3.554   2.843  0.9900 -0.2827  0.4825
 6592SOL     OW31234   3.251   2.807   1.847  0.1656  0.4811 -0.5074
 6592SOL    HW131235   3.340   2.782   1.824  0.2353  0.3679 -0.1152
 6592SOL    HW231236   3.247   2.760   1.930 -1.5358  1.7296  0.1275
 6593SOL     OW31237   1.107   3.246   7.704 -0.0687 -0.0140  0.4686
 6593SOL    HW131238   1.139   3.204   7.784  0.8238  0.1616  0.2027
 6593SOL    HW231239   1.014   3.228   7.718  0.0438 -1.1869 -0.2521
 6594SOL     OW31240   0.993   3.257   6.763  0.1192 -0.1027 -0.1995
 6594SOL    HW131241   1.010   3.163   6.756  0.2730 -0.0457 -0.6297
 6594SOL    HW231242   0.969   3.278   6.673 -4.0878 -2.6781  0.3513
 6595SOL     OW31243   4.133   1.771   7.759 -0.2648  0.5968  0.0642
 6595SOL    HW131244   4.087   1.688   7.745 -3.6423  2.4328  0.2774
 6595SOL    HW231245   4.126   1.807   7.670  1.1052 -0.8081 -0.6128
 6596SOL     OW31246   0.274   2.373   8.245  0.4120  0.4524  0.2377
 6596SOL    HW131247   0.193   2.329   8.219  0.8668 -0.8009  0.9517
 6596SOL    HW231248   0.249   2.460   8.215 -1.0326  0.0277  0.2330
 6597SOL     OW31249   1.920   2.902  10.883  0.1264  0.3520 -0.5403
 6597SOL    HW131250   1.979   2.958  10.934  0.3529 -1.4393  1.1492
 6597SOL    HW231251   1.906   2.955  10.804 -2.1558  0.2575 -0.2059
 6598SOL     OW31252   2.586   2.232   3.728  0.6821 -1.1513  0.2787
 6598SOL    HW131253   2.503   2.280   3.731  0.9461 -0.7985  1.7703
 6598SOL    HW231254   2.573   2.152   3.779  0.3765  0.0341  2.0657
 6599SOL     OW31255   0.345   3.372   5.782 -0.0025  0.2252 -0.0420
 6599SOL    HW131256   0.410   3.348   5.716 -1.0142 -0.2415 -0.8696
 6599SOL    HW231257   0.294   3.292   5.771  0.9382 -0.0494 -2.3830
 6600SOL     OW31258   3.433   2.753   1.043  0.0683  0.3431 -0.2421
 6600SOL    HW131259   3.364   2.698   1.005 -0.7974  1.9191 -0.9226
 6600SOL    HW231260   3.403   2.839   1.015 -0.2817 -0.3640 -2.0396
 6601SOL     OW31261   2.117   2.304   2.004 -0.0730  0.5854  0.0670
 6601SOL    HW131262   2.136   2.215   1.975 -0.7930  0.2379  0.6467
 6601SOL    HW231263   2.198   2.322   2.053 -0.7435  1.5652  0.8188
 6602SOL     OW31264   4.596   0.624   5.934  0.0237 -0.1921 -0.1858
 6602SOL    HW131265   4.648   0.576   5.870 -0.6988  0.0142 -0.9145
 6602SOL    HW231266   4.662   0.677   5.979 -0.8974 -2.0454  3.4113
 6603SOL     OW31267   0.359   0.466   7.829  0.0443  0.2489  0.1375
 6603SOL    HW131268   0.449   0.483   7.857  0.2456 -0.2609 -0.1971
 6603SOL    HW231269   0.334   0.557   7.816 -1.1963 -0.4736 -2.6369
 6604SOL     OW31270   3.669   0.421   3.175 -0.1340  0.1341 -0.3594
 6604SOL    HW131271   3.636   0.333   3.191  1.2640 -0.1674  0.8531
 6604SOL    HW231272   3.763   0.408   3.186  0.0591  0.4811 -1.6075
 6605SOL     OW31273   0.994   1.593   1.026 -0.3203 -0.2289  0.5015
 6605SOL    HW131274   0.914   1.616   1.074  0.7295  0.9784  1.6733
 6605SOL    HW231275   0.980   1.626   0.937  0.8445 -2.3163 -0.4439
 6606SOL     OW31276   4.615   2.750   8.298 -0.4307  0.2265  0.3658
 6606SOL    HW131277   4.568   2.672   8.269 -2.1080  1.8960 -1.3635
 6606SOL    HW231278   4.574   2.771   8.382 -0.5072  2.2675 -0.1800
 6607SOL     OW31279   4.614   1.716   0.077 -0.8096 -0.0708 -0.4468
 6607SOL    HW131280   4.543   1.703   0.014 -0.1670  0.0308 -1.1889
 6607SOL    HW231281   4.571   1.735   0.161 -0.3110  1.4363 -0.5473
 6608SOL     OW31282   4.313   4.165   5.971  0.1199  0.4170  0.9425
 6608SOL    HW131283   4.408   4.176   5.978  0.4705  0.3803 -3.5732
 6608SOL    HW231284   4.288   4.257   5.961  1.5697  0.5651 -1.6542
 6609SOL     OW31285   1.597   4.304   9.867 -0.4969 -0.9458 -0.0656
 6609SOL    HW131286   1.621   4.225   9.916  0.1212 -1.3939 -1.0801
 6609SOL    HW231287   1.553   4.262   9.792  0.2007  0.0197 -1.0076
 6610SOL     OW31288   2.516   0.660   3.492 -0.0519  0.1708 -1.0881
 6610SOL    HW131289   2.486   0.584   3.442  0.6474 -0.3832 -0.6707
 6610SOL    HW231290   2.569   0.606   3.550 -0.2472  0.6356 -0.4770
 6611SOL     OW31291   4.706   2.904   5.223 -0.6756 -0.2476  0.1994
 6611SOL    HW131292   0.057   2.873   5.171 -0.7727 -0.6467  0.3002
 6611SOL    HW231293   4.648   2.943   5.158  2.0622  1.6233 -1.1405
 6612SOL     OW31294   3.133   3.909  11.481  0.4943 -0.2715 -0.0795
 6612SOL    HW131295   3.074   3.871  11.546  0.7703 -0.2407  0.1910
 6612SOL    HW231296   3.218   3.891  11.522  0.4614 -0.8146 -0.2582
 6613SOL     OW31297   3.615   2.821   3.726 -0.0203  0.0570  0.1836
 6613SOL    HW131298   3.607   2.736   3.685 -0.6485 -1.4651  3.4516
 6613SOL    HW231299   3.596   2.873   3.648 -0.4785  0.0050  0.2629
 6614SOL     OW31300   2.810   4.154   7.998  0.2917  0.3660  0.0481
 6614SOL    HW131301   2.781   4.073   7.956 -3.0169  1.8686 -0.5499
 6614SOL    HW231302   2.730   4.190   8.036 -0.3070  1.5573 -2.3500
 6615SOL     OW31303   3.192   1.056   4.655 -0.1893 -0.1206 -0.1015
 6615SOL    HW131304   3.167   1.109   4.730 -1.2742 -1.3388  0.3956
 6615SOL    HW231305   3.109   1.057   4.608 -0.0398 -2.5213 -0.4515
 6616SOL     OW31306   1.833   2.590  16.735  0.3032 -0.1914  0.3291
 6616SOL    HW131307   1.770   2.524  16.704  0.2885  0.2609 -0.6131
 6616SOL    HW231308   1.891   2.598  16.659  0.8715  0.6104  0.8424
 6617SOL     OW31309   3.068   3.711  12.284 -0.3066  0.4472 -0.0568
 6617SOL    HW131310   3.010   3.670  12.220  1.1444  0.7086 -1.5326
 6617SOL    HW231311   3.151   3.678  12.251  0.3297  1.5321  0.4557
 6618SOL     OW31312   1.395   2.379  11.963 -0.1986  0.3293  0.4744
 6618SOL    HW131313   1.486   2.400  11.941 -0.7476  1.9580 -0.2415
 6618SOL    HW231314   1.413   2.287  11.945 -1.0103  0.8500 -2.8906
 6619SOL     OW31315   0.605   2.108   7.214  0.4322  0.2642  0.2017
 6619SOL    HW131316   0.575   2.197   7.232  0.5142  0.7215 -1.9379
 6619SOL    HW231317   0.682   2.119   7.158  0.3932 -2.3053 -0.3380
 6620SOL     OW31318   4.481   4.671   5.276 -0.0628  0.9507  0.4513
 6620SOL    HW131319   4.565   4.715   5.285  1.6226 -1.9667 -1.1518
 6620SOL    HW231320   4.420   0.020   5.290  1.7410  2.6093 -0.3545
 6621SOL     OW31321   0.244   3.082   8.186  0.6340 -0.4282  0.0729
 6621SOL    HW131322   0.172   3.065   8.126  1.4123 -0.2537 -0.8947
 6621SOL    HW231323   0.315   3.056   8.127  1.2489  2.5539 -0.4828
 6622SOL     OW31324   1.682   1.328   1.812 -0.3114 -0.0737  1.1130
 6622SOL    HW131325   1.766   1.367   1.836  0.7800 -0.7644 -1.6239
 6622SOL    HW231326   1.627   1.392   1.857 -1.7418 -1.0282  0.7438
 6623SOL     OW31327   0.907   3.183  13.525  0.4155  0.3137  0.3439
 6623SOL    HW131328   0.932   3.270  13.556  1.5499 -0.3543  1.3125
 6623SOL    HW231329   0.970   3.121  13.561  0.3844  1.7368  2.9183
 6624SOL     OW31330   4.258   3.207   4.188  0.8426 -0.5364  0.0029
 6624SOL    HW131331   4.286   3.164   4.268 -0.5152 -0.3053  0.5864
 6624SOL    HW231332   4.340   3.214   4.139  1.0839 -2.7763  0.1096
 6625SOL     OW31333   2.773   2.615   5.700  0.3577  0.0681  0.5415
 6625SOL    HW131334   2.781   2.573   5.785  2.4056  0.0916  0.3591
 6625SOL    HW231335   2.841   2.562   5.657  0.9568  2.3031 -1.2701
 6626SOL     OW31336   3.640   4.011   3.915  0.4413  0.5420  0.1599
 6626SOL    HW131337   3.631   4.041   3.825  1.8159 -1.5261 -0.6632
 6626SOL    HW231338   3.721   4.056   3.940  0.3161 -1.5554  4.3158
 6627SOL     OW31339   4.293   3.962   4.623 -0.1526 -0.1516 -0.3120
 6627SOL    HW131340   4.252   4.017   4.556  0.5258  0.1702 -0.4691
 6627SOL    HW231341   4.220   3.918   4.665 -0.1588  0.6414  0.5133
 6628SOL     OW31342   0.952   1.792  13.363 -0.0790  0.5324  0.1657
 6628SOL    HW131343   1.020   1.767  13.300 -0.8864 -1.5664  0.1066
 6628SOL    HW231344   0.893   1.850  13.315  0.5668  2.1649  1.3421
 6629SOL     OW31345   1.565   3.091  14.014  0.0676 -0.2913  0.4589
 6629SOL    HW131346   1.587   3.184  14.014  0.5664 -0.4160 -0.5372
 6629SOL    HW231347   1.558   3.069  14.107  0.4805 -1.4743  0.2156
 6630SOL     OW31348   0.966   1.961   5.338 -0.1075  0.9999  0.3721
 6630SOL    HW131349   0.979   1.925   5.251 -3.7175  1.9130 -0.5313
 6630SOL    HW231350   1.050   2.007   5.348 -0.3557  1.4608  0.3278
 6631SOL     OW31351   0.230   1.568  11.228 -0.2459 -0.4667 -0.1572
 6631SOL    HW131352   0.189   1.573  11.314 -0.2913  1.3438 -0.2723
 6631SOL    HW231353   0.296   1.637  11.234  0.0245 -0.6730 -0.7533
 6632SOL     OW31354   0.996   3.068  17.328 -0.3697  0.1433 -0.3810
 6632SOL    HW131355   1.071   3.043  17.381  0.2554  2.6846 -0.0552
 6632SOL    HW231356   0.997   3.004  17.257 -1.7768 -1.2468  0.8310
 6633SOL     OW31357   1.050   4.038  14.518  0.3651 -0.1867  0.2257
 6633SOL    HW131358   1.084   3.951  14.497 -0.8725 -0.0558 -2.3640
 6633SOL    HW231359   0.987   4.026  14.589 -1.6936 -2.4149 -1.9589
 6634SOL     OW31360   1.614   3.840  11.460 -0.3832  0.4077  0.5366
 6634SOL    HW131361   1.528   3.883  11.452 -0.1667  0.8576  0.6192
 6634SOL    HW231362   1.627   3.781  11.387 -0.0350 -1.4236  2.0946
 6635SOL     OW31363   3.137   2.385   8.620  0.1534 -0.1737 -0.4494
 6635SOL    HW131364   3.133   2.312   8.558  2.9277  1.5869 -2.6656
 6635SOL    HW231365   3.043   2.398   8.629  0.2215 -0.5299  0.8137
 6636SOL     OW31366   1.832   1.510   1.575 -0.2979  0.0637 -0.5425
 6636SOL    HW131367   1.858   1.469   1.658 -0.8626  0.4365 -0.1844
 6636SOL    HW231368   1.757   1.459   1.544 -0.1940 -0.2002 -0.3657
 6637SOL     OW31369   1.298   1.851   9.599  0.0596  0.4867  0.0747
 6637SOL    HW131370   1.214   1.804   9.599  0.8227 -0.8677  0.0114
 6637SOL    HW231371   1.265   1.941   9.596 -0.4249  0.2924 -0.5222
 6638SOL     OW31372   4.670   3.412  14.443  0.4569  0.2619 -0.2397
 6638SOL    HW131373   4.638   3.442  14.528 -0.4627 -0.9939 -0.1487
 6638SOL    HW231374   4.712   3.327  14.453  1.2038  0.6034 -0.4947
 6639SOL     OW31375   4.193   1.380   9.876  0.2333 -0.2024  0.2165
 6639SOL    HW131376   4.253   1.350   9.945  2.2011  2.4858 -0.3390
 6639SOL    HW231377   4.240   1.363   9.794  0.5797  1.4212  0.0811
 6640SOL     OW31378   3.756   4.192   4.313  0.1068  0.3441  0.0093
 6640SOL    HW131379   3.691   4.202   4.244  0.3699  0.0233 -0.2877
 6640SOL    HW231380   3.746   4.097   4.320  1.8275  0.1272 -0.4755
 6641SOL     OW31381   0.197   2.617  17.361  0.1432  0.3462 -0.3617
 6641SOL    HW131382   0.117   2.642  17.407 -0.3420 -1.0445 -0.4627
 6641SOL    HW231383   0.172   2.528  17.337  3.1400 -0.5225 -0.2394
 6642SOL     OW31384   2.805   4.046  11.400 -0.2205 -0.2579 -0.3543
 6642SOL    HW131385   2.785   4.103  11.325  1.9861  1.6842  0.5363
 6642SOL    HW231386   2.809   3.956  11.369  0.4379 -0.3057 -0.1431
 6643SOL     OW31387   4.547   2.543   1.631  0.8243 -0.0525  0.4396
 6643SOL    HW131388   4.488   2.594   1.575  0.4215 -1.4668 -0.4399
 6643SOL    HW231389   4.571   2.591   1.710  1.1906 -0.2083  0.4251
 6644SOL     OW31390   0.413   3.041   2.369 -0.0895  0.2146  0.4620
 6644SOL    HW131391   0.399   3.121   2.420  1.8385  1.3572 -0.8266
 6644SOL    HW231392   0.442   3.074   2.284 -0.5311 -0.3530  0.0889
 6645SOL     OW31393   0.053   1.634  13.844  0.5292 -0.3285  0.0082
 6645SOL    HW131394   4.682   1.630  13.837  0.4159  1.9796  0.0251
 6645SOL    HW231395   0.083   1.652  13.755  1.5008  1.2879  0.6518
 6646SOL     OW31396   1.493   1.792   3.472 -0.7836  0.1506  0.0031
 6646SOL    HW131397   1.584   1.762   3.477 -1.2707 -1.3040  0.1659
 6646SOL    HW231398   1.503   1.874   3.423  0.9355 -0.3838 -0.5410
 6647SOL     OW31399   2.347   3.189   5.935  0.0855 -0.3614 -0.0524
 6647SOL    HW131400   2.431   3.197   5.982  0.4516  0.3830 -0.8284
 6647SOL    HW231401   2.321   3.281   5.929 -1.3212 -0.7234  0.6882
 6648SOL     OW31402   0.379   2.631   5.620 -0.1291  0.2960  0.1940
 6648SOL    HW131403   0.383   2.727   5.615 -0.3365  0.3467  1.1038
 6648SOL    HW231404   0.473   2.618   5.608 -0.2323  0.7233 -1.0715
 6649SOL     OW31405   3.978   4.639  11.483 -0.3722 -0.1664  0.0425
 6649SOL    HW131406   3.996   4.675  11.569 -1.6227  1.5503 -0.4316
 6649SOL    HW231407   4.043   4.568  11.480  1.2996  1.4010 -0.5757
 6650SOL     OW31408   1.288   1.688   9.123 -0.1123  0.3603 -0.3626
 6650SOL    HW131409   1.265   1.618   9.184 -2.9890 -0.3077 -2.1765
 6650SOL    HW231410   1.338   1.742   9.183 -1.4966  0.3420  0.8184
 6651SOL     OW31411   0.916   2.810   1.544  0.0869 -0.1254 -0.6735
 6651SOL    HW131412   0.955   2.895   1.524 -0.1258 -0.2847 -1.7332
 6651SOL    HW231413   0.919   2.755   1.466 -0.1215  0.3059 -0.9888
 6652SOL     OW31414   0.346   3.818   5.059 -0.7435 -0.3270  0.5564
 6652SOL    HW131415   0.377   3.728   5.051  2.2502  0.7465 -0.0213
 6652SOL    HW231416   0.396   3.852   5.134  0.1465 -0.1375 -0.1192
 6653SOL     OW31417   2.260   3.505   6.364 -0.0627 -0.2979 -0.1760
 6653SOL    HW131418   2.222   3.423   6.395 -0.4951 -0.0667 -0.0985
 6653SOL    HW231419   2.312   3.477   6.289  2.3175 -0.9742  1.6941
 6654SOL     OW31420   0.463   3.298  17.407  0.2629  0.0674 -0.1453
 6654SOL    HW131421   0.406   3.291  17.331 -1.1947 -1.1041  1.0578
 6654SOL    HW231422   0.429   3.382  17.439  2.2801  0.1827  1.6976
 6655SOL     OW31423   4.398   1.782  15.962  0.3339  0.9088  0.3165
 6655SOL    HW131424   4.322   1.795  16.019  0.0687 -0.4427  0.2800
 6655SOL    HW231425   4.432   1.869  15.942 -1.2321  1.5433  0.4093
 6656SOL     OW31426   1.186   2.931   5.065 -0.4898 -0.0381 -0.6101
 6656SOL    HW131427   1.232   2.899   5.142 -1.4966  1.7257  0.7115
 6656SOL    HW231428   1.196   2.855   5.007 -0.3221 -1.0897  0.7980
 6657SOL     OW31429   2.523   3.681   6.406  0.3774  0.1242 -0.2403
 6657SOL    HW131430   2.499   3.726   6.487 -2.3847 -1.5045 -0.1722
 6657SOL    HW231431   2.457   3.614   6.394  0.0943  0.4211 -0.3468
 6658SOL     OW31432   4.534   2.299   1.724 -0.2990  0.2569 -0.4661
 6658SOL    HW131433   4.492   2.250   1.654 -1.1541  2.1146 -1.2402
 6658SOL    HW231434   4.542   2.387   1.687  0.0661  0.2642 -0.3743
 6659SOL     OW31435   3.090   2.979  10.957 -1.0755 -0.2938 -0.1306
 6659SOL    HW131436   3.018   2.971  10.894 -0.8656  2.7366 -0.7911
 6659SOL    HW231437   3.099   2.888  10.985  3.3173  0.0353 -0.4788
 6660SOL     OW31438   2.451   3.340  13.384  0.4297 -0.3334 -0.6136
 6660SOL    HW131439   2.512   3.275  13.419 -0.7879 -1.6337 -0.9179
 6660SOL    HW231440   2.418   3.287  13.311 -0.4721 -0.1462 -0.3296
 6661SOL     OW31441   2.953   4.704   7.951  0.4195  0.0303  0.0454
 6661SOL    HW131442   2.936   4.680   7.860 -2.9503 -0.8249  0.9165
 6661SOL    HW231443   2.912   0.066   7.956 -0.0774 -0.1050 -1.5009
 6662SOL     OW31444   0.353   0.349  16.006 -0.1052  0.0991 -0.6948
 6662SOL    HW131445   0.420   0.410  15.975  0.2129 -0.1631 -0.5153
 6662SOL    HW231446   0.381   0.265  15.971 -0.0633 -0.3022  0.3152
 6663SOL     OW31447   4.528   4.525   7.187 -0.1783 -0.2975  0.6185
 6663SOL    HW131448   4.534   4.596   7.123  0.6325 -0.8822  0.0568
 6663SOL    HW231449   4.523   4.584   7.263 -2.9013  0.4864 -0.1517
 6664SOL     OW31450   3.942   2.124   4.674 -0.2154 -0.1097  0.2031
 6664SOL    HW131451   3.908   2.136   4.763 -1.3954 -0.0012 -0.2701
 6664SOL    HW231452   3.931   2.208   4.629  1.5631 -1.3340 -2.5257
 6665SOL     OW31453   0.211   0.373   8.109  0.2806  0.2190  0.4349
 6665SOL    HW131454   0.277   0.329   8.055 -0.5671 -0.0025 -0.4259
 6665SOL    HW231455   0.253   0.459   8.110 -1.6273  1.1835 -2.4418
 6666SOL     OW31456   0.210   1.191   8.186 -0.5393  0.7118  0.5622
 6666SOL    HW131457   0.166   1.195   8.271  2.6216 -0.1769  2.2682
 6666SOL    HW231458   0.286   1.135   8.201  0.1475  1.4530 -0.1583
 6667SOL     OW31459   1.743   3.316  12.926  0.6226 -0.6184 -0.5050
 6667SOL    HW131460   1.791   3.360  12.856  1.1740  0.4374  0.5275
 6667SOL    HW231461   1.801   3.241  12.938 -0.8999 -1.9089 -1.3525
 6668SOL     OW31462   1.250   1.066   2.897 -0.4484 -0.1402 -0.0680
 6668SOL    HW131463   1.156   1.072   2.914 -0.5645 -1.5921 -0.1778
 6668SOL    HW231464   1.249   1.004   2.825 -0.2654  0.7242 -0.8080
 6669SOL     OW31465   0.474   0.834   7.675 -0.0104 -0.0997 -0.0631
 6669SOL    HW131466   0.542   0.897   7.696 -0.1634  0.3134 -0.8028
 6669SOL    HW231467   0.402   0.838   7.738 -1.4074 -1.2075 -1.5882
 6670SOL     OW31468   1.504   4.167   3.817  0.0368  0.2551 -0.0358
 6670SOL    HW131469   1.508   4.119   3.734  0.2547 -0.8582  0.6207
 6670SOL    HW231470   1.502   4.255   3.780  3.2011 -0.1282 -1.0829
 6671SOL     OW31471   3.851   1.688   4.865  0.7084  0.6079  0.3799
 6671SOL    HW131472   3.800   1.741   4.926  0.1058  0.5805 -0.1004
 6671SOL    HW231473   3.841   1.732   4.780 -1.0880 -0.6413 -0.0395
 6672SOL     OW31474   4.105   1.667  13.377  0.2664 -0.5808 -0.0825
 6672SOL    HW131475   4.065   1.683  13.463  0.4997  0.2548 -0.1265
 6672SOL    HW231476   4.085   1.574  13.365 -1.1045 -0.2753 -0.1702
 6673SOL     OW31477   2.705   4.602  12.409  0.3587  0.1728  0.0897
 6673SOL    HW131478   2.742   4.648  12.484 -1.3300  2.7972 -0.6883
 6673SOL    HW231479   2.782   4.562  12.368  0.9283 -0.3975  1.7302
 6674SOL     OW31480   4.702   0.151   5.608 -0.2177  0.8730  0.0361
 6674SOL    HW131481   4.702   0.126   5.515 -1.8715 -0.1019  0.3004
 6674SOL    HW231482   4.616   0.193   5.615  0.6927  2.7064  0.2372
 6675SOL     OW31483   2.124   0.575  14.855 -0.1811 -0.1728 -0.0905
 6675SOL    HW131484   2.042   0.548  14.896 -1.4273  1.4117 -1.5129
 6675SOL    HW231485   2.192   0.577  14.924 -0.3426 -0.0520  0.0653
 6676SOL     OW31486   2.460   1.908  13.157  0.6490 -0.4208  0.1688
 6676SOL    HW131487   2.521   1.855  13.209  1.0715  0.3856  0.4883
 6676SOL    HW231488   2.427   1.837  13.101  3.2365  0.4780 -2.4446
 6677SOL     OW31489   0.250   2.955   6.289  0.8711  0.2638 -0.3465
 6677SOL    HW131490   0.246   2.886   6.222  2.8692 -0.4797  0.3190
 6677SOL    HW231491   0.250   3.025   6.224 -1.8762  0.0481 -0.5758
 6678SOL     OW31492   2.329   4.221   3.046  0.2119  0.8613 -0.4069
 6678SOL    HW131493   2.261   4.209   3.112 -3.0240  2.7887 -3.4256
 6678SOL    HW231494   2.284   4.294   3.003 -0.9517  1.2145  1.3959
 6679SOL     OW31495   2.821   0.932  17.634 -0.3260 -0.0883 -0.1793
 6679SOL    HW131496   2.729   0.947  17.659 -0.4488 -0.2885 -0.5039
 6679SOL    HW231497   2.873   0.947   0.014  1.2673 -1.5487 -0.9573
 6680SOL     OW31498   3.879   3.557   6.239  0.2906  0.0633 -0.0612
 6680SOL    HW131499   3.809   3.535   6.300 -0.9168 -1.4016 -1.9461
 6680SOL    HW231500   3.832   3.531   6.159 -2.6524  0.0303  1.6961
 6681SOL     OW31501   4.104   1.092   6.326 -0.6579 -0.0139 -0.1021
 6681SOL    HW131502   4.114   1.049   6.241  1.3265 -1.7606  1.0099
 6681SOL    HW231503   4.051   1.025   6.370 -0.0769  0.9964  2.0974
 6682SOL     OW31504   2.952   3.673  10.152  0.1388  0.1768  0.1705
 6682SOL    HW131505   2.997   3.618  10.088  0.2000  1.1129 -0.6098
 6682SOL    HW231506   3.021   3.682  10.217  1.1643 -0.4913 -0.8361
 6683SOL     OW31507   1.390   1.232   8.707  0.3422  0.3610  0.0164
 6683SOL    HW131508   1.322   1.274   8.655  1.0732 -4.5941 -4.9294
 6683SOL    HW231509   1.446   1.309   8.721  0.5467  0.7611 -2.9836
 6684SOL     OW31510   0.954   3.613   4.732  0.5156 -0.1820 -0.3421
 6684SOL    HW131511   1.012   3.659   4.671  0.7880  0.3028  0.2819
 6684SOL    HW231512   0.971   3.521   4.713  0.1938 -0.2029 -0.5375
 6685SOL     OW31513   3.312   2.762   6.020 -0.0131  0.0950 -0.5159
 6685SOL    HW131514   3.237   2.718   6.060  1.4601 -2.0029 -0.0561
 6685SOL    HW231515   3.370   2.788   6.092  0.0925  1.7403 -1.1838
 6686SOL     OW31516   3.517   4.421   7.258 -0.4874 -0.0844 -0.4697
 6686SOL    HW131517   3.511   4.327   7.242 -0.2441 -0.2599  0.4875
 6686SOL    HW231518   3.429   4.452   7.237 -0.2877  0.4272 -0.5674
 6687SOL     OW31519   0.509   2.833   8.245 -0.0894 -0.0322 -0.1227
 6687SOL    HW131520   0.590   2.827   8.297  0.1449 -0.9166 -0.5998
 6687SOL    HW231521   0.460   2.883   8.310 -1.1586 -1.6101  0.2799
 6688SOL     OW31522   1.999   0.646   8.949  0.2504 -0.2711 -0.0469
 6688SOL    HW131523   1.976   0.561   8.911 -0.9899 -0.6954  1.6704
 6688SOL    HW231524   2.075   0.615   8.999  1.0607  0.7365 -0.6577
 6689SOL     OW31525   4.267   4.407   5.119  0.0662 -0.1031  0.4765
 6689SOL    HW131526   4.350   4.392   5.074 -0.5076 -0.3135 -0.4882
 6689SOL    HW231527   4.257   4.500   5.096 -2.4171 -0.3853  0.4313
 6690SOL     OW31528   0.072   2.229   7.893  0.6475 -0.6585 -0.2373
 6690SOL    HW131529   0.020   2.149   7.887 -2.1765  0.9691  2.5490
 6690SOL    HW231530   0.150   2.200   7.845 -0.0456 -0.6924 -1.3329
 6691SOL     OW31531   0.895   0.221   3.975  0.1828  0.0371 -0.0213
 6691SOL    HW131532   0.807   0.201   4.005 -0.7709  1.2167 -2.0868
 6691SOL    HW231533   0.898   0.198   3.882  0.5717  2.8034 -0.6828
 6692SOL     OW31534   3.628   2.571   2.765 -0.4367 -0.0278  0.1562
 6692SOL    HW131535   3.589   2.641   2.817  1.5166  0.1905  1.3011
 6692SOL    HW231536   3.614   2.496   2.822 -0.7407  0.6444  0.9698
 6693SOL     OW31537   2.616   1.787   7.583 -0.3010  0.5096  0.4308
 6693SOL    HW131538   2.550   1.814   7.647 -0.3635  3.2084 -0.7624
 6693SOL    HW231539   2.575   1.703   7.561  1.6414  0.5187 -3.1591
 6694SOL     OW31540   2.743   2.397   7.145  0.2922  0.7321  0.4832
 6694SOL    HW131541   2.692   2.469   7.107  3.7819  1.4548 -2.8005
 6694SOL    HW231542   2.760   2.434   7.232 -0.4353  0.4909  0.7328
 6695SOL     OW31543   2.754   4.102   3.714 -0.3608  0.5565 -0.1070
 6695SOL    HW131544   2.849   4.115   3.707 -0.5257  1.2562 -0.9975
 6695SOL    HW231545   2.736   4.156   3.791 -3.1823  0.7418 -0.9219
 6696SOL     OW31546   2.081   0.073   4.780  0.1435  0.3628 -0.0860
 6696SOL    HW131547   2.051   0.078   4.690 -0.0450  0.5802 -0.0127
 6696SOL    HW231548   2.008   0.033   4.828 -0.2167 -1.1761 -1.9313
 6697SOL     OW31549   4.554   2.293  14.827  0.5334 -0.6410 -0.3656
 6697SOL    HW131550   4.574   2.289  14.920 -0.7463  0.7868 -0.0232
 6697SOL    HW231551   4.635   2.311  14.780  0.6040 -1.5482 -0.5937
 6698SOL     OW31552   1.661   3.835  12.760  0.0480 -0.0300  0.0326
 6698SOL    HW131553   1.744   3.788  12.756  0.1857  0.3810 -2.0155
 6698SOL    HW231554   1.604   3.759  12.768  0.9728 -0.9754 -2.2011
 6699SOL     OW31555   2.459   3.385  17.265  0.4806 -0.1200 -0.0637
 6699SOL    HW131556   2.520   3.317  17.292 -1.6495 -2.1698 -0.4024
 6699SOL    HW231557   2.476   3.444  17.338 -2.7392 -0.5525  1.0211
 6700SOL     OW31558   4.464   3.789  17.317 -0.4396  0.0626 -0.0504
 6700SOL    HW131559   4.507   3.874  17.315 -1.4520  0.5880  0.4939
 6700SOL    HW231560   4.487   3.747  17.400  2.0584  0.3762 -0.5668
 6701SOL     OW31561   0.071   1.512   0.156  0.5254  0.0166  0.5872
 6701SOL    HW131562   0.006   1.543   0.218  0.3363  0.6500  0.0766
 6701SOL    HW231563   0.124   1.455   0.212 -0.1069 -0.3998  0.7562
 6702SOL     OW31564   3.957   3.033   0.912 -0.4633 -0.4381 -0.5097
 6702SOL    HW131565   3.940   2.940   0.929 -2.5980 -0.1445 -0.9713
 6702SOL    HW231566   3.868   3.053   0.882 -0.7248  0.0184  0.5783
 6703SOL     OW31567   0.234   3.860  14.914 -0.2636 -0.2730 -0.1640
 6703SOL    HW131568   0.270   3.821  14.993 -1.5395  0.4834  0.7840
 6703SOL    HW231569   0.275   3.805  14.847 -1.5146 -0.2206 -0.9745
 6704SOL     OW31570   2.156   1.008   3.000  0.1601  0.1887  0.3402
 6704SOL    HW131571   2.100   1.086   3.004 -1.5957 -1.0344 -0.0280
 6704SOL    HW231572   2.093   0.938   3.019  0.1127 -0.5698 -2.5112
 6705SOL     OW31573   3.509   3.639   6.773  0.7629  0.0158  0.2569
 6705SOL    HW131574   3.601   3.634   6.748  1.3522  1.9382  2.1233
 6705SOL    HW231575   3.481   3.555   6.736  0.7704  0.4715 -0.7656
 6706SOL     OW31576   3.720   2.907   2.291  0.3926 -0.1177  0.3898
 6706SOL    HW131577   3.721   2.909   2.387 -0.3448  1.8621  0.3606
 6706SOL    HW231578   3.701   2.814   2.278  0.3077 -0.0403 -0.0125
 6707SOL     OW31579   4.291   1.957  11.394  0.5968 -0.3854  0.4264
 6707SOL    HW131580   4.323   2.046  11.409 -0.2632  0.0510 -0.3091
 6707SOL    HW231581   4.202   1.987  11.373 -0.3966 -1.9436  2.4853
 6708SOL     OW31582   3.907   2.243  11.217  0.4370 -0.2220  0.1427
 6708SOL    HW131583   3.870   2.206  11.137 -0.2545 -2.7671  1.6588
 6708SOL    HW231584   3.984   2.295  11.192  0.0015 -0.9643 -2.7625
 6709SOL     OW31585   1.033   3.436   5.020 -0.1924 -0.1740 -0.6325
 6709SOL    HW131586   1.095   3.403   4.955  0.1729  1.4812 -1.1241
 6709SOL    HW231587   0.954   3.389   4.997 -0.3307 -0.4217  0.3645
 6710SOL     OW31588   0.143   1.391   4.052  0.6989 -0.2574  0.2348
 6710SOL    HW131589   0.052   1.414   4.073  1.1723  0.0856  1.9286
 6710SOL    HW231590   0.173   1.473   4.014 -1.6394 -0.7391 -2.6046
 6711SOL     OW31591   4.350   0.682   6.616 -0.1515  0.4176  0.0385
 6711SOL    HW131592   4.365   0.723   6.531 -0.7017  0.7978  0.1281
 6711SOL    HW231593   4.269   0.719   6.650 -1.2626 -2.7286  0.8071
 6712SOL     OW31594   1.105   3.924  15.618  0.5137 -0.6433 -0.1154
 6712SOL    HW131595   1.018   3.905  15.585  0.2161  2.3838 -1.0651
 6712SOL    HW231596   1.084   3.983  15.690  2.9484  1.0305 -0.7599
 6713SOL     OW31597   1.654   1.656   9.681 -0.3185  0.3375 -0.3049
 6713SOL    HW131598   1.570   1.670   9.725 -1.0699  1.6057 -2.1254
 6713SOL    HW231599   1.708   1.654   9.760 -0.2657 -0.0839 -0.3501
 6714SOL     OW31600   3.449   4.372  12.401  0.3553  0.0046 -0.1663
 6714SOL    HW131601   3.531   4.417  12.382  1.3873 -1.7638  0.0791
 6714SOL    HW231602   3.484   4.302  12.456  0.1059 -0.0672 -0.1023
 6715SOL     OW31603   3.786   2.373   8.051 -0.1115  0.8485  0.5274
 6715SOL    HW131604   3.860   2.314   8.066 -1.4335 -1.3770 -1.8708
 6715SOL    HW231605   3.745   2.368   8.137 -0.6453 -3.2169  0.0473
 6716SOL     OW31606   4.363   2.350   2.578  0.3755 -0.3440  0.5835
 6716SOL    HW131607   4.308   2.372   2.503 -2.0384  0.6461  2.6096
 6716SOL    HW231608   4.447   2.371   2.539  0.8062 -0.4943  1.4430
 6717SOL     OW31609   0.057   3.661   2.023  0.4016  0.3666 -0.0560
 6717SOL    HW131610   0.080   3.600   1.953 -0.6905 -0.7679  0.5784
 6717SOL    HW231611   0.019   3.606   2.092 -0.4762 -0.3998 -1.1523
 6718SOL     OW31612   2.679   4.159   7.307  0.0616  0.6073  0.0481
 6718SOL    HW131613   2.612   4.195   7.250 -0.0537 -0.4000 -0.4409
 6718SOL    HW231614   2.651   4.185   7.395  1.3535 -1.7804  1.1631
 6719SOL     OW31615   3.363   1.458   6.799 -0.1952  0.0936 -0.4662
 6719SOL    HW131616   3.321   1.374   6.783 -1.8053  0.9285 -0.6309
 6719SOL    HW231617   3.341   1.503   6.717  1.7048 -0.6090 -1.3643
 6720SOL     OW31618   4.286   4.504   2.587 -0.0614  0.2479 -0.1887
 6720SOL    HW131619   4.238   4.445   2.528 -1.2140  0.4437  0.5491
 6720SOL    HW231620   4.211   4.560   2.609 -0.0385  0.8004 -1.5022
 6721SOL     OW31621   2.615   3.338   7.961  0.0256  0.1749 -0.1970
 6721SOL    HW131622   2.583   3.266   8.017  0.3111 -0.1957 -0.5149
 6721SOL    HW231623   2.680   3.296   7.906  0.3632  0.7246 -0.2097
 6722SOL     OW31624   0.247   0.253   5.582  0.0558  0.3812  0.4384
 6722SOL    HW131625   0.160   0.217   5.599  0.5733 -0.4033  1.4819
 6722SOL    HW231626   0.229   0.346   5.572 -1.7282  0.1729  1.7283
 6723SOL     OW31627   3.774   0.668   3.101  0.0554  0.0211 -0.2079
 6723SOL    HW131628   3.792   0.657   3.007  3.9694  1.0557  0.4196
 6723SOL    HW231629   3.742   0.580   3.121 -1.0722  0.6188  0.5453
 6724SOL     OW31630   3.816   4.665   5.041 -0.1362  0.5690 -0.5217
 6724SOL    HW131631   3.835   4.708   5.124 -2.0109  1.3158 -0.4707
 6724SOL    HW231632   3.723   4.686   5.049 -0.4786 -1.8373  1.4632
 6725SOL     OW31633   1.102   1.780   7.164 -0.3278  0.0722  0.5032
 6725SOL    HW131634   1.138   1.734   7.240  0.0415 -0.0760  0.2368
 6725SOL    HW231635   1.180   1.801   7.114 -0.6270 -1.5183 -0.6153
 6726SOL     OW31636   1.227   1.813  10.567  0.0671  0.1762 -0.1384
 6726SOL    HW131637   1.303   1.777  10.521 -0.2076  1.5564 -1.6720
 6726SOL    HW231638   1.255   1.777  10.651  0.8440  1.6354  0.2400
 6727SOL     OW31639   4.436   4.119   4.940 -0.3127  0.2604 -0.1273
 6727SOL    HW131640   4.345   4.142   4.959 -0.0722  0.3472  0.9215
 6727SOL    HW231641   4.469   4.099   5.027  0.4861  1.8877 -0.0541
 6728SOL     OW31642   2.370   3.559  16.160  0.5258 -0.1470  0.5309
 6728SOL    HW131643   2.298   3.598  16.110  1.0574  0.2496  0.0796
 6728SOL    HW231644   2.320   3.539  16.240 -1.0296  0.0501 -0.3896
 6729SOL     OW31645   2.548   2.983   6.148 -0.4944  0.0688  0.0969
 6729SOL    HW131646   2.475   2.923   6.159 -0.9378  0.6355  0.2647
 6729SOL    HW231647   2.518   3.074   6.143  0.7397  0.4833 -0.0224
 6730SOL     OW31648   0.650   0.910  10.457 -0.1396  0.1061  0.0557
 6730SOL    HW131649   0.631   0.899  10.364  0.7283 -0.7834 -0.0134
 6730SOL    HW231650   0.699   0.993  10.458  0.9552 -0.5343 -0.0152
 6731SOL     OW31651   2.932   4.627   8.901  0.1523 -0.4452  0.4578
 6731SOL    HW131652   2.973   4.543   8.882  0.9629  0.1541 -0.4253
 6731SOL    HW231653   2.981   4.683   8.840  0.7588  0.0339  1.3740
 6732SOL     OW31654   3.854   3.561  16.098 -0.1632  0.1863 -0.6295
 6732SOL    HW131655   3.797   3.594  16.029 -1.8280 -0.8302  0.2449
 6732SOL    HW231656   3.783   3.521  16.149  1.4075  2.2593  3.2176
 6733SOL     OW31657   2.570   0.864   0.679 -0.2209 -0.2428  0.4942
 6733SOL    HW131658   2.551   0.955   0.702 -0.5002 -0.5366  1.4071
 6733SOL    HW231659   2.492   0.815   0.704 -1.6765  2.0029  0.4196
 6734SOL     OW31660   3.824   0.251   5.745  0.2889  0.9365  0.5421
 6734SOL    HW131661   3.758   0.315   5.774 -0.2495  0.8108 -0.4170
 6734SOL    HW231662   3.900   0.278   5.797  1.7018  1.9745 -2.0675
 6735SOL     OW31663   0.185   3.675  15.360 -0.0061 -0.5438  0.0525
 6735SOL    HW131664   0.143   3.590  15.344 -0.9712 -0.2505  1.0199
 6735SOL    HW231665   0.100   3.716  15.374 -0.1741 -0.7626 -0.3351
 6736SOL     OW31666   4.369   1.237   3.911 -0.2721 -0.1330  0.3142
 6736SOL    HW131667   4.446   1.208   3.861 -1.7161 -0.2553 -1.8385
 6736SOL    HW231668   4.358   1.320   3.865 -0.3167  0.4126  1.3248
 6737SOL     OW31669   4.175   3.546   0.965 -0.1984  0.6089 -0.0873
 6737SOL    HW131670   4.251   3.545   0.905 -0.5784  0.7209 -0.5718
 6737SOL    HW231671   4.104   3.592   0.920 -1.2571 -1.6684 -0.7159
 6738SOL     OW31672   1.277   2.708  14.620 -0.5136 -0.2777  0.4581
 6738SOL    HW131673   1.246   2.704  14.530  0.9321  2.0591 -0.1286
 6738SOL    HW231674   1.249   2.796  14.645  2.3854  0.0642  2.3828
 6739SOL     OW31675   3.104   0.473   5.111  0.2410 -0.2499 -0.2291
 6739SOL    HW131676   3.143   0.555   5.081 -0.0833 -0.2142 -0.5541
 6739SOL    HW231677   3.181   0.420   5.133 -0.8426 -0.9371  1.9022
 6740SOL     OW31678   1.114   1.379   8.387  0.0938 -0.2518  0.2643
 6740SOL    HW131679   1.068   1.305   8.426 -1.0579 -0.0564 -0.7283
 6740SOL    HW231680   1.128   1.356   8.295 -0.4994  1.4783 -0.2631
 6741SOL     OW31681   2.418   2.655  14.859  0.4045  0.6853  0.0172
 6741SOL    HW131682   2.375   2.740  14.861 -0.7950  0.0589  0.8713
 6741SOL    HW231683   2.505   2.694  14.861  0.1377  1.2078  1.3171
 6742SOL     OW31684   2.001   0.888   3.447  0.0741 -0.0309  0.2168
 6742SOL    HW131685   2.057   0.896   3.370 -0.0663 -0.5091  0.0667
 6742SOL    HW231686   2.023   0.800   3.476 -0.1753 -0.1903 -0.0763
 6743SOL     OW31687   2.802   3.522   8.079 -0.9288 -0.0913  0.6436
 6743SOL    HW131688   2.856   3.534   8.001  1.1721 -3.2134  1.6300
 6743SOL    HW231689   2.725   3.478   8.042  0.3488 -0.9091 -1.0694
 6744SOL     OW31690   3.666   3.336  11.598 -0.2563  0.9608 -0.0077
 6744SOL    HW131691   3.669   3.245  11.627  2.5664  0.8218 -0.7383
 6744SOL    HW231692   3.649   3.317  11.505  1.1654 -2.2210  0.3741
 6745SOL     OW31693   3.073   2.162   7.206  0.3225  0.0890 -0.0736
 6745SOL    HW131694   3.081   2.252   7.240 -0.5897  0.0951  0.1388
 6745SOL    HW231695   2.979   2.158   7.187 -0.0806  0.9220  1.6645
 6746SOL     OW31696   4.490   1.907   4.056  0.4526  0.3253 -0.0928
 6746SOL    HW131697   4.485   1.812   4.046  0.5902  0.3791 -0.6601
 6746SOL    HW231698   4.398   1.934   4.059  0.3184 -0.3434  1.4698
 6747SOL     OW31699   2.981   0.895   1.631 -0.2769  0.7529  0.4189
 6747SOL    HW131700   2.904   0.856   1.673 -1.8275  1.9333 -1.2835
 6747SOL    HW231701   3.012   0.822   1.577 -1.5460  1.1195 -0.8251
 6748SOL     OW31702   3.212   0.431   0.882  0.4597  0.1533  0.1205
 6748SOL    HW131703   3.207   0.337   0.899 -0.1320  0.1351 -0.1772
 6748SOL    HW231704   3.133   0.435   0.829 -0.5144 -2.6413  1.4030
 6749SOL     OW31705   2.188   0.929   6.951  0.7341  0.1040  0.3205
 6749SOL    HW131706   2.218   0.875   6.878  1.7412  0.6838  0.3051
 6749SOL    HW231707   2.178   0.873   7.027  0.3804 -0.5526 -0.2094
 6750SOL     OW31708   1.353   2.607   3.589 -0.0374 -0.1480  0.3480
 6750SOL    HW131709   1.281   2.617   3.527  1.6789  1.5201 -1.3879
 6750SOL    HW231710   1.367   2.513   3.592 -2.3974 -0.5403 -0.7268
 6751SOL     OW31711   3.593   2.947   3.487  0.0768  0.5581 -0.1309
 6751SOL    HW131712   3.595   2.951   3.392  0.6314  0.3947 -0.1243
 6751SOL    HW231713   3.669   3.003   3.505  1.2652 -0.9538 -0.5047
 6752SOL     OW31714   1.911   4.626   9.124 -0.5819  0.1469 -0.0033
 6752SOL    HW131715   2.005   4.615   9.108 -0.5815 -0.2866  0.3008
 6752SOL    HW231716   1.916   4.711   9.168  0.5842  0.1998 -0.2331
 6753SOL     OW31717   4.360   1.292   5.044  0.1970  0.0826 -0.1896
 6753SOL    HW131718   4.423   1.224   5.021 -0.0828 -0.3054  0.1943
 6753SOL    HW231719   4.407   1.374   5.029 -0.2771  0.6542  1.4374
 6754SOL     OW31720   4.086   1.392   8.360  0.2012 -0.2077  0.2795
 6754SOL    HW131721   4.036   1.432   8.432 -2.7854 -0.8820 -1.4438
 6754SOL    HW231722   4.176   1.408   8.388  0.7661 -1.4086 -0.8604
 6755SOL     OW31723   1.779   3.244   6.369  0.5374 -0.0960  0.2588
 6755SOL    HW131724   1.721   3.176   6.335  0.2041 -0.8638  2.3720
 6755SOL    HW231725   1.810   3.281   6.286 -2.2412 -0.0498 -0.7690
 6756SOL     OW31726   1.632   1.298   2.138  0.1361  0.0886  0.5452
 6756SOL    HW131727   1.576   1.344   2.200  1.0868  2.3479 -0.2989
 6756SOL    HW231728   1.621   1.353   2.060 -0.1814 -1.6923 -0.6959
 6757SOL     OW31729   1.213   3.915   8.921 -0.3163  0.3494 -0.5457
 6757SOL    HW131730   1.185   4.006   8.911 -0.8025  0.2687  0.0331
 6757SOL    HW231731   1.299   3.932   8.959 -1.0414 -0.7489  1.6353
 6758SOL     OW31732   1.444   3.711   8.305  0.4880  0.2853 -0.1074
 6758SOL    HW131733   1.539   3.723   8.311  0.4231  0.9507 -0.4040
 6758SOL    HW231734   1.434   3.638   8.366  2.1853 -0.0475 -0.2384
 6759SOL     OW31735   2.085   3.558  16.091 -0.1311 -0.6998  0.1987
 6759SOL    HW131736   2.038   3.557  16.008  0.1616 -1.9874  0.0602
 6759SOL    HW231737   2.033   3.632  16.123  0.9126  0.1817 -0.1501
 6760SOL     OW31738   1.831   2.924   3.621  0.0029  0.3387 -0.1068
 6760SOL    HW131739   1.786   2.987   3.565 -0.7845 -1.0252 -1.0018
 6760SOL    HW231740   1.921   2.946   3.596  0.3366 -1.1497 -0.2261
 6761SOL     OW31741   2.390   0.611   0.490 -0.5213 -0.5017 -0.0088
 6761SOL    HW131742   2.468   0.657   0.459 -0.8611 -0.6440 -1.0960
 6761SOL    HW231743   2.403   0.525   0.448  1.0529  0.3754 -1.3270
 6762SOL     OW31744   1.605   1.517   4.192 -0.0960 -0.2497  0.0532
 6762SOL    HW131745   1.548   1.594   4.197 -0.1367 -0.2070 -1.0234
 6762SOL    HW231746   1.537   1.451   4.178  0.6060 -0.5614 -1.8411
 6763SOL     OW31747   4.346   3.866   9.427  0.3481 -0.3314 -0.8556
 6763SOL    HW131748   4.407   3.832   9.492 -1.2712  0.6539  1.1380
 6763SOL    HW231749   4.342   3.955   9.461  0.8700 -0.5215 -0.2951
 6764SOL     OW31750   1.776   2.083  11.462  0.5017  0.1195  0.0929
 6764SOL    HW131751   1.833   2.150  11.425  0.8734  0.9986  2.3010
 6764SOL    HW231752   1.840   2.011  11.459  1.4130  0.9769 -1.0384
 6765SOL     OW31753   3.053   0.200   5.075  0.8528 -0.4734  0.0304
 6765SOL    HW131754   3.027   0.226   4.987 -1.3438  1.1332  1.1663
 6765SOL    HW231755   3.032   0.285   5.115 -1.0648 -0.3575 -1.2501
 6766SOL     OW31756   1.642   3.529   5.118 -0.0419 -0.4196 -0.1754
 6766SOL    HW131757   1.699   3.495   5.049 -2.1696 -3.0866 -0.6303
 6766SOL    HW231758   1.710   3.581   5.161 -0.8186  0.4579 -0.0237
 6767SOL     OW31759   3.030   0.677  10.827 -0.1082 -0.0722 -0.3715
 6767SOL    HW131760   3.100   0.722  10.874 -0.3896  0.7657 -0.7634
 6767SOL    HW231761   2.984   0.633  10.899 -1.3736  2.9262  0.6570
 6768SOL     OW31762   2.617   0.076   9.123  0.2986  0.0629 -0.2786
 6768SOL    HW131763   2.694   0.036   9.163 -0.1498 -0.2174  0.2937
 6768SOL    HW231764   2.664   0.154   9.092  1.5212 -0.0760  1.2489
 6769SOL     OW31765   2.948   1.695   5.044 -0.0168  0.3149  0.5319
 6769SOL    HW131766   2.895   1.744   5.106  0.9600 -0.6558  2.1363
 6769SOL    HW231767   3.036   1.695   5.083  0.5555  4.4239 -0.7469
 6770SOL     OW31768   1.771   0.377   4.517  0.3975 -0.1274 -0.4765
 6770SOL    HW131769   1.857   0.358   4.555 -0.3642 -0.5918  1.0284
 6770SOL    HW231770   1.734   0.290   4.529 -0.5144  0.3774  0.4264
 6771SOL     OW31771   0.391   2.086  11.783  0.3099  0.4125  0.3860
 6771SOL    HW131772   0.460   2.151  11.774  1.9210 -1.6080 -1.7200
 6771SOL    HW231773   0.431   2.015  11.834  0.2261 -0.0388 -0.1778
 6772SOL     OW31774   0.469   4.523   4.496  0.9476 -0.1917 -0.3167
 6772SOL    HW131775   0.374   4.530   4.486  0.9863  0.8933 -0.0143
 6772SOL    HW231776   0.503   4.588   4.434  1.9278  0.4866  0.9205
 6773SOL     OW31777   2.528   0.267   8.224 -0.1355  0.0688 -0.5225
 6773SOL    HW131778   2.557   0.352   8.255  2.4198 -0.4007 -1.5991
 6773SOL    HW231779   2.451   0.254   8.279  0.6760  0.6596  0.7392
 6774SOL     OW31780   3.735   2.973   7.196 -0.0238  0.1077 -0.6316
 6774SOL    HW131781   3.771   2.939   7.278  1.1298 -2.3275 -2.1426
 6774SOL    HW231782   3.709   2.885   7.168 -1.0839  0.1890  0.0713
 6775SOL     OW31783   4.053   0.280   5.869  0.5412 -0.3557 -0.1388
 6775SOL    HW131784   4.070   0.211   5.932 -0.4055 -0.0539  0.4388
 6775SOL    HW231785   4.115   0.250   5.802 -1.9471  0.4621 -2.8340
 6776SOL     OW31786   0.241   1.124   6.375 -0.4473  0.1998  0.3285
 6776SOL    HW131787   0.332   1.131   6.406 -0.8455 -1.2792  1.8578
 6776SOL    HW231788   0.187   1.091   6.448 -1.3992  0.4416 -0.2704
 6777SOL     OW31789   3.845   0.595   4.033  0.5634  0.0103  0.0753
 6777SOL    HW131790   3.775   0.654   4.060  0.8526  0.2765  0.2320
 6777SOL    HW231791   3.917   0.655   4.014  0.8749 -0.7834 -1.3056
 6778SOL     OW31792   1.604   4.323   9.167  0.3340  0.4813 -0.0049
 6778SOL    HW131793   1.640   4.300   9.252  1.0348  1.3741 -0.0589
 6778SOL    HW231794   1.672   4.292   9.108 -0.1995  2.3474 -1.6050
 6779SOL     OW31795   0.769   4.372  17.442 -0.1505  0.8394  0.2747
 6779SOL    HW131796   0.686   4.398  17.482 -1.6171 -0.9241 -1.6000
 6779SOL    HW231797   0.814   4.454  17.422  1.7893  0.3225  2.5792
 6780SOL     OW31798   0.087   0.132   6.991  0.2138 -0.1966 -0.3768
 6780SOL    HW131799   0.046   0.187   7.058  0.0062 -0.3641 -0.3669
 6780SOL    HW231800   0.049   0.179   6.916 -0.7134  0.2191  0.3549
 6781SOL     OW31801   0.944   1.254   2.239  0.4292  0.3331 -0.1574
 6781SOL    HW131802   0.938   1.190   2.167  1.5947  0.2569 -0.1919
 6781SOL    HW231803   1.037   1.277   2.235 -0.0042  1.7975 -1.8624
 6782SOL     OW31804   3.367   2.353   2.570 -0.5878  0.3557 -0.4204
 6782SOL    HW131805   3.347   2.383   2.658 -1.1680 -1.5362  0.0841
 6782SOL    HW231806   3.426   2.418   2.531 -1.3226  1.8493  0.9772
 6783SOL     OW31807   4.416   3.526  16.473 -0.2454  0.3075 -0.7489
 6783SOL    HW131808   4.329   3.568  16.472 -0.2302  0.3518  1.3942
 6783SOL    HW231809   4.418   3.491  16.562 -0.6700  0.8209 -0.5335
 6784SOL     OW31810   2.062   3.024   7.082 -0.2213 -0.3163 -0.1448
 6784SOL    HW131811   2.066   3.085   7.156  1.2471 -2.8273  1.8455
 6784SOL    HW231812   2.079   2.940   7.126 -0.4616 -0.2624  0.0507
 6785SOL     OW31813   1.858   3.445  14.770 -0.7453  0.2808 -0.0199
 6785SOL    HW131814   1.917   3.505  14.724 -0.4165 -0.5001 -0.6303
 6785SOL    HW231815   1.848   3.484  14.856  4.1654 -0.6045  0.9519
 6786SOL     OW31816   2.708   0.899   1.714 -0.0302 -0.6920  0.1031
 6786SOL    HW131817   2.667   0.852   1.787 -4.1295  1.3319 -0.9026
 6786SOL    HW231818   2.682   0.989   1.732  1.6275 -0.7579  2.7817
 6787SOL     OW31819   1.860   0.892   2.031 -0.3178 -0.0256  0.0859
 6787SOL    HW131820   1.790   0.844   2.076  1.6443 -3.1565 -0.2187
 6787SOL    HW231821   1.818   0.973   2.002  0.2887 -0.5018 -2.1101
 6788SOL     OW31822   0.111   0.359  15.872  0.8725  0.3283  0.0319
 6788SOL    HW131823   0.101   0.454  15.869 -1.9234  0.0302 -0.2228
 6788SOL    HW231824   0.191   0.348  15.924  0.6840  3.3378  0.9747
 6789SOL     OW31825   2.065   2.461  12.625  0.2966  0.2959 -0.1986
 6789SOL    HW131826   2.152   2.422  12.637 -0.2029 -0.1383  2.0762
 6789SOL    HW231827   2.066   2.462  12.530  0.8285  0.0127 -0.1938
 6790SOL     OW31828   3.312   0.355  11.588  0.5631 -0.1073  0.0033
 6790SOL    HW131829   3.257   0.315  11.654 -0.6250 -0.4548 -1.1911
 6790SOL    HW231830   3.386   0.386  11.640  0.2864  0.4617  0.0588
 6791SOL     OW31831   0.946   1.099   7.920  0.0859  0.8736 -0.0409
 6791SOL    HW131832   1.029   1.133   7.953 -1.0849  1.8528  1.9292
 6791SOL    HW231833   0.924   1.175   7.866 -1.1237  0.1913 -0.4956
 6792SOL     OW31834   3.793   3.317   4.138 -0.4985 -0.2648  0.5826
 6792SOL    HW131835   3.844   3.318   4.057  0.4208 -0.5806  1.1535
 6792SOL    HW231836   3.855   3.283   4.203 -2.0665 -2.6111  0.8768
 6793SOL     OW31837   1.202   1.971  13.854 -0.2655  0.4247 -0.2166
 6793SOL    HW131838   1.186   1.913  13.780  1.1492 -1.8814  1.2760
 6793SOL    HW231839   1.234   2.050  13.811  0.8884 -0.4993 -1.0400
 6794SOL     OW31840   2.293   0.476   9.700  0.2115 -0.5116 -0.0377
 6794SOL    HW131841   2.203   0.450   9.681  0.6410 -0.8123 -1.6498
 6794SOL    HW231842   2.338   0.490   9.617  1.0292  0.9532  0.6444
 6795SOL     OW31843   1.537   3.121  15.987  0.4574 -0.5773  0.1984
 6795SOL    HW131844   1.544   3.056  15.918  0.9458  0.9895 -1.2244
 6795SOL    HW231845   1.602   3.114  16.058  1.4692 -1.2059 -0.7954
 6796SOL     OW31846   0.098   0.227  17.095 -0.3133 -0.0224  0.1937
 6796SOL    HW131847   0.017   0.259  17.134 -0.4091  1.2173 -1.0612
 6796SOL    HW231848   0.097   0.135  17.121  1.1015  0.2557  1.2655
 6797SOL     OW31849   3.401   0.411   7.740 -0.1191 -0.7273  0.0988
 6797SOL    HW131850   3.391   0.355   7.662  0.1132  0.9976 -1.1824
 6797SOL    HW231851   3.433   0.495   7.707  0.0434 -0.5829  0.6380
 6798SOL     OW31852   2.954   0.684   4.530  0.9563  0.2762  0.1711
 6798SOL    HW131853   2.912   0.601   4.550  1.1454 -0.3546 -2.0396
 6798SOL    HW231854   2.939   0.692   4.435 -1.0948 -3.4140  0.1973
 6799SOL     OW31855   1.399   3.041  17.035  0.5833 -0.0748  0.2412
 6799SOL    HW131856   1.450   2.997  17.103  1.2409  1.0984  0.4996
 6799SOL    HW231857   1.399   2.965  16.977 -0.7852  1.4262 -1.7327
 6800SOL     OW31858   2.394   0.697   7.936 -0.5450 -0.2183 -0.2924
 6800SOL    HW131859   2.447   0.709   8.014 -0.2913 -1.0197 -0.3438
 6800SOL    HW231860   2.369   0.605   7.946  0.2203 -0.3915 -0.0052
 6801SOL     OW31861   2.585   1.738  17.407  0.4652 -0.1247  0.0090
 6801SOL    HW131862   2.640   1.660  17.416  0.6069 -0.3674 -3.1633
 6801SOL    HW231863   2.497   1.703  17.394  1.1145 -0.9554 -1.9957
 6802SOL     OW31864   0.227   2.494  13.347 -0.2919 -0.6690  0.2028
 6802SOL    HW131865   0.258   2.500  13.438  0.2213  1.3401 -0.1206
 6802SOL    HW231866   0.213   2.585  13.322  0.4288 -0.8625 -0.9300
 6803SOL     OW31867   4.615   0.036   3.974  0.7609 -0.4195 -0.0973
 6803SOL    HW131868   4.635   0.001   3.887 -0.9697 -2.3540  0.2708
 6803SOL    HW231869   4.699   0.071   4.000  0.7104 -0.9576  0.7845
 6804SOL     OW31870   2.968   0.126   1.289 -0.4703 -0.1464 -0.2788
 6804SOL    HW131871   3.030   0.055   1.276  0.6722  0.6472  0.7815
 6804SOL    HW231872   3.019   0.192   1.336 -0.1794 -1.0302  0.6477
 6805SOL     OW31873   1.576   0.771   8.715 -0.2594  0.4002  0.1239
 6805SOL    HW131874   1.520   0.694   8.708 -1.1050  0.9202  1.1365
 6805SOL    HW231875   1.594   0.785   8.807  3.1939 -2.1691 -0.1825
 6806SOL     OW31876   3.956   2.672   3.934 -0.1215  0.3909 -0.0832
 6806SOL    HW131877   4.008   2.696   3.857  0.0581 -1.8888 -0.6628
 6806SOL    HW231878   3.908   2.754   3.944  0.1011  0.2506  2.2557
 6807SOL     OW31879   3.046   2.343   0.637 -0.3793  0.6517 -0.1712
 6807SOL    HW131880   3.053   2.372   0.546 -0.3288 -2.8169 -1.2668
 6807SOL    HW231881   3.020   2.427   0.675 -1.2232  1.2483 -2.0869
 6808SOL     OW31882   1.206   3.324   8.508  0.6320  0.0405  0.1002
 6808SOL    HW131883   1.114   3.326   8.534  0.8236 -0.2988  0.7922
 6808SOL    HW231884   1.207   3.279   8.423 -2.5151  1.2221 -0.5592
 6809SOL     OW31885   2.966   4.593   7.678 -0.1372 -0.3359  0.5679
 6809SOL    HW131886   3.035   4.529   7.693  0.6629  1.0952  3.1019
 6809SOL    HW231887   2.939   4.570   7.589 -0.5600 -0.8248  0.8222
 6810SOL     OW31888   2.063   3.266  12.190 -0.5102  0.0613  0.1248
 6810SOL    HW131889   2.039   3.341  12.245  1.9611  1.1179 -0.2515
 6810SOL    HW231890   1.985   3.255  12.137  0.3063 -0.8842 -0.8689
 6811SOL     OW31891   1.540   1.428   7.050 -0.6038 -0.1353  0.0661
 6811SOL    HW131892   1.491   1.476   6.983 -1.6077  0.9822  1.5738
 6811SOL    HW231893   1.505   1.476   7.125  0.5340  2.8107 -1.2718
 6812SOL     OW31894   1.956   0.221   3.606 -0.1540  0.1497 -0.2635
 6812SOL    HW131895   2.041   0.248   3.639 -0.8486  1.1502  0.6944
 6812SOL    HW231896   1.944   0.279   3.530  0.0957 -0.8869 -1.1006
 6813SOL     OW31897   0.995   4.510   7.924 -0.1251  0.3502 -0.1112
 6813SOL    HW131898   0.960   4.453   7.855  1.4532  0.6480 -1.1845
 6813SOL    HW231899   1.073   4.545   7.880  0.9904 -1.1806  0.6680
 6814SOL     OW31900   0.408   3.477   4.715  0.3463  0.6346  0.5858
 6814SOL    HW131901   0.317   3.458   4.691 -0.0714  0.7943  2.0430
 6814SOL    HW231902   0.398   3.519   4.800 -1.2595  1.8159 -0.1774
 6815SOL     OW31903   3.673   3.085  11.680 -0.5390 -0.8003  0.4403
 6815SOL    HW131904   3.717   3.034  11.748 -1.2559  1.8925  2.9190
 6815SOL    HW231905   3.688   3.012  11.620  0.5735 -0.4201  0.2483
 6816SOL     OW31906   2.943   2.550   6.945 -0.3510 -0.6673 -0.0942
 6816SOL    HW131907   2.946   2.459   6.976  1.0307  0.1985  2.3081
 6816SOL    HW231908   3.032   2.566   6.976 -0.1228  0.9451 -1.6133
 6817SOL     OW31909   2.625   2.814   5.567  0.3073  0.7759  0.3417
 6817SOL    HW131910   2.551   2.859   5.607 -1.3548  1.4927 -3.5385
 6817SOL    HW231911   2.654   2.753   5.635 -3.7183  0.1051  1.4344
 6818SOL     OW31912   3.893   1.232   8.245 -0.2148 -0.2177 -0.2405
 6818SOL    HW131913   3.967   1.266   8.295  0.2782 -0.2549 -0.9416
 6818SOL    HW231914   3.819   1.272   8.292 -0.8093 -1.2569 -0.3043
 6819SOL     OW31915   1.795   1.170  14.805  0.2648  0.1019 -0.2606
 6819SOL    HW131916   1.707   1.208  14.805  0.5707  0.7932 -1.8589
 6819SOL    HW231917   1.817   1.180  14.897  1.0687  0.0692 -0.4494
 6820SOL     OW31918   2.081   3.989   6.320  0.5952  0.3485  0.7512
 6820SOL    HW131919   2.067   3.975   6.414  1.4406 -0.8744  0.6913
 6820SOL    HW231920   2.127   4.073   6.315  1.7331 -0.3610 -0.6540
 6821SOL     OW31921   2.244   0.765   6.734  0.0972  0.3733  0.7916
 6821SOL    HW131922   2.333   0.772   6.700  0.2166 -1.7636  0.6459
 6821SOL    HW231923   2.245   0.676   6.769  0.5289 -0.0307 -0.2493
 6822SOL     OW31924   1.986   0.908   3.729 -0.0236  0.5156  1.0035
 6822SOL    HW131925   1.892   0.922   3.717 -0.1564 -0.4216  0.9811
 6822SOL    HW231926   2.014   0.962   3.655  0.0920 -0.9300 -0.0049
 6823SOL     OW31927   0.109   1.324   6.619 -0.5276  0.6681  0.2861
 6823SOL    HW131928   0.044   1.268   6.579  1.7916  0.2887 -3.0087
 6823SOL    HW231929   0.128   1.384   6.547 -1.9900  1.4618  0.5573
 6824SOL     OW31930   1.865   0.053   1.715 -0.4874  0.2974 -0.6522
 6824SOL    HW131931   1.784   0.008   1.737  0.1045  0.3198  1.5628
 6824SOL    HW231932   1.907   0.033   1.799 -2.9259  3.9206  1.3676
 6825SOL     OW31933   2.133   1.140   9.700 -0.6294 -0.4579  0.6512
 6825SOL    HW131934   2.211   1.154   9.647 -1.6427  0.9013 -0.4842
 6825SOL    HW231935   2.167   1.093   9.777  1.0519 -0.7679 -0.2968
 6826SOL     OW31936   3.689   2.642   1.004 -0.3592 -0.2304  0.5575
 6826SOL    HW131937   3.663   2.551   0.989  0.5086 -0.1571 -1.4491
 6826SOL    HW231938   3.604   2.684   0.997  0.2946  0.9373 -0.4610
 6827SOL     OW31939   3.610   1.329   2.479 -0.0722 -0.4426 -0.3008
 6827SOL    HW131940   3.551   1.329   2.554  1.7218  2.8921  1.1026
 6827SOL    HW231941   3.690   1.371   2.510  0.0861 -2.0115  1.4553
 6828SOL     OW31942   4.613   0.394  13.857  0.2511 -0.1440 -0.0097
 6828SOL    HW131943   4.603   0.354  13.944  0.6704  2.6872  1.3497
 6828SOL    HW231944   4.524   0.393  13.822 -0.0664  1.9377  0.6951
 6829SOL     OW31945   1.005   2.722   8.770 -0.7869  0.1958 -0.0639
 6829SOL    HW131946   0.959   2.639   8.775 -2.3524  0.9895 -1.4911
 6829SOL    HW231947   1.098   2.702   8.780 -0.5526  0.8738 -0.9589
 6830SOL     OW31948   4.080   1.086   2.439  0.4858  0.0975  0.0659
 6830SOL    HW131949   4.130   1.133   2.506  1.1181 -0.3457 -0.0969
 6830SOL    HW231950   4.149   1.050   2.383  0.9358  3.1890 -1.3692
 6831SOL     OW31951   1.906   0.314  15.648 -0.5617 -0.5098 -0.1829
 6831SOL    HW131952   1.921   0.221  15.669  0.0591 -0.6634 -1.3288
 6831SOL    HW231953   1.825   0.300  15.598 -1.1424  2.9908 -0.2333
 6832SOL     OW31954   2.670   3.164   2.732 -0.2805 -0.0874  0.4642
 6832SOL    HW131955   2.592   3.171   2.677 -0.0188  2.0519  0.3662
 6832SOL    HW231956   2.739   3.213   2.688 -1.5523  0.7558 -0.5796
 6833SOL     OW31957   2.997   3.555   3.258 -0.3722  0.4884 -0.0414
 6833SOL    HW131958   3.066   3.575   3.195  1.8714  1.7739  2.8830
 6833SOL    HW231959   2.976   3.462   3.250  2.0198 -0.0087 -0.6044
 6834SOL     OW31960   2.679   1.598   5.591  0.9623 -0.1066  0.2208
 6834SOL    HW131961   2.600   1.549   5.614  1.9176 -2.1134 -0.7505
 6834SOL    HW231962   2.718   1.549   5.518  0.5031  1.7065 -1.2603
 6835SOL     OW31963   1.663   2.920  13.144  0.8523  0.1055 -0.2010
 6835SOL    HW131964   1.715   2.984  13.095  0.0018  0.6719 -0.3531
 6835SOL    HW231965   1.579   2.964  13.152  0.1084 -1.6982  2.0287
 6836SOL     OW31966   1.258   4.184   6.002 -0.3236 -0.1636 -0.4160
 6836SOL    HW131967   1.192   4.145   6.059  0.1293 -1.7525 -0.9863
 6836SOL    HW231968   1.245   4.277   6.023  0.5349  0.1939 -1.4676
 6837SOL     OW31969   4.015   4.633   3.763  0.4263 -0.8514 -0.8840
 6837SOL    HW131970   4.007   0.004   3.773 -1.3127 -1.1715  0.7570
 6837SOL    HW231971   4.110   4.630   3.753  0.6894  1.5862  0.8331
 6838SOL     OW31972   1.005   1.476   1.709  0.1906 -0.3511  0.1564
 6838SOL    HW131973   1.043   1.465   1.622  1.6428  1.0393  0.6199
 6838SOL    HW231974   0.915   1.445   1.705 -0.1183  0.7200 -0.8741
 6839SOL     OW31975   1.150   0.412   4.101  0.1526 -1.0755 -0.0443
 6839SOL    HW131976   1.085   0.342   4.105 -0.2032 -0.7181  0.4393
 6839SOL    HW231977   1.230   0.365   4.075 -1.8909 -4.3093 -0.4054
 6840SOL     OW31978   4.529   3.515   3.993  0.3579  0.2944 -0.0171
 6840SOL    HW131979   4.556   3.478   4.077 -0.2198  0.8734  0.4277
 6840SOL    HW231980   4.516   3.431   3.949  1.3346  0.1486 -0.0205
 6841SOL     OW31981   2.483   3.741   8.832 -0.1741  0.0071  0.1168
 6841SOL    HW131982   2.471   3.810   8.767  0.2009  1.2667  1.3838
 6841SOL    HW231983   2.393   3.726   8.861  0.0546 -0.1789  0.7116
 6842SOL     OW31984   4.427   2.452   5.530 -0.0165 -0.1741  0.2930
 6842SOL    HW131985   4.422   2.358   5.514  0.3801 -0.0398 -0.6563
 6842SOL    HW231986   4.382   2.458   5.614 -2.5110  0.7552 -1.1315
 6843SOL     OW31987   3.805   3.516  15.498  0.3439  1.1045 -0.2574
 6843SOL    HW131988   3.772   3.603  15.521  0.1458  0.2671  2.5445
 6843SOL    HW231989   3.897   3.535  15.513  0.4804 -0.3870  0.8160
 6844SOL     OW31990   3.619   4.666   8.302 -0.2664 -0.0977 -0.6261
 6844SOL    HW131991   3.660   4.706   8.225  0.8632 -2.0820 -1.0562
 6844SOL    HW231992   3.556   0.011   8.325  0.3927 -0.3294  1.8694
 6845SOL     OW31993   4.166   1.649  14.611  0.1307 -0.6787 -0.7213
 6845SOL    HW131994   4.169   1.613  14.522 -2.6253 -0.2174 -0.9977
 6845SOL    HW231995   4.157   1.570  14.664 -1.2049 -0.8284 -1.1674
 6846SOL     OW31996   2.235   2.756  12.540 -0.2284  0.0455 -0.0399
 6846SOL    HW131997   2.302   2.690  12.521 -2.9698 -2.5919 -0.5645
 6846SOL    HW231998   2.170   2.753  12.470  1.5820  1.8331 -1.7731
 6847SOL     OW31999   4.196   2.663   2.351 -0.1916 -0.3205  0.6553
 6847SOL    HW132000   4.265   2.597   2.358  1.9269  1.6977 -1.2709
 6847SOL    HW232001   4.132   2.625   2.289 -1.1348  2.2454  0.0642
 6848SOL     OW32002   1.356   4.164   0.583  0.0608 -0.3085  0.0181
 6848SOL    HW132003   1.322   4.143   0.670  4.2468 -0.7704  1.5384
 6848SOL    HW232004   1.381   4.256   0.589 -0.3373 -0.1225 -1.1141
 6849SOL     OW32005   0.426   0.657   4.866 -0.4567  0.0081 -0.2569
 6849SOL    HW132006   0.379   0.576   4.849  0.2804 -0.5989  0.6040
 6849SOL    HW232007   0.488   0.668   4.793 -1.5820  1.4531 -1.0057
 6850SOL     OW32008   1.806   0.604   9.615 -0.3946  0.4777  0.5279
 6850SOL    HW132009   1.866   0.634   9.546  1.7280  0.0834  2.2260
 6850SOL    HW232010   1.805   0.683   9.669  0.2647 -0.6411  2.1598
 6851SOL     OW32011   4.210   3.351   3.877  0.0309  0.1988  0.1580
 6851SOL    HW132012   4.284   3.291   3.872 -0.3406 -0.2112 -0.6583
 6851SOL    HW232013   4.249   3.426   3.921 -0.6325 -0.7219  2.3095
 6852SOL     OW32014   1.118   3.800   6.835 -0.0705 -0.8216  0.1234
 6852SOL    HW132015   1.174   3.781   6.911 -0.5208 -2.2264  0.0981
 6852SOL    HW232016   1.173   3.750   6.774 -2.0783 -1.7158 -0.9456
 6853SOL     OW32017   1.284   3.453   6.144 -0.5461  0.0863  0.0934
 6853SOL    HW132018   1.271   3.481   6.054 -0.4663  1.2345  0.4359
 6853SOL    HW232019   1.378   3.434   6.146 -0.9105 -1.5519  3.0935
 6854SOL     OW32020   2.615   1.152   3.024  0.3706  0.1954  0.2781
 6854SOL    HW132021   2.631   1.079   2.965 -1.8551 -1.2208  1.4067
 6854SOL    HW232022   2.519   1.150   3.025  0.3306  0.2840 -2.5983
 6855SOL     OW32023   2.856   0.156   7.464 -0.0379 -0.8731  0.0210
 6855SOL    HW132024   2.951   0.168   7.469 -0.3422  0.8402  1.4597
 6855SOL    HW232025   2.835   0.110   7.546  0.3579 -0.5147  0.3248
 6856SOL     OW32026   1.836   2.894   6.228  0.6378 -0.0370  0.1679
 6856SOL    HW132027   1.921   2.938   6.236  1.6369 -2.2844  1.9406
 6856SOL    HW232028   1.794   2.946   6.159 -0.6609 -2.0470 -0.5365
 6857SOL     OW32029   2.870   0.983   2.274 -0.0556  0.7674  0.4422
 6857SOL    HW132030   2.845   0.941   2.357 -1.3075  2.3835  0.8952
 6857SOL    HW232031   2.868   0.918   2.205 -0.7666  2.5390 -1.2106
 6858SOL     OW32032   2.946   0.475  13.764 -0.0975  0.4888  0.0403
 6858SOL    HW132033   2.905   0.503  13.846 -1.1107 -0.6662 -0.0735
 6858SOL    HW232034   2.920   0.543  13.702  0.8373  3.1800  2.6350
 6859SOL     OW32035   4.506   3.795   1.142 -0.3523  0.6089 -0.3661
 6859SOL    HW132036   4.440   3.741   1.185 -1.4518  1.3852 -1.0816
 6859SOL    HW232037   4.538   3.723   1.088  0.2692  0.5381  0.0931
 6860SOL     OW32038   4.510   1.873  13.706 -0.4698 -0.0647  0.0288
 6860SOL    HW132039   4.517   1.885  13.801 -1.6561 -1.1449  0.2536
 6860SOL    HW232040   4.519   1.962  13.672 -1.2287 -0.2273 -0.5933
 6861SOL     OW32041   2.295   0.158  16.984  0.3013 -0.0117 -0.1144
 6861SOL    HW132042   2.216   0.191  17.026 -2.2827 -3.2680 -2.3936
 6861SOL    HW232043   2.256   0.135  16.899  1.0125  2.4945 -1.1133
 6862SOL     OW32044   2.319   2.861   6.250  0.4379  0.2601 -0.2786
 6862SOL    HW132045   2.246   2.890   6.195  0.7524  1.1256 -0.2483
 6862SOL    HW232046   2.314   2.769   6.223 -1.7438  0.3299 -0.1138
 6863SOL     OW32047   1.302   2.431   7.840  0.0951 -0.0692  0.4834
 6863SOL    HW132048   1.230   2.448   7.780  1.1900  1.4160 -0.4211
 6863SOL    HW232049   1.329   2.517   7.871 -1.5789  2.1910 -4.2284
 6864SOL     OW32050   3.161   1.012   5.264 -0.4420 -0.0896 -0.2397
 6864SOL    HW132051   3.212   1.069   5.322  1.8836 -2.8068  0.3977
 6864SOL    HW232052   3.221   1.021   5.190  0.0258 -1.8526 -0.0634
 6865SOL     OW32053   0.665   1.999  11.100  0.4747  0.5325  0.2419
 6865SOL    HW132054   0.696   2.026  11.186  0.7575 -1.8544  0.8922
 6865SOL    HW232055   0.668   1.904  11.109  2.1970  0.3942 -1.8236
 6866SOL     OW32056   1.279   4.306   0.845  0.7141 -0.0553  0.3378
 6866SOL    HW132057   1.193   4.343   0.824  1.8353  1.9518 -0.7568
 6866SOL    HW232058   1.303   4.347   0.928  3.2584  1.3273 -1.0716
 6867SOL     OW32059   0.820   1.268   6.869 -0.1564  0.2477 -0.4794
 6867SOL    HW132060   0.881   1.342   6.866 -0.3222  0.4278  0.4518
 6867SOL    HW232061   0.835   1.223   6.786 -2.2704 -1.9736  0.3375
 6868SOL     OW32062   3.595   1.860   4.358  0.0773 -0.7197  0.2818
 6868SOL    HW132063   3.623   1.892   4.444  2.5042 -2.2841  0.0813
 6868SOL    HW232064   3.605   1.766   4.373 -2.0086 -0.8421  0.8852
 6869SOL     OW32065   3.579   2.111   8.957 -0.2454 -0.0182 -0.3629
 6869SOL    HW132066   3.546   2.201   8.951  0.8997  0.2422 -2.9635
 6869SOL    HW232067   3.495   2.067   8.971  1.0203 -1.7236  1.8587
 6870SOL     OW32068   2.929   3.286  10.170  0.2610  0.7338  0.1183
 6870SOL    HW132069   3.017   3.311  10.197 -0.3375  0.9481  1.8486
 6870SOL    HW232070   2.911   3.204  10.214 -0.4056  0.0157 -1.4680
 6871SOL     OW32071   1.152   0.703   7.264  0.0387 -0.1777 -0.6991
 6871SOL    HW132072   1.228   0.677   7.316 -0.5405  1.3213  0.8861
 6871SOL    HW232073   1.093   0.717   7.338  1.5641  0.0354  0.4719
 6872SOL     OW32074   0.034   1.038   8.378  0.1199  0.4294  0.0583
 6872SOL    HW132075   0.080   1.095   8.439  0.1965 -1.9463  2.2291
 6872SOL    HW232076   4.695   1.096   8.336  1.4214  0.8685 -1.2962
 6873SOL     OW32077   0.159   2.018  10.919  0.0250 -0.0191 -0.9630
 6873SOL    HW132078   0.160   1.927  10.887 -1.7910 -0.1224 -0.7560
 6873SOL    HW232079   0.173   2.059  10.834 -1.0171 -0.9225 -1.5781
 6874SOL     OW32080   1.322   4.457   5.120 -0.2999 -0.2322  0.3264
 6874SOL    HW132081   1.396   4.442   5.178  1.9356  2.6520 -1.7704
 6874SOL    HW232082   1.358   4.513   5.051  1.0793 -2.2758 -0.5995
 6875SOL     OW32083   0.763   1.681   0.111  0.0008  0.2267  0.0384
 6875SOL    HW132084   0.827   1.739   0.071  2.5191 -0.7138  2.7123
 6875SOL    HW232085   0.703   1.748   0.145  0.5614  1.8968 -2.2253
 6876SOL     OW32086   1.428   2.965  15.247  0.3035  0.5591 -0.2455
 6876SOL    HW132087   1.465   2.895  15.194  0.8889  0.8640 -0.2374
 6876SOL    HW232088   1.438   3.038  15.186 -1.5474 -0.0523 -1.3035
 6877SOL     OW32089   1.191   0.117  15.915 -0.7741  0.6395 -0.8655
 6877SOL    HW132090   1.266   0.139  15.861  0.1701  0.5069  0.4063
 6877SOL    HW232091   1.197   0.171  15.994  0.8943  0.6120 -0.9751
 6878SOL     OW32092   3.947   0.496   4.273  0.1953  0.1628 -0.1016
 6878SOL    HW132093   3.921   0.503   4.181 -0.2419  0.7519  0.0637
 6878SOL    HW232094   3.953   0.586   4.306 -1.9505 -0.1501  1.2059
 6879SOL     OW32095   0.290   0.101   6.732  0.0279  0.2902  0.0521
 6879SOL    HW132096   0.198   0.075   6.734 -0.1869  0.9083 -1.6181
 6879SOL    HW232097   0.331   0.025   6.772 -1.8542  0.0856  1.5966
 6880SOL     OW32098   2.071   4.558   2.009  0.0534  0.5508 -0.6566
 6880SOL    HW132099   2.125   4.481   1.990 -2.3887 -0.9823 -1.5335
 6880SOL    HW232100   2.134   4.626   1.988 -0.5893  0.8486 -1.6260
 6881SOL     OW32101   4.121   1.038   8.806  0.1452 -0.0400  0.1912
 6881SOL    HW132102   4.158   1.102   8.867  1.2455 -0.4758 -0.0143
 6881SOL    HW232103   4.090   1.093   8.734  0.5768 -2.0196 -1.5123
 6882SOL     OW32104   1.327   0.659   4.455  0.4282  0.2493  0.4843
 6882SOL    HW132105   1.392   0.705   4.403  1.6120 -1.1135  0.7474
 6882SOL    HW232106   1.359   0.667   4.545  0.1278 -2.8544  0.8730
 6883SOL     OW32107   4.670   3.732   3.885 -0.4622 -0.1026 -0.5399
 6883SOL    HW132108   0.023   3.724   3.829  0.1781  1.8397  0.0454
 6883SOL    HW232109   4.647   3.645   3.917 -2.3449  0.2705 -0.8709
 6884SOL     OW32110   3.678   2.092   2.061  0.7602  0.0825  0.2991
 6884SOL    HW132111   3.698   2.019   2.119  1.8744  1.9678  2.3094
 6884SOL    HW232112   3.640   2.147   2.129 -0.0046 -0.4693  0.3105
 6885SOL     OW32113   4.098   3.903   2.601  0.0198 -0.5420  0.4716
 6885SOL    HW132114   4.102   3.996   2.620 -1.9287 -0.2609 -0.5444
 6885SOL    HW232115   4.049   3.869   2.676 -2.9272  1.3219 -0.6319
 6886SOL     OW32116   4.527   3.660   6.413 -0.3089 -0.2757  0.1707
 6886SOL    HW132117   4.584   3.614   6.352 -0.2561  1.2573 -0.9201
 6886SOL    HW232118   4.584   3.686   6.486  0.6908  0.2955 -0.8205
 6887SOL     OW32119   0.888   4.282   8.830  0.3980  0.1951 -0.1009
 6887SOL    HW132120   0.889   4.248   8.740  2.3854  0.3184 -0.1323
 6887SOL    HW232121   0.799   4.257   8.856 -0.5732  1.1400 -2.4774
 6888SOL     OW32122   3.666   2.298  13.847 -0.0724 -0.4014  0.2473
 6888SOL    HW132123   3.761   2.289  13.856  0.3915  1.9833 -2.3180
 6888SOL    HW232124   3.645   2.234  13.779 -0.9683  0.9823 -0.7858
 6889SOL     OW32125   3.266   4.353   7.441  0.7948 -0.0665 -0.9133
 6889SOL    HW132126   3.225   4.410   7.375  1.1215  1.3205  0.0825
 6889SOL    HW232127   3.224   4.269   7.421 -1.6196  1.1259 -0.8988
 6890SOL     OW32128   3.080   4.026  10.397 -0.4237 -0.0591 -0.1169
 6890SOL    HW132129   2.987   4.015  10.417 -0.2925 -1.6162 -0.2991
 6890SOL    HW232130   3.101   4.117  10.416  1.5077 -0.8097  1.2743
 6891SOL     OW32131   3.879   2.132   6.088  0.5068  0.0021 -0.7141
 6891SOL    HW132132   3.900   2.132   5.995 -0.1839  0.6895 -0.8729
 6891SOL    HW232133   3.921   2.215   6.113  1.9029 -0.5086 -1.3334
 6892SOL     OW32134   3.636   0.865   2.416 -0.3104  0.1916  0.3073
 6892SOL    HW132135   3.710   0.868   2.477 -0.1344  0.2862  0.0911
 6892SOL    HW232136   3.662   0.950   2.380 -0.5648  0.4981  0.8455
 6893SOL     OW32137   0.003   2.066  16.223  0.8040  0.4696 -0.6176
 6893SOL    HW132138   0.034   2.145  16.268 -1.2745  0.9891 -0.1057
 6893SOL    HW232139   4.719   2.000  16.292 -0.4464  0.7608 -0.4876
 6894SOL     OW32140   3.264   3.988  15.587 -0.0157 -0.7460 -0.1814
 6894SOL    HW132141   3.304   3.994  15.500 -0.2042  0.5299 -0.1897
 6894SOL    HW232142   3.233   4.079  15.590  0.2694 -0.6938  1.2536
 6895SOL     OW32143   2.522   1.990  14.604 -0.4132  0.0908 -0.2384
 6895SOL    HW132144   2.534   1.926  14.535  2.3639  0.8199 -0.4226
 6895SOL    HW232145   2.516   2.074  14.560  0.0089 -0.3963 -1.2144
 6896SOL     OW32146   1.535   4.648   9.820 -0.6593  0.0145 -0.4667
 6896SOL    HW132147   1.482   4.663   9.742 -1.5393  0.2229  0.1747
 6896SOL    HW232148   1.621   4.680   9.793 -0.8287 -0.2922 -1.3899
 6897SOL     OW32149   1.031   3.023  11.825 -0.0863  0.4803  0.3164
 6897SOL    HW132150   1.099   3.031  11.758 -0.6163  0.7364 -0.1938
 6897SOL    HW232151   0.994   3.111  11.827 -2.2823 -0.4613  0.5673
 6898SOL     OW32152   4.487   2.107   8.864  0.2102 -0.6975  0.2175
 6898SOL    HW132153   4.544   2.169   8.819  0.4745 -1.2199 -0.1742
 6898SOL    HW232154   4.545   2.079   8.935  0.3135  0.3560  0.5505
 6899SOL     OW32155   4.074   0.230  17.039  0.2041 -0.0965  0.3420
 6899SOL    HW132156   4.125   0.230  17.120  0.0386 -3.7682  0.4272
 6899SOL    HW232157   3.999   0.282  17.070  0.8464  1.3329 -0.4854
 6900SOL     OW32158   0.896   2.811   9.208 -0.1459 -0.1757  0.4012
 6900SOL    HW132159   0.857   2.750   9.145  1.6462 -1.0986  0.1783
 6900SOL    HW232160   0.939   2.868   9.144  1.3563  0.6205  2.1210
 6901SOL     OW32161   0.880   3.245   6.509 -0.3419  0.0227 -0.1714
 6901SOL    HW132162   0.913   3.316   6.455 -2.0627  1.6982  0.9781
 6901SOL    HW232163   0.888   3.175   6.444 -0.1518 -0.5418  0.4554
 6902SOL     OW32164   2.679   2.869   9.686 -0.0667  0.0647 -0.1313
 6902SOL    HW132165   2.743   2.873   9.614 -1.2625 -0.6854 -1.2330
 6902SOL    HW232166   2.656   2.960   9.701 -1.1730 -0.5318  1.7544
 6903SOL     OW32167   3.999   4.353  13.820 -0.1154 -0.6080 -0.2777
 6903SOL    HW132168   4.065   4.423  13.824  0.4155 -0.9611 -2.6832
 6903SOL    HW232169   3.914   4.397  13.809 -0.1826 -0.9162 -1.0432
 6904SOL     OW32170   3.244   3.601   2.149 -0.2060 -0.0866  0.0497
 6904SOL    HW132171   3.269   3.540   2.219 -1.6633 -2.4731 -1.5127
 6904SOL    HW232172   3.328   3.631   2.115 -1.5625  0.3209 -2.9078
 6905SOL     OW32173   2.275   3.228   0.940 -0.2296 -0.0592 -0.1435
 6905SOL    HW132174   2.207   3.240   0.873 -2.0130 -1.1234  1.4497
 6905SOL    HW232175   2.248   3.147   0.984 -1.3190  0.4781  0.1888
 6906SOL     OW32176   1.391   3.150   3.785  0.0969  0.5810 -0.3026
 6906SOL    HW132177   1.404   3.087   3.715  0.8165 -0.4871  0.7984
 6906SOL    HW232178   1.439   3.222   3.745  1.1971  0.2346  0.3966
 6907SOL     OW32179   4.548   2.231   3.780  0.0423 -0.1823  0.7462
 6907SOL    HW132180   4.560   2.230   3.685 -1.2169  0.7453  0.5680
 6907SOL    HW232181   4.633   2.207   3.816  1.1773  2.6689 -0.0003
 6908SOL     OW32182   2.470   2.694  14.017  0.7152  0.1114  0.3249
 6908SOL    HW132183   2.450   2.675  13.925 -0.1024 -2.3682  1.0225
 6908SOL    HW232184   2.460   2.789  14.015 -2.1012 -0.2589 -2.9815
 6909SOL     OW32185   2.718   3.239   0.781 -0.6205 -0.1695 -0.7639
 6909SOL    HW132186   2.724   3.166   0.720  0.4824  0.0029 -0.8688
 6909SOL    HW232187   2.640   3.212   0.829 -0.1718 -1.6552 -0.8914
 6910SOL     OW32188   3.824   3.817   3.487 -0.1824 -0.9103  0.7758
 6910SOL    HW132189   3.882   3.750   3.524  1.4820 -0.1130 -0.4096
 6910SOL    HW232190   3.831   3.804   3.393 -2.0575  1.5521  0.3199
 6911SOL     OW32191   3.233   1.724   3.738 -0.2972 -0.0314 -0.2202
 6911SOL    HW132192   3.151   1.724   3.688 -0.7580  0.0909  0.5233
 6911SOL    HW232193   3.277   1.792   3.689 -0.3197 -0.8861 -1.4305
 6912SOL     OW32194   0.059   3.024   7.961 -0.4564 -0.0883  0.1993
 6912SOL    HW132195   0.003   2.997   7.889 -0.8924 -1.6564  1.1280
 6912SOL    HW232196   0.012   3.103   7.989 -1.7510  0.5127 -3.7291
 6913SOL     OW32197   0.453   0.183   9.230  0.0208  0.7378  0.2963
 6913SOL    HW132198   0.472   0.092   9.252 -0.5620  0.7832  0.9995
 6913SOL    HW232199   0.497   0.240   9.294  1.4145 -1.0380  0.8923
 6914SOL     OW32200   2.861   1.440   7.420  0.4693 -0.1415  0.1828
 6914SOL    HW132201   2.830   1.478   7.503 -0.4100  0.6304 -0.5015
 6914SOL    HW232202   2.800   1.366   7.409 -0.0130  0.4198 -0.8972
 6915SOL     OW32203   0.297   3.235  17.209 -0.0186 -0.0618 -0.3365
 6915SOL    HW132204   0.231   3.165  17.210  1.2397 -1.2389  1.5844
 6915SOL    HW232205   0.274   3.282  17.129  0.6047 -1.4932 -1.3538
 6916SOL     OW32206   1.500   1.872   2.098 -0.0470  0.3795 -0.2014
 6916SOL    HW132207   1.546   1.880   2.182  0.8999 -1.0553 -0.5847
 6916SOL    HW232208   1.526   1.947   2.044  2.5353  0.0470  0.6190
 6917SOL     OW32209   3.235   0.525   7.414 -0.2440 -0.0617 -0.3634
 6917SOL    HW132210   3.296   0.474   7.360 -0.0151  0.3840 -0.5253
 6917SOL    HW232211   3.249   0.617   7.392 -3.6755  0.7825  1.0962
 6918SOL     OW32212   3.888   4.275  10.036 -0.2553  0.4777  0.4427
 6918SOL    HW132213   3.899   4.352  10.093  0.9654 -1.3522  2.7095
 6918SOL    HW232214   3.814   4.302   9.982  0.4033  0.7250 -0.3343
 6919SOL     OW32215   2.903   3.047   1.950  0.3717 -0.1464 -0.1430
 6919SOL    HW132216   2.985   3.072   1.993  0.4523 -1.5232  0.4874
 6919SOL    HW232217   2.938   2.978   1.894 -0.0301  1.0665 -1.9096
 6920SOL     OW32218   4.156   3.272   2.735 -0.2841 -0.1601 -0.2282
 6920SOL    HW132219   4.241   3.287   2.777 -0.4551 -0.0750  0.0943
 6920SOL    HW232220   4.156   3.320   2.652 -0.2149 -1.2497 -0.8494
 6921SOL     OW32221   3.048   3.547   6.958  0.3508  0.2467 -0.0861
 6921SOL    HW132222   2.978   3.591   7.006 -1.9673 -1.1494 -2.2130
 6921SOL    HW232223   3.121   3.609   6.963  2.2447 -2.1882  2.7830
 6922SOL     OW32224   1.561   2.968   0.930 -0.4402  0.0659  0.3206
 6922SOL    HW132225   1.614   2.966   0.851  0.8679  1.2984  1.1571
 6922SOL    HW232226   1.495   3.037   0.922 -2.4885 -1.7770  1.4614
 6923SOL     OW32227   2.231   3.616  16.420  0.4386 -0.5754  0.0100
 6923SOL    HW132228   2.142   3.651  16.416  0.0048 -1.7704 -0.5383
 6923SOL    HW232229   2.280   3.680  16.472 -0.5833  0.0948  0.1495
 6924SOL     OW32230   1.518   2.386   2.885 -0.4675 -0.2780 -0.5453
 6924SOL    HW132231   1.560   2.345   2.961  1.7136  2.4719 -0.2813
 6924SOL    HW232232   1.600   2.419   2.848 -2.0795  2.9482 -1.1732
 6925SOL     OW32233   4.409   1.443   2.230 -0.2168  0.4912 -0.3556
 6925SOL    HW132234   4.456   1.379   2.177  1.4553  0.7933  0.7662
 6925SOL    HW232235   4.466   1.519   2.228  0.4911 -0.0449 -0.5658
 6926SOL     OW32236   1.688   1.352   8.533  0.4593 -0.8251 -0.3484
 6926SOL    HW132237   1.600   1.378   8.504  0.7211 -2.1064 -2.2954
 6926SOL    HW232238   1.706   1.301   8.454  0.8309  0.4517 -1.0809
 6927SOL     OW32239   1.783   0.616   7.418  0.0823 -0.5487 -0.3688
 6927SOL    HW132240   1.694   0.641   7.440  0.5823  2.2480 -1.5654
 6927SOL    HW232241   1.768   0.528   7.384 -1.4591 -1.2761  2.2602
 6928SOL     OW32242   1.906   0.457   2.440  1.2377  0.4044 -0.2402
 6928SOL    HW132243   1.867   0.544   2.435  3.0422  1.1509 -1.6349
 6928SOL    HW232244   1.958   0.467   2.360  1.1209  0.6869 -0.2791
 6929SOL     OW32245   2.057   3.920  16.882  0.1615  0.0572 -0.4764
 6929SOL    HW132246   2.092   3.941  16.968  0.1496  3.1191 -1.2190
 6929SOL    HW232247   2.008   4.002  16.877 -0.1460 -0.0829  0.2131
 6930SOL     OW32248   2.845   3.112  10.479  0.1233  0.1101 -0.1445
 6930SOL    HW132249   2.778   3.120  10.546  0.3354  0.9799 -0.0389
 6930SOL    HW232250   2.840   3.017  10.464 -3.5355 -0.0571  2.3620
 6931SOL     OW32251   2.317   3.600   4.194  0.4051  0.7073 -0.0620
 6931SOL    HW132252   2.302   3.618   4.287  1.2757 -1.9965  0.6005
 6931SOL    HW232253   2.352   3.685   4.166  1.2225  1.3367  2.9205
 6932SOL     OW32254   4.379   2.270  17.567 -0.2187  0.0718 -0.4452
 6932SOL    HW132255   4.405   2.355  17.602  0.9840 -0.8740  0.9651
 6932SOL    HW232256   4.420   2.272  17.481  0.6997 -1.2082 -0.0360
 6933SOL     OW32257   0.005   4.643   4.247  0.4943  0.6466 -0.0714
 6933SOL    HW132258   4.641   4.622   4.215  0.5256 -0.0008  0.2531
 6933SOL    HW232259   4.691   4.689   4.322  0.7362 -1.1568  1.1802
 6934SOL     OW32260   0.596   0.062   2.384 -0.1763 -0.6217  0.4002
 6934SOL    HW132261   0.536   0.125   2.345  0.8956 -0.2939 -0.7455
 6934SOL    HW232262   0.551   4.701   2.381  0.5000 -0.8527 -3.0035
 6935SOL     OW32263   3.955   1.103   1.765  0.2230 -0.2986 -0.5330
 6935SOL    HW132264   4.038   1.150   1.778  0.4999 -0.8609 -0.2588
 6935SOL    HW232265   3.913   1.173   1.713 -1.1131  0.9700  2.2796
 6936SOL     OW32266   0.469   3.876   4.080  0.1880 -0.0151 -0.1268
 6936SOL    HW132267   0.547   3.877   4.024  0.6875 -1.6184  0.5510
 6936SOL    HW232268   0.398   3.877   4.016 -0.8769  0.6096  1.0532
 6937SOL     OW32269   1.395   2.470   7.381 -1.0132  0.4764 -0.8963
 6937SOL    HW132270   1.410   2.415   7.458 -0.9341 -0.0988 -1.3313
 6937SOL    HW232271   1.450   2.543   7.409 -0.0699 -0.4524 -0.3534
 6938SOL     OW32272   2.498   1.409   9.239  0.5183  0.0388  0.0735
 6938SOL    HW132273   2.578   1.434   9.285  1.4448 -0.4884 -1.2675
 6938SOL    HW232274   2.535   1.332   9.194  0.5458 -0.4510  0.9283
 6939SOL     OW32275   3.156   3.202   8.137  0.5195  0.1266 -0.6587
 6939SOL    HW132276   3.201   3.286   8.140  1.2221 -0.3336  1.4131
 6939SOL    HW232277   3.097   3.215   8.212 -0.2996 -1.6757 -0.9795
 6940SOL     OW32278   2.281   0.922   6.356  0.4111 -0.1774  0.3408
 6940SOL    HW132279   2.198   0.908   6.309  2.2735  2.2191 -3.6329
 6940SOL    HW232280   2.312   0.831   6.355  1.1167  0.0726 -1.8668
 6941SOL     OW32281   0.661   2.437   6.648  0.4924 -0.4373 -0.4721
 6941SOL    HW132282   0.669   2.423   6.554  2.2595  2.2437 -0.7239
 6941SOL    HW232283   0.670   2.350   6.687  1.3144  1.4562  3.4994
 6942SOL     OW32284   1.902   2.979   6.576  0.5471 -0.2113 -0.2568
 6942SOL    HW132285   1.978   2.930   6.608  0.7286 -0.6469 -1.3308
 6942SOL    HW232286   1.897   3.042   6.647  1.0708 -1.3761  0.8159
 6943SOL     OW32287   2.284   3.638   6.601  0.0964 -0.0503 -0.3396
 6943SOL    HW132288   2.191   3.645   6.623  0.2104  0.9994 -0.1940
 6943SOL    HW232289   2.276   3.578   6.526 -1.1622  1.5535 -1.4708
 6944SOL     OW32290   3.186   1.292   8.975  0.3650 -0.0791 -0.1604
 6944SOL    HW132291   3.199   1.362   8.912 -0.1410  0.6844  0.5744
 6944SOL    HW232292   3.262   1.295   9.034  0.3324 -2.4662  0.0124
 6945SOL     OW32293   4.704   2.765   1.499 -0.4513 -0.3916 -0.0919
 6945SOL    HW132294   0.002   2.720   1.580  0.7892 -0.6776 -0.6026
 6945SOL    HW232295   0.042   2.745   1.430 -0.9189  0.7841 -0.8617
 6946SOL     OW32296   1.014   1.208   9.270  0.1876  0.3614  0.4798
 6946SOL    HW132297   1.017   1.299   9.242 -4.3563  0.5105  0.5157
 6946SOL    HW232298   0.958   1.212   9.348  0.0819 -2.4797  0.5693
 6947SOL     OW32299   2.946   3.851   5.519 -0.6465 -0.2665 -0.2541
 6947SOL    HW132300   2.941   3.908   5.596 -0.9817 -0.6553  0.0146
 6947SOL    HW232301   2.937   3.914   5.447  1.7464 -0.4130 -0.6801
 6948SOL     OW32302   0.406   2.556  13.982  0.4002 -0.5394  0.3389
 6948SOL    HW132303   0.501   2.547  13.985  0.4470 -0.0288  0.3793
 6948SOL    HW232304   0.407   2.650  13.964  1.3295 -0.3975  1.1812
 6949SOL     OW32305   3.436   2.022   0.955  0.2168 -0.2270  0.5537
 6949SOL    HW132306   3.450   1.932   0.984 -2.9795 -1.1518 -0.7500
 6949SOL    HW232307   3.503   2.066   1.007  0.5359 -2.3444  1.9223
 6950SOL     OW32308   2.441   0.320   5.985  0.1598 -0.0304 -0.0526
 6950SOL    HW132309   2.484   0.285   5.907  1.2767 -0.9779  0.9954
 6950SOL    HW232310   2.510   0.369   6.030  0.4970 -1.9922  1.5776
 6951SOL     OW32311   3.753   1.047   5.284 -0.3150 -0.8262 -0.3337
 6951SOL    HW132312   3.768   1.075   5.194 -1.3940 -3.0090 -1.2100
 6951SOL    HW232313   3.832   1.002   5.314  0.6888  0.5658 -0.8901
 6952SOL     OW32314   2.034   0.565  15.687 -0.4007 -0.0148 -0.5441
 6952SOL    HW132315   2.022   0.470  15.684 -0.7667 -0.0276  1.9595
 6952SOL    HW232316   2.093   0.574  15.612  0.8401  0.2435  0.4783
 6953SOL     OW32317   3.497   2.282   6.599 -0.2830 -0.7433  0.2965
 6953SOL    HW132318   3.436   2.216   6.565  0.6112 -1.3556 -0.1001
 6953SOL    HW232319   3.565   2.221   6.627  1.5600  1.0822 -0.2085
 6954SOL     OW32320   4.134   0.025  12.335 -0.3521 -0.3515  0.4508
 6954SOL    HW132321   4.160   4.720  12.422 -1.4512  1.2074  1.2990
 6954SOL    HW232322   4.215   0.017  12.284 -0.9923  2.0931 -0.9819
 6955SOL     OW32323   3.357   0.968   8.367 -0.2781 -0.8090  0.5989
 6955SOL    HW132324   3.351   1.058   8.399  0.9149  0.3700 -2.4907
 6955SOL    HW232325   3.273   0.937   8.402 -0.4037 -1.2630 -0.1091
 6956SOL     OW32326   1.252   2.767  13.132  0.2276 -0.1222  0.3054
 6956SOL    HW132327   1.174   2.712  13.141  1.3049 -1.8671 -1.0404
 6956SOL    HW232328   1.302   2.703  13.083  0.4341  0.2167  0.0704
 6957SOL     OW32329   0.579   1.238  12.328 -0.4660 -0.0349 -0.7746
 6957SOL    HW132330   0.502   1.196  12.291 -1.4492  1.2412 -0.1432
 6957SOL    HW232331   0.545   1.277  12.409  0.2613 -1.8903  0.4344
 6958SOL     OW32332   2.605   1.719   5.878  0.1576  0.1570 -0.2797
 6958SOL    HW132333   2.553   1.665   5.819  0.9535  0.2280 -1.0522
 6958SOL    HW232334   2.543   1.786   5.904  2.0450  2.4371 -1.6552
 6959SOL     OW32335   0.686   3.256  12.968 -0.0262  0.2835 -0.4793
 6959SOL    HW132336   0.630   3.239  13.044 -2.3558  1.4900 -1.9378
 6959SOL    HW232337   0.760   3.210  13.008 -1.8285 -3.7099 -1.8167
 6960SOL     OW32338   2.707   4.271   2.475 -0.7223 -0.0157  0.0006
 6960SOL    HW132339   2.653   4.313   2.408  1.2268  3.3151  0.4781
 6960SOL    HW232340   2.644   4.225   2.530 -1.5440  1.5447  0.3785
 6961SOL     OW32341   3.294   3.602   5.432 -0.2364 -0.4697  0.1676
 6961SOL    HW132342   3.252   3.636   5.511  1.9535 -0.5136  1.3331
 6961SOL    HW232343   3.235   3.529   5.415 -0.3828 -0.7315  1.8499
 6962SOL     OW32344   3.025   1.605   3.181 -0.6592  0.6599 -0.2709
 6962SOL    HW132345   3.067   1.588   3.097 -0.6044  1.4743 -0.4123
 6962SOL    HW232346   3.082   1.679   3.202  0.3073  0.2322 -1.4119
 6963SOL     OW32347   0.876   3.074  13.836  0.0181 -0.1405  0.4484
 6963SOL    HW132348   0.903   3.143  13.774 -0.4732 -0.6473 -0.3366
 6963SOL    HW232349   0.880   3.123  13.918 -1.5185  0.2400  0.2975
 6964SOL     OW32350   0.394   4.401  12.214  0.3154  0.1939 -0.4126
 6964SOL    HW132351   0.452   4.477  12.217 -0.2394  0.7235 -2.8590
 6964SOL    HW232352   0.432   4.340  12.278 -1.4587 -0.5408 -0.0485
 6965SOL     OW32353   2.397   1.537   5.980 -0.5184 -0.2187 -0.3146
 6965SOL    HW132354   2.352   1.621   5.971  0.6327  0.2972 -1.3596
 6965SOL    HW232355   2.421   1.534   5.887  0.4095  1.8115 -0.1496
 6966SOL     OW32356   0.845   1.520  17.534  0.3341 -0.2293  0.7541
 6966SOL    HW132357   0.857   1.466  17.612  2.8912  0.5126  0.8646
 6966SOL    HW232358   0.912   1.588  17.539 -0.5238  0.7088 -0.5634
 6967SOL     OW32359   1.767   2.501   7.121  0.5059  0.4366 -0.2942
 6967SOL    HW132360   1.819   2.452   7.185 -2.6907 -2.5522 -0.0041
 6967SOL    HW232361   1.748   2.580   7.173  2.0652  0.5737  0.0746
 6968SOL     OW32362   1.666   0.407  15.446 -0.3286  0.1231  0.1712
 6968SOL    HW132363   1.645   0.330  15.498 -0.3735 -2.0150 -3.0067
 6968SOL    HW232364   1.585   0.418  15.396  0.8985 -1.9555 -2.2912
 6969SOL     OW32365   4.528   0.084   6.059  0.1906  0.2450  0.1644
 6969SOL    HW132366   4.491   0.003   6.024  2.8727 -0.6813 -0.5351
 6969SOL    HW232367   4.608   0.064   6.011 -0.2918 -0.9757 -0.1475
 6970SOL     OW32368   2.077   0.322   9.459  0.0534  0.4333  0.0024
 6970SOL    HW132369   2.164   0.283   9.464 -0.7838 -1.5371 -0.8658
 6970SOL    HW232370   2.055   0.324   9.552 -0.1388 -0.1027 -0.0376
 6971SOL     OW32371   0.021   3.334  14.896 -0.2218  0.0053  0.1518
 6971SOL    HW132372   4.649   3.330  14.898 -0.0954 -1.8474  1.8875
 6971SOL    HW232373   0.048   3.363  14.809 -2.7040  1.8180 -0.0263
 6972SOL     OW32374   1.858   3.023   4.799 -0.1237  0.3367 -0.4951
 6972SOL    HW132375   1.948   2.994   4.783 -0.1556  0.1393 -0.3343
 6972SOL    HW232376   1.858   3.113   4.769 -0.4724  0.0329 -1.4019
 6973SOL     OW32377   1.593   0.134   4.534 -0.2565 -0.9529  0.2201
 6973SOL    HW132378   1.575   0.123   4.441  1.3584 -2.1922  0.0581
 6973SOL    HW232379   1.511   0.095   4.565 -0.7752 -1.1681 -1.4226
 6974SOL     OW32380   2.464   2.483   5.896 -0.1722  0.2938 -0.2922
 6974SOL    HW132381   2.387   2.503   5.949  0.7959  0.6351  0.9766
 6974SOL    HW232382   2.441   2.524   5.812  0.3445 -1.3239 -1.2369
 6975SOL     OW32383   2.594   3.512   2.175  0.7430 -0.7183 -0.4918
 6975SOL    HW132384   2.682   3.542   2.198  0.8861 -1.2588 -0.3401
 6975SOL    HW232385   2.613   3.427   2.135  0.3279 -0.1088 -2.0261
 6976SOL     OW32386   0.608   2.784   4.038  0.5492  0.6249  0.2496
 6976SOL    HW132387   0.693   2.792   4.082  1.2404  0.9153 -1.1415
 6976SOL    HW232388   0.589   2.693   4.063  0.2774  0.7173  0.3836
 6977SOL     OW32389   3.551   0.572   4.912 -1.1370  0.0065  0.0476
 6977SOL    HW132390   3.551   0.586   5.007 -0.0470 -0.2446  0.0848
 6977SOL    HW232391   3.622   0.629   4.884 -1.9059 -0.6194 -3.1719
 6978SOL     OW32392   3.689   2.848   1.354  0.7218  0.3942 -0.4870
 6978SOL    HW132393   3.649   2.908   1.292 -1.0296 -0.9302 -0.6226
 6978SOL    HW232394   3.748   2.908   1.399  2.0229 -0.5943 -0.8423
 6979SOL     OW32395   4.052   1.586   1.297 -0.4103 -0.9205 -0.4985
 6979SOL    HW132396   3.962   1.613   1.311 -0.8784 -2.0946 -1.2803
 6979SOL    HW232397   4.071   1.547   1.383  1.7743  0.1095 -0.5158
 6980SOL     OW32398   4.130   3.957   9.676 -0.6102 -0.2523  0.0911
 6980SOL    HW132399   4.208   4.002   9.642 -2.8042  2.4276 -1.3519
 6980SOL    HW232400   4.089   4.024   9.730  0.3882  0.0339  0.4850
 6981SOL     OW32401   0.498   4.462  10.733  0.5225 -0.3213  0.4441
 6981SOL    HW132402   0.497   4.396  10.802  0.3389 -0.4591  0.3073
 6981SOL    HW232403   0.415   4.508  10.747 -0.0671 -0.6277 -1.9982
 6982SOL     OW32404   3.670   2.222   2.665 -0.0438 -0.3783  0.2990
 6982SOL    HW132405   3.636   2.287   2.603 -0.0487  0.6106  1.3344
 6982SOL    HW232406   3.730   2.179   2.604 -0.1282  1.3687 -1.0249
 6983SOL     OW32407   0.691   3.570   9.017 -0.5369 -0.3636  0.0824
 6983SOL    HW132408   0.759   3.579   8.950 -2.3685 -2.7428 -2.0597
 6983SOL    HW232409   0.714   3.644   9.074 -1.3210  0.4617 -0.6575
 6984SOL     OW32410   0.131   1.140   6.077 -0.0885 -0.3539  0.0687
 6984SOL    HW132411   0.144   1.128   6.171  0.8729 -0.2464 -0.0409
 6984SOL    HW232412   0.079   1.218   6.059  1.7729  0.5625 -1.3705
 6985SOL     OW32413   2.715   1.637   4.867 -0.2317  0.0966  0.0157
 6985SOL    HW132414   2.762   1.642   4.951  0.2868 -1.5676 -0.1695
 6985SOL    HW232415   2.656   1.712   4.864  1.4071  1.2785 -2.9925
 6986SOL     OW32416   1.623   4.586   9.138  0.4699  0.4572  0.1485
 6986SOL    HW132417   1.717   4.588   9.119  0.5098  1.7097  0.4497
 6986SOL    HW232418   1.616   4.494   9.161  1.2905 -0.3598 -2.8081
 6987SOL     OW32419   1.929   0.555   3.130 -0.3111  0.2692 -0.0161
 6987SOL    HW132420   1.882   0.472   3.125  0.6195 -0.3135  0.9243
 6987SOL    HW232421   2.019   0.522   3.136 -0.6387 -0.1256  2.8050
 6988SOL     OW32422   4.276   3.375  16.308  0.5082  0.2218 -0.6421
 6988SOL    HW132423   4.277   3.443  16.241  0.9265  0.9744  0.1350
 6988SOL    HW232424   4.357   3.391  16.356 -1.2122  2.3778  1.5943
 6989SOL     OW32425   0.501   0.919  11.006 -0.3195 -0.0934  0.2188
 6989SOL    HW132426   0.419   0.966  11.020 -0.5705 -0.2262 -0.8107
 6989SOL    HW232427   0.536   0.925  11.095  1.5769  0.2028 -0.5472
 6990SOL     OW32428   2.095   2.619   7.612 -0.2417 -0.1835 -0.2901
 6990SOL    HW132429   2.128   2.569   7.687 -2.0940 -1.1436 -0.1212
 6990SOL    HW232430   2.151   2.695   7.628  1.3671 -1.7028  1.4789
 6991SOL     OW32431   3.429   2.748   5.754  0.7209 -0.2167 -0.2925
 6991SOL    HW132432   3.489   2.821   5.772 -0.0474  0.2592  0.3508
 6991SOL    HW232433   3.411   2.728   5.845 -0.9162  0.8275 -0.4000
 6992SOL     OW32434   3.805   0.550   5.693  0.1492 -0.3316 -0.0352
 6992SOL    HW132435   3.815   0.576   5.601  0.4751 -0.8315 -0.1427
 6992SOL    HW232436   3.736   0.610   5.720  0.6089  0.3317 -0.3445
 6993SOL     OW32437   0.081   3.846  15.668 -0.3105  0.6382 -0.6021
 6993SOL    HW132438   0.060   3.881  15.582 -1.0569 -0.1486 -0.7364
 6993SOL    HW232439   0.085   3.927  15.720  0.4678 -0.8386  1.6312
 6994SOL     OW32440   0.514   2.939   1.422 -0.4887  0.6252 -0.4738
 6994SOL    HW132441   0.520   2.872   1.353  3.7302 -1.0932  1.5641
 6994SOL    HW232442   0.469   3.012   1.381 -2.8393  0.6143  2.0792
 6995SOL     OW32443   2.789   2.239  16.392 -0.3865 -0.3206 -0.8007
 6995SOL    HW132444   2.850   2.304  16.356  1.7497 -0.6886  2.1795
 6995SOL    HW232445   2.802   2.159  16.341 -0.1248  0.9433 -2.7504
 6996SOL     OW32446   1.571   4.720   5.322 -0.4344  0.0085  0.6841
 6996SOL    HW132447   1.488   0.037   5.345 -1.1236 -0.7192 -0.4935
 6996SOL    HW232448   1.541   4.629   5.327  2.2945 -1.0182 -1.4782
 6997SOL     OW32449   1.419   4.694   5.850 -0.0463 -0.6276 -0.1886
 6997SOL    HW132450   1.475   0.014   5.914 -2.0560  1.8455 -0.1348
 6997SOL    HW232451   1.486   4.643   5.804  1.2119  0.1838  0.7324
 6998SOL     OW32452   2.086   0.704  15.428 -0.2995 -0.6514  0.9662
 6998SOL    HW132453   2.140   0.779  15.404  0.6130 -1.4418  0.5471
 6998SOL    HW232454   2.040   0.742  15.503 -0.3848 -0.8209  1.0026
 6999SOL     OW32455   4.013   2.149   5.176  0.1639  0.3144 -0.8169
 6999SOL    HW132456   4.096   2.196   5.166  0.1048  0.8563  1.3068
 6999SOL    HW232457   3.982   2.170   5.088  0.5689 -1.8460 -1.4801
 7000SOL     OW32458   3.465   0.349   4.541  0.0572 -0.0377 -0.3795
 7000SOL    HW132459   3.449   0.441   4.518 -1.3191 -1.1266 -3.6830
 7000SOL    HW232460   3.548   0.332   4.498  0.6398 -0.6590  0.9730
 7001SOL     OW32461   1.221   2.964   3.479  0.2441  0.3648 -0.0937
 7001SOL    HW132462   1.257   3.019   3.409  0.2831 -0.5024 -0.7506
 7001SOL    HW232463   1.303   2.925   3.509  0.1655 -1.1881 -1.8529
 7002SOL     OW32464   3.025   1.344  14.731 -0.3537 -0.1992 -0.1311
 7002SOL    HW132465   3.043   1.404  14.659 -0.4819 -1.0077 -0.8285
 7002SOL    HW232466   3.015   1.408  14.802 -2.0461  0.0457 -0.5778
 7003SOL     OW32467   3.833   3.757   0.326  0.1703 -0.2758 -0.0799
 7003SOL    HW132468   3.810   3.707   0.247  0.6515 -1.1704  0.3399
 7003SOL    HW232469   3.862   3.840   0.287 -1.3763  0.1193 -0.3627
 7004SOL     OW32470   4.385   0.423   1.271  0.0367 -0.2729 -0.3582
 7004SOL    HW132471   4.344   0.501   1.309 -2.1023 -1.5210 -0.1367
 7004SOL    HW232472   4.478   0.447   1.262  0.0129  0.5721  1.5264
 7005SOL     OW32473   3.302   3.039   5.398 -0.0805  0.2296  0.2628
 7005SOL    HW132474   3.249   2.993   5.464 -4.1253  1.8187 -1.8795
 7005SOL    HW232475   3.270   2.991   5.321  1.3267 -1.1447  0.5272
 7006SOL     OW32476   3.994   2.402   4.421  0.2013  0.0058  0.4171
 7006SOL    HW132477   3.987   2.498   4.418  0.5267 -0.0102 -0.7954
 7006SOL    HW232478   3.907   2.386   4.458  0.8557 -0.2656  1.8344
 7007SOL     OW32479   4.534   0.825  17.603 -0.0418 -0.3681 -0.5728
 7007SOL    HW132480   4.492   0.875  17.673  0.0403 -0.0828 -0.7271
 7007SOL    HW232481   4.461   0.783  17.557  0.2381 -0.6453 -0.7673
 7008SOL     OW32482   0.490   3.026  17.174  0.4706  0.3152  0.1409
 7008SOL    HW132483   0.464   3.117  17.160  0.2187  0.4440  1.3917
 7008SOL    HW232484   0.399   3.002  17.192  0.8259 -1.7480 -0.7887
 7009SOL     OW32485   1.387   3.933   7.940  0.8558  0.5202  0.0392
 7009SOL    HW132486   1.454   3.897   7.882  1.6457  0.9904  0.6498
 7009SOL    HW232487   1.442   4.004   7.973 -0.4070  1.1405  0.8326
 7010SOL     OW32488   3.461   1.463   1.573 -0.3011 -0.1473  0.4189
 7010SOL    HW132489   3.538   1.418   1.538 -0.2494 -0.3058  0.7314
 7010SOL    HW232490   3.417   1.388   1.615 -1.7163 -0.2757 -1.3081
 7011SOL     OW32491   3.192   1.086   5.933  0.3024 -0.1519 -0.4684
 7011SOL    HW132492   3.161   1.010   5.983 -0.0608  0.7267  0.6510
 7011SOL    HW232493   3.278   1.093   5.975  0.9190 -1.5114 -1.5017
 7012SOL     OW32494   4.450   1.467   6.778 -0.6887  0.4210 -0.2390
 7012SOL    HW132495   4.475   1.421   6.698  3.1304 -0.4179  1.4193
 7012SOL    HW232496   4.456   1.389   6.834  0.2270 -0.3993 -1.4666
 7013SOL     OW32497   1.163   0.768   5.236  0.0701  0.0786  0.5445
 7013SOL    HW132498   1.191   0.806   5.319  1.5248  1.1803 -0.4504
 7013SOL    HW232499   1.161   0.676   5.262 -0.0854 -0.1288 -0.2012
 7014SOL     OW32500   3.050   1.450  10.316  0.5621  0.3684  0.2510
 7014SOL    HW132501   3.118   1.383  10.314 -1.4340 -1.6685  1.3631
 7014SOL    HW232502   3.056   1.475  10.408 -2.3199 -0.1726  0.5746
 7015SOL     OW32503   4.062   4.612   1.602  0.3866  0.7445  0.0661
 7015SOL    HW132504   4.118   4.611   1.680  1.8378 -0.3362 -0.9867
 7015SOL    HW232505   4.081   4.533   1.551  1.1278  1.2235 -0.3994
 7016SOL     OW32506   0.342   4.299   8.659  0.0307 -0.2307  0.6757
 7016SOL    HW132507   0.331   4.260   8.745 -1.4769  2.6093  1.7825
 7016SOL    HW232508   0.304   4.235   8.599 -0.6957  0.4122  0.4441
 7017SOL     OW32509   3.760   3.691   1.923 -0.0517  0.0453  0.4094
 7017SOL    HW132510   3.818   3.621   1.954  1.1979  0.7007 -0.4625
 7017SOL    HW232511   3.754   3.671   1.830 -1.1503  1.5570  0.1671
 7018SOL     OW32512   0.084   2.865   3.132  0.6219  0.4335  0.2372
 7018SOL    HW132513   0.133   2.868   3.050 -0.3343  0.6790 -0.3236
 7018SOL    HW232514   0.153   2.901   3.188  1.7829 -1.3219 -0.0543
 7019SOL     OW32515   0.076   0.699   6.071 -0.3573  0.4649  0.4207
 7019SOL    HW132516   0.046   0.628   6.128 -0.8712  0.7609  0.5214
 7019SOL    HW232517   0.080   0.770   6.136 -1.6483  1.0428 -0.1160
 7020SOL     OW32518   1.438   3.671  17.500  0.5889  0.4344  0.9696
 7020SOL    HW132519   1.429   3.758  17.539  0.7459  0.0739  1.8159
 7020SOL    HW232520   1.532   3.659  17.487  0.5002 -2.2435  2.6750
 7021SOL     OW32521   1.857   3.205   8.993 -0.0513 -0.0910  0.0515
 7021SOL    HW132522   1.781   3.246   9.034  2.7413  0.9020  4.2404
 7021SOL    HW232523   1.931   3.228   9.050  0.8951  1.9049 -1.9945
 7022SOL     OW32524   3.003   0.917   0.145 -0.3328  0.6731 -0.5719
 7022SOL    HW132525   3.093   0.947   0.128 -0.6636  1.0581 -1.6522
 7022SOL    HW232526   3.009   0.913   0.241  3.8233  0.4686 -0.8136
 7023SOL     OW32527   0.382   2.495  15.006 -0.0280 -0.2740 -0.2848
 7023SOL    HW132528   0.452   2.437  15.033  1.2250  1.9879  1.3285
 7023SOL    HW232529   0.349   2.455  14.925  0.0551 -0.6548 -0.1289
 7024SOL     OW32530   2.412   4.184   3.880  0.3213  0.2076 -0.0579
 7024SOL    HW132531   2.487   4.127   3.892  0.2299 -0.2345 -1.5102
 7024SOL    HW232532   2.334   4.133   3.901 -1.3454  2.6793 -0.2657
 7025SOL     OW32533   1.447   1.454   8.456 -0.4980 -0.5255  0.3549
 7025SOL    HW132534   1.481   1.543   8.462  0.2872 -0.5839 -3.1996
 7025SOL    HW232535   1.355   1.456   8.431 -0.6419 -2.2042  0.6960
 7026SOL     OW32536   0.531   3.487   7.067  0.4628  0.1735  0.2145
 7026SOL    HW132537   0.578   3.444   6.996 -2.5801 -0.7735 -1.2198
 7026SOL    HW232538   0.542   3.414   7.129  1.1808 -0.8352 -1.1121
 7027SOL     OW32539   3.737   2.757   8.381 -0.1766  0.2039 -0.0472
 7027SOL    HW132540   3.768   2.667   8.386 -2.5599 -0.6085  0.2476
 7027SOL    HW232541   3.646   2.733   8.363 -0.2581  0.7863 -0.4142
 7028SOL     OW32542   4.024   0.616   5.887  0.0389  0.7508 -0.9670
 7028SOL    HW132543   3.959   0.663   5.938  0.0740 -0.9670  0.6648
 7028SOL    HW232544   3.964   0.578   5.822 -0.1289 -1.1217  0.2814
 7029SOL     OW32545   4.296   2.165   4.958  0.2318  0.1697 -0.3733
 7029SOL    HW132546   4.275   2.220   4.882 -1.1422 -1.2078 -0.9911
 7029SOL    HW232547   4.392   2.163   4.960  0.1104 -0.9911  3.0500
 7030SOL     OW32548   1.550   1.832   2.907  0.3023 -0.1616 -0.0629
 7030SOL    HW132549   1.475   1.856   2.961  1.3018  2.8929 -0.0440
 7030SOL    HW232550   1.585   1.918   2.883 -0.5044  0.3182  0.4568
 7031SOL     OW32551   3.239   4.128  15.198 -0.1389  0.0575 -0.3811
 7031SOL    HW132552   3.147   4.146  15.221 -0.6328 -1.0688 -1.4972
 7031SOL    HW232553   3.248   4.114  15.104  0.7896  1.6394 -0.5221
 7032SOL     OW32554   2.881   0.347   9.437 -0.2551  0.0824 -0.1142
 7032SOL    HW132555   2.828   0.356   9.516 -2.2047  2.6577 -1.6983
 7032SOL    HW232556   2.961   0.388   9.470 -0.1062 -0.3167  0.0115
 7033SOL     OW32557   0.267   2.755  11.162 -0.3421 -0.0038 -0.1291
 7033SOL    HW132558   0.219   2.698  11.223  2.1011  0.6038  2.4047
 7033SOL    HW232559   0.195   2.813  11.138  0.6269  1.1225 -0.3236
 7034SOL     OW32560   3.665   0.661  12.813 -0.8319  0.2741  0.9828
 7034SOL    HW132561   3.668   0.712  12.894  0.6225  0.1805  0.9951
 7034SOL    HW232562   3.638   0.575  12.847  0.2736 -1.1737 -1.8623
 7035SOL     OW32563   2.011   1.065   4.820  0.0290 -0.1573  0.5002
 7035SOL    HW132564   2.076   1.007   4.859 -0.0473  1.5737  3.2004
 7035SOL    HW232565   1.954   1.080   4.895  2.0848 -0.9631  2.2190
 7036SOL     OW32566   2.702   2.189   3.360  0.6445  0.0915  0.0987
 7036SOL    HW132567   2.780   2.190   3.415 -0.6616 -1.0991  1.9803
 7036SOL    HW232568   2.651   2.118   3.398  0.3636  1.1385  1.7235
 7037SOL     OW32569   0.965   3.376  16.676  0.5634  0.2561  0.0763
 7037SOL    HW132570   0.964   3.360  16.581 -3.0633 -0.3233  0.2061
 7037SOL    HW232571   0.937   3.297  16.724 -2.1371  0.9478 -0.3748
 7038SOL     OW32572   3.527   0.181   3.245  0.0394 -0.0174  0.3176
 7038SOL    HW132573   3.446   0.136   3.218 -0.0759  0.9415 -0.9632
 7038SOL    HW232574   3.511   0.208   3.335 -1.8413 -0.2889  0.0658
 7039SOL     OW32575   1.096   0.108   2.869  0.2814  0.0807  0.4081
 7039SOL    HW132576   1.149   0.185   2.891 -1.6515  1.3901  0.4680
 7039SOL    HW232577   1.157   0.045   2.830  1.1460  0.3499  1.3385
 7040SOL     OW32578   0.304   2.792  10.268 -0.0836  0.1509 -0.0469
 7040SOL    HW132579   0.259   2.867  10.227  0.6471  1.5392  1.6746
 7040SOL    HW232580   0.392   2.828  10.276 -0.5895  1.3850  0.0217
 7041SOL     OW32581   3.840   2.163   8.856  0.1221  0.8047 -0.2800
 7041SOL    HW132582   3.886   2.128   8.932 -0.4809 -1.2810 -0.8575
 7041SOL    HW232583   3.751   2.161   8.892  0.3770 -0.4488  0.2854
 7042SOL     OW32584   2.873   2.502   1.030 -0.4940  0.1352  0.5624
 7042SOL    HW132585   2.782   2.530   1.042 -1.0421 -1.1866 -0.5289
 7042SOL    HW232586   2.920   2.566   1.083  0.0228 -0.3053  0.6262
 7043SOL     OW32587   3.513   0.663   7.620  0.5022  0.0917  0.1077
 7043SOL    HW132588   3.532   0.751   7.655  0.9019  1.2446 -2.9665
 7043SOL    HW232589   3.490   0.684   7.529 -1.0255  0.3460  0.5454
 7044SOL     OW32590   3.407   4.556  16.247 -0.0654 -0.3843  0.2169
 7044SOL    HW132591   3.457   4.528  16.323  0.3220  1.9126  0.8202
 7044SOL    HW232592   3.373   4.471  16.218 -1.9719  0.1723  0.8147
 7045SOL     OW32593   0.660   1.952  10.308 -0.4363 -0.0099  0.1231
 7045SOL    HW132594   0.698   1.985  10.227  0.2593  1.3995  1.0248
 7045SOL    HW232595   0.645   1.860  10.286  0.9876  0.2585 -1.9724
 7046SOL     OW32596   2.889   0.487   1.681 -0.6271 -0.1467  0.0373
 7046SOL    HW132597   2.958   0.422   1.664 -0.8465 -0.4019  0.1205
 7046SOL    HW232598   2.929   0.556   1.628 -0.5989 -0.9690 -1.0148
 7047SOL     OW32599   2.763   2.807   3.763 -0.1698  0.1813  0.2920
 7047SOL    HW132600   2.668   2.797   3.769 -0.4576  3.4412  0.9349
 7047SOL    HW232601   2.794   2.762   3.841  0.9098  1.8065  0.7854
 7048SOL     OW32602   0.349   1.183   2.551 -0.0877 -0.3126 -0.2821
 7048SOL    HW132603   0.277   1.245   2.561  0.8925  0.7396  0.1440
 7048SOL    HW232604   0.325   1.130   2.627 -1.0039  2.8325  1.6246
 7049SOL     OW32605   1.677   2.317   3.138 -0.2156  0.1839 -0.7627
 7049SOL    HW132606   1.692   2.325   3.232 -1.0936 -0.1236 -0.5914
 7049SOL    HW232607   1.756   2.362   3.108  0.5712 -0.0714  0.9516
 7050SOL     OW32608   2.918   3.657   7.601 -0.2468 -0.6063  0.7378
 7050SOL    HW132609   2.841   3.601   7.607  0.4801 -1.5174  1.4190
 7050SOL    HW232610   2.989   3.599   7.574 -1.0586  0.3884 -3.6331
 7051SOL     OW32611   3.459   1.208   2.011 -0.5071  0.6092 -0.4264
 7051SOL    HW132612   3.364   1.198   2.001 -0.5366  0.6787 -0.2045
 7051SOL    HW232613   3.499   1.129   1.974 -0.6430  0.3013  0.0828
 7052SOL     OW32614   1.696   2.975  13.732  0.6763 -0.2646 -0.1240
 7052SOL    HW132615   1.788   2.984  13.756  1.5410  0.9966 -3.9019
 7052SOL    HW232616   1.647   2.991  13.812  2.9271 -0.9954  1.4047
 7053SOL     OW32617   1.674   3.782   1.732  0.6374  0.6429 -0.1641
 7053SOL    HW132618   1.742   3.719   1.755  0.4373  0.7578  0.7672
 7053SOL    HW232619   1.702   3.817   1.648  1.2214  1.1905  0.2542
 7054SOL     OW32620   3.077   0.524  12.379 -0.0473 -0.7175 -0.4048
 7054SOL    HW132621   3.036   0.510  12.294 -1.3427  0.9420 -0.0504
 7054SOL    HW232622   3.155   0.573  12.355 -0.4668  0.4180  0.5259
 7055SOL     OW32623   1.727   0.701   4.713  0.2077 -0.3608  0.1926
 7055SOL    HW132624   1.717   0.689   4.807 -1.5607 -3.5673 -0.3890
 7055SOL    HW232625   1.820   0.722   4.708  0.2003 -0.3614  0.0605
 7056SOL     OW32626   2.799   4.000  10.462 -0.0345 -0.1131 -0.1946
 7056SOL    HW132627   2.807   4.038  10.374 -1.9340  2.3833  0.6953
 7056SOL    HW232628   2.731   3.934  10.450 -0.7959  0.4962  0.7410
 7057SOL     OW32629   1.971   3.971   6.589 -0.0303  0.5421 -0.0944
 7057SOL    HW132630   1.900   4.007   6.641 -0.1449 -0.5791  0.5368
 7057SOL    HW232631   2.009   3.903   6.645  0.9963  0.1402 -1.2815
 7058SOL     OW32632   1.012   1.120   6.341 -0.5457 -0.0990 -0.2499
 7058SOL    HW132633   1.055   1.076   6.414  0.9722  2.2957  0.2955
 7058SOL    HW232634   0.946   1.182   6.371 -0.9269 -1.2194  1.1938
 7059SOL     OW32635   0.593   2.534   4.159  0.2541  0.2310 -0.1537
 7059SOL    HW132636   0.598   2.443   4.189 -3.3712 -1.0527 -3.4904
 7059SOL    HW232637   0.566   2.571   4.243  1.4680  0.6258  0.0667
 7060SOL     OW32638   2.981   0.526   0.771 -0.2551 -0.2573 -0.1320
 7060SOL    HW132639   2.897   0.505   0.812 -0.8588  1.2694 -0.6081
 7060SOL    HW232640   2.947   0.570   0.693  1.5764  0.5300 -0.4756
 7061SOL     OW32641   1.301   1.735   3.660 -0.4576  0.5219  0.7028
 7061SOL    HW132642   1.223   1.791   3.664 -1.3298 -0.7435  1.3176
 7061SOL    HW232643   1.365   1.791   3.615  1.0325 -0.6697  1.3235
 7062SOL     OW32644   0.295   2.165  17.091  0.1650 -0.0349  0.1162
 7062SOL    HW132645   0.388   2.190  17.098 -0.1745  1.2948 -0.1117
 7062SOL    HW232646   0.288   2.072  17.109 -0.3792 -0.4933 -2.4783
 7063SOL     OW32647   1.459   3.380  10.731  0.2373 -0.4908 -0.0054
 7063SOL    HW132648   1.461   3.464  10.776  1.5179  0.1589 -1.2678
 7063SOL    HW232649   1.482   3.317  10.799  1.5993 -0.3958 -0.3786
 7064SOL     OW32650   4.232   4.626   7.662 -0.0365  0.1450  0.0839
 7064SOL    HW132651   4.167   4.578   7.611  3.6292 -1.6494 -2.8610
 7064SOL    HW232652   4.288   4.552   7.686 -0.4790  0.5151  2.2837
 7065SOL     OW32653   1.239   0.020  11.750 -0.0732  0.5726 -0.0464
 7065SOL    HW132654   1.184   0.083  11.704  1.7080  2.0358 -0.1767
 7065SOL    HW232655   1.236   4.664  11.697 -0.5150 -0.4400  1.4994
 7066SOL     OW32656   2.297   2.894  10.257  0.1248  0.6689 -0.0438
 7066SOL    HW132657   2.295   2.815  10.312 -1.6794  0.6893 -0.0882
 7066SOL    HW232658   2.392   2.903  10.269  0.3574  0.2893 -1.5954
 7067SOL     OW32659   2.610   1.799  12.902  0.9556  0.4447 -0.2982
 7067SOL    HW132660   2.645   1.769  12.986  0.6720  4.3783  1.2610
 7067SOL    HW232661   2.521   1.765  12.906  1.1037 -0.0841 -1.7139
 7068SOL     OW32662   1.258   3.695   4.094  0.0707  0.1689 -0.5679
 7068SOL    HW132663   1.277   3.724   4.004  2.3473 -2.7264 -1.0210
 7068SOL    HW232664   1.317   3.758   4.135 -2.7575  2.1073  0.4888
 7069SOL     OW32665   0.206   3.303  10.248  0.2131 -0.0478  0.1161
 7069SOL    HW132666   0.153   3.310  10.327 -1.2265 -0.1994 -0.8212
 7069SOL    HW232667   0.288   3.331  10.288 -0.8371  0.6509  1.7748
 7070SOL     OW32668   0.399   3.195  16.518 -0.3917  0.0825  0.0762
 7070SOL    HW132669   0.370   3.230  16.434  1.4204  0.0588 -0.5525
 7070SOL    HW232670   0.353   3.260  16.571 -0.8188 -0.2416  0.1051
 7071SOL     OW32671   4.591   2.657   5.487  0.0644 -0.0007  0.0193
 7071SOL    HW132672   4.632   2.641   5.402  0.1402 -0.7742  0.2009
 7071SOL    HW232673   4.529   2.584   5.494  0.3536 -0.3681 -1.1814
 7072SOL     OW32674   0.872   0.262   9.354  1.1011 -0.4353 -0.7106
 7072SOL    HW132675   0.957   0.296   9.326  1.7140  0.2432  1.9717
 7072SOL    HW232676   0.879   0.171   9.382 -1.2001 -0.6194 -0.7433
 7073SOL     OW32677   1.846   1.386  15.361 -0.1722  0.3456  0.1172
 7073SOL    HW132678   1.815   1.299  15.336 -0.1826  0.3482  0.1211
 7073SOL    HW232679   1.794   1.445  15.306 -0.9485 -0.6377 -0.1905
 7074SOL     OW32680   0.390   4.209   7.322  0.5222  0.2444  0.3208
 7074SOL    HW132681   0.382   4.114   7.336  1.2061 -0.0512 -1.2886
 7074SOL    HW232682   0.319   4.215   7.258  0.3802 -0.8332  0.3676
 7075SOL     OW32683   2.418   4.489   2.861 -0.2254 -1.0811  0.3359
 7075SOL    HW132684   2.397   4.534   2.780  1.2615 -0.5922  0.2140
 7075SOL    HW232685   2.448   4.558   2.921 -0.9490  0.5019 -1.1151
 7076SOL     OW32686   3.908   4.465   6.994 -0.2507  0.7226  0.1043
 7076SOL    HW132687   3.924   4.432   7.082  0.4197 -0.0587 -0.3064
 7076SOL    HW232688   3.857   4.401   6.944  0.2234  1.9230 -1.9449
 7077SOL     OW32689   0.863   2.962  14.430  0.0506  0.2487  0.4638
 7077SOL    HW132690   0.936   3.025  14.425  2.7174 -2.8302  0.3628
 7077SOL    HW232691   0.842   2.954  14.523 -0.5141  1.4153  0.4331
 7078SOL     OW32692   1.755   3.218   7.591  0.6186  0.0777 -0.0492
 7078SOL    HW132693   1.674   3.221   7.643  0.4103  1.0439 -0.4280
 7078SOL    HW232694   1.757   3.305   7.552 -2.3000  0.8346  1.4380
 7079SOL     OW32695   4.234   4.399   3.642 -0.0991  0.5254  0.5581
 7079SOL    HW132696   4.293   4.342   3.593 -0.4677 -1.0541  1.9884
 7079SOL    HW232697   4.290   4.405   3.720  0.0233 -3.5581  0.7490
 7080SOL     OW32698   3.246   2.711   0.769  0.5208  0.4413  0.1599
 7080SOL    HW132699   3.256   2.800   0.803 -1.4634 -0.0572  2.0324
 7080SOL    HW232700   3.170   2.717   0.712  2.2084 -0.4384 -2.1908
 7081SOL     OW32701   2.770   2.910   9.133 -0.0728 -0.2899  0.4998
 7081SOL    HW132702   2.758   2.957   9.051 -2.1022  2.4429  2.3596
 7081SOL    HW232703   2.865   2.901   9.137 -0.4150 -3.4601  1.5298
 7082SOL     OW32704   0.776   2.607   7.924  0.1917 -0.1953 -0.2821
 7082SOL    HW132705   0.848   2.563   7.970  1.3301 -1.5172 -3.3130
 7082SOL    HW232706   0.702   2.579   7.977  2.0865 -2.3280  1.2608
 7083SOL     OW32707   1.147   0.121   0.109 -0.0997 -0.0718 -0.4148
 7083SOL    HW132708   1.192   0.126   0.193 -0.9615  0.3795  0.0262
 7083SOL    HW232709   1.146   0.214   0.089 -0.3665 -0.1546 -0.7935
 7084SOL     OW32710   0.936   2.024   2.853 -0.4507 -0.6624  0.3317
 7084SOL    HW132711   0.845   2.031   2.823 -0.3236  0.0151  0.1111
 7084SOL    HW232712   0.944   1.929   2.861  0.0506 -0.8671 -2.5399
 7085SOL     OW32713   1.867   1.486  15.799 -0.1814  0.2355 -0.3919
 7085SOL    HW132714   1.880   1.411  15.857  0.0767  1.2081  0.8108
 7085SOL    HW232715   1.930   1.552  15.829  0.9492 -0.7670 -0.6069
 7086SOL     OW32716   4.528   1.516  12.736 -0.0304  0.3777  0.6514
 7086SOL    HW132717   4.534   1.580  12.665 -0.8831  1.7287  1.7956
 7086SOL    HW232718   4.622   1.504  12.750 -0.2348 -0.0098  1.6630
 7087SOL     OW32719   3.774   3.946   2.050  0.2547 -0.4197 -0.4226
 7087SOL    HW132720   3.773   3.879   1.982 -2.1108  0.7667 -1.5554
 7087SOL    HW232721   3.704   4.008   2.030 -0.6717 -0.9409  1.2500
 7088SOL     OW32722   0.522   0.991   4.661  0.5049 -0.4710  0.0128
 7088SOL    HW132723   0.590   0.930   4.633  0.1186 -1.1150  0.4599
 7088SOL    HW232724   0.546   1.062   4.602  1.0913 -0.5638  0.1420
 7089SOL     OW32725   0.330   2.958   9.836  0.4183 -0.0106  0.2046
 7089SOL    HW132726   0.363   3.039   9.876  2.7569 -0.6058 -0.5492
 7089SOL    HW232727   0.406   2.908   9.864  0.0271 -1.1812 -0.8352
 7090SOL     OW32728   0.701   1.492  15.301  0.5191 -0.2382  0.0798
 7090SOL    HW132729   0.772   1.427  15.304  0.5368 -0.1827  0.8521
 7090SOL    HW232730   0.748   1.575  15.302 -0.4214  0.2915 -0.4558
 7091SOL     OW32731   0.016   0.518   6.239  0.4487  0.0195  0.5741
 7091SOL    HW132732   0.107   0.489   6.239  0.2421 -0.6744  2.6808
 7091SOL    HW232733   4.702   0.431   6.254 -0.1643 -0.0288 -1.2377
 7092SOL     OW32734   2.188   2.149  13.239  0.0794  0.1697  0.5000
 7092SOL    HW132735   2.096   2.128  13.252  0.0831  0.6369  1.3555
 7092SOL    HW232736   2.189   2.243  13.258 -0.6315  0.3893 -0.5547
 7093SOL     OW32737   0.345   4.246   4.370  0.0969 -0.7459  0.0957
 7093SOL    HW132738   0.388   4.273   4.289 -2.8090  0.1138 -1.1616
 7093SOL    HW232739   0.316   4.156   4.351  1.5172 -1.0914 -0.4480
 7094SOL     OW32740   3.679   1.084  11.831  0.6626 -0.0153  0.0335
 7094SOL    HW132741   3.749   1.029  11.796  1.1747  0.1689  0.7980
 7094SOL    HW232742   3.665   1.027  11.907 -1.6475  0.9105  0.3207
 7095SOL     OW32743   4.287   0.292  14.938 -0.0114  0.1814  0.3463
 7095SOL    HW132744   4.313   0.242  14.861 -1.1329  3.2035 -1.9982
 7095SOL    HW232745   4.313   0.230  15.006  1.8812 -0.1696 -0.7023
 7096SOL     OW32746   0.197   0.832   3.529  0.2496 -0.0864 -0.3403
 7096SOL    HW132747   0.112   0.803   3.561  0.4157 -1.0001 -0.7199
 7096SOL    HW232748   0.242   0.842   3.613  1.0834  0.0461 -0.7978
 7097SOL     OW32749   1.467   0.490   0.495  0.1366 -0.7718 -0.4084
 7097SOL    HW132750   1.439   0.402   0.519  2.4002 -1.4399 -0.1754
 7097SOL    HW232751   1.427   0.499   0.408  0.7982 -0.0828 -0.6443
 7098SOL     OW32752   4.464   4.054  17.491  0.8807 -0.3092 -0.3523
 7098SOL    HW132753   4.452   4.091  17.404  2.4510 -0.2753 -0.5692
 7098SOL    HW232754   4.498   4.137  17.525 -0.1312  0.0213 -0.1733
 7099SOL     OW32755   0.137   2.125  13.927  0.4166  0.0349  0.0763
 7099SOL    HW132756   0.060   2.101  13.875  0.6616  1.1012 -0.7749
 7099SOL    HW232757   0.173   2.038  13.943  1.3318  0.8363  2.3588
 7100SOL     OW32758   1.224   2.023   0.566  0.0275 -0.4017  0.1404
 7100SOL    HW132759   1.154   2.066   0.518  0.7069 -1.9380 -2.1992
 7100SOL    HW232760   1.176   2.006   0.648  1.1899 -0.2190  0.8490
 7101SOL     OW32761   3.165   2.655   1.619  0.0986 -0.2577 -0.0681
 7101SOL    HW132762   3.189   2.716   1.688 -1.7754  0.2588  0.1391
 7101SOL    HW232763   3.215   2.695   1.548  1.2117 -0.7805  0.4232
 7102SOL     OW32764   0.354   1.840   4.744  0.2010  0.0739  0.1124
 7102SOL    HW132765   0.371   1.877   4.657  2.3538  1.0131  0.9402
 7102SOL    HW232766   0.439   1.842   4.787  0.9657 -0.1391 -1.3642
 7103SOL     OW32767   2.624   3.767  10.451  0.1243  0.5592 -0.3137
 7103SOL    HW132768   2.529   3.774  10.443  0.0438  0.6668  0.6644
 7103SOL    HW232769   2.630   3.712  10.529  1.0953 -1.4197 -1.7873
 7104SOL     OW32770   4.116   2.985   2.649  0.4368  0.7850  0.0744
 7104SOL    HW132771   4.116   3.077   2.678 -1.0478  1.0549 -0.7701
 7104SOL    HW232772   4.203   2.984   2.609  0.6518 -2.4630  0.6161
 7105SOL     OW32773   0.117   1.395  14.772  0.4646  0.1257 -0.0105
 7105SOL    HW132774   0.054   1.348  14.826  2.0852  0.9719  2.6048
 7105SOL    HW232775   0.136   1.342  14.695  0.1464 -2.5022  1.7490
 7106SOL     OW32776   1.821   2.757  11.877 -0.0597  0.2279 -0.1634
 7106SOL    HW132777   1.827   2.662  11.865  2.2343  0.3090  0.3145
 7106SOL    HW232778   1.846   2.779  11.787  0.2749 -0.7666 -0.3114
 7107SOL     OW32779   4.089   0.028   8.247  0.6016 -0.1840 -0.2092
 7107SOL    HW132780   4.151   0.078   8.194  1.3516  0.7005  1.5124
 7107SOL    HW232781   4.030   0.090   8.289  0.6486  1.4473 -2.5768
 7108SOL     OW32782   4.129   2.947  14.410 -0.8307 -0.2262  0.2974
 7108SOL    HW132783   4.150   3.035  14.379  1.6898 -0.8191  0.3134
 7108SOL    HW232784   4.077   2.967  14.487 -2.1258  1.4508 -1.0116
 7109SOL     OW32785   3.437   1.606   4.979 -0.9312  0.5207 -0.3880
 7109SOL    HW132786   3.444   1.520   5.021 -0.6692  1.3545  1.2662
 7109SOL    HW232787   3.395   1.583   4.896 -1.5127  0.8424 -0.1804
 7110SOL     OW32788   0.849   3.245   2.724  0.3351  0.3665  0.3023
 7110SOL    HW132789   0.908   3.260   2.799  2.5499  0.5016 -1.4525
 7110SOL    HW232790   0.837   3.330   2.681  0.5435 -0.3887 -1.2488
 7111SOL     OW32791   3.836   2.762   1.603  0.3505 -0.4801 -0.1605
 7111SOL    HW132792   3.785   2.743   1.524  0.8322 -3.1966  0.1961
 7111SOL    HW232793   3.778   2.829   1.640 -0.7273 -1.3412 -0.2804
 7112SOL     OW32794   3.679   1.085   7.232 -0.2838  0.5653 -0.1514
 7112SOL    HW132795   3.671   1.099   7.326 -1.8875 -0.8490 -0.0857
 7112SOL    HW232796   3.761   1.129   7.210 -1.4263  1.8156 -1.9042
 7113SOL     OW32797   2.932   4.689   0.402 -0.1919 -0.3410 -0.6739
 7113SOL    HW132798   2.851   4.641   0.419  0.8697 -1.7018  0.4723
 7113SOL    HW232799   2.966   4.639   0.328 -2.1196  1.3175 -2.6893
 7114SOL     OW32800   3.831   4.030  13.187 -0.1791 -0.0034  0.1378
 7114SOL    HW132801   3.916   4.016  13.145  0.3497  1.3559  0.7404
 7114SOL    HW232802   3.794   4.116  13.171 -1.5252 -0.6258 -0.0618
 7115SOL     OW32803   2.343   3.206   2.800  0.7460 -0.5979  0.3179
 7115SOL    HW132804   2.249   3.189   2.793  0.3544  2.0696 -0.9252
 7115SOL    HW232805   2.351   3.295   2.767  2.0970 -0.5985  0.6312
 7116SOL     OW32806   1.870   1.904   3.966 -0.0388 -0.1175  0.2897
 7116SOL    HW132807   1.927   1.970   4.005  2.3352 -1.1143 -1.5001
 7116SOL    HW232808   1.803   1.897   4.034 -0.8749  1.6629 -0.3718
 7117SOL     OW32809   1.189   3.375   6.916  0.2062  0.3834  0.5960
 7117SOL    HW132810   1.117   3.331   6.871 -1.8571  0.3422  3.9119
 7117SOL    HW232811   1.251   3.380   6.843  2.7138  0.1348  2.7008
 7118SOL     OW32812   1.299   0.802   1.456 -0.0997 -0.3788  0.3894
 7118SOL    HW132813   1.358   0.737   1.493 -0.6550  0.5566  2.8890
 7118SOL    HW232814   1.308   0.873   1.520  0.1315 -0.2861  0.2556
 7119SOL     OW32815   3.444   0.736  12.649 -1.1525  0.1152 -0.0410
 7119SOL    HW132816   3.522   0.685  12.668 -1.3133 -0.0031  0.3063
 7119SOL    HW232817   3.395   0.699  12.722  0.3111  1.4820  1.6332
 7120SOL     OW32818   0.306   0.615   8.188 -0.4643  0.0120  0.6258
 7120SOL    HW132819   0.268   0.696   8.154  0.8193  0.0705 -0.6762
 7120SOL    HW232820   0.260   0.602   8.271 -1.7433  1.6845  0.1839
 7121SOL     OW32821   0.245   2.128   7.304 -0.1438 -0.0195 -0.0593
 7121SOL    HW132822   0.303   2.199   7.330  0.8068  0.1658 -2.7116
 7121SOL    HW232823   0.304   2.062   7.268 -0.0413  0.2502 -0.3799
 7122SOL     OW32824   3.531   3.807  14.651  0.0372 -0.5289 -0.0132
 7122SOL    HW132825   3.513   3.885  14.598 -1.1944 -0.2596  0.8004
 7122SOL    HW232826   3.522   3.843  14.739 -1.4561  1.4349 -0.9576
 7123SOL     OW32827   1.195   4.720   9.277  0.3657 -0.4662  0.5327
 7123SOL    HW132828   1.257   0.069   9.285  1.1237 -0.9261 -1.1296
 7123SOL    HW232829   1.124   0.036   9.228  0.1014  0.9357  2.0691
 7124SOL     OW32830   2.751   3.670  12.907  0.3738  0.0193  0.0375
 7124SOL    HW132831   2.738   3.577  12.930 -0.4993 -0.2501 -1.5484
 7124SOL    HW232832   2.813   3.705  12.971  0.8677  1.3307 -1.1621
 7125SOL     OW32833   3.712   3.630   1.678  0.3562 -1.3333 -0.1268
 7125SOL    HW132834   3.735   3.698   1.615 -0.9262 -1.1031 -0.3411
 7125SOL    HW232835   3.714   3.556   1.617 -0.7468 -0.8015 -0.8137
 7126SOL     OW32836   2.486   4.266   6.414 -0.6794 -0.1377 -0.2422
 7126SOL    HW132837   2.516   4.350   6.378  0.1773  0.9285  2.9303
 7126SOL    HW232838   2.424   4.226   6.354  0.9436  0.4444 -2.2933
 7127SOL     OW32839   4.298   1.774   8.942 -0.2895  0.1569 -0.4509
 7127SOL    HW132840   4.385   1.780   8.981 -1.5023  0.2084  2.2178
 7127SOL    HW232841   4.320   1.726   8.862  1.5798 -0.1591  0.2692
 7128SOL     OW32842   4.641   0.582   5.386  0.3027  0.4356 -0.0165
 7128SOL    HW132843   4.621   0.672   5.361  1.6097  0.4660 -0.9438
 7128SOL    HW232844   4.579   0.568   5.458 -0.5700  1.3049 -0.5895
 7129SOL     OW32845   3.501   2.529   1.780 -0.6912  0.9368 -0.0037
 7129SOL    HW132846   3.442   2.542   1.706  1.7552 -0.9425 -2.2743
 7129SOL    HW232847   3.532   2.619   1.788 -2.3595  1.5468 -0.4691
 7130SOL     OW32848   2.284   2.896   2.384  0.0099 -0.3506  0.7024
 7130SOL    HW132849   2.221   2.965   2.406  1.3281  1.3289 -0.8358
 7130SOL    HW232850   2.364   2.945   2.367 -0.9365  0.7365 -0.5717
 7131SOL     OW32851   3.578   1.474  15.110 -0.1074  0.1298  0.4012
 7131SOL    HW132852   3.623   1.464  15.026  2.2538 -0.6597  1.7719
 7131SOL    HW232853   3.644   1.486  15.177  0.4818  0.2509 -0.2083
 7132SOL     OW32854   4.452   4.562  17.341  0.4231 -0.1051  0.3295
 7132SOL    HW132855   4.426   4.531  17.254  2.3966  1.5092 -0.8326
 7132SOL    HW232856   4.458   4.653  17.311 -1.5053  0.4943  1.7523
 7133SOL     OW32857   0.833   3.467   2.550 -0.1522 -0.1286  0.0847
 7133SOL    HW132858   0.868   3.550   2.519  1.0507 -0.8094 -0.3507
 7133SOL    HW232859   0.824   3.411   2.472  1.7707  0.9936 -0.9308
 7134SOL     OW32860   4.250   2.127   6.737  0.1593 -0.0579 -0.0202
 7134SOL    HW132861   4.280   2.060   6.675  1.1636  0.0468  0.3601
 7134SOL    HW232862   4.331   2.174   6.758 -0.3925  0.7652  0.2628
 7135SOL     OW32863   2.752   0.409   7.393 -0.9435  0.3288 -0.7302
 7135SOL    HW132864   2.833   0.453   7.368 -0.2914 -0.7785 -0.5674
 7135SOL    HW232865   2.772   0.317   7.410 -0.3024  0.9900  2.1476
 7136SOL     OW32866   3.132   2.387   4.337 -0.0930  0.5424  0.5487
 7136SOL    HW132867   3.093   2.353   4.417  0.1229 -1.7621 -0.3286
 7136SOL    HW232868   3.224   2.370   4.357  0.2218  1.1167 -0.3857
 7137SOL     OW32869   4.496   0.781   8.283  0.9966 -0.3210  0.0720
 7137SOL    HW132870   4.475   0.707   8.227 -1.3876  0.5402 -0.1722
 7137SOL    HW232871   4.428   0.847   8.267  1.1278 -0.4674 -1.1261
 7138SOL     OW32872   2.537   3.049  11.641 -0.0995 -0.2203 -0.3230
 7138SOL    HW132873   2.616   3.090  11.606  0.7402 -1.0480  0.5811
 7138SOL    HW232874   2.499   3.109  11.704 -1.0753  0.9013 -2.0014
 7139SOL     OW32875   1.321   4.059   5.776  0.1893  0.0213 -0.6454
 7139SOL    HW132876   1.286   4.090   5.859  0.4439  1.2643 -0.9981
 7139SOL    HW232877   1.310   3.971   5.810 -0.9648  0.5056  0.2136
 7140SOL     OW32878   3.270   4.123   7.250 -0.2560  0.0930 -0.2652
 7140SOL    HW132879   3.178   4.106   7.229  0.2524 -2.5297 -0.4114
 7140SOL    HW232880   3.303   4.144   7.163  4.5536 -0.0130  1.5378
 7141SOL     OW32881   1.208   3.950   7.144  0.2507 -0.7202 -0.1037
 7141SOL    HW132882   1.207   4.007   7.221  0.1424  1.8497 -2.0096
 7141SOL    HW232883   1.131   3.897   7.160 -1.2202  1.4429 -0.0061
 7142SOL     OW32884   2.330   0.561   9.452 -0.4680  0.3860  0.1847
 7142SOL    HW132885   2.283   0.527   9.375 -0.5793 -0.1687  0.4945
 7142SOL    HW232886   2.411   0.509   9.451  0.3059  1.6428 -2.8423
 7143SOL     OW32887   2.426   4.065   4.436  0.1647  0.0103  0.3725
 7143SOL    HW132888   2.498   4.023   4.483 -1.1697 -1.2632  1.2573
 7143SOL    HW232889   2.366   4.078   4.509  1.7446  0.3068  1.6282
 7144SOL     OW32890   3.714   1.694   4.159 -0.1227  0.2082  0.3134
 7144SOL    HW132891   3.807   1.679   4.176  0.5128  0.9919 -2.5327
 7144SOL    HW232892   3.714   1.789   4.147 -0.4609  0.1070 -0.4740
 7145SOL     OW32893   1.798   1.684   2.740 -0.3599  0.1914  0.6753
 7145SOL    HW132894   1.803   1.765   2.689  0.5503 -0.1903  0.1475
 7145SOL    HW232895   1.730   1.712   2.801 -0.6451  1.0427 -0.0352
 7146SOL     OW32896   4.678   0.254   6.306  0.1620  0.4040  0.0421
 7146SOL    HW132897   4.709   0.182   6.362  1.7590 -0.0489 -1.3903
 7146SOL    HW232898   4.700   0.227   6.216  0.0081  0.3383  0.0247
 7147SOL     OW32899   1.516   0.951   6.202  0.0007  0.2543 -0.1309
 7147SOL    HW132900   1.428   0.974   6.173  0.2477  1.7718  0.2963
 7147SOL    HW232901   1.516   0.966   6.297  0.4413  3.8828 -0.7197
 7148SOL     OW32902   3.442   1.563   1.251  0.6643  0.3723  0.1560
 7148SOL    HW132903   3.440   1.537   1.343 -1.2715 -1.7596 -0.5160
 7148SOL    HW232904   3.417   1.484   1.203 -1.4038  0.3222  1.3376
 7149SOL     OW32905   2.970   1.912  17.135  0.1023  0.2172  0.0247
 7149SOL    HW132906   2.977   1.971  17.210  0.1872 -0.7127  0.7583
 7149SOL    HW232907   2.915   1.840  17.166 -1.5310  1.1552 -0.7501
 7150SOL     OW32908   0.828   2.140   0.363 -0.5574 -0.1636  0.0271
 7150SOL    HW132909   0.815   2.121   0.270 -0.2986  3.1225 -0.6654
 7150SOL    HW232910   0.923   2.125   0.368 -0.1662  2.8541  1.6239
 7151SOL     OW32911   2.472   1.820  15.139 -0.0003  0.0911 -0.2082
 7151SOL    HW132912   2.543   1.760  15.117 -0.4191 -0.7860  0.8265
 7151SOL    HW232913   2.510   1.882  15.202 -1.4472 -0.9771  1.7012
 7152SOL     OW32914   0.340   3.505  13.349  0.1386 -0.0172  0.0837
 7152SOL    HW132915   0.418   3.452  13.332  0.3328  0.1795  0.3548
 7152SOL    HW232916   0.283   3.429  13.360 -1.1934  0.9474 -0.1540
 7153SOL     OW32917   1.111   0.591  10.748  0.1341  0.6704  0.0927
 7153SOL    HW132918   1.116   0.653  10.821  1.0775  1.5558 -0.7196
 7153SOL    HW232919   1.022   0.607  10.718  0.0363 -1.3409 -0.6910
 7154SOL     OW32920   1.575   1.054   0.207 -0.0675 -0.1614 -0.1569
 7154SOL    HW132921   1.522   1.035   0.130  0.9814  0.3877 -1.0211
 7154SOL    HW232922   1.507   1.107   0.248  0.4677 -0.2592  0.8614
 7155SOL     OW32923   2.822   3.957   6.169 -0.6527 -0.2739  0.0976
 7155SOL    HW132924   2.908   3.916   6.157 -0.7865 -0.8502  1.1689
 7155SOL    HW232925   2.853   4.043   6.196 -1.0708  0.2717 -1.1688
 7156SOL     OW32926   3.321   0.008   5.832  0.0035  0.2280  0.0502
 7156SOL    HW132927   3.305   0.040   5.743  2.0960 -3.9551 -1.8068
 7156SOL    HW232928   3.416   0.012   5.838 -0.0013  0.8439 -0.2478
 7157SOL     OW32929   2.222   0.167   2.175  1.1893 -0.3302 -0.2502
 7157SOL    HW132930   2.164   0.235   2.139  0.4400 -0.3898  0.8512
 7157SOL    HW232931   2.155   0.116   2.220  1.7926 -1.0381 -0.1551
 7158SOL     OW32932   3.730   1.894   1.039 -0.2477  0.3761  0.9126
 7158SOL    HW132933   3.802   1.956   1.050 -0.6077  0.9035  0.2971
 7158SOL    HW232934   3.681   1.919   1.118  0.2023  1.5194  0.8170
 7159SOL     OW32935   0.019   2.592  14.385  0.2620 -0.0686 -0.1258
 7159SOL    HW132936   4.691   2.548  14.453  1.6817  0.1461  1.0924
 7159SOL    HW232937   4.690   2.582  14.306 -1.2513  2.0160  0.6297
 7160SOL     OW32938   2.866   2.249   8.629  0.0358  0.3917 -0.2800
 7160SOL    HW132939   2.865   2.344   8.626  0.7703  0.3907 -0.5981
 7160SOL    HW232940   2.837   2.231   8.718  0.7242 -1.0370 -0.3459
 7161SOL     OW32941   4.311   1.714  11.874 -0.3360  0.4630  0.2793
 7161SOL    HW132942   4.260   1.647  11.828  0.2583  0.9737 -1.1225
 7161SOL    HW232943   4.377   1.726  11.806 -0.4508 -0.7096 -0.0393
 7162SOL     OW32944   2.848   1.344   4.213  0.8924  0.0604  0.2658
 7162SOL    HW132945   2.937   1.377   4.200  1.1731 -0.1042  1.7654
 7162SOL    HW232946   2.787   1.411   4.179 -0.4948 -1.1028  0.4577
 7163SOL     OW32947   0.878   4.073  11.875 -0.1456  0.2679  0.4970
 7163SOL    HW132948   0.948   4.059  11.811  0.1309 -2.9450  1.5195
 7163SOL    HW232949   0.810   4.018  11.835  0.6122  1.1025 -1.9317
 7164SOL     OW32950   0.288   3.203  15.063  0.8724  0.2243  0.6188
 7164SOL    HW132951   0.297   3.212  15.158  0.7509  2.0330  0.4473
 7164SOL    HW232952   0.309   3.292  15.037 -0.6234  0.2450 -0.4454
 7165SOL     OW32953   2.504   3.422   9.583  0.0511  0.4575 -0.1847
 7165SOL    HW132954   2.568   3.492   9.601 -0.5220  0.6329  1.1711
 7165SOL    HW232955   2.481   3.437   9.492 -2.3730 -1.2871  0.1537
 7166SOL     OW32956   1.502   3.049   8.338 -0.4280  0.1239  0.1284
 7166SOL    HW132957   1.520   3.130   8.291  1.2324  1.7043  3.4743
 7166SOL    HW232958   1.540   3.070   8.424  2.6317  0.6280 -1.3278
 7167SOL     OW32959   2.816   3.000   4.898  0.3727 -0.0019 -0.0043
 7167SOL    HW132960   2.819   2.957   4.984  0.5288  0.5697  0.2751
 7167SOL    HW232961   2.754   2.939   4.857 -1.8723  1.3217  1.4210
 7168SOL     OW32962   1.758   3.938  16.593 -0.1417  0.4904  0.1249
 7168SOL    HW132963   1.834   3.908  16.542  1.2661  0.8329  2.0495
 7168SOL    HW232964   1.793   4.015  16.638  4.6998 -0.9552 -1.0796
 7169SOL     OW32965   2.690   2.327  11.721  0.2211  0.1683  1.1682
 7169SOL    HW132966   2.763   2.298  11.666 -0.5202  1.6599 -0.6038
 7169SOL    HW232967   2.685   2.418  11.690 -0.7217 -0.3406 -0.1520
 7170SOL     OW32968   0.467   1.433   9.768 -0.6220  0.0486 -0.0944
 7170SOL    HW132969   0.466   1.337   9.761  0.0114  0.1219 -1.3272
 7170SOL    HW232970   0.380   1.441   9.728 -1.3802 -1.3665  1.2990
 7171SOL     OW32971   3.022   1.230   5.537 -0.2522 -0.3360  0.1407
 7171SOL    HW132972   3.045   1.322   5.551 -1.9254 -0.3723  3.0867
 7171SOL    HW232973   2.948   1.211   5.594  0.5509 -1.4116  0.8208
 7172SOL     OW32974   1.061   4.543  10.012  0.6678  0.5326  0.4691
 7172SOL    HW132975   1.056   4.448  10.012  0.4622  0.5445 -0.1986
 7172SOL    HW232976   1.080   4.551   9.919  0.4692 -4.1235  0.0539
 7173SOL     OW32977   3.767   1.922  17.166 -0.0034  0.2697  0.3800
 7173SOL    HW132978   3.800   1.977  17.237 -0.4001 -0.5116  1.1533
 7173SOL    HW232979   3.684   1.966  17.149  0.3805  0.0534 -2.1175
 7174SOL     OW32980   1.314   1.937   5.618  0.5535  0.6240  0.3070
 7174SOL    HW132981   1.291   1.860   5.565  1.8298  1.2167 -1.1077
 7174SOL    HW232982   1.276   1.916   5.703  0.7668  0.2586  0.3142
 7175SOL     OW32983   3.889   1.212   0.495  0.0017 -0.3089  0.1858
 7175SOL    HW132984   3.921   1.125   0.469  2.7039  0.0976  2.1973
 7175SOL    HW232985   3.795   1.194   0.490  0.0366  0.0444 -1.8205
 7176SOL     OW32986   2.103   2.922   0.715  0.8746  0.1740  0.4152
 7176SOL    HW132987   2.197   2.938   0.703  0.7011  0.3048 -0.7721
 7176SOL    HW232988   2.105   2.897   0.807  1.4469 -0.8293  0.1270
 7177SOL     OW32989   4.365   3.112   6.058 -0.1557 -0.2945  0.6026
 7177SOL    HW132990   4.460   3.123   6.062 -0.5173  2.3830  1.8922
 7177SOL    HW232991   4.321   3.181   6.108 -0.4058  0.7010 -0.9836
 7178SOL     OW32992   1.872   0.141   6.649 -0.7136 -0.1904 -0.2388
 7178SOL    HW132993   1.900   0.163   6.738 -2.0641 -0.7949  0.3374
 7178SOL    HW232994   1.794   0.197   6.644  1.3447  2.5411 -1.9020
 7179SOL     OW32995   2.384   2.440   2.713  0.8597  0.3598 -0.1774
 7179SOL    HW132996   2.442   2.490   2.655 -0.5480  1.3635 -0.7144
 7179SOL    HW232997   2.322   2.506   2.744  2.4485  1.6775  0.1697
 7180SOL     OW32998   3.917   0.462   7.099 -0.1587 -0.2821  0.2531
 7180SOL    HW132999   3.846   0.487   7.040 -0.1879 -1.6969 -0.3277
 7180SOL    HW233000   3.934   0.546   7.142  1.7549 -1.1647  1.2198
 7181SOL     OW33001   2.361   2.294   4.249  0.0142  0.4419 -0.1794
 7181SOL    HW133002   2.443   2.245   4.258 -1.8603 -2.1704  2.8723
 7181SOL    HW233003   2.305   2.216   4.240 -0.6698  0.8727  0.3617
 7182SOL     OW33004   2.796   1.941   4.915  0.1840  0.3005 -0.1471
 7182SOL    HW133005   2.876   1.947   4.967  0.5108 -1.4619 -0.4474
 7182SOL    HW233006   2.828   1.908   4.831  1.7757  0.7986  0.2589
 7183SOL     OW33007   3.523   4.268   5.362  0.0405  0.3835  0.2196
 7183SOL    HW133008   3.608   4.310   5.378  1.2777 -2.6819  1.7756
 7183SOL    HW233009   3.490   4.241   5.448  0.1841 -0.6386 -0.0366
 7184SOL     OW33010   3.634   1.990   1.327  0.5934 -0.2227  0.0493
 7184SOL    HW133011   3.677   2.044   1.394 -2.0876  1.0445  0.7439
 7184SOL    HW233012   3.544   1.994   1.359  0.2666 -0.3511 -0.8569
 7185SOL     OW33013   1.262   4.043   2.579 -0.2454  0.0431 -0.3995
 7185SOL    HW133014   1.252   3.951   2.552 -0.2579 -0.0531 -0.0645
 7185SOL    HW233015   1.301   4.019   2.663 -2.6613 -0.9263  0.4461
 7186SOL     OW33016   3.863   0.581   2.845  0.0291 -0.4572  0.2071
 7186SOL    HW133017   3.913   0.506   2.877  0.2980 -1.2454 -2.0405
 7186SOL    HW233018   3.862   0.550   2.754  2.8709  0.1352 -0.0039
 7187SOL     OW33019   4.230   1.373   8.767 -0.2216 -0.4747 -0.0354
 7187SOL    HW133020   4.278   1.439   8.717  0.7558  0.2317  1.8345
 7187SOL    HW233021   4.304   1.325   8.804  0.8634 -0.1340 -1.7493
 7188SOL     OW33022   1.908   4.207   3.992 -0.4870  0.7790  0.2246
 7188SOL    HW133023   1.920   4.240   4.081  1.7466  1.2109 -0.2316
 7188SOL    HW233024   1.902   4.113   4.007 -1.5082  1.1338  2.0646
 7189SOL     OW33025   2.625   0.981   5.306  0.6319  0.0733 -0.3947
 7189SOL    HW133026   2.698   0.980   5.368  1.5239  0.1058 -1.4526
 7189SOL    HW233027   2.611   0.887   5.294  0.4935  0.3275 -2.2697
 7190SOL     OW33028   1.490   4.299   1.504 -0.3467 -0.0407  0.4427
 7190SOL    HW133029   1.482   4.263   1.592  1.1092 -0.4200  0.4151
 7190SOL    HW233030   1.404   4.341   1.500 -1.4067 -2.2046  0.6558
 7191SOL     OW33031   2.891   4.487   7.434 -0.4822 -0.1717 -0.8071
 7191SOL    HW133032   2.936   4.527   7.359 -0.9479  2.0659  0.0960
 7191SOL    HW233033   2.797   4.492   7.412 -0.7249 -0.7291  0.1022
 7192SOL     OW33034   0.112   3.636  17.257 -0.0674  0.3350 -0.2584
 7192SOL    HW133035   0.054   3.697  17.211  0.7866 -0.7399 -2.7515
 7192SOL    HW233036   0.130   3.690  17.335  0.8336  1.9538 -1.5935
 7193SOL     OW33037   2.613   4.562   7.826 -0.6781 -0.0581 -0.7735
 7193SOL    HW133038   2.593   4.529   7.913  0.3517 -1.1474 -0.9520
 7193SOL    HW233039   2.699   4.525   7.808 -0.7013 -0.0057 -0.9911
 7194SOL     OW33040   4.545   1.644   6.489  0.1736  0.4972  0.0324
 7194SOL    HW133041   4.476   1.578   6.500  0.4503  0.0912 -0.6075
 7194SOL    HW233042   4.603   1.621   6.561  0.7054 -0.2026 -0.6100
 7195SOL     OW33043   4.311   3.685   7.740  0.1397  0.1254  0.9120
 7195SOL    HW133044   4.391   3.730   7.713 -1.0674  0.3648 -2.2683
 7195SOL    HW233045   4.326   3.593   7.719 -1.2027  0.3673 -1.1477
 7196SOL     OW33046   2.637   1.727  16.083 -0.4831  0.2403 -0.4111
 7196SOL    HW133047   2.563   1.787  16.086 -0.8312 -0.2062  0.0022
 7196SOL    HW233048   2.626   1.675  16.003  1.1233 -0.3591 -0.2496
 7197SOL     OW33049   1.982   0.788   2.977 -0.0247 -0.2712  0.3263
 7197SOL    HW133050   1.959   0.720   3.040 -0.6523  0.0744  0.4686
 7197SOL    HW233051   1.897   0.811   2.939  0.1217  1.4681  1.0713
 7198SOL     OW33052   4.267   2.425   8.824 -0.0109 -0.2280 -0.0884
 7198SOL    HW133053   4.190   2.390   8.779  0.4900 -1.6175  0.1629
 7198SOL    HW233054   4.329   2.400   8.756  2.1815  0.6177  1.6030
 7199SOL     OW33055   3.498   1.727   6.654  0.0218 -0.3561  0.3966
 7199SOL    HW133056   3.526   1.689   6.571  1.3007 -0.7260  0.9883
 7199SOL    HW233057   3.413   1.764   6.633 -0.0616 -1.2185 -0.7721
 7200SOL     OW33058   1.158   3.035   8.049 -1.0926 -0.5201  0.2287
 7200SOL    HW133059   1.232   3.010   7.995 -0.5929 -0.1709  0.7487
 7200SOL    HW233060   1.127   2.948   8.076 -2.5009 -0.4218 -1.0826
 7201SOL     OW33061   2.714   3.082   1.081 -0.3438  0.2183 -0.7415
 7201SOL    HW133062   2.634   3.084   1.133  1.1882  0.6943  1.6045
 7201SOL    HW233063   2.677   3.103   0.995 -2.7560 -2.0957 -0.2496
 7202SOL     OW33064   3.517   4.648   3.087  0.1146  0.0856 -0.7027
 7202SOL    HW133065   3.436   4.662   3.136  0.3113  0.5088 -0.4959
 7202SOL    HW233066   3.527   0.013   3.052  1.0336 -0.5563 -2.0724
 7203SOL     OW33067   3.570   4.415   4.861  0.0124  0.6748 -0.0150
 7203SOL    HW133068   3.543   4.506   4.846  1.9927  1.6141  2.1386
 7203SOL    HW233069   3.665   4.428   4.870  0.0514  0.2921  0.0997
 7204SOL     OW33070   3.682   4.000   3.629 -0.1568  0.1697 -0.1472
 7204SOL    HW133071   3.733   4.077   3.608 -0.9645  1.1961  1.6461
 7204SOL    HW233072   3.734   3.932   3.587 -0.3387 -0.1898  0.2004
 7205SOL     OW33073   1.556   2.521  16.372  0.1262  0.3753  0.0609
 7205SOL    HW133074   1.646   2.513  16.340  0.2492 -0.4355  0.5956
 7205SOL    HW233075   1.558   2.464  16.450  0.1195  1.1474  0.6298
 7206SOL     OW33076   2.285   0.886  15.369  0.2673  0.4999  0.4138
 7206SOL    HW133077   2.349   0.910  15.437 -0.4396  2.9956  0.2246
 7206SOL    HW233078   2.273   0.971  15.326  0.3358  0.0269 -0.5388
 7207SOL     OW33079   4.236   0.215  15.684 -0.6091 -0.3816 -0.0309
 7207SOL    HW133080   4.180   0.204  15.762 -0.4659 -2.1100 -0.1769
 7207SOL    HW233081   4.317   0.172  15.709 -0.3806 -0.2798 -0.6058
 7208SOL     OW33082   3.903   2.867   7.416  0.7197  0.0127  0.2747
 7208SOL    HW133083   3.939   2.940   7.366  1.5815 -0.2910  0.4437
 7208SOL    HW233084   3.978   2.843   7.469 -0.1113  0.4157  1.6227
 7209SOL     OW33085   4.444   0.779   8.753 -0.2441  0.3994 -0.7707
 7209SOL    HW133086   4.494   0.733   8.685  0.5156  1.2045 -0.7587
 7209SOL    HW233087   4.390   0.835   8.697 -0.9919  1.1584  0.7294
 7210SOL     OW33088   4.546   4.465  15.589  0.2467 -0.0978  0.3278
 7210SOL    HW133089   4.497   4.544  15.611  0.8720 -0.3298  2.5726
 7210SOL    HW233090   4.504   4.437  15.508  1.1822  0.3759 -0.3199
 7211SOL     OW33091   2.053   1.980   5.047  0.3123  0.0190 -0.0620
 7211SOL    HW133092   2.054   1.960   4.954  1.6170 -0.1944 -0.0021
 7211SOL    HW233093   1.997   2.058   5.056 -0.9992 -1.0571  1.0926
 7212SOL     OW33094   4.668   2.086   4.449 -0.5973  0.3477 -0.2734
 7212SOL    HW133095   4.594   2.067   4.506  0.0514 -0.8081  0.1713
 7212SOL    HW233096   4.709   2.152   4.504  4.0604 -0.7330 -2.4538
 7213SOL     OW33097   1.066   3.715   3.000 -0.5099  0.9054 -0.0411
 7213SOL    HW133098   1.145   3.768   3.015  0.3545 -0.7456  1.2337
 7213SOL    HW233099   1.079   3.702   2.906  1.3353  1.3347  0.1588
 7214SOL     OW33100   0.627   2.605   2.813 -0.3981 -0.0619 -0.9698
 7214SOL    HW133101   0.715   2.626   2.843 -0.3915  0.5734 -1.4393
 7214SOL    HW233102   0.633   2.512   2.790 -2.0743 -0.8029  1.4413
 7215SOL     OW33103   4.303   0.420   6.956 -0.1900 -0.9601 -0.4938
 7215SOL    HW133104   4.379   0.405   7.013 -1.8677  2.0244  2.5672
 7215SOL    HW233105   4.344   0.430   6.871  1.4053 -1.8151  0.1689
 7216SOL     OW33106   1.051   0.696   4.677  0.3289  0.0798 -0.0955
 7216SOL    HW133107   1.121   0.680   4.614  0.7958  1.7225  0.0181
 7216SOL    HW233108   1.097   0.737   4.751 -1.5796  1.4973  0.2922
 7217SOL     OW33109   3.329   0.736   7.930  1.1521 -0.0391 -0.4646
 7217SOL    HW133110   3.386   0.667   7.965  1.5949  1.1660  1.1743
 7217SOL    HW233111   3.292   0.782   8.005  0.0831 -1.6841  0.0159
 7218SOL     OW33112   1.299   0.733   3.420  0.0319 -0.2334  0.6802
 7218SOL    HW133113   1.243   0.670   3.375  0.2966 -0.6975  1.0026
 7218SOL    HW233114   1.374   0.681   3.448  0.3267  0.2312  0.7540
 7219SOL     OW33115   1.250   1.566   1.178  0.3753  0.0015  0.2610
 7219SOL    HW133116   1.254   1.475   1.208 -0.3747 -0.0792  0.1128
 7219SOL    HW233117   1.170   1.559   1.127 -0.8049 -0.9833  2.2216
 7220SOL     OW33118   2.082   0.071  14.147  0.1679 -0.5530 -0.7704
 7220SOL    HW133119   2.172   0.090  14.118 -0.0453 -2.0398 -2.4479
 7220SOL    HW233120   2.101   0.042  14.236  0.0463  2.0158  0.1192
 7221SOL     OW33121   2.877   0.984  15.067  0.3393  0.0844 -0.1665
 7221SOL    HW133122   2.953   0.994  15.125 -1.0279 -1.7919  1.9419
 7221SOL    HW233123   2.839   1.070  15.081 -0.2737 -0.2917  0.4491
 7222SOL     OW33124   1.868   4.410   9.323 -0.9237  0.4241  0.1950
 7222SOL    HW133125   1.903   4.473   9.386  1.7155 -1.1597  0.3112
 7222SOL    HW233126   1.873   4.463   9.244 -0.9058  1.4593  0.8965
 7223SOL     OW33127   0.860   1.236   4.060 -0.0275  0.1989  0.1912
 7223SOL    HW133128   0.870   1.147   4.094 -2.8995  0.2759  1.2261
 7223SOL    HW233129   0.791   1.270   4.116  1.2688 -1.0563  2.5430
 7224SOL     OW33130   1.127   3.263  11.668 -0.6720  0.7073 -0.0671
 7224SOL    HW133131   1.044   3.300  11.700 -2.4859 -0.8356 -2.9974
 7224SOL    HW233132   1.188   3.300  11.733 -0.4758  0.2561  0.0029
 7225SOL     OW33133   1.606   2.150   2.423 -0.4885 -0.2166  0.0925
 7225SOL    HW133134   1.629   2.233   2.381 -2.1200  0.6499  0.9263
 7225SOL    HW233135   1.529   2.171   2.476  0.4483 -1.4404  1.9586
 7226SOL     OW33136   0.179   3.016  10.173 -0.2394  0.8228 -0.2745
 7226SOL    HW133137   0.091   3.007  10.209 -0.4535  1.7959 -0.5579
 7226SOL    HW233138   0.188   3.111  10.177 -0.4528  0.9464 -2.2897
 7227SOL     OW33139   1.482   1.302  15.595  0.3567 -0.2799  0.1101
 7227SOL    HW133140   1.510   1.218  15.559  1.3672 -0.3137  0.9686
 7227SOL    HW233141   1.571   1.330  15.614 -0.0808  2.2344 -1.5718
 7228SOL     OW33142   3.484   1.215   5.587 -0.4714 -0.5740 -0.2826
 7228SOL    HW133143   3.499   1.120   5.585 -0.6775 -0.6003 -0.5950
 7228SOL    HW233144   3.412   1.224   5.524 -1.4420  1.2262  1.1045
 7229SOL     OW33145   2.770   3.584   9.282 -0.4404 -0.0543  0.0150
 7229SOL    HW133146   2.840   3.624   9.333 -1.4782  1.0213  0.6110
 7229SOL    HW233147   2.818   3.558   9.204  2.0073  1.4066  1.0509
 7230SOL     OW33148   0.241   1.694   1.738  0.3466 -0.4782  0.3222
 7230SOL    HW133149   0.300   1.660   1.805  1.2486 -2.0187 -1.2529
 7230SOL    HW233150   0.289   1.772   1.711 -1.4793  0.3054 -0.6293
 7231SOL     OW33151   3.454   3.247   6.335 -0.4926  0.3205  0.1608
 7231SOL    HW133152   3.468   3.191   6.258  1.8099  1.4858 -0.2664
 7231SOL    HW233153   3.359   3.253   6.331 -0.8558 -4.3480  1.3903
 7232SOL     OW33154   4.156   2.976   3.163 -0.8034 -0.2200  0.7097
 7232SOL    HW133155   4.186   2.903   3.109 -1.9933 -1.0695  1.1847
 7232SOL    HW233156   4.211   3.053   3.147  0.8553 -1.1591  1.9715
 7233SOL     OW33157   4.554   1.025   6.390  0.2332 -0.2767 -0.0487
 7233SOL    HW133158   4.578   1.024   6.483  2.9193 -0.9074 -0.7513
 7233SOL    HW233159   4.578   1.117   6.374  1.2680 -0.5812 -0.2591
 7234SOL     OW33160   1.452   4.261  12.488  0.3139 -0.2408  0.2630
 7234SOL    HW133161   1.542   4.261  12.455  0.8241  0.4143  1.6531
 7234SOL    HW233162   1.421   4.172  12.471  2.6217 -0.1760 -4.1101
 7235SOL     OW33163   4.588   4.565   3.438  0.8552  0.3434  0.9037
 7235SOL    HW133164   4.610   4.491   3.495  2.8093 -0.5293 -0.9868
 7235SOL    HW233165   4.516   4.606   3.486  0.4669  1.0163 -0.2497
 7236SOL     OW33166   2.743   4.480   4.259  0.3757 -0.7032  0.1056
 7236SOL    HW133167   2.794   4.527   4.324 -1.3158  1.1822  0.0570
 7236SOL    HW233168   2.682   4.428   4.311 -1.0271  2.2593  1.4024
 7237SOL     OW33169   4.404   3.133  12.589  0.5375  0.2768  0.1497
 7237SOL    HW133170   4.427   3.075  12.516  0.4041  0.7078 -0.2368
 7237SOL    HW233171   4.489   3.148  12.630  0.8456  1.9237 -1.0755
 7238SOL     OW33172   4.573   2.620   4.316  0.4128 -0.7009 -0.2350
 7238SOL    HW133173   4.544   2.529   4.318  2.1561 -1.2371  0.5232
 7238SOL    HW233174   4.498   2.667   4.352 -0.5080 -1.4631 -1.1635
 7239SOL     OW33175   3.978   4.560   5.528  0.3188 -0.4144 -0.5329
 7239SOL    HW133176   3.934   4.585   5.609 -3.3813 -0.9993 -2.3532
 7239SOL    HW233177   4.070   4.583   5.541  0.7997 -1.2774 -2.4461
 7240SOL     OW33178   3.910   0.896  15.792 -0.1944  0.5943  0.2017
 7240SOL    HW133179   3.863   0.826  15.837  0.6871 -0.3157 -0.2868
 7240SOL    HW233180   3.950   0.940  15.867  0.6715  0.6939 -0.3204
 7241SOL     OW33181   2.181   2.508   7.360 -0.0248  0.1893  0.0138
 7241SOL    HW133182   2.151   2.527   7.448  1.9647  1.7898  0.3315
 7241SOL    HW233183   2.173   2.412   7.359 -0.8291  0.2619 -2.1454
 7242SOL     OW33184   0.901   0.552  12.758  0.0283 -0.2134  0.0285
 7242SOL    HW133185   0.850   0.498  12.698 -2.1911  0.7948  1.0147
 7242SOL    HW233186   0.978   0.496  12.771 -0.1289 -0.0299  1.7897
 7243SOL     OW33187   2.328   1.110   5.414 -0.1683  0.2823 -0.1045
 7243SOL    HW133188   2.270   1.131   5.341  1.0497  1.7199 -0.6547
 7243SOL    HW233189   2.349   1.196   5.453 -0.9637  0.9528 -1.1653
 7244SOL     OW33190   0.648   3.712   1.312  0.1907  0.2727 -0.0801
 7244SOL    HW133191   0.576   3.744   1.257  0.3464  1.6625  0.5221
 7244SOL    HW233192   0.712   3.699   1.241 -0.3540  0.5466 -0.6258
 7245SOL     OW33193   2.840   2.972   2.216 -0.2251  0.2045  0.2845
 7245SOL    HW133194   2.881   2.995   2.132 -0.7988 -0.0680 -0.0717
 7245SOL    HW233195   2.754   2.942   2.188  0.0176 -0.3728  0.1578
 7246SOL     OW33196   2.887   2.615  10.764  0.2585 -0.6689  0.6843
 7246SOL    HW133197   2.900   2.682  10.696 -2.8027  1.0262  1.7743
 7246SOL    HW233198   2.980   2.593  10.768  0.6691  1.0810  1.2615
 7247SOL     OW33199   0.219   1.529   5.067 -0.3172  0.4297 -0.6754
 7247SOL    HW133200   0.298   1.529   5.013  0.2147  1.7836  0.1148
 7247SOL    HW233201   0.247   1.514   5.157 -1.5284  1.0434 -0.1946
 7248SOL     OW33202   4.113   2.605   5.712 -0.2179 -0.6175 -0.4354
 7248SOL    HW133203   4.049   2.585   5.644  0.6824  1.2097 -1.8190
 7248SOL    HW233204   4.168   2.668   5.666  1.6003 -0.9463  1.3015
 7249SOL     OW33205   3.765   4.276  17.324  0.4437 -0.0809 -0.1315
 7249SOL    HW133206   3.806   4.270  17.238  2.4854 -0.6190  0.8788
 7249SOL    HW233207   3.755   4.371  17.333 -0.3574 -0.3540  2.0445
 7250SOL     OW33208   1.535   2.030   8.964 -0.5761  0.0030  0.0470
 7250SOL    HW133209   1.586   2.074   8.895  1.0479  0.6817  1.6939
 7250SOL    HW233210   1.501   2.107   9.010  2.1124  1.1458  0.1233
 7251SOL     OW33211   1.591   1.480  16.805  0.2720 -0.3182  0.0056
 7251SOL    HW133212   1.541   1.475  16.886 -0.3033 -0.4397 -0.3580
 7251SOL    HW233213   1.587   1.573  16.782 -0.0066 -0.1995  0.5313
 7252SOL     OW33214   1.860   0.693   6.321  0.1194  0.7846  0.0807
 7252SOL    HW133215   1.853   0.753   6.247  0.9371  1.7299  0.7751
 7252SOL    HW233216   1.950   0.662   6.314  0.0150 -0.1171  2.6584
 7253SOL     OW33217   0.022   0.085   5.881  0.2815  0.1154 -0.0660
 7253SOL    HW133218   4.723   0.068   5.789 -0.3950 -0.0893  0.1375
 7253SOL    HW233219   0.104   0.035   5.880 -0.7834 -1.6583  0.1405
 7254SOL     OW33220   4.697   1.316   8.410  0.0655  1.1629  0.5398
 7254SOL    HW133221   4.679   1.401   8.369 -3.1581  0.1734 -0.0888
 7254SOL    HW233222   0.012   1.350   8.491  1.0762 -1.6867  1.2405
 7255SOL     OW33223   4.588   1.497   5.639 -0.3702  0.0214  0.2277
 7255SOL    HW133224   4.518   1.560   5.652 -0.9233 -1.0242  2.2580
 7255SOL    HW233225   4.564   1.460   5.554 -1.4481  3.3154 -0.8786
 7256SOL     OW33226   4.541   4.155   6.624  0.6054 -0.2008 -0.3499
 7256SOL    HW133227   4.522   4.184   6.535  1.7910 -1.1410 -0.8935
 7256SOL    HW233228   4.502   4.068   6.630  0.9027 -0.3237 -0.2178
 7257SOL     OW33229   4.672   3.536   3.303  0.6045  0.2746  0.1086
 7257SOL    HW133230   0.021   3.582   3.262  0.1111 -0.0513 -1.1473
 7257SOL    HW233231   4.664   3.461   3.244 -0.6151  0.5257 -0.0427
 7258SOL     OW33232   3.644   2.977   1.106 -0.4291  0.0362 -1.0118
 7258SOL    HW133233   3.566   2.923   1.097  0.5150 -1.3653 -0.7983
 7258SOL    HW233234   3.655   2.996   1.012 -1.7486 -0.2150 -1.2133
 7259SOL     OW33235   1.295   0.021  12.315  0.3459 -0.2410 -0.3342
 7259SOL    HW133236   1.367   0.077  12.343 -2.1851  1.9215  1.7378
 7259SOL    HW233237   1.276   4.703  12.398  0.5581  1.0857  0.3754
 7260SOL     OW33238   2.458   1.262   8.400  0.1786 -0.0985  0.1013
 7260SOL    HW133239   2.508   1.309   8.468 -2.2013  0.0079  1.7782
 7260SOL    HW233240   2.371   1.292   8.426 -0.4800 -2.3965  0.4948
 7261SOL     OW33241   0.481   0.776   9.601 -0.3646 -0.7040  0.5047
 7261SOL    HW133242   0.433   0.750   9.522  1.8992  2.0856 -1.7846
 7261SOL    HW233243   0.483   0.871   9.594 -0.7584 -0.7229  0.0552
 7262SOL     OW33244   3.175   2.246   6.288  0.3935  0.1339  0.6140
 7262SOL    HW133245   3.234   2.224   6.360  1.0214  0.5534  0.2318
 7262SOL    HW233246   3.124   2.312   6.335  2.1904  2.8905 -1.2604
 7263SOL     OW33247   0.144   2.907   8.378  0.1547  0.2744 -0.0481
 7263SOL    HW133248   0.146   2.975   8.311  2.3155 -0.0585 -0.3288
 7263SOL    HW233249   0.076   2.948   8.432  0.1468  1.5220 -1.0055
 7264SOL     OW33250   2.165   2.706   8.816  0.6469  0.0722 -0.2247
 7264SOL    HW133251   2.218   2.758   8.876  1.2175 -0.9030  0.1145
 7264SOL    HW233252   2.149   2.773   8.749 -1.3442  0.6362  0.7945
 7265SOL     OW33253   3.951   2.332   2.038 -0.1580 -0.0224  0.0479
 7265SOL    HW133254   3.948   2.337   1.943 -2.1938  1.7645  0.1965
 7265SOL    HW233255   3.913   2.245   2.053 -1.0224  0.1021 -1.3952
 7266SOL     OW33256   3.218   0.760   1.739  0.1741  0.1042  0.8634
 7266SOL    HW133257   3.155   0.832   1.739  0.0159 -0.0374  0.6808
 7266SOL    HW233258   3.174   0.681   1.770 -0.8306 -0.0148 -0.8702
 7267SOL     OW33259   2.855   1.953   3.088  0.6779  0.2783 -0.0633
 7267SOL    HW133260   2.888   2.033   3.128 -1.8050  2.2024 -1.9103
 7267SOL    HW233261   2.891   1.959   3.000 -0.2387  0.3202 -0.4361
 7268SOL     OW33262   1.363   0.752   2.249 -0.0204 -0.1007  0.0309
 7268SOL    HW133263   1.285   0.808   2.252 -0.8541 -1.2012 -1.0523
 7268SOL    HW233264   1.388   0.764   2.158  1.5456  2.4472  0.8119
 7269SOL     OW33265   0.636   3.415  17.645  0.1135  0.2794 -0.4204
 7269SOL    HW133266   0.718   3.435  17.690  0.3875 -0.2317 -0.7059
 7269SOL    HW233267   0.664   3.378  17.562  1.8626 -0.4964  0.5314
 7270SOL     OW33268   2.933   0.669   8.364 -0.3962  0.2527  0.0852
 7270SOL    HW133269   3.001   0.729   8.394  0.1987 -0.7744  0.8059
 7270SOL    HW233270   2.858   0.727   8.352  0.5996  1.9885  2.3012
 7271SOL     OW33271   3.339   3.781   3.786 -0.1789  0.2694  0.1661
 7271SOL    HW133272   3.369   3.814   3.701  1.2410  3.2350  1.7870
 7271SOL    HW233273   3.409   3.815   3.842 -1.0301  1.6699  0.3783
 7272SOL     OW33274   0.617   1.275   4.223 -0.0176  0.0887 -0.3467
 7272SOL    HW133275   0.602   1.200   4.281 -1.6326  0.7208  0.0684
 7272SOL    HW233276   0.530   1.313   4.235  0.2414  0.3270  0.8089
 7273SOL     OW33277   2.413   2.142   5.691  0.4165  0.0176 -0.0286
 7273SOL    HW133278   2.456   2.057   5.688 -0.8090 -0.6371  0.8889
 7273SOL    HW233279   2.448   2.190   5.767  0.0074 -0.2973  0.3590
 7274SOL     OW33280   0.326   4.373   6.395 -0.1707  0.3146  0.0260
 7274SOL    HW133281   0.235   4.357   6.419 -0.6698  2.9344 -0.1110
 7274SOL    HW233282   0.380   4.328   6.459 -0.2615  0.7609  0.4163
 7275SOL     OW33283   4.622   1.475   1.106 -0.7580 -0.0899 -0.1438
 7275SOL    HW133284   4.545   1.517   1.145 -1.2045 -1.3082  0.2885
 7275SOL    HW233285   4.595   1.386   1.130  0.8999 -0.4003  0.5311
 7276SOL     OW33286   3.899   1.205   2.652 -0.3466 -0.3174  0.5660
 7276SOL    HW133287   3.963   1.270   2.680  0.6469 -1.6257  1.2956
 7276SOL    HW233288   3.935   1.187   2.565  0.0239 -1.3921  0.9461
 7277SOL     OW33289   2.695   3.545   2.713  0.5474  0.3707 -0.3705
 7277SOL    HW133290   2.756   3.472   2.719 -1.3091 -1.2222 -0.7068
 7277SOL    HW233291   2.636   3.520   2.641 -1.7887  1.0250  1.3011
 7278SOL     OW33292   0.434   3.723  17.115 -0.5550  0.8013  0.1703
 7278SOL    HW133293   0.507   3.698  17.059 -1.0576 -2.2554  0.8729
 7278SOL    HW233294   0.367   3.763  17.060 -0.6058 -0.8714 -1.0052
 7279SOL     OW33295   2.472   0.674   8.811 -0.4393  0.1580  0.3015
 7279SOL    HW133296   2.514   0.633   8.886 -1.0909  0.5876  0.9058
 7279SOL    HW233297   2.437   0.757   8.844  0.0390 -0.5208  2.4844
 7280SOL     OW33298   2.956   0.392   6.188 -0.2466  0.1562  0.0304
 7280SOL    HW133299   2.948   0.474   6.139  1.1058  1.9166  2.7473
 7280SOL    HW233300   3.016   0.419   6.257  0.9087  0.7098 -1.1814
 7281SOL     OW33301   0.790   1.012  15.246 -0.3605  0.3961 -0.1734
 7281SOL    HW133302   0.758   1.019  15.156  0.2305  0.1463 -0.4079
 7281SOL    HW233303   0.839   0.929  15.252 -2.2331 -0.7736 -1.1440
 7282SOL     OW33304   1.089   4.513  17.687 -0.5667 -0.2960 -0.4918
 7282SOL    HW133305   1.163   4.454  17.693 -0.4073 -0.0780 -0.3149
 7282SOL    HW233306   1.114   4.561  17.608  0.7531 -1.1789 -0.6057
 7283SOL     OW33307   1.405   0.819   1.215  0.1955 -0.1938 -0.0799
 7283SOL    HW133308   1.352   0.805   1.294 -0.3405  0.9670 -0.2202
 7283SOL    HW233309   1.465   0.888   1.243 -1.3989  0.5430  1.5675
 7284SOL     OW33310   1.221   4.657  10.286 -0.0889  0.1368  0.0132
 7284SOL    HW133311   1.307   4.684  10.253 -0.4477  0.8054 -0.3823
 7284SOL    HW233312   1.248   4.622  10.371  1.8546  2.0524  0.1855
 7285SOL     OW33313   2.141   3.148   9.804 -0.3115  1.3804 -0.4526
 7285SOL    HW133314   2.130   3.177   9.894  0.7413 -2.9518  1.0880
 7285SOL    HW233315   2.231   3.116   9.811 -0.7264  0.3978  0.2970
 7286SOL     OW33316   2.320   0.889   4.023 -0.0373 -0.3737 -0.2766
 7286SOL    HW133317   2.325   0.819   4.088  0.4798  2.4602  2.7507
 7286SOL    HW233318   2.267   0.845   3.957 -2.3616 -0.1204  1.4043
 7287SOL     OW33319   1.098   0.179   0.942 -0.0713 -0.5778 -0.3960
 7287SOL    HW133320   1.091   0.255   1.000  0.6685 -0.2854 -0.6829
 7287SOL    HW233321   1.184   0.182   0.901 -0.4637 -1.3991 -1.2797
 7288SOL     OW33322   3.219   2.570   0.210 -0.4384  0.3140  0.3519
 7288SOL    HW133323   3.243   2.522   0.131  1.3792  3.0892 -0.7784
 7288SOL    HW233324   3.295   2.553   0.266  0.5801  0.7157 -0.9136
 7289SOL     OW33325   1.219   0.695   6.027 -0.2584  0.4821  1.1749
 7289SOL    HW133326   1.254   0.647   6.102  1.2317 -1.2652 -0.6397
 7289SOL    HW233327   1.197   0.766   6.087 -3.0312 -1.2593  2.2189
 7290SOL     OW33328   3.296   1.716   6.373 -0.0975 -0.4358 -0.4933
 7290SOL    HW133329   3.387   1.743   6.356  0.2120 -0.3556  1.3196
 7290SOL    HW233330   3.268   1.709   6.282 -0.3179 -2.8075 -0.2492
 7291SOL     OW33331   0.899   2.173   3.410 -0.1122 -0.4828 -0.3961
 7291SOL    HW133332   0.851   2.180   3.492 -1.0874 -1.6153 -0.8711
 7291SOL    HW233333   0.880   2.085   3.376  1.4318 -1.2015  0.6426
 7292SOL     OW33334   4.481   1.153   1.519  0.0768  0.4781 -0.3012
 7292SOL    HW133335   4.553   1.163   1.456  0.9900  0.1971  0.7136
 7292SOL    HW233336   4.432   1.234   1.508  0.4181  0.9217  1.4942
 7293SOL     OW33337   2.217   4.111   7.623  0.5572 -0.1568  0.0640
 7293SOL    HW133338   2.161   4.147   7.555  1.0552 -3.1059 -1.8902
 7293SOL    HW233339   2.172   4.034   7.657  0.0767 -0.4314 -1.2026
 7294SOL     OW33340   0.313   3.596   7.321  0.1856 -0.6446  0.0841
 7294SOL    HW133341   0.232   3.635   7.356 -0.9459 -1.8066 -1.2276
 7294SOL    HW233342   0.266   3.534   7.265  0.7009 -0.6531 -0.3337
 7295SOL     OW33343   2.558   2.163  15.499 -0.0863  0.3791  0.5659
 7295SOL    HW133344   2.649   2.192  15.510  0.1146 -0.6926  1.7368
 7295SOL    HW233345   2.575   2.096  15.433  2.4089  1.1034  0.4574
 7296SOL     OW33346   3.474   2.861  12.408 -0.0692  0.5097  0.4256
 7296SOL    HW133347   3.464   2.952  12.379 -0.4286 -0.7613 -3.3502
 7296SOL    HW233348   3.541   2.868  12.476  0.5325 -0.3121 -0.0950
 7297SOL     OW33349   1.821   1.417   2.822 -0.3781 -0.0764  0.5109
 7297SOL    HW133350   1.787   1.503   2.798  0.4056  0.5836  1.7845
 7297SOL    HW233351   1.764   1.399   2.896 -0.1356 -1.9415  0.2370
 7298SOL     OW33352   0.039   0.913   5.166  0.4992  0.2120  0.4043
 7298SOL    HW133353   0.051   0.823   5.136  0.3806  0.3285  0.0049
 7298SOL    HW233354   0.066   0.966   5.091  2.5546 -1.4144 -0.0025
 7299SOL     OW33355   0.996   4.228   0.105  0.2818  0.0431  0.8411
 7299SOL    HW133356   1.040   4.311   0.086  0.0835  0.1893  1.0287
 7299SOL    HW233357   0.989   4.192   0.017  3.0001  0.6148  0.3765
 7300SOL     OW33358   4.657   0.709  15.700  0.3671 -0.4628  0.3256
 7300SOL    HW133359   4.619   0.648  15.764 -2.6101 -0.7711 -1.7721
 7300SOL    HW233360   0.017   0.722  15.745  0.9800  0.1944 -1.0015
 7301SOL     OW33361   1.759   0.934  13.012  0.3077 -0.0594 -0.2712
 7301SOL    HW133362   1.845   0.918  13.051 -0.0713  0.8748  0.9779
 7301SOL    HW233363   1.751   1.020  13.053 -0.2300  0.0187 -0.5330
 7302SOL     OW33364   2.567   1.179   4.970 -0.3479  0.5571  0.5145
 7302SOL    HW133365   2.536   1.104   4.919 -0.7628 -0.8715  2.8514
 7302SOL    HW233366   2.574   1.246   4.902 -1.2346  0.4692  0.3389
 7303SOL     OW33367   0.677   4.315   1.188  0.3142 -0.5557  0.8854
 7303SOL    HW133368   0.608   4.269   1.142  0.0070  1.8104 -1.0130
 7303SOL    HW233369   0.698   4.381   1.122  1.6109 -0.8142  1.0334
 7304SOL     OW33370   1.147   1.698   0.568  0.7805 -0.0318 -0.1673
 7304SOL    HW133371   1.205   1.703   0.644  1.2192  0.1527 -0.5101
 7304SOL    HW233372   1.184   1.631   0.511 -2.0674 -1.5803 -0.1848
 7305SOL     OW33373   3.717   0.296   0.898  0.4225 -0.5146  0.2417
 7305SOL    HW133374   3.695   0.296   0.805  1.3712  1.1515  0.0217
 7305SOL    HW233375   3.812   0.303   0.896  0.4253 -0.2579  1.2639
 7306SOL     OW33376   1.244   0.409   4.379  0.1640 -0.4051  0.3211
 7306SOL    HW133377   1.228   0.445   4.292 -3.2711  0.0110  1.0987
 7306SOL    HW233378   1.266   0.489   4.427  0.3106 -1.5379  2.1685
 7307SOL     OW33379   4.568   2.175   4.985  0.0147  0.1936 -0.2128
 7307SOL    HW133380   4.622   2.244   5.024 -0.4107  1.2983 -1.6157
 7307SOL    HW233381   4.627   2.101   5.003 -0.2720  0.5900  2.4485
 7308SOL     OW33382   2.021   1.215   4.464 -0.0463  0.1580 -0.3369
 7308SOL    HW133383   2.091   1.272   4.497 -1.1796  1.5719 -0.3825
 7308SOL    HW233384   2.071   1.151   4.414  0.2004 -0.1100  0.2509
 7309SOL     OW33385   1.082   1.964   8.063  0.2292  0.2286 -0.0748
 7309SOL    HW133386   1.104   1.905   8.134 -0.1496  2.5166  1.9608
 7309SOL    HW233387   0.998   1.928   8.037  0.1051  0.1625  0.4242
 7310SOL     OW33388   1.509   3.668   6.544 -0.3724  0.0558  0.2156
 7310SOL    HW133389   1.598   3.645   6.517 -0.7983  0.3647 -1.4999
 7310SOL    HW233390   1.465   3.636   6.465 -1.3432 -0.3613  0.9166
 7311SOL     OW33391   2.361   1.313   5.613 -0.0535  0.3129 -0.3570
 7311SOL    HW133392   2.271   1.284   5.601  0.6807 -1.8784 -0.5743
 7311SOL    HW233393   2.379   1.279   5.701 -1.2673 -1.8189 -0.9518
 7312SOL     OW33394   1.783   4.578   2.705  0.0866  0.3325  0.0538
 7312SOL    HW133395   1.751   4.568   2.616  1.3497  0.0512 -0.3754
 7312SOL    HW233396   1.815   4.668   2.712  1.3326 -0.0348 -0.7176
 7313SOL     OW33397   1.864   1.178   1.585 -0.1395  0.0217 -0.0222
 7313SOL    HW133398   1.887   1.097   1.538  2.5899 -0.0471  1.3949
 7313SOL    HW233399   1.783   1.198   1.540  0.5887  0.8194 -0.9688
 7314SOL     OW33400   3.305   2.039   8.928  0.0591 -0.3066 -0.4321
 7314SOL    HW133401   3.258   2.059   8.847 -1.1518 -1.2653  0.0462
 7314SOL    HW233402   3.228   2.032   8.984 -0.3956 -1.5977 -1.2240
 7315SOL     OW33403   2.543   1.166   1.033  0.6308 -0.1511 -0.1601
 7315SOL    HW133404   2.635   1.177   1.054  0.7206  0.0652 -0.6730
 7315SOL    HW233405   2.505   1.144   1.118  0.3944 -1.1969 -0.5342
 7316SOL     OW33406   4.577   0.208   4.219 -0.0718  0.1112  0.5545
 7316SOL    HW133407   4.496   0.191   4.171  1.2205  0.9543 -1.9014
 7316SOL    HW233408   4.561   0.176   4.308  0.1425 -2.0190 -0.1638
 7317SOL     OW33409   2.471   0.428   9.886 -0.5299  0.3610 -0.0188
 7317SOL    HW133410   2.415   0.460   9.815  1.5780  2.1391 -0.8782
 7317SOL    HW233411   2.435   0.342   9.908 -1.4896  0.5373 -0.8378
 7318SOL     OW33412   0.365   0.468   8.792  0.2984  0.5412  0.1437
 7318SOL    HW133413   0.395   0.506   8.875  2.0135 -1.7850  0.5809
 7318SOL    HW233414   0.340   0.542   8.737 -0.8317 -0.4469 -0.6650
 7319SOL     OW33415   3.569   3.099   6.549 -0.4002 -0.2469 -0.2302
 7319SOL    HW133416   3.529   3.156   6.483 -0.6773 -0.1253  0.0415
 7319SOL    HW233417   3.600   3.028   6.494 -0.0049 -0.4066  0.1984
 7320SOL     OW33418   0.372   1.409   9.097  0.6883  0.1966  0.1398
 7320SOL    HW133419   0.412   1.364   9.170  1.8059  0.9087 -0.0354
 7320SOL    HW233420   0.293   1.434   9.146  0.6232 -1.8992  1.0744
 7321SOL     OW33421   0.427   4.220   4.091  0.5811 -0.8372  0.0643
 7321SOL    HW133422   0.443   4.153   4.024 -2.6370 -1.4320 -0.0699
 7321SOL    HW233423   0.481   4.292   4.058  3.0332 -3.1307 -1.0011
 7322SOL     OW33424   3.198   1.254  15.083 -0.1843 -0.3697  0.8389
 7322SOL    HW133425   3.277   1.238  15.134  0.5686  0.9774  0.1081
 7322SOL    HW233426   3.213   1.211  14.999  0.4530  0.7854  0.3437
 7323SOL     OW33427   0.179   3.103   5.858  0.0820 -0.3317  0.1111
 7323SOL    HW133428   0.095   3.116   5.814  1.5893  2.6066 -1.8809
 7323SOL    HW233429   0.173   3.007   5.860  0.3216 -0.3798 -1.8129
 7324SOL     OW33430   0.582   4.493  11.629 -0.3470  0.3548  0.2709
 7324SOL    HW133431   0.582   4.504  11.724  3.3117  2.7546 -0.0116
 7324SOL    HW233432   0.492   4.460  11.620 -0.6684  0.8385  1.7114
 7325SOL     OW33433   3.184   3.285   4.234  0.5153 -0.0269 -0.6195
 7325SOL    HW133434   3.181   3.268   4.140 -2.3195  0.1064 -0.5350
 7325SOL    HW233435   3.243   3.221   4.274  0.7362  0.0521 -0.8222
 7326SOL     OW33436   1.208   4.408  12.467 -0.3898  0.9238  0.5584
 7326SOL    HW133437   1.156   4.334  12.436 -1.4814  2.0165 -0.2108
 7326SOL    HW233438   1.290   4.360  12.464 -1.2201 -0.3769 -1.3166
 7327SOL     OW33439   3.459   2.860   7.450 -0.4415  0.0564  0.0673
 7327SOL    HW133440   3.402   2.935   7.470  0.5483  1.1499 -1.2296
 7327SOL    HW233441   3.537   2.882   7.501  0.2141 -0.3989 -0.7539
 7328SOL     OW33442   0.351   1.145  15.777 -0.4032  1.2372 -0.6946
 7328SOL    HW133443   0.264   1.183  15.780 -1.7538 -1.6839 -2.1260
 7328SOL    HW233444   0.377   1.181  15.692 -1.7236 -0.0057 -1.6357
 7329SOL     OW33445   3.875   3.772   6.573 -0.6152 -0.5111  0.0238
 7329SOL    HW133446   3.908   3.817   6.496 -1.5695  0.9702  0.4795
 7329SOL    HW233447   3.957   3.735   6.606  0.0066 -0.4525 -1.4729
 7330SOL     OW33448   3.687   0.173   6.324 -0.3936 -0.0357 -0.0413
 7330SOL    HW133449   3.655   0.224   6.399  0.2039  0.1962  0.0572
 7330SOL    HW233450   3.781   0.165   6.340 -0.2698  1.9268  0.1818
 7331SOL     OW33451   0.124   3.824   8.398  0.4542  0.1410  0.0295
 7331SOL    HW133452   0.086   3.910   8.416 -0.1603 -0.4093  1.3366
 7331SOL    HW233453   0.042   3.776   8.410 -1.0892  2.8465  0.1816
 7332SOL     OW33454   0.458   2.585   1.725 -0.0737 -0.1576 -0.1025
 7332SOL    HW133455   0.505   2.526   1.784  4.0081  0.7430 -2.4275
 7332SOL    HW233456   0.491   2.666   1.765  0.6018 -0.9079  0.8597
 7333SOL     OW33457   2.824   2.147   7.113  0.3115 -0.0557 -0.7233
 7333SOL    HW133458   2.772   2.227   7.117 -0.9427 -0.9442  0.5258
 7333SOL    HW233459   2.873   2.172   7.034  0.4874 -0.5906 -0.7852
 7334SOL     OW33460   1.200   1.633   6.736 -0.4713 -0.0579  0.3144
 7334SOL    HW133461   1.246   1.552   6.716 -1.8749 -1.0009  0.8667
 7334SOL    HW233462   1.272   1.694   6.753 -1.5161  0.8661  1.5117
 7335SOL     OW33463   2.614   1.218   3.575  0.0298 -0.0859  0.1776
 7335SOL    HW133464   2.685   1.154   3.576  0.4498  0.3482 -2.9614
 7335SOL    HW233465   2.584   1.223   3.485 -1.3504 -0.6150  0.5968
 7336SOL     OW33466   2.675   2.818   6.561 -0.1710  0.6702 -0.0211
 7336SOL    HW133467   2.751   2.850   6.609 -0.0262 -0.5812  0.5698
 7336SOL    HW233468   2.703   2.732   6.532  0.3556  0.8342  0.0016
 7337SOL     OW33469   1.299   3.820   5.884 -0.6136 -0.2442  0.1829
 7337SOL    HW133470   1.315   3.741   5.832 -1.2303  0.3499 -0.9033
 7337SOL    HW233471   1.268   3.779   5.965 -0.5324  0.2197  0.4451
 7338SOL     OW33472   4.685   3.739   6.621  0.4801  0.0547  0.1469
 7338SOL    HW133473   4.717   3.703   6.704  1.5842  0.0662 -0.2782
 7338SOL    HW233474   0.037   3.738   6.564  0.9975 -0.9850  0.8621
 7339SOL     OW33475   1.522   0.954   9.014 -0.2450  0.1889 -0.1135
 7339SOL    HW133476   1.597   0.949   9.073 -0.8528  0.8887  0.7298
 7339SOL    HW233477   1.493   0.865   8.995  0.6030  0.0638 -0.7681
 7340SOL     OW33478   1.709   1.749   1.834 -0.5497 -0.2222 -0.1964
 7340SOL    HW133479   1.696   1.706   1.919  0.8466 -0.1801  0.0379
 7340SOL    HW233480   1.642   1.698   1.788  0.1859 -0.9697 -0.4392
 7341SOL     OW33481   4.463   4.057   2.305 -0.2562  0.2885  0.0227
 7341SOL    HW133482   4.489   4.134   2.256 -1.4444  0.0304 -1.0081
 7341SOL    HW233483   4.411   4.104   2.371  0.2415 -0.2661  0.8112
 7342SOL     OW33484   2.960   4.407   2.527 -0.4383 -0.1581  0.2737
 7342SOL    HW133485   3.003   4.342   2.583 -0.2974 -0.0992  0.2341
 7342SOL    HW233486   2.880   4.357   2.509 -0.7101  1.0258 -1.7553
 7343SOL     OW33487   1.040   3.139  10.759  0.1727  0.0891  0.0602
 7343SOL    HW133488   1.037   3.061  10.704 -0.2975  0.3164 -0.2341
 7343SOL    HW233489   1.092   3.196  10.703 -0.4055  0.6644  0.1098
 7344SOL     OW33490   0.191   4.414  13.899  0.0690  0.6209 -0.3862
 7344SOL    HW133491   0.169   4.489  13.953 -0.7726  1.3342 -1.7049
 7344SOL    HW233492   0.286   4.416  13.906  0.1926  0.8895 -2.0196
 7345SOL     OW33493   1.457   0.772  13.760  0.0250 -0.2669 -0.0240
 7345SOL    HW133494   1.445   0.827  13.837 -1.6727 -0.2928 -0.2869
 7345SOL    HW233495   1.553   0.770  13.755  0.0456 -0.4332  0.4881
 7346SOL     OW33496   0.839   3.892   7.431 -0.0519 -0.3349 -0.3766
 7346SOL    HW133497   0.776   3.888   7.502  0.0071 -3.4422 -0.5143
 7346SOL    HW233498   0.806   3.961   7.374 -0.6560 -0.7283 -0.4940
 7347SOL     OW33499   2.264   3.579  12.824 -0.4824  0.1076 -0.0196
 7347SOL    HW133500   2.330   3.514  12.797 -2.3553 -0.8451 -2.2415
 7347SOL    HW233501   2.205   3.521  12.872  1.4581 -1.7813  0.1312
 7348SOL     OW33502   0.812   0.153  11.230 -0.4961  0.2329 -0.8592
 7348SOL    HW133503   0.893   0.105  11.209  0.2256  1.2892 -0.5213
 7348SOL    HW233504   0.806   0.121  11.320  0.6977  1.9528 -0.1599
 7349SOL     OW33505   3.535   2.106   3.496 -0.6842  0.0901  0.1933
 7349SOL    HW133506   3.550   2.201   3.501  0.8502 -0.0319 -2.0936
 7349SOL    HW233507   3.611   2.081   3.443 -0.0900  0.9590  0.6257
 7350SOL     OW33508   1.016   0.022   7.623  0.0631 -0.1540 -0.0049
 7350SOL    HW133509   1.074   4.687   7.671 -0.6822  0.6812  1.9152
 7350SOL    HW233510   1.053   0.105   7.651  1.5956 -0.9481  0.3199
 7351SOL     OW33511   4.082   2.393  15.199  0.6609  0.1294  0.3437
 7351SOL    HW133512   4.128   2.314  15.228 -0.3546 -0.3577  0.6042
 7351SOL    HW233513   4.004   2.360  15.156  1.2971 -0.8096 -0.0693
 7352SOL     OW33514   3.703   4.465   2.976  0.4566 -0.2986 -0.0301
 7352SOL    HW133515   3.627   4.519   2.998  1.0054 -0.4087  2.0585
 7352SOL    HW233516   3.669   4.415   2.901  0.2986 -2.7244  1.6782
 7353SOL     OW33517   2.036   3.661  11.746 -0.2103  0.0316 -0.2184
 7353SOL    HW133518   2.067   3.702  11.826 -0.5966  0.1544 -0.1297
 7353SOL    HW233519   2.047   3.738  11.690 -0.3153  0.1476 -0.0770
 7354SOL     OW33520   2.481   0.928   3.327  0.6347 -0.2842  0.6334
 7354SOL    HW133521   2.534   0.939   3.406  1.1768  2.6384 -0.1487
 7354SOL    HW233522   2.509   0.842   3.295 -2.2734 -0.2096 -2.1386
 7355SOL     OW33523   0.649   4.718   5.640  0.3515  0.4365 -0.8750
 7355SOL    HW133524   0.613   0.079   5.664  1.1027  1.1258 -2.1989
 7355SOL    HW233525   0.740   4.717   5.670 -0.2650  0.2757  1.0143
 7356SOL     OW33526   1.025   0.917   1.487  0.4025 -0.2980 -0.0188
 7356SOL    HW133527   1.056   0.868   1.563 -0.8618 -0.3523  0.4531
 7356SOL    HW233528   1.071   0.860   1.425  1.3134  1.3777 -0.8969
 7357SOL     OW33529   1.545   1.366   0.979 -0.1356 -0.5813 -0.0164
 7357SOL    HW133530   1.494   1.442   1.008  2.5498  0.8301  1.0581
 7357SOL    HW233531   1.530   1.379   0.885  1.0109 -1.5892 -0.3453
 7358SOL     OW33532   0.315   0.323   3.028  0.7479  0.1377  0.3674
 7358SOL    HW133533   0.336   0.414   3.005 -0.9160  0.1354 -1.1723
 7358SOL    HW233534   0.358   0.269   2.962 -2.3863 -0.8089 -0.8893
 7359SOL     OW33535   1.705   3.826   8.024 -0.1388 -0.3901 -0.3038
 7359SOL    HW133536   1.797   3.824   7.999 -0.2149  2.7761 -0.8023
 7359SOL    HW233537   1.719   3.805   8.116 -0.0749 -3.4310 -0.9982
 7360SOL     OW33538   0.245   3.201   6.107 -0.2972  0.5536 -0.0087
 7360SOL    HW133539   0.341   3.201   6.109 -0.2609  2.0420 -1.8221
 7360SOL    HW233540   0.236   3.212   6.012 -1.4946 -0.9235 -0.0555
 7361SOL     OW33541   3.177   3.645   1.689 -0.5823 -0.0913 -0.3269
 7361SOL    HW133542   3.109   3.673   1.750 -1.0727 -0.7967 -0.5487
 7361SOL    HW233543   3.207   3.564   1.730 -0.8749 -1.3022 -2.4896
 7362SOL     OW33544   4.059   2.373   3.800 -0.6429 -0.1075  0.1266
 7362SOL    HW133545   4.076   2.416   3.884 -2.1841 -0.9676  0.8693
 7362SOL    HW233546   4.135   2.315   3.800 -1.8848 -1.6997  0.6389
 7363SOL     OW33547   2.617   1.794  17.126  0.1337  0.2209  0.1916
 7363SOL    HW133548   2.627   1.786  17.221  1.8344  0.8000  0.0660
 7363SOL    HW233549   2.527   1.762  17.120  0.8641 -1.6513 -1.0433
 7364SOL     OW33550   0.175   1.283   7.722  0.3123 -0.0554  0.3808
 7364SOL    HW133551   0.187   1.378   7.720 -0.2553 -0.0041 -0.9743
 7364SOL    HW233552   0.100   1.282   7.781  0.4621  0.2034  0.5728
 7365SOL     OW33553   3.034   3.942   1.811 -0.0402  0.2724 -0.2530
 7365SOL    HW133554   3.005   3.856   1.840  0.1579  1.0273  2.1850
 7365SOL    HW233555   3.056   3.983   1.895 -0.6901  2.0084 -0.9251
 7366SOL     OW33556   0.680   3.656   2.723  0.0569  0.0661  0.0789
 7366SOL    HW133557   0.694   3.684   2.633  0.9112  0.2952  0.2831
 7366SOL    HW233558   0.749   3.590   2.728  1.7985  1.8382 -0.6228
 7367SOL     OW33559   0.310   3.155  15.344 -0.2657 -0.5615 -0.7976
 7367SOL    HW133560   0.233   3.097  15.346  1.3163 -2.6599 -1.3551
 7367SOL    HW233561   0.300   3.215  15.418  0.2646  0.0349 -1.2155
 7368SOL     OW33562   3.544   1.989   8.700  0.6606 -0.2380 -0.4885
 7368SOL    HW133563   3.630   1.997   8.658  1.3830  0.5860  1.1335
 7368SOL    HW233564   3.541   2.072   8.748  0.2016  1.0964 -2.8849
 7369SOL     OW33565   0.481   1.426   3.848 -1.0057 -0.1805  0.0045
 7369SOL    HW133566   0.541   1.351   3.852 -1.1156 -0.2725 -0.0884
 7369SOL    HW233567   0.525   1.463   3.771 -3.8498  0.5814 -1.2227
 7370SOL     OW33568   2.242   3.405  17.550 -0.1688  0.5210 -0.4007
 7370SOL    HW133569   2.312   3.468  17.567 -0.7491  1.8054 -2.7228
 7370SOL    HW233570   2.184   3.450  17.488 -0.9551  0.9104  0.6031
 7371SOL     OW33571   0.349   2.595   1.467  0.4196  0.2254 -0.3684
 7371SOL    HW133572   0.379   2.589   1.558 -1.2622  1.3258  0.2502
 7371SOL    HW233573   0.424   2.631   1.419  2.2123 -1.9752  0.8179
 7372SOL     OW33574   3.667   3.048  10.881  0.3845 -0.1752  0.0334
 7372SOL    HW133575   3.738   3.013  10.828 -0.6668 -1.2343 -0.6761
 7372SOL    HW233576   3.591   3.036  10.824 -0.4193  1.7812  0.7216
 7373SOL     OW33577   2.704   3.118   6.468 -0.3054  0.4884 -0.2156
 7373SOL    HW133578   2.776   3.148   6.413  0.2545 -1.4054 -0.5332
 7373SOL    HW233579   2.706   3.022   6.468  0.2543  0.5092  2.0089
 7374SOL     OW33580   2.760   1.618   7.017  0.4695  0.1890 -0.3463
 7374SOL    HW133581   2.802   1.689   7.065 -1.1016 -0.8086  2.5410
 7374SOL    HW233582   2.801   1.540   7.055  3.1693  1.1339 -1.3565
 7375SOL     OW33583   1.975   1.719  16.667  0.7218 -0.0972 -0.6710
 7375SOL    HW133584   1.956   1.806  16.703 -2.5753 -1.4109  0.8315
 7375SOL    HW233585   1.988   1.666  16.745  0.4866  0.5831 -0.1606
 7376SOL     OW33586   2.044   0.013   5.613 -0.0033  0.0398  0.3245
 7376SOL    HW133587   2.097   4.688   5.549  1.3293 -0.3224  1.7187
 7376SOL    HW233588   1.961   0.022   5.566 -0.1529  0.6347  0.7043
 7377SOL     OW33589   3.862   1.154   2.129  0.1058 -0.2975 -0.6014
 7377SOL    HW133590   3.844   1.209   2.053  0.1828  3.2450  1.9224
 7377SOL    HW233591   3.775   1.142   2.168 -0.0096 -0.3959 -0.8946
 7378SOL     OW33592   0.417   0.161   7.781 -0.0805 -0.3604 -0.2525
 7378SOL    HW133593   0.470   0.186   7.857 -1.4336  0.5486  0.3925
 7378SOL    HW233594   0.453   0.225   7.720 -0.7967 -0.3063 -0.6212
 7379SOL     OW33595   1.504   0.721   7.132 -0.0913  0.3344  0.4857
 7379SOL    HW133596   1.570   0.783   7.163  0.2620  0.1511  0.1089
 7379SOL    HW233597   1.554   0.656   7.082  1.0454  0.9649  0.8134
 7380SOL     OW33598   1.142   1.999   8.826 -0.0755  0.1539  0.4164
 7380SOL    HW133599   1.095   2.013   8.908 -0.2197  1.6724  0.0690
 7380SOL    HW233600   1.214   1.943   8.856 -0.9321 -0.3631  1.5014
 7381SOL     OW33601   3.560   4.205   2.007 -0.9859 -0.4967 -0.6588
 7381SOL    HW133602   3.552   4.298   1.985 -0.3161 -0.0773  0.8902
 7381SOL    HW233603   3.576   4.180   1.915  0.8996  0.0769 -0.5015
 7382SOL     OW33604   4.537   0.657  12.559  0.8741 -0.3989  0.3170
 7382SOL    HW133605   4.513   0.575  12.514  1.2005  0.8937 -2.2288
 7382SOL    HW233606   4.497   0.652  12.646  1.8600 -3.0607  0.6254
 7383SOL     OW33607   4.557   4.561   8.208  0.4963 -0.5897 -0.1924
 7383SOL    HW133608   4.628   4.498   8.197  0.4487 -1.0933  2.2527
 7383SOL    HW233609   4.587   4.637   8.259  1.6207 -2.2774  1.6486
 7384SOL     OW33610   0.153   1.533   5.605  0.0255  0.3275 -0.3077
 7384SOL    HW133611   0.156   1.592   5.681  2.0048  0.7610 -0.7269
 7384SOL    HW233612   0.058   1.527   5.601  0.0112 -1.2335  2.6604
 7385SOL     OW33613   1.636   1.436   3.556  0.3943  0.3308 -0.1225
 7385SOL    HW133614   1.684   1.486   3.490  0.8756  2.2220  1.6724
 7385SOL    HW233615   1.700   1.439   3.627 -0.8765  2.4015  0.9221
 7386SOL     OW33616   0.730   3.098   6.675  0.1880  0.3105 -0.2774
 7386SOL    HW133617   0.765   3.175   6.630 -3.0283  0.6647 -2.1733
 7386SOL    HW233618   0.729   3.033   6.605  0.1291  1.8732 -1.7414
 7387SOL     OW33619   0.804   3.352   6.933 -0.4249  0.4298 -0.0988
 7387SOL    HW133620   0.762   3.275   6.970 -1.2218  1.6720  1.5707
 7387SOL    HW233621   0.872   3.306   6.883  0.3633  0.3852  1.0248
 7388SOL     OW33622   0.952   0.709   6.472 -0.1821  0.6254  0.2325
 7388SOL    HW133623   0.895   0.665   6.410  0.4664  0.1055  0.0086
 7388SOL    HW233624   0.915   0.684   6.557 -0.3946 -1.3716 -0.4752
 7389SOL     OW33625   0.565   1.328   9.465  1.0450 -0.0341 -0.3055
 7389SOL    HW133626   0.586   1.421   9.470  0.1335  0.0600  1.7136
 7389SOL    HW233627   0.576   1.308   9.558 -1.8417  1.4969  0.3642
 7390SOL     OW33628   2.541   2.720  14.586  0.0346 -0.6966 -0.0819
 7390SOL    HW133629   2.589   2.710  14.503  0.5431 -1.3173  0.2868
 7390SOL    HW233630   2.560   2.634  14.623  0.1377 -0.0849  1.2538
 7391SOL     OW33631   4.398   4.721  15.148  0.2701  0.2817  0.5138
 7391SOL    HW133632   4.471   0.059  15.140 -0.3777  0.6539 -2.5792
 7391SOL    HW233633   4.351   0.035  15.222 -2.6232 -2.8320  0.2712
 7392SOL     OW33634   1.410   0.702   9.072  0.6503  0.4724  0.6542
 7392SOL    HW133635   1.421   0.762   9.145 -3.0216  2.2451 -0.2649
 7392SOL    HW233636   1.316   0.717   9.058  0.4293 -0.5397  1.0343
 7393SOL     OW33637   0.645   0.555   5.384 -0.2778  0.2741  0.0278
 7393SOL    HW133638   0.730   0.589   5.356 -0.2163 -0.3687 -0.5465
 7393SOL    HW233639   0.589   0.565   5.307 -0.8802  4.1282  0.9416
 7394SOL     OW33640   1.065   4.517  13.218  0.0734 -0.0025 -0.6546
 7394SOL    HW133641   0.970   4.520  13.229  0.7358  1.0220  4.9326
 7394SOL    HW233642   1.084   4.433  13.260 -1.4418  0.1822  0.3943
 7395SOL     OW33643   3.069   0.171  14.657  0.0133  0.0847  1.1535
 7395SOL    HW133644   3.001   0.234  14.632  0.1186  0.0184  0.6981
 7395SOL    HW233645   3.128   0.200  14.587  1.0090 -1.6537  1.2661
 7396SOL     OW33646   2.325   1.521   3.979  0.1956  0.5266 -0.2582
 7396SOL    HW133647   2.420   1.516   3.992  0.1485  1.6915  0.5523
 7396SOL    HW233648   2.300   1.524   4.071 -0.1594  1.8163 -0.3889
 7397SOL     OW33649   1.610   4.355   6.853 -0.3839  1.3361  0.1399
 7397SOL    HW133650   1.675   4.403   6.801  1.3498 -1.3010 -0.1743
 7397SOL    HW233651   1.531   4.365   6.801 -1.2374 -1.5708  0.8965
 7398SOL     OW33652   0.368   0.356   6.765 -0.3016 -0.0470 -0.2216
 7398SOL    HW133653   0.295   0.295   6.773  0.4837 -0.5535  2.9203
 7398SOL    HW233654   0.442   0.313   6.808 -1.7489 -0.7928  1.4818
 7399SOL     OW33655   0.809   3.971  11.332  0.2977  0.4518  0.3287
 7399SOL    HW133656   0.747   4.044  11.323  1.5364  1.1190 -2.5585
 7399SOL    HW233657   0.779   3.905  11.270  1.0325  0.3229  0.1127
 7400SOL     OW33658   0.388   0.690  13.456  0.0196  0.3165 -0.7140
 7400SOL    HW133659   0.446   0.706  13.381  1.7262 -0.7489  0.3793
 7400SOL    HW233660   0.444   0.665  13.529 -0.1800  0.5172 -0.4916
 7401SOL     OW33661   0.657   1.607   8.098  0.3542 -0.6058  0.4900
 7401SOL    HW133662   0.604   1.610   8.178 -0.6912 -0.5645 -0.1956
 7401SOL    HW233663   0.642   1.696   8.066  0.6284  0.0550  2.2162
 7402SOL     OW33664   4.218   4.008   7.002  0.1277 -0.4807  0.0789
 7402SOL    HW133665   4.165   3.985   6.927 -0.7805 -1.1881  0.9333
 7402SOL    HW233666   4.238   4.101   6.986 -1.9988 -0.0985 -0.3748
 7403SOL     OW33667   3.283   2.336   7.437  0.1127 -0.4769  0.8676
 7403SOL    HW133668   3.215   2.393   7.400  1.3794  1.0775  0.9348
 7403SOL    HW233669   3.256   2.328   7.529 -0.5251 -0.5255  0.6778
 7404SOL     OW33670   1.600   4.049   3.309 -0.6604 -0.2653 -0.2922
 7404SOL    HW133671   1.599   3.962   3.270  1.4249 -0.5858  0.3716
 7404SOL    HW233672   1.622   4.108   3.237 -0.5322 -0.6284 -0.5463
 7405SOL     OW33673   4.525   1.728  12.531 -0.0918 -0.2141  0.1372
 7405SOL    HW133674   4.477   1.771  12.460 -0.7711 -1.3701 -0.1060
 7405SOL    HW233675   4.543   1.800  12.592 -0.2093 -1.3353  1.5200
 7406SOL     OW33676   1.529   4.632   0.749  0.7030 -0.0067 -0.2042
 7406SOL    HW133677   1.449   4.682   0.766 -0.1056 -0.4952 -2.6006
 7406SOL    HW233678   1.553   4.668   0.664  0.9957 -2.2919 -1.0791
 7407SOL     OW33679   4.334   2.592   8.382 -0.1646  0.1319 -0.3221
 7407SOL    HW133680   4.322   2.620   8.291 -2.5313  0.5759  0.1282
 7407SOL    HW233681   4.258   2.633   8.425 -1.7736 -1.3212 -1.7711
 7408SOL     OW33682   2.322   2.959   3.801  0.5737 -0.1051 -0.2836
 7408SOL    HW133683   2.297   2.883   3.855 -1.6461  1.1797  0.4722
 7408SOL    HW233684   2.416   2.955   3.821  0.6186 -0.7300 -0.6209
 7409SOL     OW33685   2.139   4.500   7.728 -0.0422 -0.2795 -0.1491
 7409SOL    HW133686   2.075   4.473   7.795 -0.7287  0.0821 -0.6546
 7409SOL    HW233687   2.220   4.471   7.768 -0.0191  1.7773  1.2852
 7410SOL     OW33688   2.576   4.143   2.217 -0.5608  0.5044  0.2859
 7410SOL    HW133689   2.541   4.059   2.248  1.3996 -0.6724 -0.7051
 7410SOL    HW233690   2.491   4.182   2.194 -0.4566  0.0149 -0.9184
 7411SOL     OW33691   2.365   0.681   0.761 -0.0490 -0.2007 -0.0784
 7411SOL    HW133692   2.357   0.600   0.711  0.3692  0.2919 -0.9414
 7411SOL    HW233693   2.275   0.712   0.768  0.5832  1.9598 -1.6393
 7412SOL     OW33694   3.259   1.408  13.763 -0.3388 -0.2678  0.6674
 7412SOL    HW133695   3.180   1.436  13.810 -1.4315 -0.2882 -1.1478
 7412SOL    HW233696   3.327   1.463  13.803  0.9977 -1.5296  0.1086
 7413SOL     OW33697   4.462   1.285   8.894 -0.0144  0.2181  0.1078
 7413SOL    HW133698   4.508   1.368   8.877  1.0857  0.1787  2.9796
 7413SOL    HW233699   4.504   1.253   8.973 -0.4256  0.4821  0.4322
 7414SOL     OW33700   4.319   1.894  14.561 -0.6342  0.1641 -0.3679
 7414SOL    HW133701   4.307   1.800  14.577 -2.0555  0.7015  1.7931
 7414SOL    HW233702   4.237   1.931  14.594  0.4910  1.1606  1.3052
 7415SOL     OW33703   4.191   3.582   4.707 -0.0567 -0.6875  0.2683
 7415SOL    HW133704   4.268   3.598   4.763  0.5904 -0.9415 -0.5437
 7415SOL    HW233705   4.119   3.635   4.740  0.2116 -0.7080  0.8879
 7416SOL     OW33706   4.153   3.807   5.027 -0.5699  0.0199 -0.2832
 7416SOL    HW133707   4.228   3.775   4.976 -2.7804 -1.6278 -2.4868
 7416SOL    HW233708   4.113   3.881   4.981  0.5592  1.0813  0.4609
 7417SOL     OW33709   3.537   4.678   4.546 -0.3153 -0.3826 -0.3371
 7417SOL    HW133710   3.463   4.620   4.528 -0.3847 -0.4098  0.0354
 7417SOL    HW233711   3.545   4.724   4.462 -1.1987 -1.1658 -0.8459
 7418SOL     OW33712   0.533   0.138  16.989  0.2977 -0.3018  0.5908
 7418SOL    HW133713   0.603   0.120  16.926  0.2958 -1.1516  0.8230
 7418SOL    HW233714   0.558   0.222  17.026  1.5219  0.0961 -1.1070
 7419SOL     OW33715   0.346   0.914  17.545  0.1520  0.1787  0.7673
 7419SOL    HW133716   0.298   0.839  17.581 -2.1300  0.7801 -1.0714
 7419SOL    HW233717   0.362   0.890  17.454 -2.1950 -0.8404  0.6288
 7420SOL     OW33718   4.506   0.507  15.558  0.5689  0.3557  0.1884
 7420SOL    HW133719   4.559   0.586  15.573 -0.4569  0.7683  1.6291
 7420SOL    HW233720   4.422   0.540  15.589 -0.3121  0.6693 -2.5590
 7421SOL     OW33721   4.229   3.083   5.023 -0.5924  0.2545 -0.3695
 7421SOL    HW133722   4.205   3.171   5.049  0.8378  0.2515  0.9668
 7421SOL    HW233723   4.179   3.073   4.942  1.7893 -1.0041 -1.6950
 7422SOL     OW33724   3.803   0.616   9.376  0.0963 -0.9240 -0.8469
 7422SOL    HW133725   3.815   0.605   9.282 -0.2039 -2.1704 -0.7350
 7422SOL    HW233726   3.711   0.591   9.384 -0.1006  0.3840  1.0771
 7423SOL     OW33727   3.032   0.461   5.853  0.4121  0.0874  0.5789
 7423SOL    HW133728   3.040   0.497   5.764 -2.4561  0.9111  0.6481
 7423SOL    HW233729   3.109   0.500   5.895 -0.6217  3.5969 -0.7886
 7424SOL     OW33730   3.518   0.584   6.106  0.2710  0.0744  0.6302
 7424SOL    HW133731   3.582   0.596   6.176  1.2000  0.8624 -0.3611
 7424SOL    HW233732   3.568   0.535   6.040  0.2317  0.4423  0.3295
 7425SOL     OW33733   3.182   3.200   0.094  0.6071 -0.5903  0.1305
 7425SOL    HW133734   3.263   3.199   0.145  0.8110 -0.0185 -0.1853
 7425SOL    HW233735   3.198   3.121   0.043 -3.0448 -0.1012 -1.7727
 7426SOL     OW33736   4.381   1.933   4.359 -0.4414  0.3146 -0.2698
 7426SOL    HW133737   4.409   1.952   4.270  0.6828 -1.9560 -0.4023
 7426SOL    HW233738   4.372   2.020   4.397 -0.0589 -0.1360  0.8611
 7427SOL     OW33739   2.023   1.006  16.244 -0.2022 -0.4937 -0.0680
 7427SOL    HW133740   2.074   1.066  16.297  1.0942 -1.6617 -0.0050
 7427SOL    HW233741   1.931   1.035  16.247 -0.3298 -0.8956 -0.1223
 7428SOL     OW33742   0.780   1.690   1.500 -0.3662 -0.1883  0.6372
 7428SOL    HW133743   0.763   1.773   1.544 -1.8909  0.1724 -0.6517
 7428SOL    HW233744   0.695   1.647   1.491  1.4854 -4.5252  3.7608
 7429SOL     OW33745   2.692   1.930  17.612 -0.3521  0.0361  0.1422
 7429SOL    HW133746   2.651   1.859  17.562 -0.3477 -0.8402  1.4068
 7429SOL    HW233747   2.621   1.993  17.601 -1.4889 -1.6614 -2.2667
 7430SOL     OW33748   0.696   0.403  16.777 -0.1803 -0.5988 -0.3908
 7430SOL    HW133749   0.617   0.351  16.787 -0.0942 -1.0697 -2.1642
 7430SOL    HW233750   0.746   0.366  16.850 -0.0282  1.1689  0.4199
 7431SOL     OW33751   2.327   0.721   4.438 -0.1846 -0.4019 -0.1707
 7431SOL    HW133752   2.416   0.729   4.471 -0.0785 -1.3362 -0.2379
 7431SOL    HW233753   2.335   0.682   4.351  1.4810 -1.1664  0.3379
 7432SOL     OW33754   4.352   0.467   5.792 -0.1730  0.2329  0.0848
 7432SOL    HW133755   4.380   0.425   5.874  0.2257  0.6117  0.1419
 7432SOL    HW233756   4.260   0.441   5.793 -0.1769  0.1902 -1.5927
 7433SOL     OW33757   2.911   1.648  17.228  0.7802  0.0283  0.0258
 7433SOL    HW133758   2.987   1.620  17.279 -0.6873 -0.6272  1.8439
 7433SOL    HW233759   2.838   1.598  17.265 -0.5467  1.0820 -1.2256
 7434SOL     OW33760   2.838   2.501   8.608 -0.0844 -0.4369  0.6171
 7434SOL    HW133761   2.744   2.517   8.597 -0.1201 -0.3111  1.0891
 7434SOL    HW233762   2.876   2.577   8.565  0.2538 -0.9155  0.0695
 7435SOL     OW33763   2.402   0.841   8.500  0.1695  0.2772 -0.5207
 7435SOL    HW133764   2.308   0.854   8.502  0.1788  0.3044 -0.0621
 7435SOL    HW233765   2.405   0.747   8.517 -2.8372  0.0291 -1.5017
 7436SOL     OW33766   2.809   0.874   2.550  0.2185 -0.0563  0.0569
 7436SOL    HW133767   2.879   0.813   2.574 -0.6350 -0.9316  0.3079
 7436SOL    HW233768   2.831   0.947   2.608  1.0070 -1.0631  1.0121
 7437SOL     OW33769   1.385   2.896  16.604 -0.4434  0.3231  0.3351
 7437SOL    HW133770   1.419   2.873  16.691  0.2759  0.2062  0.0263
 7437SOL    HW233771   1.293   2.917  16.619 -0.8287 -0.5660 -0.8272
 7438SOL     OW33772   1.821   4.611   8.873 -0.1028 -0.1338 -0.7542
 7438SOL    HW133773   1.899   4.636   8.823 -0.1854  0.6197 -0.4948
 7438SOL    HW233774   1.845   4.630   8.963 -2.6214 -1.1960  0.1447
 7439SOL     OW33775   1.016   1.300   8.648  0.0575 -0.4983 -0.0394
 7439SOL    HW133776   1.023   1.270   8.738  0.7087 -1.7197 -0.4978
 7439SOL    HW233777   1.003   1.393   8.668 -3.0399 -0.9477  0.0383
 7440SOL     OW33778   2.938   3.330  12.764  0.1846  0.3887 -0.5917
 7440SOL    HW133779   3.011   3.390  12.748  0.4195  0.4540  0.7828
 7440SOL    HW233780   2.949   3.324  12.859 -0.1575 -1.3332 -0.6553
 7441SOL     OW33781   4.277   1.337  10.140 -0.4311  0.1968  0.1065
 7441SOL    HW133782   4.199   1.392  10.148 -0.7037 -0.0966 -0.5208
 7441SOL    HW233783   4.337   1.411  10.148  0.0457  0.0236 -1.7970
 7442SOL     OW33784   0.295   0.584   6.674 -0.7692  0.5702 -0.2230
 7442SOL    HW133785   0.366   0.618   6.727  0.1029 -0.6649 -0.6122
 7442SOL    HW233786   0.309   0.492   6.698  0.2203  1.0452  1.0244
 7443SOL     OW33787   0.833   4.461  11.442  0.0684  0.3142  0.1879
 7443SOL    HW133788   0.758   4.498  11.487  0.4827 -0.8988  1.8614
 7443SOL    HW233789   0.878   4.413  11.511 -0.3348 -0.0867  0.1687
 7444SOL     OW33790   1.218   3.033   2.510  0.2425  0.7945 -0.2774
 7444SOL    HW133791   1.146   3.044   2.448 -0.2829 -1.8142 -0.1686
 7444SOL    HW233792   1.254   3.120   2.499  0.6644  0.7777  0.9346
 7445SOL     OW33793   3.827   0.249   9.365 -0.7109  0.5155 -0.0640
 7445SOL    HW133794   3.773   0.276   9.439 -0.0096  0.6312  0.4063
 7445SOL    HW233795   3.793   0.160   9.355 -0.1226  0.6596 -3.3099
 7446SOL     OW33796   2.486   0.872   6.616  0.0935  0.5302 -0.2571
 7446SOL    HW133797   2.513   0.961   6.640 -0.5820  1.1736 -1.9009
 7446SOL    HW233798   2.469   0.869   6.522  0.1066  0.2168 -0.2501
 7447SOL     OW33799   2.471   0.114   7.775 -0.6914 -0.3190 -0.2507
 7447SOL    HW133800   2.518   0.035   7.798 -0.2155 -0.2367 -0.9382
 7447SOL    HW233801   2.431   0.093   7.690  1.3346 -0.5761 -1.1370
 7448SOL     OW33802   1.542   1.257  15.951 -0.0552 -0.2400  0.5675
 7448SOL    HW133803   1.586   1.216  15.877  1.7707 -0.1998  1.6199
 7448SOL    HW233804   1.471   1.310  15.914 -0.6701 -0.3828  1.5652
 7449SOL     OW33805   2.641   3.214  17.379  0.3363 -0.1730 -0.4433
 7449SOL    HW133806   2.729   3.216  17.418 -0.2692 -0.1101  0.9377
 7449SOL    HW233807   2.595   3.176  17.455 -2.5892  0.1540 -2.0550
 7450SOL     OW33808   3.643   4.351   6.290  0.4051 -0.4142  0.1427
 7450SOL    HW133809   3.616   4.274   6.340  0.9890  0.8779  2.4131
 7450SOL    HW233810   3.557   4.383   6.261  0.3756  0.2774  0.9915
 7451SOL     OW33811   3.450   3.095   6.106 -0.0195 -0.1844 -0.4714
 7451SOL    HW133812   3.483   3.007   6.124  2.6869  0.8184 -0.5895
 7451SOL    HW233813   3.399   3.081   6.026  0.7897  1.0957 -1.2089
 7452SOL     OW33814   1.513   2.807  16.387 -0.0565  0.0003 -0.0787
 7452SOL    HW133815   1.533   2.716  16.406  2.0596  0.4090 -0.3805
 7452SOL    HW233816   1.466   2.844  16.462  0.6867  0.7030  0.0389
 7453SOL     OW33817   3.079   3.890   6.187 -0.3327  0.0103 -0.3237
 7453SOL    HW133818   3.150   3.829   6.209 -0.6545 -0.5712 -0.8976
 7453SOL    HW233819   3.122   3.952   6.128  1.5319  0.3472  1.3667
 7454SOL     OW33820   2.558   1.871  10.912  0.2234  0.3790 -0.2428
 7454SOL    HW133821   2.495   1.933  10.949 -1.4315 -1.3785 -0.0829
 7454SOL    HW233822   2.627   1.881  10.977  0.3652  1.7011 -0.6090
 7455SOL     OW33823   3.921   0.890   2.802  0.5372  0.0836  0.4306
 7455SOL    HW133824   3.950   0.944   2.728 -1.7843  0.0303 -0.5154
 7455SOL    HW233825   3.911   0.802   2.766  1.6425 -0.7331  2.1339
 7456SOL     OW33826   1.300   3.265  17.142 -0.0557 -0.3073  0.3183
 7456SOL    HW133827   1.328   3.174  17.139 -0.0866 -0.3286  0.6333
 7456SOL    HW233828   1.384   3.308  17.127 -1.5218  2.2633 -0.5485
 7457SOL     OW33829   2.400   2.722   4.349  0.1720 -1.1159  0.4320
 7457SOL    HW133830   2.406   2.787   4.280 -1.4319  0.1625  1.5124
 7457SOL    HW233831   2.394   2.778   4.427  1.7488  0.4785 -0.6013
 7458SOL     OW33832   1.762   4.509   4.202  0.3100  0.3746 -0.5649
 7458SOL    HW133833   1.785   4.417   4.216  3.2431  1.1365 -0.3746
 7458SOL    HW233834   1.778   4.500   4.108  2.0528  1.5699 -0.3841
 7459SOL     OW33835   0.787   0.195   7.503 -0.0904 -0.2560  0.1778
 7459SOL    HW133836   0.784   0.167   7.411  1.7614 -0.5426  0.2228
 7459SOL    HW233837   0.857   0.138   7.532  0.7137  0.5288 -0.2223
 7460SOL     OW33838   3.851   2.009  16.071  0.8789 -0.0301  0.4261
 7460SOL    HW133839   3.767   1.966  16.083  1.0649 -0.6533 -0.5279
 7460SOL    HW233840   3.896   1.929  16.043 -0.8659 -0.9932  0.4113
 7461SOL     OW33841   0.968   1.910   0.091  0.2745  0.0510 -0.6335
 7461SOL    HW133842   0.911   1.985   0.075 -0.4741 -0.0360  1.6675
 7461SOL    HW233843   1.035   1.961   0.137  1.5744  0.3367 -2.8385
 7462SOL     OW33844   3.494   1.745   3.091 -0.2130 -0.5478 -0.0942
 7462SOL    HW133845   3.536   1.729   3.007  1.1465  1.2994  0.2358
 7462SOL    HW233846   3.451   1.662   3.111 -0.0301 -0.5129  0.4452
 7463SOL     OW33847   0.452   1.298   7.376  0.2915 -0.7282  0.1304
 7463SOL    HW133848   0.414   1.378   7.414  1.6885  0.3844 -0.8189
 7463SOL    HW233849   0.401   1.300   7.296 -1.8944  1.6301  1.5573
 7464SOL     OW33850   1.520   0.226   3.619 -0.2107 -0.3145  0.4441
 7464SOL    HW133851   1.502   0.135   3.640  0.1668 -0.5359 -0.1845
 7464SOL    HW233852   1.555   0.258   3.702  0.6724 -0.3276  0.0758
 7465SOL     OW33853   3.955   0.544   2.563 -0.1219 -0.0811 -0.5170
 7465SOL    HW133854   3.973   0.631   2.526 -0.9639 -0.7280 -2.4590
 7465SOL    HW233855   4.035   0.546   2.615  0.1132 -1.0017 -0.8481
 7466SOL     OW33856   3.464   4.151   8.531  0.4212 -0.0135  0.0086
 7466SOL    HW133857   3.431   4.062   8.518 -0.7328  0.4833 -0.5147
 7466SOL    HW233858   3.497   4.173   8.444  0.2893  0.5170  0.0918
 7467SOL     OW33859   3.095   0.169  13.277  0.0074 -0.5049 -0.0069
 7467SOL    HW133860   3.055   0.141  13.195  0.0684  1.3968 -0.6928
 7467SOL    HW233861   3.139   0.088  13.303  0.7183 -0.6455 -1.6781
 7468SOL     OW33862   0.171   0.233   9.260  0.3213  0.2829 -0.0689
 7468SOL    HW133863   0.261   0.222   9.229 -0.4148  0.8332 -2.4039
 7468SOL    HW233864   0.130   0.303   9.209 -1.8172  0.1747  1.5278
 7469SOL     OW33865   2.077   1.479   7.738 -0.1859 -0.4368 -0.3425
 7469SOL    HW133866   2.143   1.411   7.722 -0.1008 -0.1824 -1.0553
 7469SOL    HW233867   2.017   1.480   7.664  0.7027 -0.2556 -1.0666
 7470SOL     OW33868   2.579   0.751   4.485  0.5753  0.0715 -0.0551
 7470SOL    HW133869   2.623   0.667   4.472  1.9627  0.7832  0.0145
 7470SOL    HW233870   2.565   0.769   4.578 -0.2310 -0.5222 -0.0610
 7471SOL     OW33871   3.177   4.104   5.247 -0.7199 -0.1502  0.2818
 7471SOL    HW133872   3.245   4.095   5.314 -1.0159 -0.0840  0.5899
 7471SOL    HW233873   3.214   4.080   5.162  2.2171 -0.3767  1.6078
 7472SOL     OW33874   3.585   1.588   4.504 -0.4765 -0.3868 -0.1181
 7472SOL    HW133875   3.537   1.531   4.444 -0.5484  0.4945 -0.8949
 7472SOL    HW233876   3.525   1.603   4.577  1.2685  0.1580  1.2056
 7473SOL     OW33877   4.492   0.033  15.614 -0.4392  0.5718 -0.2873
 7473SOL    HW133878   4.515   0.040  15.521  1.9459  0.3546  0.3056
 7473SOL    HW233879   4.531   0.108  15.659  2.3597 -1.4086  0.5489
 7474SOL     OW33880   0.890   3.985  12.130  0.0325 -0.2906  0.5473
 7474SOL    HW133881   0.814   3.928  12.126 -1.1167  1.1674  1.4952
 7474SOL    HW233882   0.895   4.014  12.039 -1.9861  3.9385  1.7667
 7475SOL     OW33883   2.217   0.988   9.935  0.1799  0.0446  0.4051
 7475SOL    HW133884   2.160   1.049   9.981  0.5925  0.1760  0.7396
 7475SOL    HW233885   2.303   1.015   9.969  1.2202  0.4093 -2.4436
 7476SOL     OW33886   0.484   1.290   3.391  0.0838  0.2123  0.1022
 7476SOL    HW133887   0.407   1.305   3.336  1.1244 -2.3053 -1.9968
 7476SOL    HW233888   0.521   1.378   3.388 -0.2019  0.3809  1.2173
 7477SOL     OW33889   4.274   2.173   1.320  0.2642 -0.0692  0.7145
 7477SOL    HW133890   4.228   2.126   1.251  0.7794 -0.3754  0.5843
 7477SOL    HW233891   4.209   2.240   1.343  0.0728 -0.1502  0.4073
 7478SOL     OW33892   0.078   4.166  11.540  0.2469 -0.4981  0.0170
 7478SOL    HW133893   0.088   4.202  11.628 -1.5754 -1.1758  0.5009
 7478SOL    HW233894   0.156   4.112  11.540  0.1674 -0.6225 -1.7453
 7479SOL     OW33895   2.337   3.230   3.854 -0.5084  0.1300 -0.0254
 7479SOL    HW133896   2.277   3.230   3.929  0.0478 -0.0738  0.4168
 7479SOL    HW233897   2.342   3.135   3.846  3.6087  0.2316  1.5494
 7480SOL     OW33898   1.022   4.254   9.578 -0.3820 -0.4082 -0.2453
 7480SOL    HW133899   1.101   4.307   9.588 -1.1563  0.7263 -0.2066
 7480SOL    HW233900   1.056   4.185   9.520 -0.1129  0.3422 -0.9863
 7481SOL     OW33901   0.575   1.550  10.006 -0.1199  1.0048  0.1555
 7481SOL    HW133902   0.533   1.505   9.933 -0.4627  1.1453  0.2656
 7481SOL    HW233903   0.636   1.482  10.036 -1.2649 -0.5212 -1.0481
 7482SOL     OW33904   2.884   1.087  11.940  0.4719  0.8218  0.0995
 7482SOL    HW133905   2.800   1.117  11.907 -0.1611  1.3285  2.1522
 7482SOL    HW233906   2.897   1.163  11.996  2.4702 -0.9336  2.0654
 7483SOL     OW33907   2.377   0.651   7.540 -0.2719  0.1328 -0.1572
 7483SOL    HW133908   2.443   0.583   7.551  0.7597  1.0257 -0.7618
 7483SOL    HW233909   2.333   0.639   7.624 -2.2402 -0.8193 -1.3244
 7484SOL     OW33910   2.233   1.291   6.463 -0.5779 -0.2304  0.4249
 7484SOL    HW133911   2.172   1.244   6.405  0.7844 -2.0734  0.5130
 7484SOL    HW233912   2.243   1.217   6.522 -0.9835 -1.7768 -1.4385
 7485SOL     OW33913   3.508   3.596   1.982 -0.5775  0.5136 -0.3178
 7485SOL    HW133914   3.531   3.539   1.909 -0.2279  0.4095 -0.1229
 7485SOL    HW233915   3.586   3.650   1.991  0.4366 -0.8384 -1.0379
 7486SOL     OW33916   3.927   0.154   1.091 -0.4094  0.2175 -0.2530
 7486SOL    HW133917   3.863   0.194   1.032 -0.2453 -0.6111 -0.9996
 7486SOL    HW233918   4.009   0.153   1.042  0.2491 -0.4867  0.8601
 7487SOL     OW33919   1.386   0.902  16.325 -0.4583  0.6061 -0.1623
 7487SOL    HW133920   1.455   0.893  16.390 -0.0708  0.2520 -0.6339
 7487SOL    HW233921   1.322   0.838  16.354 -0.9265  0.4957 -1.4150
 7488SOL     OW33922   0.166   1.809   0.191 -0.2858 -0.5596 -0.1311
 7488SOL    HW133923   0.114   1.794   0.270 -0.3180  1.8388  0.2945
 7488SOL    HW233924   0.146   1.902   0.175  0.4583 -0.4346 -0.3185
 7489SOL     OW33925   0.957   1.371   6.174  0.3768 -0.5809 -0.1773
 7489SOL    HW133926   0.979   1.285   6.209  2.6807  0.3727  0.6887
 7489SOL    HW233927   1.027   1.420   6.217 -0.6392 -0.5357  1.4176
 7490SOL     OW33928   2.472   0.121   5.494 -0.5246 -0.2287 -0.2319
 7490SOL    HW133929   2.495   0.029   5.476 -1.0173 -0.0967 -1.5684
 7490SOL    HW233930   2.407   0.127   5.424 -0.5169  2.9391  0.0660
 7491SOL     OW33931   4.342   4.672   2.055 -0.3252 -0.0504 -0.1937
 7491SOL    HW133932   4.388   4.605   2.105  1.3540  0.7558 -0.6651
 7491SOL    HW233933   4.300   0.001   2.122  0.2884  1.5192 -1.0750
 7492SOL     OW33934   4.570   1.412   4.020  0.3488  0.5447 -0.4759
 7492SOL    HW133935   4.488   1.369   3.995  0.3282  0.8521 -0.9218
 7492SOL    HW233936   4.569   1.479   3.953  1.1850  1.1334  0.1025
 7493SOL     OW33937   2.529   2.650   4.599  0.8950 -0.4055  0.3112
 7493SOL    HW133938   2.585   2.682   4.528  0.6796  1.2762  0.9031
 7493SOL    HW233939   2.497   2.571   4.554 -0.0521  0.2650 -0.1977
 7494SOL     OW33940   1.876   4.147  11.296  0.2458  0.2023  0.7633
 7494SOL    HW133941   1.848   4.063  11.258  1.9230 -0.6155  1.3334
 7494SOL    HW233942   1.882   4.116  11.386 -2.7902  0.7292  1.1218
 7495SOL     OW33943   3.318   2.341   1.907 -0.0180  0.1284  0.1988
 7495SOL    HW133944   3.370   2.418   1.886  0.8535  0.0901  2.2825
 7495SOL    HW233945   3.265   2.377   1.978  1.2665  1.6978  0.3564
 7496SOL     OW33946   3.064   2.070   8.039 -0.1495 -0.1126  0.3978
 7496SOL    HW133947   3.058   2.027   7.954  1.9742 -0.9542  0.6736
 7496SOL    HW233948   3.073   1.998   8.101 -0.8565  0.5435  1.2652
 7497SOL     OW33949   3.761   3.184   2.656  0.1138  0.0467  0.0508
 7497SOL    HW133950   3.797   3.100   2.684  1.1872  1.0554  1.6797
 7497SOL    HW233951   3.817   3.207   2.582 -1.4455  0.3345 -1.0437
 7498SOL     OW33952   3.450   0.364   6.564  0.5240 -0.7562  0.0623
 7498SOL    HW133953   3.359   0.340   6.551  0.6303 -0.9167 -0.3812
 7498SOL    HW233954   3.465   0.350   6.657  0.3075 -2.7113 -0.2001
 7499SOL     OW33955   3.643   4.480   3.598 -0.0816  0.2084 -0.5141
 7499SOL    HW133956   3.697   4.516   3.669  0.5682  0.1882 -0.9933
 7499SOL    HW233957   3.628   4.560   3.548 -1.1909  0.0286 -0.4591
 7500SOL     OW33958   3.979   2.128   6.664  0.0433  0.2147 -0.3088
 7500SOL    HW133959   4.073   2.144   6.675  0.6892 -3.5625 -0.3454
 7500SOL    HW233960   3.982   2.054   6.603 -1.4016  0.6342 -0.8817
 7501SOL     OW33961   2.915   2.528   8.255 -0.8526 -0.1987 -0.2776
 7501SOL    HW133962   2.949   2.568   8.335 -1.3669 -2.8431  1.2819
 7501SOL    HW233963   2.962   2.586   8.195 -0.6524  0.3884  0.4489
 7502SOL     OW33964   1.130   0.253   3.474 -0.6359  0.1149 -0.3178
 7502SOL    HW133965   1.119   0.346   3.456  0.2641  0.2330 -0.2627
 7502SOL    HW233966   1.038   0.228   3.476 -0.0697 -1.8867  0.7254
 7503SOL     OW33967   2.760   1.181   6.352 -0.0752  0.4470 -0.0232
 7503SOL    HW133968   2.782   1.255   6.409 -0.5385  0.7343 -0.2171
 7503SOL    HW233969   2.665   1.183   6.367  0.1275 -0.9399  1.4085
 7504SOL     OW33970   3.402   4.360   2.996  0.5392  0.4907  0.0127
 7504SOL    HW133971   3.382   4.315   2.914  1.1498  1.6030 -0.7601
 7504SOL    HW233972   3.412   4.451   2.966 -3.1434  0.8299 -0.2201
 7505SOL     OW33973   0.936   4.635   6.837  0.0841 -0.1296 -0.5527
 7505SOL    HW133974   0.841   4.642   6.846  0.1707 -0.1379  0.3685
 7505SOL    HW233975   0.943   4.562   6.776 -1.3980  0.1894 -1.1312
 7506SOL     OW33976   3.102   0.280  12.488  0.3502 -0.4362 -0.0578
 7506SOL    HW133977   3.186   0.271  12.443 -0.4280  1.8490 -1.9712
 7506SOL    HW233978   3.086   0.373  12.475 -1.2904 -0.7033  0.0214
 7507SOL     OW33979   0.487   0.667   5.156  0.7394 -0.3146  0.1366
 7507SOL    HW133980   0.475   0.750   5.202 -0.5782 -0.5532  0.2067
 7507SOL    HW233981   0.458   0.695   5.069 -0.7503  1.7523  1.2875
 7508SOL     OW33982   4.205   1.998   2.020 -0.1038 -0.3951 -0.5187
 7508SOL    HW133983   4.130   1.986   2.078 -0.2740 -0.7611 -0.8133
 7508SOL    HW233984   4.225   1.904   2.012  3.0367  0.2259  0.1230
 7509SOL     OW33985   1.971   0.825   4.679  0.1810  0.0520 -0.3421
 7509SOL    HW133986   2.004   0.869   4.601  1.1983  0.9460  0.6001
 7509SOL    HW233987   2.051   0.816   4.731 -0.9268 -0.7698  1.2083
 7510SOL     OW33988   1.988   0.739   2.219  0.6688 -0.1943 -0.5087
 7510SOL    HW133989   1.907   0.725   2.268  0.0834  0.0709 -1.4049
 7510SOL    HW233990   1.954   0.796   2.150 -1.0088  0.5666  0.9370
 7511SOL     OW33991   0.552   4.495   8.507 -0.3855  0.3449 -0.0112
 7511SOL    HW133992   0.599   4.427   8.459  0.4835  1.4045 -0.6436
 7511SOL    HW233993   0.622   4.518   8.568 -2.3072  1.8220  1.6366
 7512SOL     OW33994   0.845   4.689   2.229 -0.2025 -0.2877  0.2837
 7512SOL    HW133995   0.788   0.000   2.297 -1.4366 -1.5983 -0.0634
 7512SOL    HW233996   0.776   4.678   2.164 -1.4086  0.7321  1.3855
 7513SOL     OW33997   1.673   2.427   4.322  0.1940  0.0010 -0.4033
 7513SOL    HW133998   1.687   2.521   4.308  2.4988 -0.3035 -0.1217
 7513SOL    HW233999   1.609   2.433   4.393  1.3179 -0.8492  0.6827
 7514SOL     OW34000   2.991   1.934   1.287 -0.3485 -0.6849  0.0782
 7514SOL    HW134001   3.021   2.012   1.333  1.8567 -2.6292  1.9059
 7514SOL    HW234002   2.925   1.977   1.232  0.2675  0.4813  0.2408
 7515SOL     OW34003   3.856   4.086   5.628 -0.1730  0.2330  0.0086
 7515SOL    HW134004   3.937   4.048   5.661 -0.1886 -0.3432 -0.6011
 7515SOL    HW234005   3.883   4.162   5.576  1.0074 -1.2859 -1.5944
 7516SOL     OW34006   3.800   0.728   3.797  0.0808  0.0303 -0.1595
 7516SOL    HW134007   3.733   0.774   3.848 -1.8557 -1.3651 -1.4490
 7516SOL    HW234008   3.755   0.646   3.778  1.3566 -0.3893 -1.3335
 7517SOL     OW34009   1.239   4.298   8.522  0.0548  0.5010 -0.3881
 7517SOL    HW134010   1.180   4.315   8.449  0.0524  2.0389 -0.0396
 7517SOL    HW234011   1.323   4.282   8.479 -0.1572 -0.5823 -0.3893
 7518SOL     OW34012   1.375   0.486   0.245 -0.7491 -0.1537 -0.4990
 7518SOL    HW134013   1.451   0.454   0.197 -0.7052 -0.1055 -0.4617
 7518SOL    HW234014   1.309   0.458   0.182  0.5683  0.6470 -2.2478
 7519SOL     OW34015   4.629   0.927   7.909 -0.3032 -0.6281  0.2390
 7519SOL    HW134016   4.665   0.958   7.825  2.7124 -1.7142  1.1255
 7519SOL    HW234017   4.583   0.847   7.883  0.9758 -0.8782 -1.2898
 7520SOL     OW34018   3.247   0.000   5.312 -0.7316 -0.0032  0.2113
 7520SOL    HW134019   3.280   0.040   5.231 -0.3801 -1.1041 -0.1881
 7520SOL    HW234020   3.307   0.040   5.376  0.0499 -2.1281  0.7977
 7521SOL     OW34021   2.695   1.833   1.071 -0.1327 -0.5311  0.0801
 7521SOL    HW134022   2.607   1.842   1.035 -0.3522 -2.3608  0.1332
 7521SOL    HW234023   2.699   1.915   1.120  0.3177 -0.9824  0.8065
 7522SOL     OW34024   3.640   1.063   6.762 -0.1501  0.1764 -0.2157
 7522SOL    HW134025   3.730   1.096   6.768  0.0779 -0.5872  0.6308
 7522SOL    HW234026   3.655   0.987   6.818 -1.9783  0.0672  0.1288
 7523SOL     OW34027   0.678   4.360   7.962 -0.2883 -0.0737  0.8871
 7523SOL    HW134028   0.690   4.407   7.879  0.4294  0.9450  1.5701
 7523SOL    HW234029   0.654   4.271   7.935 -1.4510  0.8910 -1.2961
 7524SOL     OW34030   2.681   1.911  10.204 -0.3335 -0.0324 -0.1419
 7524SOL    HW134031   2.694   1.937  10.295  0.7848 -1.9620  0.2466
 7524SOL    HW234032   2.623   1.982  10.174 -1.2906 -0.9612 -0.4775
 7525SOL     OW34033   4.545   4.473   5.085  0.4949  0.2674 -0.5377
 7525SOL    HW134034   4.614   4.429   5.134  0.2258 -1.3948 -1.6350
 7525SOL    HW234035   4.531   4.556   5.131  4.2764 -0.3457  1.6618
 7526SOL     OW34036   0.252   1.591   4.695 -0.0031  0.3811  0.2395
 7526SOL    HW134037   0.187   1.630   4.636 -0.9334  0.6236  1.4362
 7526SOL    HW234038   0.313   1.664   4.707 -0.8824  0.8308  2.0388
 7527SOL     OW34039   4.259   1.163   2.627  0.0150  0.2602  0.0472
 7527SOL    HW134040   4.255   1.256   2.602 -0.4527  0.8203  2.1590
 7527SOL    HW234041   4.330   1.166   2.692  0.6450  0.4250 -0.6543
 7528SOL     OW34042   2.394   2.931   4.153  0.5203 -0.0558  0.4164
 7528SOL    HW134043   2.401   3.025   4.170 -1.5845  0.3951 -1.2246
 7528SOL    HW234044   2.458   2.912   4.085 -0.0669  1.3044 -0.5044
 7529SOL     OW34045   0.555   4.497  11.902  0.0895 -0.2225  0.4372
 7529SOL    HW134046   0.535   4.561  11.971 -2.1035 -1.4456  0.9480
 7529SOL    HW234047   0.621   4.439  11.939  0.3848 -0.5884 -0.6751
 7530SOL     OW34048   2.424   1.753   6.882  0.5921 -0.0525 -0.7296
 7530SOL    HW134049   2.447   1.755   6.789  0.4339  0.8905 -0.7466
 7530SOL    HW234050   2.492   1.809   6.917  1.6330 -0.6737 -1.7565
 7531SOL     OW34051   1.828   1.969  15.307 -0.1390 -0.3645 -0.5480
 7531SOL    HW134052   1.756   1.976  15.244 -1.5222 -0.1678  1.0408
 7531SOL    HW234053   1.899   2.005  15.254 -1.4078  0.4315 -1.7022
 7532SOL     OW34054   3.072   3.074  10.332  0.4427 -0.6973  1.0470
 7532SOL    HW134055   3.111   3.107  10.412  1.8088 -1.5819  0.7520
 7532SOL    HW234056   2.983   3.084  10.366  0.8080  1.1747  1.4285
 7533SOL     OW34057   3.534   0.634   0.747  0.3898  0.0490  0.3432
 7533SOL    HW134058   3.501   0.593   0.827  0.6234 -2.3603 -0.7745
 7533SOL    HW234059   3.628   0.642   0.764  0.2976 -3.1456  2.4887
 7534SOL     OW34060   2.707   2.272   2.574 -0.0708 -0.1543  0.4419
 7534SOL    HW134061   2.759   2.351   2.561  0.3583 -0.2326  1.6063
 7534SOL    HW234062   2.757   2.198   2.542  1.0187  2.1742 -3.1708
 7535SOL     OW34063   4.077   1.266   5.982  0.5249  0.1560  0.0069
 7535SOL    HW134064   3.992   1.244   6.019  0.8812 -1.7564 -0.3210
 7535SOL    HW234065   4.139   1.243   6.051 -0.7621 -0.3124  1.0086
 7536SOL     OW34066   1.212   2.106   9.538 -0.4322 -0.1641 -0.3516
 7536SOL    HW134067   1.271   2.171   9.501 -0.0782  1.1428  2.4904
 7536SOL    HW234068   1.141   2.109   9.474  0.4331  1.0128 -1.2527
 7537SOL     OW34069   1.480   1.382   5.913  0.1575 -0.3960 -0.2610
 7537SOL    HW134070   1.484   1.317   5.983 -1.4359 -1.2633 -0.9822
 7537SOL    HW234071   1.515   1.457   5.960  2.9311 -1.0928 -1.2196
 7538SOL     OW34072   1.584   3.236   6.621 -0.1405  0.0243 -0.5237
 7538SOL    HW134073   1.628   3.178   6.558 -0.5218 -1.0273  0.1652
 7538SOL    HW234074   1.572   3.179   6.697  0.6954 -0.1964 -0.5557
 7539SOL     OW34075   0.505   4.472   9.584 -0.2548 -0.0855 -0.3814
 7539SOL    HW134076   0.597   4.462   9.558  0.0591  0.5095  0.5114
 7539SOL    HW234077   0.480   4.422   9.507 -0.5017 -0.0483 -0.3241
 7540SOL     OW34078   0.146   2.709   8.581  0.1987  0.1568 -0.0008
 7540SOL    HW134079   0.225   2.656   8.573 -0.1247 -0.3516  0.1646
 7540SOL    HW234080   0.149   2.764   8.503  0.7121  2.6149  1.7671
 7541SOL     OW34081   3.478   2.589   1.271 -0.1838 -0.0826  0.1780
 7541SOL    HW134082   3.461   2.647   1.197 -0.8250 -0.8852 -0.2945
 7541SOL    HW234083   3.506   2.508   1.228  1.9920  1.2213 -0.8533
 7542SOL     OW34084   2.832   1.472   3.420  0.2804 -0.4947  0.4015
 7542SOL    HW134085   2.755   1.468   3.477 -0.5131  0.8229 -0.5610
 7542SOL    HW234086   2.880   1.397   3.454 -0.2340 -0.4463  1.2336
 7543SOL     OW34087   2.961   1.688  15.295 -0.4500  0.2519  0.3441
 7543SOL    HW134088   3.035   1.637  15.328  0.1381  0.4173 -0.7011
 7543SOL    HW234089   2.952   1.654  15.206  2.0489 -1.2661  0.6993
 7544SOL     OW34090   0.321   1.617  11.915  0.0261  0.3487 -0.0054
 7544SOL    HW134091   0.265   1.540  11.910 -0.9439  1.1406 -1.0282
 7544SOL    HW234092   0.261   1.682  11.951 -0.7125 -0.4853  0.2534
 7545SOL     OW34093   1.169   2.475  15.240  0.5168  0.0106 -0.7608
 7545SOL    HW134094   1.236   2.509  15.181  0.6474 -0.3491 -0.8156
 7545SOL    HW234095   1.115   2.418  15.185  1.6167 -1.2311 -0.5483
 7546SOL     OW34096   0.128   0.153   3.640 -0.3128  0.0692  0.6398
 7546SOL    HW134097   0.099   0.243   3.629  0.4250  0.2192 -0.0823
 7546SOL    HW234098   0.203   0.152   3.580 -1.3269 -0.4638 -0.6034
 7547SOL     OW34099   2.746   4.375  17.323  0.0331 -0.1366  0.8185
 7547SOL    HW134100   2.731   4.331  17.407  0.0757  0.7979  1.3194
 7547SOL    HW234101   2.771   4.300  17.269  2.7253  0.6293  1.0037
 7548SOL     OW34102   3.187   1.334   3.949  0.2385 -0.2059  0.1114
 7548SOL    HW134103   3.201   1.322   4.043 -2.7813  0.9944  0.6956
 7548SOL    HW234104   3.162   1.426   3.957 -0.9860 -0.2942 -2.7257
 7549SOL     OW34105   3.878   2.360   9.812 -0.1748  0.0026 -0.1468
 7549SOL    HW134106   3.805   2.312   9.851 -0.6754  0.2681 -0.7718
 7549SOL    HW234107   3.953   2.311   9.847 -0.8118 -0.0143  1.1891
 7550SOL     OW34108   1.158   3.124   5.891  0.6846 -0.0593  0.2348
 7550SOL    HW134109   1.125   3.213   5.885  1.9133  0.2925 -1.4746
 7550SOL    HW234110   1.140   3.102   5.799 -1.0387  1.8043  0.1419
 7551SOL     OW34111   1.069   1.018   8.623 -0.0113  0.6805  0.3741
 7551SOL    HW134112   1.086   1.103   8.582  2.1230 -0.7116 -1.6594
 7551SOL    HW234113   1.001   0.984   8.566  2.7533 -2.0044 -1.3447
 7552SOL     OW34114   1.440   1.281   7.999  0.1593  0.6464  0.1674
 7552SOL    HW134115   1.533   1.259   7.986  0.3199  0.5994  1.3707
 7552SOL    HW234116   1.422   1.246   8.086  0.0330  2.9745  1.0805
 7553SOL     OW34117   0.200   0.087   5.064 -0.6317 -0.1146  0.5882
 7553SOL    HW134118   0.277   0.073   5.010 -3.3088  0.9701 -3.5191
 7553SOL    HW234119   0.220   0.061   5.154  0.8084  0.6402  0.4781
 7554SOL     OW34120   2.176   0.468   1.290  0.4258  1.0129  0.1959
 7554SOL    HW134121   2.200   0.558   1.266  0.1837  0.4010 -2.4049
 7554SOL    HW234122   2.118   0.445   1.218  1.3147 -1.2200  0.1965
 7555SOL     OW34123   2.413   3.614   4.832 -0.0970  0.1281 -0.2468
 7555SOL    HW134124   2.473   3.647   4.899 -1.2669 -2.1425  1.9146
 7555SOL    HW234125   2.460   3.581   4.756  0.7843  2.0719 -0.5622
 7556SOL     OW34126   3.504   0.565   9.145  0.1119  0.1497  0.4072
 7556SOL    HW134127   3.409   0.554   9.150  0.0972 -0.4736 -1.4212
 7556SOL    HW234128   3.531   0.558   9.237 -0.2569  0.8851  0.5756
 7557SOL     OW34129   0.958   2.282   4.294 -0.7293 -0.1222 -0.1585
 7557SOL    HW134130   0.920   2.367   4.273  0.8497  0.8795  1.0346
 7557SOL    HW234131   1.043   2.294   4.337  0.0460 -1.7827 -1.2003
 7558SOL     OW34132   1.847   0.702   5.762  0.3739 -0.1924  0.1586
 7558SOL    HW134133   1.875   0.736   5.677 -1.0520 -1.3315 -0.7866
 7558SOL    HW234134   1.787   0.768   5.795  0.0110  0.9142 -2.6921
 7559SOL     OW34135   1.665   1.713   6.779  0.6269 -0.1468 -0.5187
 7559SOL    HW134136   1.622   1.653   6.719  0.0741 -0.2702 -0.0011
 7559SOL    HW234137   1.667   1.791   6.723  0.5399  0.4760  0.3490
 7560SOL     OW34138   4.250   4.259   8.702  0.1054  0.5628 -0.2082
 7560SOL    HW134139   4.297   4.269   8.619 -2.6379 -0.5296 -1.8989
 7560SOL    HW234140   4.179   4.197   8.684  0.5238 -0.4288  1.6017
 7561SOL     OW34141   3.722   2.132   9.834 -0.0910  0.3177 -0.0356
 7561SOL    HW134142   3.754   2.056   9.880 -1.9796  0.0062  0.7574
 7561SOL    HW234143   3.753   2.114   9.745 -0.2463 -0.6889  0.1205
 7562SOL     OW34144   1.401   0.719   9.550 -0.2011  0.2822 -0.8864
 7562SOL    HW134145   1.481   0.767   9.528 -0.6542  0.9057 -1.1987
 7562SOL    HW234146   1.374   0.707   9.459  1.1394 -1.3710 -1.0550
 7563SOL     OW34147   1.463   3.922   4.983  0.0756 -0.0238  0.1812
 7563SOL    HW134148   1.507   4.007   4.983  3.9689 -2.0720 -0.2734
 7563SOL    HW234149   1.370   3.936   5.002  0.3134  2.0225 -0.2085
 7564SOL     OW34150   3.778   0.333   2.541  0.1235 -0.0450  0.6169
 7564SOL    HW134151   3.845   0.400   2.533 -3.1637  3.2917  0.9148
 7564SOL    HW234152   3.807   0.282   2.617  0.9821  2.1043  1.7218
 7565SOL     OW34153   3.277   1.016  11.815  0.5747 -0.1390 -0.7274
 7565SOL    HW134154   3.337   0.942  11.808  1.7571  0.5950  1.8593
 7565SOL    HW234155   3.236   1.014  11.901 -0.2330 -2.1889 -1.1633
 7566SOL     OW34156   2.484   0.350  17.003  0.2291 -0.2677  0.0017
 7566SOL    HW134157   2.417   0.283  16.993 -1.1405  1.0496  0.4390
 7566SOL    HW234158   2.470   0.375  16.911  0.8528  1.4256  0.3631
 7567SOL     OW34159   3.051   3.852   5.887  0.4897 -0.0597 -0.1228
 7567SOL    HW134160   3.002   3.771   5.898  0.7700 -0.4992 -2.1683
 7567SOL    HW234161   2.982   3.900   5.841 -0.2641 -0.0746  1.0061
 7568SOL     OW34162   2.706   1.835   0.384  0.1700  0.4403 -0.2961
 7568SOL    HW134163   2.751   1.900   0.330  0.2102 -0.1092 -0.9165
 7568SOL    HW234164   2.749   1.872   0.462 -0.0405  1.7348 -0.7953
 7569SOL     OW34165   0.309   0.212   8.856 -0.5818 -0.4280 -0.0616
 7569SOL    HW134166   0.233   0.217   8.799  0.6363 -2.7029 -1.9106
 7569SOL    HW234167   0.317   0.306   8.866  2.4635 -0.6010 -0.7301
 7570SOL     OW34168   3.400   2.701   4.588 -0.0998  0.0601 -0.3155
 7570SOL    HW134169   3.376   2.610   4.605  1.6760 -0.8405 -2.5677
 7570SOL    HW234170   3.388   2.735   4.676 -0.2213 -0.5346 -0.0999
 7571SOL     OW34171   1.764   3.679   2.789  0.5009 -0.2848 -0.1421
 7571SOL    HW134172   1.747   3.740   2.717  1.0718  1.1678  0.9717
 7571SOL    HW234173   1.853   3.651   2.765  1.7924  2.1943  1.8344
 7572SOL     OW34174   2.263   3.375   8.299 -0.4366  0.1842  0.2145
 7572SOL    HW134175   2.173   3.343   8.294 -0.5549  0.7042 -0.9608
 7572SOL    HW234176   2.301   3.296   8.337 -0.2238 -0.1936 -0.7770
 7573SOL     OW34177   3.349   2.457   1.486  0.5492 -0.1420  0.2970
 7573SOL    HW134178   3.298   2.525   1.442  0.1357  0.4784  1.7262
 7573SOL    HW234179   3.431   2.463   1.436 -0.4186 -2.8812 -1.6483
 7574SOL     OW34180   4.080   4.675   7.316 -0.4397  0.3601 -0.1747
 7574SOL    HW134181   4.013   4.610   7.336  0.6571 -1.5675 -2.8743
 7574SOL    HW234182   4.151   4.656   7.378 -0.0679  0.4458 -0.5755
 7575SOL     OW34183   1.814   2.728  15.186 -0.5176  0.0521  0.2270
 7575SOL    HW134184   1.874   2.676  15.132 -0.0091 -1.1290  1.8965
 7575SOL    HW234185   1.881   2.783  15.226  0.4723  0.0082 -1.3757
 7576SOL     OW34186   4.150   3.575  13.304  0.9766  0.2426 -0.4636
 7576SOL    HW134187   4.097   3.495  13.298  0.6216  0.5839 -1.8433
 7576SOL    HW234188   4.229   3.564  13.251  0.8375 -0.2944 -0.5618
 7577SOL     OW34189   4.164   0.304  12.328  0.1201  0.7020 -0.2860
 7577SOL    HW134190   4.225   0.332  12.260  2.5117  2.0146  2.4154
 7577SOL    HW234191   4.145   0.213  12.306 -0.0275 -0.3987  4.3124
 7578SOL     OW34192   0.402   1.526  16.058 -0.1771 -0.4511 -0.0899
 7578SOL    HW134193   0.434   1.453  16.005 -1.9877 -2.0168  1.0083
 7578SOL    HW234194   0.453   1.597  16.019 -2.4856  0.1128 -2.0277
 7579SOL     OW34195   1.782   3.489   8.799 -0.3700 -0.0731 -0.2479
 7579SOL    HW134196   1.731   3.408   8.805  1.5068 -1.3253 -1.4468
 7579SOL    HW234197   1.775   3.523   8.888 -2.2793 -1.0212 -0.0362
 7580SOL     OW34198   4.117   4.120  17.297  0.4757 -0.2056 -0.0859
 7580SOL    HW134199   4.115   4.024  17.301  2.8347 -0.2788 -0.2399
 7580SOL    HW234200   4.213   4.127  17.299  0.4242  0.6409 -0.3521
 7581SOL     OW34201   1.673   1.798   8.766 -0.0956  0.1351 -0.0586
 7581SOL    HW134202   1.679   1.791   8.861 -1.5113 -1.5520 -0.0985
 7581SOL    HW234203   1.764   1.816   8.743  0.4198 -1.0940  1.0285
 7582SOL     OW34204   1.117   0.157  11.320 -0.1617  0.0614  0.1810
 7582SOL    HW134205   1.077   0.125  11.401  1.9147  2.9094  2.3095
 7582SOL    HW234206   1.109   0.252  11.328  0.5522  0.0454  0.9866
 7583SOL     OW34207   1.468   3.953   6.573 -0.3362  0.3237  0.1243
 7583SOL    HW134208   1.410   3.991   6.507  2.4749  1.5912 -1.6104
 7583SOL    HW234209   1.487   3.865   6.539 -2.9970  0.3558 -1.5013
 7584SOL     OW34210   3.903   3.399   5.913  0.1885 -0.6063  0.1219
 7584SOL    HW134211   3.830   3.383   5.973  1.2371  0.5326  1.7290
 7584SOL    HW234212   3.920   3.309   5.885 -1.2682 -0.7535 -0.2550
 7585SOL     OW34213   2.690   2.129   9.465 -0.5021 -0.3106 -0.1366
 7585SOL    HW134214   2.755   2.136   9.535  1.5575 -0.9974 -1.9690
 7585SOL    HW234215   2.743   2.078   9.405  1.2778 -0.0449  1.2117
 7586SOL     OW34216   3.859   2.791  10.764  0.2479 -0.2393  0.5667
 7586SOL    HW134217   3.839   2.853  10.695 -1.1542 -0.1510  1.0388
 7586SOL    HW234218   3.923   2.842  10.813 -0.3566  2.3431 -1.3433
 7587SOL     OW34219   3.293   3.639   5.007 -0.1741 -0.3388  0.3390
 7587SOL    HW134220   3.306   3.721   5.055  0.3599  0.3101 -0.9341
 7587SOL    HW234221   3.371   3.589   5.031  0.1016  0.3175  0.8194
 7588SOL     OW34222   0.867   1.204   9.493 -0.0358  0.4826  0.1965
 7588SOL    HW134223   0.881   1.135   9.559 -1.5645 -1.9692 -2.0455
 7588SOL    HW234224   0.817   1.267   9.545 -2.0078 -0.0557 -1.0415
 7589SOL     OW34225   1.826   0.466   1.205 -0.1676  0.7297 -0.4639
 7589SOL    HW134226   1.905   0.426   1.168 -0.3645  1.4720 -1.6833
 7589SOL    HW234227   1.848   0.559   1.203  0.9102  0.4918  0.2103
 7590SOL     OW34228   2.401   1.701   6.617 -0.1398 -0.8746  0.0114
 7590SOL    HW134229   2.457   1.674   6.544 -0.6007 -1.0253 -0.2879
 7590SOL    HW234230   2.332   1.635   6.612 -2.1621  1.4416 -2.3563
 7591SOL     OW34231   4.166   2.126  17.407 -0.0339 -0.7356 -0.1631
 7591SOL    HW134232   4.229   2.186  17.447 -1.3073  0.3372  0.2139
 7591SOL    HW234233   4.138   2.076  17.484  1.4514 -1.1286  0.1399
 7592SOL     OW34234   2.117   2.670  15.231 -0.0773  0.3585  0.0226
 7592SOL    HW134235   2.093   2.762  15.247 -3.1563 -0.2951 -0.8580
 7592SOL    HW234236   2.064   2.631  15.301 -0.8297 -2.0008 -1.8556
 7593SOL     OW34237   1.114   1.446   7.643 -0.3055  0.6157  0.0255
 7593SOL    HW134238   1.188   1.454   7.703 -1.0344  0.9675  0.8853
 7593SOL    HW234239   1.108   1.536   7.611 -0.1763  1.4718  2.3926
 7594SOL     OW34240   2.630   4.717   1.216 -0.1141  0.2083 -0.2118
 7594SOL    HW134241   2.612   4.638   1.164  0.5053  0.1395 -0.3157
 7594SOL    HW234242   2.597   4.688   1.301  1.0800 -2.0632 -0.5152
 7595SOL     OW34243   1.418   2.052   8.329 -0.4238  0.1385  0.0539
 7595SOL    HW134244   1.394   2.085   8.243  0.8897 -0.1296 -0.4030
 7595SOL    HW234245   1.336   2.083   8.370 -0.4980 -4.3410  3.2628
 7596SOL     OW34246   3.117   2.590  17.628  0.2155  0.2029 -0.8289
 7596SOL    HW134247   3.095   2.580   0.022 -0.7183 -1.1488 -1.2005
 7596SOL    HW234248   3.209   2.617  17.632  0.6207 -1.1583 -0.6722
 7597SOL     OW34249   4.049   1.285   6.592  0.3997 -0.3355  0.5735
 7597SOL    HW134250   3.970   1.303   6.643  1.2452  3.7381  0.4470
 7597SOL    HW234251   4.035   1.196   6.561 -1.3126  0.5223 -1.1183
 7598SOL     OW34252   0.664   2.904   9.318 -0.4320  0.3692  0.0637
 7598SOL    HW134253   0.756   2.885   9.302 -0.2783  2.3830 -1.4675
 7598SOL    HW234254   0.633   2.826   9.272 -0.3901  0.5383 -0.2556
 7599SOL     OW34255   2.390   3.850   4.088 -0.0797  0.1703 -0.3636
 7599SOL    HW134256   2.458   3.859   4.155 -0.3587  2.9029 -0.4332
 7599SOL    HW234257   2.443   3.871   4.011 -0.9428  0.4026 -0.8883
 7600SOL     OW34258   0.273   4.565   0.174  0.1111  0.0462 -0.0072
 7600SOL    HW134259   0.277   4.581   0.080 -0.1341  2.3080  0.3742
 7600SOL    HW234260   0.347   4.615   0.207  1.1165 -1.7212  0.3969
 7601SOL     OW34261   4.447   0.452   8.841 -0.1801  0.3443  0.4830
 7601SOL    HW134262   4.470   0.529   8.789  0.9629  0.9975  1.9677
 7601SOL    HW234263   4.388   0.407   8.781  1.4538 -0.4957 -0.5061
 7602SOL     OW34264   3.934   0.796   6.858 -0.0235 -0.4038 -0.3065
 7602SOL    HW134265   3.982   0.810   6.777 -2.4124  0.2565 -1.5844
 7602SOL    HW234266   3.999   0.821   6.925  0.2770 -0.5724 -0.5390
 7603SOL     OW34267   1.169   3.751   2.744 -0.0587 -0.1205 -0.5721
 7603SOL    HW134268   1.150   3.762   2.651 -0.1123 -1.1615 -0.6863
 7603SOL    HW234269   1.265   3.751   2.737  0.0137 -0.9914  0.4379
 7604SOL     OW34270   4.424   0.342   6.067 -0.2848  0.3999 -0.0957
 7604SOL    HW134271   4.434   0.248   6.056 -0.5511  0.1944  1.4433
 7604SOL    HW234272   4.518   0.360   6.072  0.2180 -1.4702 -3.3372
 7605SOL     OW34273   4.297   1.511   6.305  0.1813  0.0476 -0.5568
 7605SOL    HW134274   4.304   1.416   6.310  0.8720  0.1089 -0.4674
 7605SOL    HW234275   4.239   1.529   6.380 -0.1794  0.2003 -0.8745
 7606SOL     OW34276   3.974   1.876   3.416  0.2473 -0.2440  0.3048
 7606SOL    HW134277   3.918   1.803   3.389  1.4481 -1.0640  0.0110
 7606SOL    HW234278   4.020   1.899   3.335  0.3887 -0.8553  0.2114
 7607SOL     OW34279   3.968   1.321   6.302 -0.1894 -0.3374  0.3097
 7607SOL    HW134280   3.983   1.227   6.304  2.8007  0.1430  0.3821
 7607SOL    HW234281   3.999   1.334   6.392  2.0001  0.3282 -0.5252
 7608SOL     OW34282   1.619   0.674   3.215  0.2275 -0.0438  0.0404
 7608SOL    HW134283   1.694   0.723   3.249 -0.8850  1.1920  0.7348
 7608SOL    HW234284   1.553   0.743   3.200 -1.1863 -1.2937  0.5448
 7609SOL     OW34285   0.148   3.243   2.271 -0.2456 -0.1706  0.1066
 7609SOL    HW134286   0.198   3.263   2.192  0.4394  0.4162  0.6981
 7609SOL    HW234287   0.161   3.321   2.324 -0.3158 -0.4705  0.5616
 7610SOL     OW34288   3.586   0.874  12.326  0.1393  0.5038  0.1452
 7610SOL    HW134289   3.552   0.938  12.388  1.3202  0.6956  0.5780
 7610SOL    HW234290   3.626   0.825  12.398  0.3418  0.3456 -0.0737
 7611SOL     OW34291   2.151   1.958   5.824  0.2132  0.1608  0.3283
 7611SOL    HW134292   2.109   2.027   5.875 -1.3782  1.6224 -2.9087
 7611SOL    HW234293   2.118   1.979   5.737 -1.6321  1.5076  1.3652
 7612SOL     OW34294   3.149   4.575   9.122  0.0819  0.1792  0.1475
 7612SOL    HW134295   3.124   4.502   9.065  1.9636  0.2923 -0.8140
 7612SOL    HW234296   3.081   4.567   9.188 -0.6177  1.4467 -0.4187
 7613SOL     OW34297   3.806   3.931  15.042  0.0148  0.0187  0.2521
 7613SOL    HW134298   3.888   3.945  15.090 -0.0214 -1.2173  0.6701
 7613SOL    HW234299   3.769   4.016  15.065 -0.7162 -0.2279 -0.0286
 7614SOL     OW34300   3.349   2.050   7.914 -0.3767  0.0227 -0.1744
 7614SOL    HW134301   3.360   1.990   7.840  2.9648  0.6780 -0.1766
 7614SOL    HW234302   3.316   1.993   7.984 -1.2159  2.2730  1.2545
 7615SOL     OW34303   2.581   4.259   7.044 -0.1195  0.1268  0.5374
 7615SOL    HW134304   2.585   4.287   6.953 -2.2177 -1.6031 -0.0977
 7615SOL    HW234305   2.588   4.166   7.022 -0.7308  0.8347 -2.6297
 7616SOL     OW34306   3.613   1.150   2.245  0.0448  0.3392 -0.0176
 7616SOL    HW134307   3.565   1.169   2.165  0.4961  0.7198 -0.1962
 7616SOL    HW234308   3.589   1.220   2.306 -0.0800  0.9232 -0.7460
 7617SOL     OW34309   1.882   1.940  11.747 -0.2301 -0.0823  0.2627
 7617SOL    HW134310   1.832   1.965  11.825  0.1195 -1.1215  0.8115
 7617SOL    HW234311   1.816   1.945  11.678 -1.0770  1.0322  1.1515
 7618SOL     OW34312   0.652   1.524   4.050  0.3049  0.1357  0.0103
 7618SOL    HW134313   0.609   1.513   3.965 -1.8428 -0.8041  1.2196
 7618SOL    HW234314   0.619   1.439   4.081 -1.1185 -0.4890 -3.2677
 7619SOL     OW34315   1.406   3.270   3.464  0.5300  0.4079 -0.8242
 7619SOL    HW134316   1.362   3.227   3.391 -0.2091 -0.3912  0.0736
 7619SOL    HW234317   1.429   3.356   3.429  0.8706  0.3401 -0.7684
 7620SOL     OW34318   2.204   2.426   2.960 -0.3686 -0.2917  0.2539
 7620SOL    HW134319   2.299   2.421   2.953 -0.3180  0.4293  0.4667
 7620SOL    HW234320   2.202   2.521   2.967 -0.8415 -0.2252 -0.7932
 7621SOL     OW34321   4.612   4.137  15.113 -0.3629 -0.0108 -0.0168
 7621SOL    HW134322   4.697   4.101  15.091 -1.0039 -1.7165  0.3200
 7621SOL    HW234323   4.607   4.220  15.064 -1.6582  0.0409  0.1965
 7622SOL     OW34324   0.939   3.429   6.294  0.1791  0.3401  0.3396
 7622SOL    HW134325   0.868   3.488   6.265 -0.4833 -0.7515 -0.2620
 7622SOL    HW234326   0.980   3.415   6.209 -0.5604 -2.3916  0.4222
 7623SOL     OW34327   3.012   4.556   8.170  0.8050  0.4012 -0.7763
 7623SOL    HW134328   3.009   4.618   8.098 -1.3483  0.0708 -0.9676
 7623SOL    HW234329   3.061   4.484   8.129  0.6363 -0.0724 -0.1447
 7624SOL     OW34330   0.864   0.745  13.281 -0.1513 -0.5334 -0.6216
 7624SOL    HW134331   0.892   0.695  13.204 -3.0021 -1.3592 -1.1246
 7624SOL    HW234332   0.855   0.831  13.241 -0.1118 -0.1191  0.2631
 7625SOL     OW34333   3.958   3.502  14.564 -0.2942 -0.3528  0.0462
 7625SOL    HW134334   3.920   3.590  14.566  1.3022  0.3532 -1.3737
 7625SOL    HW234335   3.877   3.453  14.577 -0.4315  0.2626  1.4974
 7626SOL     OW34336   2.015   3.419   3.574  0.2291  1.0539 -0.1472
 7626SOL    HW134337   2.067   3.471   3.635 -0.7261  1.9362 -0.0915
 7626SOL    HW234338   2.088   3.364   3.543  0.5184  1.5554 -0.3568
 7627SOL     OW34339   2.438   3.166   6.640  0.3304 -0.2474 -0.0966
 7627SOL    HW134340   2.524   3.189   6.675 -0.6260  0.3419  1.8291
 7627SOL    HW234341   2.386   3.152   6.719  0.4629 -1.9224 -0.3254
 7628SOL     OW34342   3.519   1.566   9.770 -0.3012  0.2988 -0.2913
 7628SOL    HW134343   3.565   1.487   9.797 -0.1946  0.4434 -0.0467
 7628SOL    HW234344   3.446   1.527   9.722 -1.0601  1.1841  0.1271
 7629SOL     OW34345   0.886   2.052   7.410  0.1154  0.1688 -0.1096
 7629SOL    HW134346   0.953   2.097   7.461  2.1742 -0.6089 -2.1486
 7629SOL    HW234347   0.937   2.036   7.331 -1.4384  0.5718 -1.2030
 7630SOL     OW34348   4.472   2.999  12.844  0.2976 -0.4060 -0.4659
 7630SOL    HW134349   4.408   2.930  12.825  0.3182 -0.9599  1.4126
 7630SOL    HW234350   4.403   3.065  12.852  1.3073  0.6736 -0.7209
 7631SOL     OW34351   1.805   0.861   4.941  0.5232  0.6164 -0.1072
 7631SOL    HW134352   1.811   0.896   4.852 -2.5208 -0.2137 -0.6316
 7631SOL    HW234353   1.724   0.906   4.963 -0.8568 -1.2958 -1.3494
 7632SOL     OW34354   2.922   1.972  12.861 -0.6043 -0.9263 -0.1812
 7632SOL    HW134355   2.985   2.042  12.872 -0.6171 -1.3271  2.3922
 7632SOL    HW234356   2.975   1.896  12.885  1.8387  1.0960  0.7987
 7633SOL     OW34357   1.792   3.320   5.333  0.5141 -0.4020 -0.0547
 7633SOL    HW134358   1.831   3.245   5.288  2.3772  0.5777 -0.0923
 7633SOL    HW234359   1.842   3.386   5.284  1.7618  0.0714  1.8841
 7634SOL     OW34360   1.341   1.865   7.053 -0.5077 -0.4604 -0.6805
 7634SOL    HW134361   1.377   1.854   6.965  1.7444 -0.0878  0.1705
 7634SOL    HW234362   1.355   1.959   7.066 -1.3639 -0.4511  0.1426
 7635SOL     OW34363   2.250   1.964   6.996  0.3624 -0.0562 -0.3318
 7635SOL    HW134364   2.239   1.999   7.085 -0.5942  1.0863 -0.8953
 7635SOL    HW234365   2.334   1.926   7.022 -0.2669 -0.3532  1.2384
 7636SOL     OW34366   3.907   1.703   6.666  0.4725 -0.0903  0.4326
 7636SOL    HW134367   3.921   1.777   6.726 -0.2748 -0.0818  0.5991
 7636SOL    HW234368   3.833   1.663   6.711  0.2810 -0.0044  0.1934
 7637SOL     OW34369   1.759   2.667   4.254  0.2644  0.2129  0.3300
 7637SOL    HW134370   1.843   2.688   4.213 -0.2617 -1.3729 -1.6112
 7637SOL    HW234371   1.696   2.711   4.197  1.0270  0.1560 -0.5618
 7638SOL     OW34372   3.639   4.241   0.967 -0.4501  0.0337 -0.1574
 7638SOL    HW134373   3.658   4.292   1.045 -0.3315  1.4702 -1.1210
 7638SOL    HW234374   3.701   4.269   0.900 -3.2140  3.5473 -1.2542
 7639SOL     OW34375   2.838   0.991   8.646  0.5092 -0.1440  0.0339
 7639SOL    HW134376   2.777   1.046   8.597  1.0070 -0.9879 -1.5426
 7639SOL    HW234377   2.847   1.034   8.731  1.6731  2.2509 -1.3049
 7640SOL     OW34378   4.228   1.524   2.955  0.0627  1.0099  0.1713
 7640SOL    HW134379   4.291   1.596   2.951  1.3164 -0.0798  0.2869
 7640SOL    HW234380   4.155   1.561   3.005 -0.3994  1.1016 -0.5768
 7641SOL     OW34381   0.375   0.649  15.116 -0.3005 -0.4603 -0.5374
 7641SOL    HW134382   0.440   0.718  15.102  1.8358 -1.8640  2.5383
 7641SOL    HW234383   0.421   0.566  15.125  2.3426  1.0005 -0.4689
 7642SOL     OW34384   1.336   0.445  14.865 -0.7308 -0.6725 -0.1958
 7642SOL    HW134385   1.348   0.437  14.771 -0.4903 -0.7233 -0.1611
 7642SOL    HW234386   1.384   0.375  14.909  1.2058 -0.6779 -2.2733
 7643SOL     OW34387   3.481   3.018   0.384  0.0239  0.1199 -0.3341
 7643SOL    HW134388   3.569   2.996   0.414 -0.4533 -0.2088  0.8286
 7643SOL    HW234389   3.418   2.955   0.420  1.1944 -0.4654  0.6868
 7644SOL     OW34390   4.086   2.718   0.532  0.2645 -0.1122  0.0360
 7644SOL    HW134391   4.018   2.784   0.533  1.6377  1.2860  0.6015
 7644SOL    HW234392   4.125   2.722   0.619  0.7329  1.0257 -0.2402
 7645SOL     OW34393   4.459   3.336   4.764 -0.0974  0.1040 -0.2535
 7645SOL    HW134394   4.364   3.335   4.751 -0.2422 -2.3036  1.0501
 7645SOL    HW234395   4.481   3.397   4.833  3.7899 -1.8592  0.2564
 7646SOL     OW34396   3.733   0.348   6.792 -0.2193  0.2313 -0.2007
 7646SOL    HW134397   3.759   0.336   6.700  0.7986  2.4055 -0.1702
 7646SOL    HW234398   3.753   0.265   6.835  0.4056  0.1124 -0.7191
 7647SOL     OW34399   0.104   4.427   4.085  0.1650 -0.0797 -0.4370
 7647SOL    HW134400   0.084   4.484   4.160  0.9004 -2.2203  1.3898
 7647SOL    HW234401   0.178   4.477   4.052  0.1312  0.5555  0.4451
 7648SOL     OW34402   2.128   0.932   8.455 -0.2626 -0.4681 -0.3123
 7648SOL    HW134403   2.088   0.852   8.490  0.1962 -0.2340  0.7207
 7648SOL    HW234404   2.077   1.001   8.497 -0.1216 -1.4560  1.4571
 7649SOL     OW34405   1.590   3.298   8.785  0.1085 -0.3965 -0.3755
 7649SOL    HW134406   1.596   3.214   8.739  1.5765 -0.1992 -0.5562
 7649SOL    HW234407   1.497   3.308   8.806  0.2884  0.8010 -0.1339
 7650SOL     OW34408   0.408   1.962   4.496 -0.2864  0.7272 -0.0474
 7650SOL    HW134409   0.499   1.960   4.526  0.0499  4.7395 -0.7127
 7650SOL    HW234410   0.377   2.051   4.515  0.2601  0.6879  1.0752
 7651SOL     OW34411   2.748   4.199   3.985 -0.7948  0.4081  0.7515
 7651SOL    HW134412   2.768   4.118   4.033 -1.5849 -0.9969 -1.2756
 7651SOL    HW234413   2.822   4.258   4.001  0.9168 -1.8736  1.4114
 7652SOL     OW34414   4.007   3.940  16.659  0.5312  0.2365 -0.0600
 7652SOL    HW134415   3.935   3.937  16.595 -0.2590  0.3861  0.8221
 7652SOL    HW234416   4.044   3.852  16.650 -0.5309 -0.1905 -0.3237
 7653SOL     OW34417   4.411   1.161   9.976  0.1510 -0.6808  0.4533
 7653SOL    HW134418   4.438   1.074  10.003  0.5862 -0.3303  1.1619
 7653SOL    HW234419   4.344   1.175  10.042 -3.1117 -2.6008 -2.4709
 7654SOL     OW34420   2.538   3.867   0.040  0.2851 -0.4834  0.0977
 7654SOL    HW134421   2.558   3.807   0.111 -1.9732  0.1497  1.2579
 7654SOL    HW234422   2.489   3.935   0.087  1.7138  0.1521  0.6510
 7655SOL     OW34423   2.667   3.043  16.614 -0.2517  0.4562  0.2556
 7655SOL    HW134424   2.676   3.063  16.707  0.9021  0.2891  0.1824
 7655SOL    HW234425   2.681   3.126  16.569  2.6423 -1.3852 -2.2311
 7656SOL     OW34426   4.668   3.318  15.161  0.0900 -0.0781  0.9828
 7656SOL    HW134427   4.722   3.342  15.086  1.2321  0.2173  1.9020
 7656SOL    HW234428   4.583   3.305  15.118  2.1930 -0.0305 -3.1887
 7657SOL     OW34429   2.516   1.863   4.244 -0.4969  0.4812 -0.5287
 7657SOL    HW134430   2.483   1.797   4.305 -1.4047 -0.7851 -2.3652
 7657SOL    HW234431   2.446   1.928   4.238 -2.7377 -1.9128 -0.3820
 7658SOL     OW34432   0.999   3.691   5.022  0.1311  0.8102 -0.2663
 7658SOL    HW134433   1.011   3.596   5.019 -1.8444  0.5035  1.8232
 7658SOL    HW234434   1.042   3.707   4.937 -1.0787  3.2729 -0.4056
 7659SOL     OW34435   4.227   2.678   9.325 -0.0525  0.2119 -0.2218
 7659SOL    HW134436   4.291   2.745   9.349 -0.4454  0.6026 -0.2727
 7659SOL    HW234437   4.149   2.698   9.376  0.9561 -1.5333  1.9962
 7660SOL     OW34438   4.586   1.502   6.155 -0.1835 -0.0246  0.3158
 7660SOL    HW134439   4.511   1.550   6.192  1.2329  3.5269 -1.3895
 7660SOL    HW234440   4.543   1.449   6.089 -3.0782  0.5963  1.6814
 7661SOL     OW34441   1.477   1.088   9.313  0.5714 -0.2431 -0.3936
 7661SOL    HW134442   1.569   1.099   9.289  0.2834  3.4618  0.2293
 7661SOL    HW234443   1.480   1.109   9.406 -1.4373 -1.5350 -0.0230
 7662SOL     OW34444   1.748   0.722   3.907 -0.1877 -0.0940 -0.2865
 7662SOL    HW134445   1.795   0.779   3.968 -3.1728 -1.3612  3.1932
 7662SOL    HW234446   1.723   0.784   3.838 -0.8677 -0.5033 -0.4060
 7663SOL     OW34447   2.683   4.349   8.481 -0.5127 -0.1298  0.0584
 7663SOL    HW134448   2.666   4.444   8.479  0.1294 -0.0387 -0.6864
 7663SOL    HW234449   2.593   4.315   8.479 -0.9366  0.9317  0.3939
 7664SOL     OW34450   0.881   0.586  13.518  0.2467  0.1852 -0.7119
 7664SOL    HW134451   0.871   0.653  13.450  0.8544 -1.1447 -2.1199
 7664SOL    HW234452   0.921   0.511  13.474 -0.3774 -0.1269 -0.7443
 7665SOL     OW34453   2.263   0.527   2.506 -0.5644  0.1467  0.2613
 7665SOL    HW134454   2.222   0.483   2.431 -3.3439  1.3414  1.0806
 7665SOL    HW234455   2.269   0.612   2.463 -0.3107  1.2345  2.4948
 7666SOL     OW34456   3.253   4.672   3.579  0.7369  0.8055 -0.0511
 7666SOL    HW134457   3.303   0.011   3.630  0.8331  0.3171  0.4510
 7666SOL    HW234458   3.267   4.595   3.634 -2.9580 -0.8616 -1.4655
 7667SOL     OW34459   2.605   4.122   9.577 -0.1033 -0.5159 -0.6037
 7667SOL    HW134460   2.579   4.107   9.487 -0.2941  1.5761 -0.8947
 7667SOL    HW234461   2.651   4.206   9.571 -0.3142 -0.1572  2.7315
 7668SOL     OW34462   0.916   2.539   4.197 -0.7550 -0.4306 -0.5963
 7668SOL    HW134463   1.010   2.559   4.206 -0.7750 -0.2374 -0.7911
 7668SOL    HW234464   0.896   2.540   4.103 -0.5858 -1.2351 -0.6374
 7669SOL     OW34465   3.203   4.019  14.557  1.0768 -0.0398 -0.1517
 7669SOL    HW134466   3.163   4.019  14.470 -0.2806  2.7846  0.4872
 7669SOL    HW234467   3.288   3.974  14.551  0.4267 -1.2767  0.0025
 7670SOL     OW34468   0.205   3.930   7.089 -0.1503 -0.0721  0.2320
 7670SOL    HW134469   0.221   3.857   7.030 -0.4653  0.5927 -0.6635
 7670SOL    HW234470   0.169   3.996   7.031 -2.0534 -0.7917  0.6014
 7671SOL     OW34471   0.367   4.568  12.908  0.2029 -0.4201 -0.5021
 7671SOL    HW134472   0.338   4.658  12.892 -1.3356 -1.1198 -1.5739
 7671SOL    HW234473   0.450   4.583  12.954 -0.1000 -1.3315  0.3495
 7672SOL     OW34474   3.267   0.418   2.976 -0.4168 -0.0292 -0.0770
 7672SOL    HW134475   3.201   0.388   3.039 -2.0532 -1.0143 -2.2526
 7672SOL    HW234476   3.327   0.469   3.030 -0.6780  1.4187 -1.1612
 7673SOL     OW34477   0.148   2.995   1.271 -0.6502 -0.0678 -0.5826
 7673SOL    HW134478   0.058   2.986   1.239 -0.7248  0.9106 -0.6443
 7673SOL    HW234479   0.193   3.028   1.193 -1.9329  1.0753 -0.8354
 7674SOL     OW34480   4.198   0.118   4.393 -0.7904 -0.3542 -0.2341
 7674SOL    HW134481   4.201   0.214   4.402  1.3794 -0.3784 -0.5551
 7674SOL    HW234482   4.260   0.096   4.463 -2.1439  1.1303  1.4257
 7675SOL     OW34483   3.151   3.302   4.922 -0.2218 -0.6721  0.7665
 7675SOL    HW134484   3.229   3.247   4.927 -0.3059 -0.8898 -0.2180
 7675SOL    HW234485   3.093   3.266   4.854 -1.0970 -2.7169  2.6042
 7676SOL     OW34486   3.712   1.561   1.034 -0.1748  0.2546  0.4826
 7676SOL    HW134487   3.723   1.655   1.051 -2.6169  0.3510  1.5858
 7676SOL    HW234488   3.618   1.568   1.018  0.0116  0.2787 -0.5942
 7677SOL     OW34489   1.350   2.748   8.778  0.3348 -0.3216  0.6739
 7677SOL    HW134490   1.441   2.733   8.800  0.9026 -1.5844 -2.5508
 7677SOL    HW234491   1.337   2.663   8.737  1.2423 -0.6154  1.0048
 7678SOL     OW34492   1.283   1.576   0.331 -0.4929 -0.2785  0.3803
 7678SOL    HW134493   1.245   1.495   0.367 -1.9249 -0.4338 -1.4915
 7678SOL    HW234494   1.214   1.595   0.267 -2.2992  3.7448  3.5469
 7679SOL     OW34495   4.615   2.783   2.921  0.0656 -0.3281 -0.8034
 7679SOL    HW134496   4.540   2.842   2.917 -0.5797 -1.2158 -1.8491
 7679SOL    HW234497   4.654   2.811   3.003 -1.7209 -1.2071  0.3451
 7680SOL     OW34498   1.622   4.565  10.470  0.2575  0.0562  0.2333
 7680SOL    HW134499   1.559   4.608  10.413  1.1683  1.2988  0.1814
 7680SOL    HW234500   1.683   4.537  10.402 -1.6278 -0.4207 -1.2621
 7681SOL     OW34501   4.615   4.066   7.681 -0.1792  0.2475 -0.5888
 7681SOL    HW134502   4.654   4.137   7.732  0.2287 -2.4213  2.7727
 7681SOL    HW234503   4.521   4.079   7.696 -0.1835 -0.4288 -0.0472
 7682SOL     OW34504   1.453   4.276  13.967  0.2275 -0.2990  0.5638
 7682SOL    HW134505   1.402   4.349  13.932  1.6038 -0.4200 -1.7227
 7682SOL    HW234506   1.403   4.197  13.949 -2.4593  1.2118  1.4103
 7683SOL     OW34507   2.185   1.702   5.601  0.0518  0.2186  0.4819
 7683SOL    HW134508   2.113   1.733   5.656 -0.9574 -1.2560 -0.0106
 7683SOL    HW234509   2.136   1.672   5.524  1.7432  0.1422 -0.5758
 7684SOL     OW34510   4.412   2.724   7.741 -0.4258  0.0066  0.0818
 7684SOL    HW134511   4.450   2.727   7.828  3.2204 -0.0381 -1.4897
 7684SOL    HW234512   4.338   2.782   7.758 -1.2420 -0.2407 -2.6278
 7685SOL     OW34513   4.182   1.893   1.176 -0.3438  0.9671 -0.2307
 7685SOL    HW134514   4.095   1.855   1.187 -0.1488  0.0219 -1.9273
 7685SOL    HW234515   4.204   1.895   1.083  0.4541 -2.2277 -0.1175
 7686SOL     OW34516   2.820   1.455   9.067 -0.9341 -0.0192 -0.0816
 7686SOL    HW134517   2.738   1.501   9.051 -2.2379 -0.6089  4.7125
 7686SOL    HW234518   2.863   1.503   9.138  2.3508 -1.0435 -1.3346
 7687SOL     OW34519   0.666   1.674  12.969  0.5018 -0.3156 -0.2611
 7687SOL    HW134520   0.719   1.752  12.954  1.3524 -0.5693  1.4501
 7687SOL    HW234521   0.585   1.718  12.996  0.3043 -0.5648 -0.4455
 7688SOL     OW34522   0.533   3.156   2.165  0.3664  0.2480  0.3197
 7688SOL    HW134523   0.581   3.130   2.087 -1.4688  1.6484 -1.2624
 7688SOL    HW234524   0.469   3.206   2.115 -1.2842 -1.7613  0.4191
 7689SOL     OW34525   3.904   0.608   9.106  0.6952 -0.0895  0.4189
 7689SOL    HW134526   3.865   0.639   9.024 -0.0821  0.6202  1.0486
 7689SOL    HW234527   3.961   0.680   9.134  2.2232  0.0284 -2.8983
 7690SOL     OW34528   2.949   4.636   8.423 -0.3021 -0.3296  0.2667
 7690SOL    HW134529   2.927   0.004   8.408  0.1866 -0.6204 -2.2285
 7690SOL    HW234530   2.990   4.625   8.337  2.1133  2.0297  1.1126
 7691SOL     OW34531   3.816   0.500   8.601  0.0225 -0.0611 -0.1224
 7691SOL    HW134532   3.785   0.491   8.511  0.0808 -2.7943  0.1211
 7691SOL    HW234533   3.754   0.441   8.644  0.2429  0.5481  1.0234
 7692SOL     OW34534   4.474   2.455   3.913  0.1659 -0.5085  0.6490
 7692SOL    HW134535   4.556   2.490   3.947  0.0657 -3.1003  3.5486
 7692SOL    HW234536   4.499   2.382   3.856 -0.4079 -1.2108  1.2991
 7693SOL     OW34537   4.311   1.241   7.953  0.1671  0.8738  0.1238
 7693SOL    HW134538   4.281   1.294   8.027 -0.3256 -1.5249  1.6689
 7693SOL    HW234539   4.232   1.236   7.899  0.4292 -1.1002 -0.0849
 7694SOL     OW34540   1.922   0.560   8.414  0.2817 -0.0822  0.0125
 7694SOL    HW134541   1.868   0.481   8.408 -1.1351  0.7699  1.7335
 7694SOL    HW234542   1.857   0.621   8.450  2.1412  1.9196 -0.0368
 7695SOL     OW34543   0.331   3.934   7.332  0.1560 -0.3551  0.3133
 7695SOL    HW134544   0.351   3.840   7.336 -0.9140 -0.4902  2.7371
 7695SOL    HW234545   0.276   3.936   7.254 -2.4955  0.2523  2.1958
 7696SOL     OW34546   3.378   3.100   7.541  0.2514  0.6990  0.3864
 7696SOL    HW134547   3.454   3.140   7.583  0.3212  0.9737 -0.0019
 7696SOL    HW234548   3.342   3.175   7.493  0.7905  2.2868  2.4806
 7697SOL     OW34549   3.091   4.559   0.628 -0.0659 -0.0976 -0.2554
 7697SOL    HW134550   3.047   4.495   0.573 -0.4815 -1.3043  1.4812
 7697SOL    HW234551   3.026   4.629   0.628 -0.9598 -0.9250 -1.0023
 7698SOL     OW34552   0.921   0.998  17.201  0.0553  0.1682  0.4647
 7698SOL    HW134553   0.862   1.027  17.131 -0.3800 -1.9953 -0.0650
 7698SOL    HW234554   0.948   1.085  17.228 -0.9428  0.4804  0.4582
 7699SOL     OW34555   2.231   1.505   5.197  0.3240 -0.2415 -0.0342
 7699SOL    HW134556   2.255   1.596   5.177 -0.4311 -0.4202 -1.7463
 7699SOL    HW234557   2.315   1.459   5.203  0.1810 -0.2953  1.6456
 7700SOL     OW34558   3.423   4.090   2.514 -0.3577 -0.7300  0.0952
 7700SOL    HW134559   3.463   4.141   2.444 -0.6476  0.2168  0.6324
 7700SOL    HW234560   3.346   4.062   2.465  0.6439 -0.8639 -1.3847
 7701SOL     OW34561   0.091   2.273  14.698  0.3329 -0.2465  0.1031
 7701SOL    HW134562   0.110   2.352  14.648  0.1785 -0.2823 -0.0130
 7701SOL    HW234563   0.175   2.227  14.689  0.4843  0.1718 -0.5461
 7702SOL     OW34564   4.003   4.188  12.842  0.7931  0.7106  0.2914
 7702SOL    HW134565   3.935   4.250  12.867  0.1019  1.2256 -2.9054
 7702SOL    HW234566   3.957   4.107  12.865  1.7771  0.1259  0.2164
 7703SOL     OW34567   4.392   3.614   4.917  0.2197 -0.1873  0.4086
 7703SOL    HW134568   4.444   3.689   4.943 -0.9705  0.2590  1.4559
 7703SOL    HW234569   4.378   3.559   4.994 -0.5105 -0.6561 -0.0572
 7704SOL     OW34570   2.022   0.109   6.262 -0.0133 -0.1694  0.2513
 7704SOL    HW134571   1.929   0.125   6.246  0.1212  1.3917  1.0155
 7704SOL    HW234572   2.064   0.189   6.230  0.0931 -0.5410 -0.5502
 7705SOL     OW34573   2.161   0.740   3.851  0.0461 -0.5440 -0.1189
 7705SOL    HW134574   2.079   0.788   3.841  0.8557  0.9557  0.6054
 7705SOL    HW234575   2.207   0.747   3.767  0.1568  0.9766  0.0816
 7706SOL     OW34576   2.054   2.987  11.847 -0.1178 -0.6225  0.1284
 7706SOL    HW134577   1.966   2.956  11.824 -0.6178  2.2013 -1.6985
 7706SOL    HW234578   2.089   3.004  11.760 -0.4763  1.3042  0.3591
 7707SOL     OW34579   4.112   1.315   7.775  0.1242 -0.4129 -0.0437
 7707SOL    HW134580   4.169   1.378   7.731  1.6658 -2.1081 -0.5161
 7707SOL    HW234581   4.034   1.369   7.780  1.5459  1.5827  0.5768
 7708SOL     OW34582   0.647   1.278   7.954  0.0301 -0.5509 -0.3583
 7708SOL    HW134583   0.681   1.311   7.871 -3.8373  1.9542 -0.9800
 7708SOL    HW234584   0.566   1.240   7.918 -1.2713  1.3568  0.5670
 7709SOL     OW34585   4.192   3.168   5.520 -0.1084  0.6833 -0.6078
 7709SOL    HW134586   4.288   3.161   5.519  0.0484  2.7841 -0.1249
 7709SOL    HW234587   4.178   3.158   5.614  0.5763  1.0728 -0.4667
 7710SOL     OW34588   1.393   1.010   4.242 -0.0739  0.2018 -0.6992
 7710SOL    HW134589   1.435   1.070   4.180 -0.9521  0.5276 -0.9839
 7710SOL    HW234590   1.447   1.025   4.319 -0.0986  0.5851 -0.7576
 7711SOL     OW34591   0.637   1.730  13.329  0.3753  0.0617 -0.0585
 7711SOL    HW134592   0.677   1.738  13.243  0.0924 -0.2491 -0.2165
 7711SOL    HW234593   0.605   1.820  13.330  0.8770  0.2354  0.6974
 7712SOL     OW34594   0.944   1.721   9.079  0.3306 -0.1091 -0.4968
 7712SOL    HW134595   0.879   1.764   9.024  2.2877  1.9132 -1.2512
 7712SOL    HW234596   1.014   1.785   9.071  1.6028 -1.3956  0.2338
 7713SOL     OW34597   1.776   2.812   5.460 -0.0272  0.1983 -0.1990
 7713SOL    HW134598   1.770   2.722   5.425 -0.1999  0.0820  0.1310
 7713SOL    HW234599   1.747   2.801   5.551 -1.7577  0.5936 -0.7183
 7714SOL     OW34600   4.656   1.850   8.522 -0.2089 -0.1561 -0.4079
 7714SOL    HW134601   0.002   1.792   8.493 -0.5805 -0.6005 -0.4330
 7714SOL    HW234602   4.694   1.889   8.600 -0.7133  2.2025 -1.3468
 7715SOL     OW34603   3.903   1.683   8.335  0.1496 -0.1288  0.4417
 7715SOL    HW134604   3.908   1.657   8.427  0.4877 -1.9164 -0.0902
 7715SOL    HW234605   3.833   1.749   8.336 -0.4154 -0.7437  1.0365
 7716SOL     OW34606   2.056   4.046   7.186  0.2009  0.0972 -0.5281
 7716SOL    HW134607   2.113   3.970   7.174  0.8482  0.7510 -1.6340
 7716SOL    HW234608   2.070   4.087   7.101  0.0285  1.8922  0.3104
 7717SOL     OW34609   4.647   2.924   7.754  0.1408 -0.0013 -0.5601
 7717SOL    HW134610   4.576   2.891   7.700 -0.3699  0.6498 -0.2960
 7717SOL    HW234611   0.004   2.910   7.705 -0.5255  0.4160 -1.7742
 7718SOL     OW34612   2.160   3.784   7.172  0.2556 -0.4157  0.2461
 7718SOL    HW134613   2.223   3.737   7.117 -0.1877 -2.2746  1.3342
 7718SOL    HW234614   2.194   3.774   7.261  5.4537  1.7354 -1.4594
 7719SOL     OW34615   4.366   0.507  16.772  0.0484  0.0705 -0.7390
 7719SOL    HW134616   4.314   0.565  16.829  0.5332  0.7317 -0.9764
 7719SOL    HW234617   4.313   0.497  16.693  0.5062  0.7633 -1.1215
 7720SOL     OW34618   0.004   2.759   3.706 -0.2976  0.6740  0.3299
 7720SOL    HW134619   4.720   2.699   3.780  0.7733  1.4007  1.0292
 7720SOL    HW234620   0.063   2.708   3.650 -0.0688  0.2460  0.9573
 7721SOL     OW34621   1.402   1.300   9.147  0.0055  0.1564 -0.2151
 7721SOL    HW134622   1.353   1.271   9.071 -2.7179  0.6813  1.3438
 7721SOL    HW234623   1.409   1.216   9.193 -0.5805  1.2986  1.9565
 7722SOL     OW34624   0.156   0.852   4.094  0.2558  0.3692  0.7469
 7722SOL    HW134625   0.205   0.901   4.160  0.4515  1.0557  0.0752
 7722SOL    HW234626   0.105   0.788   4.146 -0.2671  1.1534  1.1955
 7723SOL     OW34627   0.473   2.808  17.001  0.1383 -0.0785  0.0569
 7723SOL    HW134628   0.537   2.834  17.067  1.9157  2.7729 -2.8260
 7723SOL    HW234629   0.433   2.889  16.968 -1.2884 -0.8848 -0.1978
 7724SOL     OW34630   4.637   2.749  11.947 -0.4038 -0.2625 -0.5407
 7724SOL    HW134631   4.672   2.767  12.034 -0.2814 -1.1953 -0.3984
 7724SOL    HW234632   4.542   2.763  11.950 -0.9741 -4.2870  0.4693
 7725SOL     OW34633   4.332   1.825   0.540  0.3494  0.8120 -0.4061
 7725SOL    HW134634   4.353   1.770   0.616 -1.6793  0.7225  0.0955
 7725SOL    HW234635   4.239   1.845   0.552  0.3663  0.1134  0.9610
 7726SOL     OW34636   1.632   3.023   7.400  0.1876  0.4352 -0.2577
 7726SOL    HW134637   1.658   3.108   7.435 -0.9128  0.8127 -0.3394
 7726SOL    HW234638   1.629   3.047   7.308  0.2683 -0.5274 -0.5065
 7727SOL     OW34639   2.026   1.023  15.918 -0.1176  0.4280 -0.3579
 7727SOL    HW134640   2.100   0.963  15.926 -0.2167  0.3826  0.1931
 7727SOL    HW234641   2.017   1.044  16.011 -1.5200 -1.7946  0.0163
 7728SOL     OW34642   2.439   4.583  13.110  0.1369  0.0412  0.3488
 7728SOL    HW134643   2.414   4.521  13.178  0.3277  0.6939  1.0124
 7728SOL    HW234644   2.485   4.536  13.040 -1.4620  0.0065 -0.6816
 7729SOL     OW34645   0.110   3.078   3.381 -0.9903 -0.2996  0.2316
 7729SOL    HW134646   0.181   3.142   3.376 -0.2645 -1.1269 -0.0721
 7729SOL    HW234647   0.100   3.058   3.474  0.7974 -0.9464  0.2880
 7730SOL     OW34648   0.467   1.667   8.593  0.1120  0.1557 -0.2044
 7730SOL    HW134649   0.497   1.593   8.646  0.5654  0.0251 -0.6343
 7730SOL    HW234650   0.419   1.720   8.657  1.9000  0.5986  0.7825
 7731SOL     OW34651   2.998   2.751   5.754 -1.1479  0.2986  0.3594
 7731SOL    HW134652   2.904   2.739   5.746 -1.1793  0.1297  0.9830
 7731SOL    HW234653   3.018   2.702   5.834  0.6115 -0.1089 -0.3310
 7732SOL     OW34654   0.247   3.913  12.888 -0.2348  0.4411 -0.6201
 7732SOL    HW134655   0.270   3.820  12.880 -1.3364  0.1481 -0.3767
 7732SOL    HW234656   0.266   3.917  12.982 -2.2130 -1.6161 -0.1387
 7733SOL     OW34657   2.156   2.397   7.793 -0.6520  0.1892 -0.3071
 7733SOL    HW134658   2.188   2.333   7.730  0.0951  1.1339 -0.8930
 7733SOL    HW234659   2.209   2.388   7.872 -1.4079  0.7272  0.2600
 7734SOL     OW34660   0.282   2.427  11.131  0.1508  0.0385  0.1223
 7734SOL    HW134661   0.221   2.405  11.060  2.4385  3.4861 -2.9166
 7734SOL    HW234662   0.229   2.494  11.172  1.1518  1.3632 -0.7532
 7735SOL     OW34663   1.585   2.892   2.126 -0.3204 -0.5516 -0.0124
 7735SOL    HW134664   1.663   2.839   2.141 -1.3411 -1.5004  1.8643
 7735SOL    HW234665   1.533   2.830   2.075  0.8831 -0.8880 -0.8316
 7736SOL     OW34666   2.924   3.135   7.621  0.3461 -0.5408 -0.2260
 7736SOL    HW134667   2.852   3.098   7.570  0.4560 -0.4166 -0.4740
 7736SOL    HW234668   2.983   3.168   7.553  1.3658 -0.0782  0.8989
 7737SOL     OW34669   4.533   2.800   7.515 -0.5665  0.0362 -0.0511
 7737SOL    HW134670   4.485   2.778   7.595  0.4643  1.7551  1.0413
 7737SOL    HW234671   4.472   2.757   7.455 -0.7149 -0.2059  0.2734
 7738SOL     OW34672   0.875   1.168  14.145 -0.4753  0.0757  0.0032
 7738SOL    HW134673   0.957   1.199  14.183  0.6910 -1.3317 -1.3724
 7738SOL    HW234674   0.890   1.166  14.051 -1.9717 -0.9020 -0.2075
 7739SOL     OW34675   1.063   2.933  17.092  0.4406 -0.7482 -0.3328
 7739SOL    HW134676   0.984   2.880  17.079 -0.0692  0.2857 -1.3849
 7739SOL    HW234677   1.128   2.871  17.058  0.5275 -0.4498 -0.7195
 7740SOL     OW34678   1.337   0.431  11.525 -0.3409  0.0135  0.1605
 7740SOL    HW134679   1.307   0.469  11.442 -2.6558  0.5165  1.2265
 7740SOL    HW234680   1.398   0.502  11.547 -1.7719  0.8256  1.4510
 7741SOL     OW34681   3.990   0.022  13.261  0.2955 -0.1040 -0.1492
 7741SOL    HW134682   3.975   4.712  13.350 -4.0213  0.0587 -0.8237
 7741SOL    HW234683   3.904   0.058  13.243  0.6993  0.5273 -0.7946
 7742SOL     OW34684   1.735   1.176   9.226  0.1830  0.1577  0.0846
 7742SOL    HW134685   1.742   1.144   9.136 -1.6052 -1.6758  0.6089
 7742SOL    HW234686   1.821   1.168   9.268  0.1203  0.9824  0.3571
 7743SOL     OW34687   2.012   0.525   8.152 -0.1213 -0.0098 -0.1864
 7743SOL    HW134688   1.948   0.492   8.215  0.7080  0.4827  0.9257
 7743SOL    HW234689   2.018   0.449   8.094  0.0677 -0.5914  0.5951
 7744SOL     OW34690   3.938   1.169  10.454 -0.3237  0.1016  0.3486
 7744SOL    HW134691   3.846   1.172  10.427 -0.5269  1.4192  1.1711
 7744SOL    HW234692   3.978   1.248  10.418  0.6990 -1.3357 -1.6648
 7745SOL     OW34693   2.268   3.111   6.889 -0.6170 -0.7559 -0.4769
 7745SOL    HW134694   2.332   3.042   6.905 -0.2471  0.2790  2.3530
 7745SOL    HW234695   2.192   3.084   6.941  0.0509 -1.9845 -0.1310
 7746SOL     OW34696   0.932   1.314  17.378  0.4309 -0.0387 -0.3153
 7746SOL    HW134697   0.921   1.399  17.422 -0.0442  0.6102 -1.6968
 7746SOL    HW234698   0.840   1.299  17.356  0.2599 -1.6015  1.4147
 7747SOL     OW34699   4.303   0.859   0.093  0.2769 -0.0249 -0.7678
 7747SOL    HW134700   4.214   0.891   0.108  1.0195  1.0673  1.3876
 7747SOL    HW234701   4.325   0.816   0.175  1.2055 -0.0030 -1.0017
 7748SOL     OW34702   0.733   1.024   2.355  0.2143  0.2545  0.1213
 7748SOL    HW134703   0.746   0.965   2.281 -1.1110  0.2649 -0.1202
 7748SOL    HW234704   0.646   1.058   2.335  0.3700  0.3849 -0.3359
 7749SOL     OW34705   4.510   1.440   3.509 -0.5879  0.1229  0.3356
 7749SOL    HW134706   4.469   1.505   3.452 -2.1491 -0.2649  1.0069
 7749SOL    HW234707   4.588   1.424   3.456 -1.9514  0.6667 -1.8251
 7750SOL     OW34708   0.892   0.006   4.722  0.1495  0.1518 -0.1297
 7750SOL    HW134709   0.846   4.668   4.667 -1.2584  1.5796 -0.5803
 7750SOL    HW234710   0.927   0.060   4.651  2.0835 -1.0557 -0.1055
 7751SOL     OW34711   2.340   2.919   8.952  0.0670  0.5358  0.9519
 7751SOL    HW134712   2.296   2.981   9.009  0.3119  1.3637  0.2315
 7751SOL    HW234713   2.360   2.846   9.012 -2.8295 -0.7789  0.3272
 7752SOL     OW34714   0.028   0.025   1.760 -0.2844 -0.3206  0.3912
 7752SOL    HW134715   4.663   0.009   1.730 -0.4888 -0.7274  1.2275
 7752SOL    HW234716   0.077   0.049   1.682  2.7744 -3.0701  1.4647
 7753SOL     OW34717   1.233   4.130   7.351  0.0895  0.5684  0.1571
 7753SOL    HW134718   1.303   4.194   7.336  1.1218 -1.0028 -1.8187
 7753SOL    HW234719   1.236   4.121   7.446  1.1180  1.7234  0.2353
 7754SOL     OW34720   3.377   2.082   2.579 -0.0183  0.5728  0.0604
 7754SOL    HW134721   3.360   2.174   2.558 -0.3922  0.7138  0.9692
 7754SOL    HW234722   3.414   2.099   2.665 -0.8678  2.5881  0.0436
 7755SOL     OW34723   3.657   4.403   8.020  0.2312  0.7054  0.1677
 7755SOL    HW134724   3.685   4.494   8.027 -1.5326  1.2368  0.3701
 7755SOL    HW234725   3.672   4.379   8.112  3.0879  0.3579 -0.3982
 7756SOL     OW34726   3.729   0.734   4.313  0.0326 -0.2741 -0.3438
 7756SOL    HW134727   3.772   0.815   4.286 -3.0169  1.6849  0.6534
 7756SOL    HW234728   3.723   0.759   4.405  1.5462  1.2318 -0.6356
 7757SOL     OW34729   0.734   4.403   9.031  0.0302  0.0041  0.0798
 7757SOL    HW134730   0.691   4.330   8.988 -1.2447  0.4752  0.5458
 7757SOL    HW234731   0.731   4.477   8.971  0.3677  1.3763  1.7595
 7758SOL     OW34732   2.615   3.897  14.602  0.2296 -0.6334 -0.1036
 7758SOL    HW134733   2.594   3.844  14.525  1.5659 -2.9813  1.1660
 7758SOL    HW234734   2.670   3.966  14.565 -0.6999 -0.0024 -0.3364
 7759SOL     OW34735   3.469   2.257   2.261 -0.8280  0.2819 -0.1007
 7759SOL    HW134736   3.375   2.260   2.280 -0.6813  0.6665  0.5877
 7759SOL    HW234737   3.498   2.207   2.337  0.2389  0.9594 -0.0542
 7760SOL     OW34738   0.329   2.696   6.053 -0.0685 -0.4116 -0.1076
 7760SOL    HW134739   0.414   2.732   6.027 -0.8933  0.9452 -0.9183
 7760SOL    HW234740   0.344   2.605   6.027  0.2361 -0.2205 -0.6058
 7761SOL     OW34741   1.552   2.265   6.200 -0.0138 -0.5298 -0.2020
 7761SOL    HW134742   1.643   2.252   6.225 -0.5016 -2.7477  0.3900
 7761SOL    HW234743   1.517   2.179   6.222 -2.5494  0.0354 -1.9561
 7762SOL     OW34744   3.564   1.509   6.171 -0.1921 -0.4381 -0.1236
 7762SOL    HW134745   3.635   1.482   6.113  0.9792  0.8140  0.7098
 7762SOL    HW234746   3.487   1.498   6.116 -0.7350 -1.0287  0.7703
 7763SOL     OW34747   0.802   1.297   2.859 -0.3230  0.0024  0.5618
 7763SOL    HW134748   0.854   1.352   2.800  1.9108  0.2747  2.8176
 7763SOL    HW234749   0.721   1.276   2.812  0.2731 -1.3910  0.1828
 7764SOL     OW34750   3.183   4.545  13.609 -0.0847  0.5766  0.4674
 7764SOL    HW134751   3.136   4.462  13.603 -0.3670  0.7719  0.0212
 7764SOL    HW234752   3.187   4.540  13.705 -0.2580 -0.3385  0.4235
 7765SOL     OW34753   3.465   2.750   3.963 -0.2295  0.5123  0.4505
 7765SOL    HW134754   3.558   2.763   3.945 -0.1036 -1.1985 -0.0948
 7765SOL    HW234755   3.464   2.664   4.004 -0.6458  0.1538 -0.3120
 7766SOL     OW34756   3.443   0.693   2.382  0.3962 -0.0411 -0.5455
 7766SOL    HW134757   3.460   0.631   2.452  1.5826 -0.1022 -0.8808
 7766SOL    HW234758   3.515   0.754   2.400  1.6115 -1.2378 -1.4120
 7767SOL     OW34759   1.637   3.582   7.259 -0.5178 -0.3647 -0.3176
 7767SOL    HW134760   1.720   3.610   7.221 -1.5901  0.9479 -1.7035
 7767SOL    HW234761   1.626   3.489   7.238  1.5667 -0.2526 -1.8214
 7768SOL     OW34762   0.990   1.399   4.747  0.3498  0.3103 -0.0140
 7768SOL    HW134763   0.923   1.332   4.765 -0.3197  1.0799  0.3498
 7768SOL    HW234764   0.954   1.462   4.809  1.5541  1.2482 -0.2675
 7769SOL     OW34765   1.732   1.954   4.234 -0.1852 -0.8052 -0.4043
 7769SOL    HW134766   1.796   2.016   4.267 -0.4257 -0.2302 -1.0187
 7769SOL    HW234767   1.747   1.872   4.281 -0.5561  0.0392  1.1578
 7770SOL     OW34768   4.055   0.186   8.703 -0.1186 -0.2236 -0.1485
 7770SOL    HW134769   4.108   0.114   8.739  1.4851  0.2870 -1.4693
 7770SOL    HW234770   4.095   0.266   8.736 -0.0496  0.0544 -0.9206
 7771SOL     OW34771   4.477   2.986  12.348  0.2988 -0.0369  0.0394
 7771SOL    HW134772   4.512   2.909  12.395 -0.6240 -1.1518 -1.1172
 7771SOL    HW234773   4.481   2.953  12.259 -3.0122 -0.9378  0.2366
 7772SOL     OW34774   4.286   1.948   3.377 -0.4418 -0.1448  0.4182
 7772SOL    HW134775   4.233   2.015   3.421 -1.6454  0.0344 -1.2856
 7772SOL    HW234776   4.242   1.944   3.292  2.6328 -0.1331 -1.1613
 7773SOL     OW34777   0.679   1.088   5.781 -0.3253 -0.0441 -0.5532
 7773SOL    HW134778   0.720   1.167   5.815  1.5541 -1.3366  0.1978
 7773SOL    HW234779   0.714   1.073   5.693 -0.3725  3.0026 -1.0873
 7774SOL     OW34780   0.601   0.564   8.971  0.2299 -0.1550 -0.1120
 7774SOL    HW134781   0.691   0.578   8.999  0.3243  0.8086 -0.9036
 7774SOL    HW234782   0.605   0.468   8.973  0.4688 -0.1181  1.2240
 7775SOL     OW34783   4.500   3.458  15.418 -0.1075  0.3517  0.1658
 7775SOL    HW134784   4.564   3.529  15.425  1.0548 -0.8289  1.4583
 7775SOL    HW234785   4.554   3.386  15.449  0.9495  0.7778 -0.6819
 7776SOL     OW34786   2.511   3.919   9.097  0.1945 -0.1453  0.7166
 7776SOL    HW134787   2.602   3.890   9.103 -0.5749 -2.8666 -0.8713
 7776SOL    HW234788   2.500   3.935   9.191  1.2411  1.1858  0.6077
 7777SOL     OW34789   0.748   4.531   4.588  0.4202 -0.6053  0.1080
 7777SOL    HW134790   0.663   4.512   4.548  0.4499  0.3533 -0.4045
 7777SOL    HW234791   0.738   4.476   4.665  0.0365 -1.2362 -0.3882
 7778SOL     OW34792   0.722   4.158  11.653  0.3513 -0.2342 -0.3600
 7778SOL    HW134793   0.661   4.222  11.689  2.6300  0.8513  1.6228
 7778SOL    HW234794   0.666   4.111  11.592  2.6458 -1.5827 -1.4347
 7779SOL     OW34795   2.779   3.801  12.645  0.3319 -0.1085  0.4367
 7779SOL    HW134796   2.759   3.743  12.719  0.6465  0.0165  0.6215
 7779SOL    HW234797   2.751   3.741  12.576  2.1066  0.6748 -0.9507
 7780SOL     OW34798   4.280   1.504   0.460  1.0142 -0.2852  0.2771
 7780SOL    HW134799   4.370   1.496   0.428  0.1550 -2.2647 -1.6372
 7780SOL    HW234800   4.293   1.553   0.541  0.2167  0.5101 -0.0777
 7781SOL     OW34801   0.655   2.634  10.148 -0.3769 -0.0330  0.3377
 7781SOL    HW134802   0.621   2.723  10.154  1.4485  0.6034  0.9773
 7781SOL    HW234803   0.746   2.650  10.124 -0.0702  0.9828  2.1437
 7782SOL     OW34804   3.731   2.607   5.174  0.6096 -0.2076  0.2030
 7782SOL    HW134805   3.762   2.533   5.123  3.0271  0.7850  0.2267
 7782SOL    HW234806   3.672   2.555   5.229 -1.0382  1.7185  0.2719
 7783SOL     OW34807   1.464   0.321   5.932 -0.1803  0.2702  0.5190
 7783SOL    HW134808   1.557   0.342   5.943 -0.8692  2.5909  1.9261
 7783SOL    HW234809   1.452   0.256   6.001 -3.0271  1.0734  0.7745
 7784SOL     OW34810   1.379   1.969   4.897  0.2211  0.2282  0.2875
 7784SOL    HW134811   1.378   2.062   4.876  0.1285 -0.1495 -1.4173
 7784SOL    HW234812   1.471   1.950   4.882 -0.0549  0.6931 -2.0338
 7785SOL     OW34813   3.604   3.190   5.715  0.0969  0.0661 -0.0756
 7785SOL    HW134814   3.602   3.286   5.715 -0.1749  0.0592  0.7785
 7785SOL    HW234815   3.519   3.164   5.750  1.3568 -1.4139  1.8697
 7786SOL     OW34816   1.647   4.380   2.881 -0.0695 -0.2307  0.5721
 7786SOL    HW134817   1.686   4.438   2.816 -1.8409  1.4601  1.0014
 7786SOL    HW234818   1.579   4.336   2.832  0.2786  1.0020 -1.0118
 7787SOL     OW34819   1.951   4.440   5.739  0.2293  0.1281  0.1519
 7787SOL    HW134820   2.039   4.478   5.738 -0.3942  1.5551  0.8447
 7787SOL    HW234821   1.943   4.424   5.645 -0.7026  0.5643  0.1590
 7788SOL     OW34822   4.091   2.349   1.371 -0.1227  0.0854  0.6871
 7788SOL    HW134823   4.113   2.367   1.462 -0.4727 -0.7879  0.9431
 7788SOL    HW234824   4.083   2.440   1.339 -2.1684  0.6218  2.7401
 7789SOL     OW34825   2.109   2.904   8.152  0.1912  0.6011  0.0231
 7789SOL    HW134826   2.190   2.856   8.134  0.2554  0.8978 -0.5121
 7789SOL    HW234827   2.051   2.845   8.105 -0.1010  0.5705  0.4268
 7790SOL     OW34828   0.405   1.109   5.707  0.3904  0.0505  0.6513
 7790SOL    HW134829   0.489   1.112   5.753  0.0847 -0.2952  1.2344
 7790SOL    HW234830   0.391   1.183   5.648  0.7040  0.0885  0.6246
 7791SOL     OW34831   4.369   0.341  13.791 -0.2974  0.6889 -0.4751
 7791SOL    HW134832   4.314   0.402  13.741  2.1454  3.0416 -0.2684
 7791SOL    HW234833   4.314   0.263  13.800  0.1624  0.6248  1.6184
 7792SOL     OW34834   2.410   0.827   1.146  0.2906 -0.3542  0.5029
 7792SOL    HW134835   2.494   0.781   1.135 -0.0591 -0.8131 -0.2379
 7792SOL    HW234836   2.427   0.914   1.183 -1.6962  0.1808  0.1700
 7793SOL     OW34837   1.685   4.628   5.714  0.0457 -0.1878  0.0921
 7793SOL    HW134838   1.702   4.544   5.672 -1.7993 -0.3858 -0.2691
 7793SOL    HW234839   1.730   4.686   5.652 -0.3577  0.8354  0.7510
 7794SOL     OW34840   3.904   2.994   2.948  0.1846 -0.3578  0.9780
 7794SOL    HW134841   3.868   3.064   3.003  0.0725  0.4239 -0.0840
 7794SOL    HW234842   3.997   3.002   2.967  1.3428 -2.2203 -4.0244
 7795SOL     OW34843   2.771   1.131  13.278  0.0847 -0.5907 -0.3305
 7795SOL    HW134844   2.863   1.110  13.292  1.1664  2.2641 -3.0899
 7795SOL    HW234845   2.762   1.216  13.320  1.0291 -0.3196 -0.6763
 7796SOL     OW34846   2.758   0.200   2.313 -0.1432  0.2017 -0.2148
 7796SOL    HW134847   2.804   0.198   2.229 -2.0080  2.1486 -1.2833
 7796SOL    HW234848   2.666   0.202   2.288 -0.3181  2.8761  0.6421
 7797SOL     OW34849   2.667   3.403   7.287  0.5878  0.0676 -0.6791
 7797SOL    HW134850   2.606   3.442   7.224  0.4677  1.0099  0.0237
 7797SOL    HW234851   2.736   3.364   7.233 -0.3228 -0.9954 -1.0553
 7798SOL     OW34852   0.291   3.382  15.524 -0.0448  0.1880 -0.0899
 7798SOL    HW134853   0.233   3.427  15.585 -0.7788 -1.5334  0.4597
 7798SOL    HW234854   0.237   3.390  15.446  0.0857 -0.8651 -0.2877
 7799SOL     OW34855   2.077   0.275   5.963 -0.3186  0.4374 -0.2870
 7799SOL    HW134856   2.039   0.190   5.944  0.4024 -0.4011  2.0955
 7799SOL    HW234857   2.150   0.277   5.901 -0.2856  0.2955 -0.2513
 7800SOL     OW34858   4.135   3.691   6.642  0.0703 -0.1873  0.3817
 7800SOL    HW134859   4.203   3.722   6.583 -0.3402 -0.8085 -0.4344
 7800SOL    HW234860   4.183   3.634   6.702  0.2097  0.0560  0.5003
 7801SOL     OW34861   2.626   0.309   4.089  0.1150  0.4996  0.0009
 7801SOL    HW134862   2.669   0.298   4.005 -0.2402 -0.5425 -0.0365
 7801SOL    HW234863   2.628   0.221   4.125 -2.9874  0.2490 -0.3901
 7802SOL     OW34864   0.556   2.394   5.850  0.3226  0.0411  0.6338
 7802SOL    HW134865   0.594   2.482   5.853 -2.9559  1.5083 -0.2666
 7802SOL    HW234866   0.550   2.388   5.945  0.3636 -1.3247  0.5431
 7803SOL     OW34867   2.404   3.838  10.838 -0.2623  0.3594  0.7485
 7803SOL    HW134868   2.482   3.854  10.891  1.0380  1.9755 -1.6691
 7803SOL    HW234869   2.392   3.929  10.812 -1.7149 -0.0754 -0.1219
 7804SOL     OW34870   0.206   4.324   7.930  1.0936  0.3920 -0.4265
 7804SOL    HW134871   0.278   4.343   7.990  1.3238 -0.7990 -0.3382
 7804SOL    HW234872   0.215   4.229   7.926  0.1851  0.2053  1.8054
 7805SOL     OW34873   2.533   4.465   9.406 -0.0650 -0.0989 -0.3614
 7805SOL    HW134874   2.611   4.515   9.385 -1.1462  1.7791  0.0754
 7805SOL    HW234875   2.504   4.508   9.487  1.0595 -0.4091  0.2007
 7806SOL     OW34876   2.548   1.981   3.820 -0.7721 -0.4076 -0.2907
 7806SOL    HW134877   2.626   1.936   3.853 -0.4056  0.0064 -0.5895
 7806SOL    HW234878   2.484   1.911   3.812 -0.5972 -0.9519  2.9685
 7807SOL     OW34879   1.762   0.321   7.279 -0.0513 -0.1222 -0.3541
 7807SOL    HW134880   1.783   0.278   7.362 -2.0107  1.2871  0.8554
 7807SOL    HW234881   1.847   0.361   7.260 -0.1635  0.3149  0.0668
 7808SOL     OW34882   3.847   0.384   3.844 -0.6102  0.1203 -0.3337
 7808SOL    HW134883   3.850   0.452   3.911 -2.6355  0.8579 -0.9621
 7808SOL    HW234884   3.755   0.358   3.853 -0.4970 -0.6974 -1.5289
 7809SOL     OW34885   0.780   2.601   4.440 -0.2436  0.3213  0.9447
 7809SOL    HW134886   0.829   2.601   4.358 -1.0341  0.9787  0.4675
 7809SOL    HW234887   0.764   2.695   4.447 -0.0321  0.5381 -1.2797
 7810SOL     OW34888   3.363   2.307   6.049 -0.2013 -0.0173  0.6917
 7810SOL    HW134889   3.418   2.329   6.125 -1.0987  2.9930  0.4734
 7810SOL    HW234890   3.278   2.297   6.091  0.2925 -0.4996  1.5857
 7811SOL     OW34891   0.207   1.643   1.350 -0.2481  0.2465 -0.1211
 7811SOL    HW134892   0.237   1.691   1.273  0.6806  0.6325  0.4737
 7811SOL    HW234893   0.121   1.683   1.358 -1.0129 -1.1937 -1.0635
 7812SOL     OW34894   1.394   4.707   2.046  0.0024 -0.6932 -0.0253
 7812SOL    HW134895   1.413   4.661   1.964 -1.7128 -2.8087  0.7925
 7812SOL    HW234896   1.366   4.634   2.100 -3.3894 -1.3697 -2.6761
 7813SOL     OW34897   2.409   1.589   8.511 -0.0558  0.1270  0.2026
 7813SOL    HW134898   2.397   1.565   8.420  0.7599 -0.7124  0.3114
 7813SOL    HW234899   2.351   1.531   8.560  1.4476 -0.5368  1.2103
 7814SOL     OW34900   1.934   1.142  16.857  0.0299 -0.2731 -0.0933
 7814SOL    HW134901   1.839   1.145  16.850  0.3500  3.1413 -3.0301
 7814SOL    HW234902   1.944   1.078  16.927 -2.5906  1.6170  2.0313
 7815SOL     OW34903   3.354   1.739   8.816  0.0453  0.5881  0.2600
 7815SOL    HW134904   3.409   1.818   8.817 -1.0084  1.3532 -1.9410
 7815SOL    HW234905   3.347   1.723   8.910 -0.1452 -2.0813 -0.2308
 7816SOL     OW34906   3.118   4.415   8.819 -0.6561 -0.0138 -0.2704
 7816SOL    HW134907   3.192   4.354   8.814  0.2630  1.0128  0.6544
 7816SOL    HW234908   3.115   4.448   8.729  1.8485 -0.0339 -0.3624
 7817SOL     OW34909   0.877   1.243  13.880  0.3718  0.2116 -0.0525
 7817SOL    HW134910   0.795   1.231  13.833 -0.0573 -2.3721  1.3762
 7817SOL    HW234911   0.942   1.199  13.825 -0.1683  0.2951 -0.7535
 7818SOL     OW34912   4.597   3.903   9.077  0.2899  0.2586 -0.4888
 7818SOL    HW134913   4.599   3.877   8.985 -1.0794 -1.1667 -0.1046
 7818SOL    HW234914   4.506   3.878   9.089  0.6628 -0.2084  1.4768
 7819SOL     OW34915   4.529   2.257  15.652 -0.8037 -0.0438 -0.2689
 7819SOL    HW134916   4.557   2.182  15.601 -1.1567 -0.6608  0.4398
 7819SOL    HW234917   4.477   2.312  15.593 -1.1238  1.8679  1.7916
 7820SOL     OW34918   4.257   1.093  10.257  0.7697  0.4783  0.0586
 7820SOL    HW134919   4.240   1.183  10.228 -0.4863  0.8567  1.9669
 7820SOL    HW234920   4.352   1.097  10.248  0.5991  3.0077 -0.7158
 7821SOL     OW34921   2.318   1.200   5.847  0.5475 -0.7195  0.1453
 7821SOL    HW134922   2.247   1.211   5.909  0.0774 -0.8482 -0.3668
 7821SOL    HW234923   2.299   1.113   5.812  3.2563 -0.9447 -0.8317
 7822SOL     OW34924   4.653   3.734  15.911 -0.2288 -0.1112 -1.0859
 7822SOL    HW134925   4.723   3.724  15.975 -0.3921  0.2565 -0.8557
 7822SOL    HW234926   4.683   3.806  15.855  0.3415 -0.7513 -1.6020
 7823SOL     OW34927   4.136   3.707   6.247  0.4617 -0.1259 -0.8966
 7823SOL    HW134928   4.044   3.680   6.248  0.4433  0.0090  1.4694
 7823SOL    HW234929   4.149   3.729   6.155  0.4942 -4.2285 -1.8645
 7824SOL     OW34930   2.580   3.300   4.441 -0.5996 -0.4770  0.4380
 7824SOL    HW134931   2.656   3.351   4.470 -0.0908  1.0531 -3.5595
 7824SOL    HW234932   2.520   3.334   4.508  0.6216  1.8219  0.3503
 7825SOL     OW34933   1.525   3.257   5.395  0.6329 -0.1074  0.2453
 7825SOL    HW134934   1.526   3.162   5.384 -1.9254 -0.0829 -0.0928
 7825SOL    HW234935   1.615   3.285   5.377  1.4545 -2.9172 -0.0511
 7826SOL     OW34936   1.045   0.171   2.285 -0.1871 -0.1723 -0.1608
 7826SOL    HW134937   0.990   0.182   2.208 -1.2409  1.7096  0.8581
 7826SOL    HW234938   1.069   0.081   2.261  0.5307  0.4738 -1.8662
 7827SOL     OW34939   3.161   0.675   3.412  0.3328  0.2495 -0.3860
 7827SOL    HW134940   3.211   0.599   3.441  2.0538  0.9639 -1.4819
 7827SOL    HW234941   3.082   0.674   3.467  0.6998  3.7119  0.1897
 7828SOL     OW34942   3.830   0.115  15.683 -0.5210 -0.0514  0.4001
 7828SOL    HW134943   3.838   0.052  15.611  0.2359  1.1769 -0.5843
 7828SOL    HW234944   3.775   0.066  15.745 -0.7617  0.1542  0.3517
 7829SOL     OW34945   2.279   3.430   1.119  0.0172  0.3239 -0.3856
 7829SOL    HW134946   2.306   3.381   1.197 -1.3639 -0.0994 -0.1670
 7829SOL    HW234947   2.291   3.365   1.050  1.6006 -1.4635  1.5776
 7830SOL     OW34948   4.160   3.251  16.528 -0.4366  0.0394  0.1213
 7830SOL    HW134949   4.194   3.251  16.439  0.6310  1.5907  0.5314
 7830SOL    HW234950   4.079   3.301  16.523 -0.7351 -0.4059  0.5235
 7831SOL     OW34951   3.427   3.466   3.207  0.2276  0.4137 -0.3695
 7831SOL    HW134952   3.393   3.384   3.243 -1.9786  1.0257 -1.1057
 7831SOL    HW234953   3.495   3.494   3.269 -0.2863 -0.1887  0.4489
 7832SOL     OW34954   0.928   0.984  12.618 -0.7988 -0.3361 -0.1089
 7832SOL    HW134955   0.979   0.968  12.538 -0.0457 -0.1981  0.3404
 7832SOL    HW234956   0.845   1.016  12.582 -1.6621 -1.2976  1.0309
 7833SOL     OW34957   4.281   3.658  11.464 -0.1415 -0.0372 -0.1374
 7833SOL    HW134958   4.226   3.690  11.536 -0.7472  2.8018 -1.8568
 7833SOL    HW234959   4.352   3.723  11.461  0.1618 -0.2418  2.6881
 7834SOL     OW34960   1.930   0.277   8.681  0.0314  0.4315  0.1112
 7834SOL    HW134961   1.877   0.347   8.718 -1.3524  0.5296 -2.0496
 7834SOL    HW234962   1.933   0.226   8.762  1.4326  0.6799  0.2115
 7835SOL     OW34963   3.100   2.078   4.749 -0.5204  0.4126 -0.1947
 7835SOL    HW134964   3.048   2.118   4.819 -0.7604 -1.1594  0.5352
 7835SOL    HW234965   3.027   2.039   4.701 -0.6077 -1.0619  1.1304
 7836SOL     OW34966   2.316   1.183  14.274  0.5856 -0.5642  0.1009
 7836SOL    HW134967   2.357   1.111  14.322  1.8423  0.1317  0.0696
 7836SOL    HW234968   2.260   1.233  14.333  0.6495 -1.1415  0.6465
 7837SOL     OW34969   0.383   0.730   9.339 -0.0110  0.0502  0.6888
 7837SOL    HW134970   0.398   0.812   9.291 -1.5374 -0.9398 -1.4735
 7837SOL    HW234971   0.290   0.723   9.320  0.1945 -1.2666  0.1231
 7838SOL     OW34972   2.625   4.007   6.424 -0.0793  0.1796 -0.0218
 7838SOL    HW134973   2.709   4.012   6.377  0.2952  0.5158  0.6833
 7838SOL    HW234974   2.598   4.098   6.414 -2.3525 -0.3399  1.5754
 7839SOL     OW34975   0.749   2.943   8.125 -0.4851  0.0971 -0.3187
 7839SOL    HW134976   0.687   3.010   8.154  0.0632  0.1483  0.7062
 7839SOL    HW234977   0.758   2.882   8.198  0.9828  2.9329  1.8573
 7840SOL     OW34978   0.577   3.248   0.177  0.6226 -0.0097  0.3683
 7840SOL    HW134979   0.617   3.314   0.120  2.5818  0.3198  2.1561
 7840SOL    HW234980   0.486   3.261   0.148  0.0970 -0.8013  1.6683
 7841SOL     OW34981   2.007   1.682   6.545 -0.5597 -0.4144 -0.1638
 7841SOL    HW134982   2.068   1.612   6.570 -2.3742 -2.0350 -0.2977
 7841SOL    HW234983   1.974   1.695   6.633 -0.8276 -1.0112 -0.1773
 7842SOL     OW34984   0.970   4.378  11.002  0.2799  0.3603 -0.5922
 7842SOL    HW134985   1.028   4.415  11.069  0.8309  0.3448 -1.0657
 7842SOL    HW234986   0.898   4.378  11.066  1.1926 -1.2962  0.4446
 7843SOL     OW34987   2.039   4.025   8.178 -0.0250 -0.6967 -0.5581
 7843SOL    HW134988   1.949   4.052   8.162  0.0995  1.7173  2.7521
 7843SOL    HW234989   2.021   3.933   8.201 -1.5359 -0.3387 -0.3317
 7844SOL     OW34990   2.111   4.224  13.755  0.6177 -0.0255 -0.1535
 7844SOL    HW134991   2.101   4.193  13.845  0.0129  0.0901 -0.1838
 7844SOL    HW234992   2.022   4.224  13.721  1.0955  4.0077 -1.4438
 7845SOL     OW34993   1.867   4.222   8.462 -0.1662 -0.3827 -0.2940
 7845SOL    HW134994   1.905   4.195   8.545 -2.4311  1.0180  1.2062
 7845SOL    HW234995   1.811   4.144   8.456  0.0546 -0.6280  0.7580
 7846SOL     OW34996   3.610   4.366   8.671  0.3135  0.0723  0.2216
 7846SOL    HW134997   3.635   4.417   8.593 -0.0625  1.9471  1.3258
 7846SOL    HW234998   3.603   4.275   8.642  0.4023  0.3106 -0.5539
 7847SOL     OW34999   2.533   3.110   7.344 -0.5358 -0.4332 -0.2968
 7847SOL    HW135000   2.479   3.065   7.280 -0.0483  0.1708 -1.1360
 7847SOL    HW235001   2.566   3.191   7.304  0.7008 -0.8178 -0.0807
 7848SOL     OW35002   0.444   3.325   0.645 -0.1656 -0.5258 -0.0727
 7848SOL    HW135003   0.537   3.313   0.626  0.4431  0.6434  2.1953
 7848SOL    HW235004   0.442   3.403   0.590  0.1965  0.6092  1.5347
 7849SOL     OW35005   0.107   1.257   2.914 -0.3027 -0.6002 -0.2614
 7849SOL    HW135006   0.162   1.209   2.852 -0.0378  0.0350 -0.5169
 7849SOL    HW235007   0.147   1.344   2.903 -0.7565 -0.2252  1.0832
 7850SOL     OW35008   0.955   2.462   8.785  0.1208 -0.7135 -0.3284
 7850SOL    HW135009   0.935   2.379   8.741 -1.8698  0.0190 -0.8109
 7850SOL    HW235010   1.009   2.433   8.858  0.8733 -1.4423 -1.1685
 7851SOL     OW35011   4.026   3.908   8.556  0.0602  0.2377 -0.1161
 7851SOL    HW135012   4.111   3.913   8.513 -0.0361 -0.6371 -0.4068
 7851SOL    HW235013   4.006   3.817   8.534 -0.3956  0.5617 -1.0357
 7852SOL     OW35014   3.780   1.480   7.264 -0.1570  0.1205 -0.6268
 7852SOL    HW135015   3.748   1.429   7.189  1.5393 -0.5165 -0.9219
 7852SOL    HW235016   3.870   1.453   7.279 -0.3596 -0.2318 -0.0119
 7853SOL     OW35017   3.512   4.028  13.137  0.1687 -0.0974 -0.1049
 7853SOL    HW135018   3.425   4.066  13.139 -0.5864 -1.7427 -1.6532
 7853SOL    HW235019   3.500   3.972  13.060  0.4169  0.3148 -0.4425
 7854SOL     OW35020   2.682   2.550  14.090 -0.3785 -0.3086 -0.1079
 7854SOL    HW135021   2.603   2.604  14.083 -0.1076  0.2937  1.6261
 7854SOL    HW235022   2.732   2.599  14.156 -2.2554  1.7689 -0.2257
 7855SOL     OW35023   1.459   2.410   8.905 -0.1614 -0.7345 -0.2119
 7855SOL    HW135024   1.466   2.343   8.972 -0.7614 -2.1487 -1.5561
 7855SOL    HW235025   1.531   2.469   8.928 -0.8610 -0.3540  0.9723
 7856SOL     OW35026   1.673   2.198   8.788  0.6249  0.1906  0.1789
 7856SOL    HW135027   1.608   2.232   8.725 -2.8980 -0.7657  3.2744
 7856SOL    HW235028   1.685   2.273   8.845 -2.9580 -0.1173  1.3454
 7857SOL     OW35029   2.047   3.478  16.767  0.2734  0.3058 -0.0009
 7857SOL    HW135030   2.041   3.467  16.861  2.0220  0.7028  0.1572
 7857SOL    HW235031   2.004   3.563  16.753  1.2338  1.0044  1.3509
 7858SOL     OW35032   4.379   0.921   1.975  0.0399 -0.0780  0.1729
 7858SOL    HW135033   4.284   0.917   1.985  0.0079 -1.3055 -0.6887
 7858SOL    HW235034   4.394   0.978   1.900  0.5620 -0.4867 -0.0317
 7859SOL     OW35035   0.477   1.550  16.686 -0.4804  0.5067 -0.5218
 7859SOL    HW135036   0.516   1.464  16.704 -1.0671  0.8488  2.4970
 7859SOL    HW235037   0.492   1.556  16.592  0.3199 -1.0047 -0.4937
 7860SOL     OW35038   3.459   4.209   6.729 -0.5130  0.5501  0.1407
 7860SOL    HW135039   3.505   4.287   6.696  0.3792  0.2845  0.7454
 7860SOL    HW235040   3.525   4.141   6.718  1.4923  2.4235  0.4002
 7861SOL     OW35041   1.508   1.183   4.076  0.2818  0.6692 -0.6549
 7861SOL    HW135042   1.570   1.123   4.035  1.1857  1.1084  0.0659
 7861SOL    HW235043   1.524   1.258   4.019  2.2204  0.6517 -0.1503
 7862SOL     OW35044   3.397   1.161   8.550 -0.1262 -0.8468  0.0489
 7862SOL    HW135045   3.459   1.153   8.623  0.6800  2.9210 -0.2321
 7862SOL    HW235046   3.329   1.218   8.586  0.2890  0.0595 -0.5977
 7863SOL     OW35047   3.925   3.235   2.454 -0.1716  0.5136  0.3674
 7863SOL    HW135048   3.910   3.179   2.378 -0.5571  1.8187 -0.5208
 7863SOL    HW235049   3.996   3.293   2.427  1.9655 -2.2360  0.1556
 7864SOL     OW35050   3.287   4.620   2.923 -0.1069  0.7944  0.2466
 7864SOL    HW135051   3.258   4.711   2.919 -3.3534 -0.2192  0.6097
 7864SOL    HW235052   3.209   4.564   2.919 -0.0049  0.6272  0.6297
 7865SOL     OW35053   0.099   0.479   5.563 -0.7186  0.4605 -0.0538
 7865SOL    HW135054   0.146   0.549   5.517 -1.4415  1.1055  0.1958
 7865SOL    HW235055   0.036   0.447   5.498  0.4106 -0.6640 -0.5959
 7866SOL     OW35056   0.963   3.279  14.752 -0.5424 -0.2746 -0.8857
 7866SOL    HW135057   0.956   3.374  14.751 -1.6065 -0.3704 -1.7808
 7866SOL    HW235058   0.907   3.255  14.825 -0.8587 -0.4271 -1.1769
 7867SOL     OW35059   0.693   1.067   7.018  0.8528  0.0160 -0.6516
 7867SOL    HW135060   0.714   1.079   7.111 -1.1019  2.2168 -0.4886
 7867SOL    HW235061   0.740   1.144   6.984 -0.7361  0.2536 -2.3083
 7868SOL     OW35062   0.306   0.818  12.293 -0.8355 -0.4308 -0.4922
 7868SOL    HW135063   0.217   0.851  12.309 -0.6124  0.6395 -1.4548
 7868SOL    HW235064   0.297   0.798  12.200 -0.9189 -2.1512 -0.0986
 7869SOL     OW35065   1.682   1.358   7.690  0.0256 -0.3696  0.0158
 7869SOL    HW135066   1.721   1.444   7.707 -3.2681  1.3964 -1.3372
 7869SOL    HW235067   1.691   1.350   7.595 -2.0442  0.1236 -0.2223
 7870SOL     OW35068   2.707   3.467  10.260  0.4695 -0.2024 -0.4487
 7870SOL    HW135069   2.744   3.554  10.277  1.1516 -0.5224 -0.3087
 7870SOL    HW235070   2.784   3.410  10.263 -0.0834 -1.0751 -2.2775
 7871SOL     OW35071   4.720   1.014   6.619  0.3550  0.1081  0.0576
 7871SOL    HW135072   0.071   0.962   6.647 -1.0263 -1.6972  0.3984
 7871SOL    HW235073   4.650   0.961   6.656  0.9547 -1.1072 -0.5330
 7872SOL     OW35074   1.049   3.022   2.759  0.1340 -0.9564  0.5786
 7872SOL    HW135075   0.986   3.075   2.710  0.5375  0.0568  1.1852
 7872SOL    HW235076   1.127   3.036   2.705  0.0792 -0.8746  0.5216
 7873SOL     OW35077   1.245   2.302   4.352  0.4114 -0.3054  0.6377
 7873SOL    HW135078   1.261   2.346   4.268 -0.0442  0.2374  0.8383
 7873SOL    HW235079   1.329   2.310   4.398 -0.3510 -1.1328  2.1634
 7874SOL     OW35080   1.368   1.373  16.244 -0.9103  0.0613 -0.4442
 7874SOL    HW135081   1.458   1.392  16.218 -1.4473  2.1507 -0.8077
 7874SOL    HW235082   1.359   1.457  16.289  0.3343  1.3656 -2.6236
 7875SOL     OW35083   1.857   1.540   0.535 -0.1106 -0.1711 -0.1596
 7875SOL    HW135084   1.804   1.461   0.543  1.9875 -1.5226  0.3271
 7875SOL    HW235085   1.850   1.557   0.441 -1.8134 -2.1636 -0.3916
 7876SOL     OW35086   2.222   4.297   5.062  0.1344  0.2317  0.3249
 7876SOL    HW135087   2.183   4.222   5.019  0.9293 -0.5535  0.9660
 7876SOL    HW235088   2.313   4.295   5.032 -0.6046  0.8727 -1.9828
 7877SOL     OW35089   0.063   3.404   0.135  0.3486  0.0701  0.1358
 7877SOL    HW135090   0.068   3.421   0.229 -0.0088  2.0395 -0.2123
 7877SOL    HW235091   4.714   3.342   0.126  0.7682 -0.5319  0.8956
 7878SOL     OW35092   2.505   0.912   7.815 -0.1515  0.4524 -0.1357
 7878SOL    HW135093   2.443   0.841   7.834  0.9526 -0.8469 -1.3812
 7878SOL    HW235094   2.584   0.864   7.790 -0.6315 -0.8564  0.8704
 7879SOL     OW35095   0.536   0.888   8.031  0.3381  0.7004 -0.6351
 7879SOL    HW135096   0.564   0.889   7.940  1.3145  0.4661 -0.3435
 7879SOL    HW235097   0.574   0.803   8.055 -1.4776  0.4943  1.5055
 7880SOL     OW35098   1.626   1.389   9.553 -0.0681 -0.0090 -0.1575
 7880SOL    HW135099   1.619   1.468   9.607 -0.1653  0.2938 -0.6148
 7880SOL    HW235100   1.573   1.330   9.607 -0.4706  1.6168  1.2252
 7881SOL     OW35101   0.579   1.878  10.567 -0.8476 -0.0807 -0.2433
 7881SOL    HW135102   0.598   1.922  10.484  0.2264  0.4899  0.2929
 7881SOL    HW235103   0.670   1.875  10.598 -1.5005 -1.4877  1.5271
 7882SOL     OW35104   3.637   4.369   6.588  0.3714  0.0343 -0.1000
 7882SOL    HW135105   3.691   4.444   6.564  1.5305  0.0021  2.3793
 7882SOL    HW235106   3.612   4.329   6.505  0.1022 -0.1229  0.0582
 7883SOL     OW35107   4.254   1.054   3.719  0.5656  0.1406 -0.4705
 7883SOL    HW135108   4.317   1.094   3.658 -2.1654  4.0237 -0.7309
 7883SOL    HW235109   4.264   1.120   3.787 -2.4930 -1.1190  1.2027
 7884SOL     OW35110   0.205   4.127   5.125  0.4191  0.4391  0.3574
 7884SOL    HW135111   0.136   4.096   5.066  0.0681  0.9730  0.4935
 7884SOL    HW235112   0.242   4.043   5.153 -0.5854 -0.2430 -0.3599
 7885SOL     OW35113   0.481   3.078   6.766 -0.4896  0.3597  0.4240
 7885SOL    HW135114   0.453   3.035   6.685  1.5664  3.0511 -1.7513
 7885SOL    HW235115   0.575   3.082   6.751 -0.5722  1.0216  0.0675
 7886SOL     OW35116   0.077   1.774  11.654  0.3525  0.3806 -0.0183
 7886SOL    HW135117   0.102   1.832  11.725  1.0588 -0.3755  0.3489
 7886SOL    HW235118   0.027   1.712  11.707  0.0470  1.5768  1.0823
 7887SOL     OW35119   0.598   2.892   7.687 -0.1457  0.0921  0.3610
 7887SOL    HW135120   0.581   2.900   7.781 -2.7395 -0.9091 -0.0203
 7887SOL    HW235121   0.543   2.824   7.648  0.9182 -0.3661 -0.3314
 7888SOL     OW35122   0.138   4.666   0.489  0.1634  0.0524 -0.3155
 7888SOL    HW135123   0.079   4.598   0.523 -1.0691  1.8423  1.1170
 7888SOL    HW235124   0.163   4.709   0.571 -0.1762 -0.3595  0.0075
 7889SOL     OW35125   3.066   2.768   0.302  0.3689  0.5940 -0.3467
 7889SOL    HW135126   3.058   2.836   0.235 -2.6905 -0.3410 -0.9169
 7889SOL    HW235127   3.126   2.701   0.269  0.9869 -0.1513  2.2484
 7890SOL     OW35128   1.457   0.038  13.169  0.1758 -0.2462 -0.5613
 7890SOL    HW135129   1.475   0.131  13.155 -0.1036  0.1244  1.5505
 7890SOL    HW235130   1.540   0.003  13.137 -0.4785 -1.1964 -1.2218
 7891SOL     OW35131   3.814   1.410   3.170 -0.9701 -0.1819  0.5541
 7891SOL    HW135132   3.754   1.344   3.136  1.6668 -1.3731 -1.7588
 7891SOL    HW235133   3.892   1.401   3.116 -1.1429  2.2966 -0.1163
 7892SOL     OW35134   0.708   1.385   8.426 -0.2622  0.3402  1.0345
 7892SOL    HW135135   0.750   1.398   8.340  0.8836  0.3728  1.5955
 7892SOL    HW235136   0.702   1.477   8.452  1.3096  0.0630  2.3981
 7893SOL     OW35137   1.972   1.921   3.562  0.3407 -0.0605  0.1582
 7893SOL    HW135138   1.952   1.993   3.502 -1.3220 -1.4170 -0.9091
 7893SOL    HW235139   2.051   1.955   3.604 -0.1735  1.4937 -0.1044
 7894SOL     OW35140   0.227   1.452   9.645 -0.2832 -0.5475  0.0427
 7894SOL    HW135141   0.160   1.401   9.601 -0.0098  0.2901 -1.3353
 7894SOL    HW235142   0.174   1.505   9.705  1.1906 -1.8192  2.4744
 7895SOL     OW35143   3.817   1.297  11.550 -0.0412  0.5988  0.1986
 7895SOL    HW135144   3.812   1.202  11.546  0.3223  0.6588 -2.1664
 7895SOL    HW235145   3.842   1.329  11.463 -1.5088  1.5677  0.1268
 7896SOL     OW35146   1.920   0.051  15.998 -0.3107  0.2618  0.6107
 7896SOL    HW135147   1.984   0.115  16.030 -0.4998  0.4949  0.5217
 7896SOL    HW235148   1.872   0.040  16.080  0.5535  0.2880  1.1220
 7897SOL     OW35149   4.426   1.741   6.787 -0.3911 -0.3016 -0.2034
 7897SOL    HW135150   4.521   1.729   6.792 -0.4689 -0.2406  1.6046
 7897SOL    HW235151   4.392   1.651   6.786  0.3368 -0.5603 -1.4719
 7898SOL     OW35152   3.466   1.473   5.406  0.6227  0.0714 -0.1405
 7898SOL    HW135153   3.441   1.512   5.490 -0.2380  1.9120 -1.2684
 7898SOL    HW235154   3.532   1.409   5.433  2.8383  2.0271 -0.9500
 7899SOL     OW35155   4.710   1.268  10.802  0.8405 -0.0144  0.0778
 7899SOL    HW135156   0.054   1.333  10.820  0.1138  0.6211  0.5210
 7899SOL    HW235157   4.678   1.311  10.722  2.9059 -0.4908 -0.9988
 7900SOL     OW35158   2.726   2.574   2.673  0.5974  0.0367 -0.1113
 7900SOL    HW135159   2.712   2.623   2.754  1.9030  0.2061  0.0078
 7900SOL    HW235160   2.650   2.605   2.623  0.9263  0.5542 -0.2907
 7901SOL     OW35161   2.157   4.560   9.033  0.0291 -0.1309 -0.5241
 7901SOL    HW135162   2.240   4.586   8.993  0.3988 -2.5248 -1.3274
 7901SOL    HW235163   2.144   4.474   8.993  0.0378 -0.2950 -0.1748
 7902SOL     OW35164   4.682   0.522   7.631 -0.1899 -0.1899  0.6561
 7902SOL    HW135165   4.716   0.604   7.595  3.1637 -0.8247  2.3859
 7902SOL    HW235166   0.035   0.469   7.611 -0.7311 -0.8601  0.3528
 7903SOL     OW35167   3.454   3.184   9.746 -0.8108 -0.1653  0.2989
 7903SOL    HW135168   3.524   3.243   9.717 -0.8157 -1.3487 -2.1392
 7903SOL    HW235169   3.444   3.208   9.838  0.5221  2.7815 -0.3114
 7904SOL     OW35170   0.231   2.373   1.065  0.0486  0.2021 -0.3646
 7904SOL    HW135171   0.140   2.395   1.081  0.0477  0.9610 -1.4208
 7904SOL    HW235172   0.198   2.299   1.015  0.2506 -0.3058  0.2470
 7905SOL     OW35173   0.931   3.930   8.614  0.5589 -0.0745 -0.1009
 7905SOL    HW135174   1.017   3.969   8.631  0.9453 -0.6387 -0.7960
 7905SOL    HW235175   0.953   3.877   8.537  1.6461 -1.5239  1.2030
 7906SOL     OW35176   4.257   2.313   1.862 -0.8657  0.5532  0.4386
 7906SOL    HW135177   4.248   2.279   1.952 -2.6658 -0.7173 -0.2199
 7906SOL    HW235178   4.326   2.260   1.823  1.4777  2.5332  1.8420
 7907SOL     OW35179   1.372   2.779  13.366  0.1981 -0.4977  0.5194
 7907SOL    HW135180   1.416   2.859  13.338 -0.5799  0.4685  2.0420
 7907SOL    HW235181   1.311   2.774  13.292 -0.5833  2.1259  1.0047
 7908SOL     OW35182   3.689   1.737   9.415 -0.0492  0.1151 -0.4984
 7908SOL    HW135183   3.772   1.783   9.398  1.1595 -1.8422  0.0860
 7908SOL    HW235184   3.728   1.662   9.459  2.6199  1.3540 -0.7388
 7909SOL     OW35185   2.576   3.562   7.058 -0.2925  0.3090  0.0582
 7909SOL    HW135186   2.538   3.578   6.972 -0.2552  0.1287  0.0081
 7909SOL    HW235187   2.542   3.635   7.111 -0.7486 -0.6323  1.0641
 7910SOL     OW35188   1.511   2.846   3.072  0.3220 -0.6735 -0.4351
 7910SOL    HW135189   1.531   2.809   2.986 -1.6657 -0.8715 -0.8116
 7910SOL    HW235190   1.476   2.775   3.125 -0.4360 -0.1411 -0.2227
 7911SOL     OW35191   3.592   0.217   7.241 -0.0880  0.1117  0.2305
 7911SOL    HW135192   3.544   0.159   7.183  0.5270 -1.1015  0.9399
 7911SOL    HW235193   3.669   0.168   7.270  1.1118 -0.1546 -3.3492
 7912SOL     OW35194   0.940   4.119  10.898  0.6521  0.4360 -0.2005
 7912SOL    HW135195   0.986   4.127  10.815 -1.0761  1.3327 -1.0811
 7912SOL    HW235196   0.966   4.203  10.934  2.7479 -0.6505  0.7904
 7913SOL     OW35197   2.820   4.405  10.796  0.9297  0.1414 -0.2549
 7913SOL    HW135198   2.787   4.482  10.751  1.9786  1.0928  0.6098
 7913SOL    HW235199   2.863   4.353  10.728 -0.5613  0.2251 -1.2544
 7914SOL     OW35200   4.509   0.281   7.113  0.0701 -0.1412 -0.1986
 7914SOL    HW135201   4.444   0.227   7.157 -0.7822  0.2973 -0.9185
 7914SOL    HW235202   4.555   0.302   7.195  0.4513  0.3891 -0.5461
 7915SOL     OW35203   1.050   2.038   4.652 -0.3240 -0.2571  0.3412
 7915SOL    HW135204   0.966   2.067   4.616  0.7375 -0.9781 -2.7069
 7915SOL    HW235205   1.083   2.004   4.569 -0.8723  0.1404 -0.0444
 7916SOL     OW35206   1.823   1.899  17.255  0.1197 -0.6258  0.3978
 7916SOL    HW135207   1.842   1.993  17.246 -2.2659  0.0371  2.5573
 7916SOL    HW235208   1.868   1.879  17.337  1.6028 -0.3304 -0.3384
 7917SOL     OW35209   0.256   2.001   6.394 -0.2207 -0.0626 -0.4553
 7917SOL    HW135210   0.342   1.959   6.387 -0.0142  0.3901 -0.6391
 7917SOL    HW235211   0.195   1.933   6.422 -0.2666 -0.3626 -1.2944
 7918SOL     OW35212   0.994   2.358   6.287  0.1260  0.0600  0.2794
 7918SOL    HW135213   0.982   2.431   6.348  0.1323  0.4328 -0.1599
 7918SOL    HW235214   0.915   2.308   6.306  1.2531 -1.0639  2.0136
 7919SOL     OW35215   2.575   4.614   5.206  0.2034  0.0887  0.3421
 7919SOL    HW135216   2.645   4.563   5.165  1.8204  2.0906  0.6503
 7919SOL    HW235217   2.599   4.625   5.298 -0.1114  1.9275  0.1927
 7920SOL     OW35218   1.316   3.109   6.757  0.5788 -0.0008  0.3220
 7920SOL    HW135219   1.403   3.068   6.752 -0.2001 -1.6378  0.3397
 7920SOL    HW235220   1.288   3.069   6.839 -1.1439 -1.7724 -1.1399
 7921SOL     OW35221   4.283   4.371   7.239  0.0007  0.1092  0.4639
 7921SOL    HW135222   4.360   4.418   7.206  0.5616 -1.0186  0.1559
 7921SOL    HW235223   4.248   4.338   7.156  2.3494  0.1553 -0.5509
 7922SOL     OW35224   0.345   1.173   5.219  0.1381 -0.4881 -0.1600
 7922SOL    HW135225   0.267   1.177   5.274 -0.3073  2.0317 -1.0015
 7922SOL    HW235226   0.307   1.174   5.131 -0.7487 -0.6364  0.2196
 7923SOL     OW35227   2.190   2.069   5.326 -0.0149  0.2396 -0.1604
 7923SOL    HW135228   2.217   2.149   5.281  1.1404  2.4799  4.5319
 7923SOL    HW235229   2.101   2.062   5.293 -0.6903  0.3323  1.6147
 7924SOL     OW35230   0.858   3.007   6.356  0.1027  0.0572 -0.1532
 7924SOL    HW135231   0.778   3.044   6.319  1.5263  1.8427 -1.4318
 7924SOL    HW235232   0.820   2.948   6.421  1.6405 -1.5457 -0.6941
 7925SOL     OW35233   1.479   3.012   6.154  0.5301  0.0507 -0.1985
 7925SOL    HW135234   1.402   3.037   6.205  0.1679  2.4867 -1.9718
 7925SOL    HW235235   1.487   2.918   6.172  0.2866 -0.1662 -1.2400
 7926SOL     OW35236   1.564   0.680  14.299  0.1790 -0.3742 -0.1412
 7926SOL    HW135237   1.599   0.643  14.380  0.2287  1.8282  0.8566
 7926SOL    HW235238   1.492   0.622  14.274  1.9915 -3.0749  1.0120
 7927SOL     OW35239   0.198   1.648  14.903 -0.1027  0.1399 -0.3614
 7927SOL    HW135240   0.144   1.643  14.824  0.1762  1.8200 -0.6536
 7927SOL    HW235241   0.267   1.709  14.876  0.7374 -1.1212 -1.0976
 7928SOL     OW35242   1.837   1.236  10.265  0.4070  0.1310  0.3323
 7928SOL    HW135243   1.811   1.204  10.352  1.7763  0.2265  0.7731
 7928SOL    HW235244   1.773   1.193  10.208 -0.1595 -0.0316  1.0730
 7929SOL     OW35245   3.220   2.553   7.801 -0.2205 -0.3357  0.5516
 7929SOL    HW135246   3.202   2.484   7.865  3.6990 -1.1730  0.7134
 7929SOL    HW235247   3.211   2.634   7.851 -0.3290 -1.2508  2.0187
 7930SOL     OW35248   2.876   2.384   2.832 -0.3707 -0.1427 -0.2188
 7930SOL    HW135249   2.927   2.465   2.838  0.3516 -0.7495  1.9868
 7930SOL    HW235250   2.827   2.408   2.754  0.5608  2.8177  0.0969
 7931SOL     OW35251   2.305   4.604   8.697 -0.9601 -0.4912 -0.0358
 7931SOL    HW135252   2.323   4.694   8.671 -1.5609  0.0916  1.5312
 7931SOL    HW235253   2.346   4.595   8.783 -1.6419  2.3724  0.5990
 7932SOL     OW35254   2.914   4.126   9.317 -0.5753 -0.0072  0.4617
 7932SOL    HW135255   2.916   4.176   9.399  0.5610  1.2452 -0.3230
 7932SOL    HW235256   2.970   4.181   9.262  0.9282  0.8377  2.8347
 7933SOL     OW35257   1.748   1.093   7.505 -0.6281  0.0180  0.2815
 7933SOL    HW135258   1.730   1.186   7.492  1.2396  0.4331  0.6339
 7933SOL    HW235259   1.831   1.102   7.552 -1.2602 -1.5602  1.7059
 7934SOL     OW35260   3.177   3.214   6.326  0.3735  0.0615  0.4663
 7934SOL    HW135261   3.100   3.234   6.379 -1.2026 -2.0935 -1.0022
 7934SOL    HW235262   3.140   3.225   6.238  3.6892 -2.6778 -1.2869
 7935SOL     OW35263   0.409   1.817  14.854 -0.4102 -0.1140 -0.1874
 7935SOL    HW135264   0.479   1.775  14.803  2.3774  3.0384  1.0093
 7935SOL    HW235265   0.456   1.867  14.921 -0.9153  0.0145  0.0670
 7936SOL     OW35266   3.867   1.775   4.606  0.3430  0.1313 -0.4802
 7936SOL    HW135267   3.905   1.821   4.531 -0.6303 -0.0230 -1.0732
 7936SOL    HW235268   3.896   1.686   4.585 -0.8732 -0.7963  1.7417
 7937SOL     OW35269   1.780   4.509   6.390  0.0320 -0.0191 -0.3790
 7937SOL    HW135270   1.819   4.589   6.424 -0.5793  0.5589 -1.0361
 7937SOL    HW235271   1.714   4.535   6.325  0.9582 -0.6229 -1.5689
 7938SOL     OW35272   1.772   4.085   8.091 -0.2932  0.5129 -0.2827
 7938SOL    HW135273   1.690   4.130   8.071 -1.7355 -0.1509  4.1604
 7938SOL    HW235274   1.729   4.000   8.089  0.4972  0.0866  1.1267
 7939SOL     OW35275   0.624   3.852   2.907 -0.5613  0.2955  0.1302
 7939SOL    HW135276   0.696   3.816   2.959  1.0151  0.9002 -1.6489
 7939SOL    HW235277   0.644   3.813   2.823  0.9349 -0.9584  1.0601
 7940SOL     OW35278   3.170   1.599  12.920 -0.5045  0.3181 -0.0438
 7940SOL    HW135279   3.231   1.637  12.856  0.5379  0.0008  0.7581
 7940SOL    HW235280   3.133   1.681  12.952  0.4968 -0.2583  2.5622
 7941SOL     OW35281   3.071   4.582   3.166  0.7261  0.3103 -0.1423
 7941SOL    HW135282   2.992   4.548   3.207  0.0997  1.2091 -0.6152
 7941SOL    HW235283   3.085   4.524   3.091 -2.7384 -1.2271  0.3826
 7942SOL     OW35284   0.454   0.362  15.132  0.0646  0.3643 -0.3917
 7942SOL    HW135285   0.447   0.351  15.037  1.9640  1.8413 -0.7190
 7942SOL    HW235286   0.406   0.285  15.161 -2.1476  1.0938 -2.0907
 7943SOL     OW35287   1.887   0.735   1.213  0.5202 -0.3375  0.1415
 7943SOL    HW135288   1.878   0.768   1.124  2.5799  0.1335  0.0955
 7943SOL    HW235289   1.982   0.743   1.223  0.5275 -1.2875  0.8933
 7944SOL     OW35290   0.735   0.251   4.431 -0.3731  0.3344  0.4452
 7944SOL    HW135291   0.659   0.193   4.427  0.4690 -0.6672 -1.1134
 7944SOL    HW235292   0.815   0.199   4.436 -0.3271  0.1283 -2.3702
 7945SOL     OW35293   2.412   2.085   8.203 -0.2752  0.4216  0.1359
 7945SOL    HW135294   2.383   2.002   8.166  0.1315  0.5250 -0.4266
 7945SOL    HW235295   2.492   2.050   8.242  0.3604 -0.7359 -2.1758
 7946SOL     OW35296   1.780   3.693   7.761 -0.0271  0.2908 -0.2985
 7946SOL    HW135297   1.853   3.746   7.792  0.1090  1.3206 -2.4257
 7946SOL    HW235298   1.815   3.612   7.800 -3.3921 -1.6252 -1.2109
 7947SOL     OW35299   3.342   3.507   1.115 -0.3637  0.2096  0.1513
 7947SOL    HW135300   3.272   3.458   1.157  2.2481 -2.2995  1.6414
 7947SOL    HW235301   3.321   3.589   1.157 -0.1188 -0.5457  1.7364
 7948SOL     OW35302   1.883   1.739   1.445  0.2611  0.3828  0.1691
 7948SOL    HW135303   1.871   1.815   1.502  2.9835  1.8490 -1.2018
 7948SOL    HW235304   1.862   1.673   1.510 -0.8694  0.0611 -0.5138
 7949SOL     OW35305   1.157   2.973   7.365 -0.6343 -0.0840  0.0644
 7949SOL    HW135306   1.124   2.931   7.285  2.8185  0.1093 -1.4440
 7949SOL    HW235307   1.134   3.064   7.349 -2.0671 -0.3140  0.7799
 7950SOL     OW35308   0.806   3.267  10.830 -0.3353  0.0642 -0.3369
 7950SOL    HW135309   0.729   3.211  10.844 -1.7685  2.2089  0.3579
 7950SOL    HW235310   0.876   3.207  10.804 -1.1204 -1.4738  1.1759
 7951SOL     OW35311   1.748   0.467  14.190 -1.4428  0.2178  0.1141
 7951SOL    HW135312   1.756   0.536  14.125  0.8541  1.2224  1.4498
 7951SOL    HW235313   1.757   0.514  14.273 -0.1893 -2.2422  1.3740
 7952SOL     OW35314   3.618   4.499  16.420 -0.2957 -0.0375  0.0603
 7952SOL    HW135315   3.672   4.578  16.420 -0.4401  0.0483  2.5946
 7952SOL    HW235316   3.659   4.430  16.368 -0.6159  1.5556 -2.2846
 7953SOL     OW35317   4.666   0.634   3.965  0.1667  0.2032 -0.0730
 7953SOL    HW135318   4.622   0.589   4.036  1.4019 -0.1934  0.4502
 7953SOL    HW235319   4.715   0.566   3.918  1.6276  1.0363  0.2550
 7954SOL     OW35320   2.667   2.060  11.891  0.1907  0.1570 -0.1787
 7954SOL    HW135321   2.684   2.119  11.817  1.7137  0.2553  0.2596
 7954SOL    HW235322   2.625   1.989  11.843 -0.8017 -0.2535  1.2984
 7955SOL     OW35323   3.710   3.392   8.017  0.7598  0.5171 -0.3811
 7955SOL    HW135324   3.732   3.482   7.995 -1.1031  0.9722 -0.4159
 7955SOL    HW235325   3.678   3.356   7.935  0.3578  0.7968 -0.3456
 7956SOL     OW35326   2.583   4.256   5.009 -0.2884  0.4915  0.2938
 7956SOL    HW135327   2.646   4.279   4.940 -2.7122  3.0951 -1.0594
 7956SOL    HW235328   2.625   4.313   5.073 -1.9253 -1.5199  3.1511
 7957SOL     OW35329   2.563   1.907   7.071  0.5198 -0.7117 -0.4011
 7957SOL    HW135330   2.656   1.898   7.094  0.7009  1.2552 -0.4008
 7957SOL    HW235331   2.527   1.847   7.136 -1.9764  0.2979 -0.8621
 7958SOL     OW35332   2.760   1.506   1.871 -0.0787 -0.0046  0.5046
 7958SOL    HW135333   2.696   1.516   1.942  1.2103  0.8427  1.5416
 7958SOL    HW235334   2.790   1.417   1.888  0.2331  0.1466  0.7237
 7959SOL     OW35335   2.078   0.368   6.404  0.3576  0.3099  0.0042
 7959SOL    HW135336   1.987   0.362   6.377  0.3204  2.4972 -0.3646
 7959SOL    HW235337   2.113   0.369   6.314 -1.1850 -0.6513 -0.6077
 7960SOL     OW35338   0.089   0.127   2.885 -0.0204  0.6082 -0.3597
 7960SOL    HW135339   0.036   0.207   2.881 -2.2103 -0.8447 -0.4103
 7960SOL    HW235340   0.121   0.121   2.795  0.8372  0.0851 -0.0181
 7961SOL     OW35341   4.450   1.279   6.968 -0.1677 -0.2485  0.2655
 7961SOL    HW135342   4.437   1.276   7.063  2.0062  2.3386  0.6488
 7961SOL    HW235343   4.457   1.191   6.932  0.8899  0.0211 -0.2095
 7962SOL     OW35344   0.123   3.618  10.481  0.1972  0.1431 -0.6785
 7962SOL    HW135345   0.201   3.598  10.428 -2.1368 -0.7715 -3.8093
 7962SOL    HW235346   0.109   3.712  10.471  1.4805  0.4187  0.0793
 7963SOL     OW35347   3.146   4.467   1.639 -0.3508 -0.1817  0.1626
 7963SOL    HW135348   3.181   4.380   1.655 -0.4409  0.1920  2.3099
 7963SOL    HW235349   3.143   4.495   1.730 -0.8059 -0.9154  0.3653
 7964SOL     OW35350   2.518   3.106   0.867 -0.2537  0.2296 -0.2520
 7964SOL    HW135351   2.433   3.128   0.905  0.7818  1.3037  1.4226
 7964SOL    HW235352   2.496   3.075   0.779  0.8022  0.1584 -0.4849
 7965SOL     OW35353   1.115   2.752   3.937 -0.3488 -0.2739 -0.1027
 7965SOL    HW135354   1.152   2.721   4.019 -0.9036  0.2518  0.3403
 7965SOL    HW235355   1.115   2.672   3.884 -3.0448 -0.7444  0.6078
 7966SOL     OW35356   0.040   3.729   5.165 -0.1580 -0.3151  0.2003
 7966SOL    HW135357   0.133   3.726   5.144 -0.4080  1.6594 -1.1567
 7966SOL    HW235358   0.049   3.765   5.254 -1.0907 -2.5434  1.1928
 7967SOL     OW35359   0.696   3.692  16.657  0.3239 -0.1740  0.0139
 7967SOL    HW135360   0.676   3.744  16.580 -1.2019  1.3221  1.4154
 7967SOL    HW235361   0.631   3.627  16.631  0.5325 -0.7934  1.0217
 7968SOL     OW35362   1.052   0.860   0.090  0.1531 -0.6820 -0.1582
 7968SOL    HW135363   1.085   0.800   0.023  1.2208 -1.2097  0.8353
 7968SOL    HW235364   0.978   0.810   0.123 -0.2649  1.0660  1.5193
 7969SOL     OW35365   1.987   2.655   6.560  0.3879 -0.1338 -0.0470
 7969SOL    HW135366   2.058   2.599   6.592  1.1572  0.6790 -0.3363
 7969SOL    HW235367   2.029   2.741   6.563 -0.0159  0.0509  0.3569
 7970SOL     OW35368   4.007   1.831   8.650  0.2540  0.4081 -0.1178
 7970SOL    HW135369   4.090   1.857   8.609  0.3328  0.5479  0.1313
 7970SOL    HW235370   4.044   1.814   8.736 -1.8094 -2.1540  0.2694
 7971SOL     OW35371   0.719   3.747  17.235 -0.3854 -0.0977  0.3559
 7971SOL    HW135372   0.632   3.741  17.275 -1.2422  1.5853 -1.2442
 7971SOL    HW235373   0.701   3.836  17.203  1.9767 -0.2406 -1.4284
 7972SOL     OW35374   3.691   1.430  14.851  0.0791  0.4138  0.2412
 7972SOL    HW135375   3.629   1.419  14.779 -0.4664  0.7171  0.6693
 7972SOL    HW235376   3.773   1.421  14.803  0.2339  0.3869  0.5110
 7973SOL     OW35377   0.276   1.174   4.952  0.0713  0.6804  0.2147
 7973SOL    HW135378   0.280   1.094   4.900 -0.9879  0.3483  0.6509
 7973SOL    HW235379   0.240   1.232   4.885 -0.6931 -0.6632 -0.5403
 7974SOL     OW35380   3.134   1.303   8.648  0.1854 -0.0148  0.0077
 7974SOL    HW135381   3.158   1.381   8.697 -2.1987 -0.3081  1.6004
 7974SOL    HW235382   3.139   1.236   8.716  0.1267 -1.8461 -1.7571
 7975SOL     OW35383   1.788   4.362   8.755 -0.3413  0.6975 -0.0748
 7975SOL    HW135384   1.798   4.426   8.826  2.6231 -0.0444  0.1913
 7975SOL    HW235385   1.874   4.321   8.767 -1.6757 -1.7985  0.9043
 7976SOL     OW35386   2.347   3.185  13.892  0.1750 -0.4215 -0.5662
 7976SOL    HW135387   2.429   3.215  13.931  0.7835  1.1893 -3.0804
 7976SOL    HW235388   2.350   3.092  13.914  0.1660 -0.2603  0.0972
 7977SOL     OW35389   3.243   0.014   8.372  0.3128 -0.0578  0.7574
 7977SOL    HW135390   3.240   4.647   8.343  0.4538 -0.2303  1.2700
 7977SOL    HW235391   3.181   0.055   8.313 -0.3724  0.1340  1.6074
 7978SOL     OW35392   1.767   1.723   4.450  0.4147  0.0060 -0.5353
 7978SOL    HW135393   1.818   1.683   4.380 -0.3642  2.1320 -2.3309
 7978SOL    HW235394   1.753   1.643   4.501  1.5602 -0.2397 -0.6217
 7979SOL     OW35395   1.021   0.134   4.942 -0.1447 -0.4540  0.0392
 7979SOL    HW135396   0.937   0.142   4.897 -0.2170 -1.8367 -0.0463
 7979SOL    HW235397   0.992   0.070   5.007 -0.4783 -0.4110 -0.0659
 7980SOL     OW35398   0.768   4.215   6.420  0.0046 -0.1408  0.0093
 7980SOL    HW135399   0.855   4.176   6.407 -0.3308 -1.2838  1.1776
 7980SOL    HW235400   0.708   4.144   6.439  1.8074 -0.8743  3.0956
 7981SOL     OW35401   0.342   2.539   8.456 -0.4127 -0.2299  0.4187
 7981SOL    HW135402   0.436   2.561   8.457 -0.9217  1.9509  1.8046
 7981SOL    HW235403   0.363   2.489   8.377 -1.1034 -1.3463  0.9480
 7982SOL     OW35404   1.581   3.660  13.893 -0.0133 -0.0538 -0.0454
 7982SOL    HW135405   1.669   3.692  13.916 -0.9645  1.0832  2.0215
 7982SOL    HW235406   1.604   3.604  13.819  1.0017  0.1058  0.1410
 7983SOL     OW35407   0.696   0.226   6.581 -0.1792 -0.0346 -0.8915
 7983SOL    HW135408   0.704   0.269   6.666 -0.3077 -2.2194  0.2333
 7983SOL    HW235409   0.723   0.138   6.607 -1.1465  0.4553  1.7052
 7984SOL     OW35410   0.127   2.074   2.191 -0.2111 -0.5288  0.6068
 7984SOL    HW135411   0.216   2.071   2.156  0.5047 -0.1640  2.4087
 7984SOL    HW235412   0.105   2.159   2.153 -0.6492 -0.3080  1.3702
 7985SOL     OW35413   0.296   0.081   4.172  0.3449 -0.1885 -0.4487
 7985SOL    HW135414   0.384   0.049   4.191  0.4186  0.0808 -0.3383
 7985SOL    HW235415   0.249   0.008   4.211  0.0432  0.0286 -0.4076
 7986SOL     OW35416   1.942   0.825   4.317 -0.0370  0.6502 -0.0808
 7986SOL    HW135417   1.861   0.872   4.333  0.8682  1.1920  2.9339
 7986SOL    HW235418   1.953   0.830   4.222  1.6548  1.1844  0.1271
 7987SOL     OW35419   3.059   0.879   9.713 -0.0019 -0.3587  0.2792
 7987SOL    HW135420   2.977   0.926   9.699  1.5968  1.5776 -2.6596
 7987SOL    HW235421   3.061   0.875   9.808 -0.2870 -3.2972  0.1550
 7988SOL     OW35422   0.704   3.129   7.021 -0.0821  0.0073  0.2070
 7988SOL    HW135423   0.741   3.053   7.067  0.2716 -1.2010 -2.0757
 7988SOL    HW235424   0.712   3.098   6.931  1.1693  2.4349 -0.5313
 7989SOL     OW35425   3.751   3.907   2.892 -0.3009 -0.3980 -0.6066
 7989SOL    HW135426   3.715   3.911   2.804  0.4307  1.6228 -0.8198
 7989SOL    HW235427   3.840   3.886   2.862 -0.4057  1.2781 -2.0547
 7990SOL     OW35428   2.032   3.249  10.543  0.4092 -0.2670  0.0386
 7990SOL    HW135429   2.047   3.206  10.459 -0.5388 -0.0229 -0.2610
 7990SOL    HW235430   2.030   3.343  10.525  1.0203  0.1906  2.3744
 7991SOL     OW35431   2.588   1.699   5.131  0.4224  0.6178 -0.4699
 7991SOL    HW135432   2.663   1.749   5.163  0.3122  0.6275 -0.2361
 7991SOL    HW235433   2.524   1.763   5.161 -1.3458 -0.9720 -0.8202
 7992SOL     OW35434   2.548   1.578   6.392  0.2897  0.5327  0.6689
 7992SOL    HW135435   2.601   1.656   6.404  2.2071 -0.6037 -0.4598
 7992SOL    HW235436   2.577   1.557   6.303 -0.6438 -2.3859  1.0456
 7993SOL     OW35437   2.055   2.501   5.008 -0.0531 -0.0240  0.1968
 7993SOL    HW135438   2.084   2.590   4.989  1.3353 -0.6328 -0.5294
 7993SOL    HW235439   2.065   2.501   5.103 -1.5702 -2.2937  0.3513
 7994SOL     OW35440   0.099   4.218   3.860  0.5190  0.1053 -0.4003
 7994SOL    HW135441   0.137   4.264   3.935  2.1022 -0.0449 -1.1170
 7994SOL    HW235442   0.172   4.161   3.834 -1.1999 -1.1524 -2.4951
 7995SOL     OW35443   2.307   0.080   5.293  0.1838  0.1057  0.1406
 7995SOL    HW135444   2.353   0.062   5.211  2.3455  2.7372  0.7898
 7995SOL    HW235445   2.221   0.115   5.272 -0.0891  0.1231  1.2709
 7996SOL     OW35446   1.164   4.084  14.240  0.3059 -0.6206  0.2574
 7996SOL    HW135447   1.228   4.155  14.246  1.6063 -1.7157 -0.8748
 7996SOL    HW235448   1.114   4.089  14.322 -0.8006 -0.7108 -0.4143
 7997SOL     OW35449   2.615   1.139   4.651  0.1594  0.0832 -0.1378
 7997SOL    HW135450   2.642   1.155   4.561  0.2473  2.2145  0.2603
 7997SOL    HW235451   2.602   1.222   4.697  0.0657  1.0973 -2.0098
 7998SOL     OW35452   1.047   3.176   3.536 -0.3354  0.3081  0.2204
 7998SOL    HW135453   0.966   3.145   3.494 -0.3638  3.6510 -2.2374
 7998SOL    HW235454   1.103   3.100   3.518 -0.2991  1.1924 -3.4255
 7999SOL     OW35455   3.619   3.993   0.102  0.2507  0.3493  0.6057
 7999SOL    HW135456   3.675   3.923   0.135  0.0423  0.2616  0.7689
 7999SOL    HW235457   3.617   4.039   0.186  0.5061  0.8440  0.3416
 8000SOL     OW35458   1.613   0.452   7.093  0.8490 -0.4797  0.3876
 8000SOL    HW135459   1.666   0.407   7.159 -0.0315 -0.8308  0.8483
 8000SOL    HW235460   1.647   0.417   7.010  2.0343 -4.2641  2.4767
 8001SOL     OW35461   1.756   0.096   2.044  0.5923  0.3183  0.4789
 8001SOL    HW135462   1.821   0.153   2.086  2.1132 -2.1342  1.4171
 8001SOL    HW235463   1.802   0.023   2.003 -1.8411  0.4597 -2.5233
 8002SOL     OW35464   3.728   0.170   5.485 -0.5313 -0.7498  0.5893
 8002SOL    HW135465   3.719   0.252   5.437  0.1232 -0.0174  1.7234
 8002SOL    HW235466   3.749   0.200   5.574 -1.6391 -1.9003  1.2326
 8003SOL     OW35467   3.918   0.551   4.993  0.3290 -0.2022  0.0095
 8003SOL    HW135468   3.859   0.604   4.939 -2.1910 -1.1692  1.8003
 8003SOL    HW235469   3.995   0.607   4.992  0.4587 -0.4111 -1.6412
 8004SOL     OW35470   2.400   3.681   9.134  0.2672 -0.5658 -0.0729
 8004SOL    HW135471   2.435   3.769   9.146 -1.0127  0.0217 -0.6313
 8004SOL    HW235472   2.307   3.704   9.139  0.9624  2.5335 -1.5091
 8005SOL     OW35473   2.695   2.783  16.651 -0.0549 -0.3092 -0.5380
 8005SOL    HW135474   2.717   2.763  16.560 -1.3002 -1.5145 -0.5593
 8005SOL    HW235475   2.673   2.876  16.637 -1.0354 -0.5165 -0.3758
 8006SOL     OW35476   2.174   0.702   1.179  0.2043  0.4035  0.0834
 8006SOL    HW135477   2.264   0.733   1.179 -0.3812  2.1236 -1.8290
 8006SOL    HW235478   2.159   0.707   1.084 -0.3386 -0.9067  0.1077
 8007SOL     OW35479   1.592   1.586   3.885  0.1392 -0.3168 -0.7312
 8007SOL    HW135480   1.682   1.612   3.865  0.2028 -0.4898 -0.6673
 8007SOL    HW235481   1.597   1.496   3.918 -2.1729  0.1998  1.0769
 8008SOL     OW35482   2.166   1.037   1.978  0.0567 -0.0915  0.4353
 8008SOL    HW135483   2.082   1.024   2.021  0.3025 -2.0107  0.3689
 8008SOL    HW235484   2.145   1.082   1.896 -0.4082 -1.4279 -0.1870
 8009SOL     OW35485   1.630   0.785   9.885  0.1191 -0.4037  0.5004
 8009SOL    HW135486   1.673   0.837   9.817 -0.9218 -2.5115 -1.7962
 8009SOL    HW235487   1.702   0.777   9.947  0.4071  0.3552  0.2535
 8010SOL     OW35488   0.696   0.799   6.165 -0.5243  0.2946  0.3900
 8010SOL    HW135489   0.737   0.719   6.197 -0.9812 -0.0480  0.1259
 8010SOL    HW235490   0.736   0.806   6.079  0.2671  1.2534  0.8396
 8011SOL     OW35491   1.600   1.436   6.400  0.4192  0.3018 -0.9154
 8011SOL    HW135492   1.514   1.396   6.387  0.0834  0.3988  1.0000
 8011SOL    HW235493   1.627   1.449   6.310 -0.9581 -0.4746 -1.4422
 8012SOL     OW35494   4.583   3.780   7.637  0.0347  0.4820 -0.0384
 8012SOL    HW135495   4.592   3.867   7.676 -0.4531  1.0563 -1.1845
 8012SOL    HW235496   4.669   3.747   7.664  0.7305  1.9083 -0.5032
 8013SOL     OW35497   2.027   3.180   8.779  0.0911 -0.3649 -0.1745
 8013SOL    HW135498   1.949   3.221   8.742 -1.5212 -2.5955  0.7296
 8013SOL    HW235499   2.002   3.160   8.870 -0.0903 -0.0584 -0.1564
 8014SOL     OW35500   3.238   0.617  12.094  0.1266  0.1435 -0.2988
 8014SOL    HW135501   3.212   0.554  12.027  1.0623 -0.3657 -0.1856
 8014SOL    HW235502   3.288   0.559  12.152  1.4788  1.0537 -0.5564
 8015SOL     OW35503   3.559   3.025   2.022 -0.4782  0.3326 -0.1376
 8015SOL    HW135504   3.533   2.948   2.072  1.7545  0.2865  0.9253
 8015SOL    HW235505   3.651   3.009   2.004  0.1967  3.7506  0.2720
 8016SOL     OW35506   2.268   1.374   1.127  0.2322  0.1792 -0.1155
 8016SOL    HW135507   2.244   1.310   1.194 -0.2243  0.9753  0.4862
 8016SOL    HW235508   2.273   1.315   1.052 -2.1171  0.4425 -0.4786
 8017SOL     OW35509   2.378   1.170   9.550 -0.4249  0.0373 -0.2211
 8017SOL    HW135510   2.438   1.102   9.519 -0.0356  1.5233 -2.7612
 8017SOL    HW235511   2.445   1.236   9.563 -0.8817  0.3778  0.3848
 8018SOL     OW35512   2.366   0.147   8.676  0.5411 -0.4714  0.1281
 8018SOL    HW135513   2.303   0.176   8.610 -0.1295 -0.5274  0.7437
 8018SOL    HW235514   2.336   0.200   8.750 -0.9718  3.1813 -3.1054
 8019SOL     OW35515   3.967   0.834   2.457  0.2803 -0.3457  0.0290
 8019SOL    HW135516   3.937   0.824   2.366  1.1160  1.5764 -0.4525
 8019SOL    HW235517   4.018   0.914   2.446  1.3176 -1.2556 -1.9539
 8020SOL     OW35518   4.684   2.351   3.175  0.3931 -0.2369 -0.5868
 8020SOL    HW135519   0.010   2.391   3.103  1.5417  0.3053  0.5180
 8020SOL    HW235520   4.611   2.411   3.189  1.8156  1.2468  0.4511
 8021SOL     OW35521   0.430   4.097   8.429 -0.0379 -0.2435 -0.1408
 8021SOL    HW135522   0.352   4.091   8.374  0.6864 -1.0826 -1.0864
 8021SOL    HW235523   0.415   4.012   8.470  0.8077 -1.0266 -1.4341
 8022SOL     OW35524   4.201   3.405   5.961  0.0859 -0.0163  0.1784
 8022SOL    HW135525   4.111   3.405   5.928  0.3495  2.2498 -0.5481
 8022SOL    HW235526   4.192   3.365   6.048  2.7194 -0.3961  0.2672
 8023SOL     OW35527   0.181   4.480   8.893 -0.2072 -0.4170 -0.3924
 8023SOL    HW135528   0.226   4.563   8.909  0.9437 -1.1545  0.2197
 8023SOL    HW235529   0.157   4.465   8.985 -0.0941  1.9579  0.0282
 8024SOL     OW35530   3.959   2.989   0.587  0.0737  0.1932  0.2581
 8024SOL    HW135531   3.931   3.074   0.621 -0.9156  0.1554 -0.4581
 8024SOL    HW235532   4.025   2.966   0.652 -0.0468  1.2848  0.7613
 8025SOL     OW35533   2.837   3.906  10.720 -0.0021 -0.0816 -0.1013
 8025SOL    HW135534   2.923   3.870  10.700 -0.2679  0.4622 -2.2016
 8025SOL    HW235535   2.821   3.954  10.639 -0.1631 -0.3884 -0.2499
 8026SOL     OW35536   1.457   4.295  11.590  0.3582 -0.6289 -0.4092
 8026SOL    HW135537   1.514   4.306  11.514 -1.1296 -0.5946 -1.5196
 8026SOL    HW235538   1.515   4.323  11.661 -1.1071 -1.8157  1.2774
 8027SOL     OW35539   1.484   0.495   8.334  0.1639  0.6236  1.1012
 8027SOL    HW135540   1.571   0.455   8.340  0.5413  1.3503  0.4599
 8027SOL    HW235541   1.455   0.472   8.423  0.2922  1.0888  1.2617
 8028SOL     OW35542   0.449   1.850  13.636  0.3647  0.7901  0.0448
 8028SOL    HW135543   0.463   1.894  13.720 -0.4773  1.4938 -0.1849
 8028SOL    HW235544   0.428   1.921  13.577  1.0450  0.3421 -0.7327
 8029SOL     OW35545   2.643   2.058  12.855 -0.1506  0.3773  0.6446
 8029SOL    HW135546   2.608   1.976  12.891  2.5948 -1.1973 -0.2932
 8029SOL    HW235547   2.732   2.027  12.868 -0.5183 -1.4062 -0.9963
 8030SOL     OW35548   2.112   0.312   9.938  0.0255  0.4392 -0.3420
 8030SOL    HW135549   2.124   0.394   9.987  0.3787  1.0116 -1.3921
 8030SOL    HW235550   2.069   0.337   9.857 -1.1231  0.3894  0.2548
 8031SOL     OW35551   2.568   2.696  13.513 -0.0176 -0.2001 -0.5774
 8031SOL    HW135552   2.659   2.702  13.542 -1.1797 -2.3138  3.4267
 8031SOL    HW235553   2.575   2.785  13.476  0.3950  0.8990  2.1516
 8032SOL     OW35554   3.393   0.487  15.918  0.5478 -0.2237 -0.7626
 8032SOL    HW135555   3.363   0.440  15.840 -1.6895 -0.3025  0.1525
 8032SOL    HW235556   3.367   0.431  15.990  3.2577 -1.3134 -0.6303
 8033SOL     OW35557   3.624   4.562   6.943  0.4250  0.0735  0.3340
 8033SOL    HW135558   3.693   4.530   7.001 -1.1603 -0.0665  2.1377
 8033SOL    HW235559   3.550   4.567   7.003  0.8138  1.1066  0.7296
 8034SOL     OW35560   1.054   2.206   3.754 -0.3242 -0.8468  0.0735
 8034SOL    HW135561   0.966   2.178   3.730 -0.8550  0.3743  0.6014
 8034SOL    HW235562   1.056   2.197   3.850  1.3579  3.5158  0.4169
 8035SOL     OW35563   4.627   3.032   1.150 -0.3977  0.4435 -0.3437
 8035SOL    HW135564   4.532   3.019   1.141 -0.3430  0.3510 -0.7818
 8035SOL    HW235565   4.631   3.127   1.155  1.0518  0.4730 -1.8883
 8036SOL     OW35566   0.218   1.853  11.995 -0.4599 -0.0212  0.3647
 8036SOL    HW135567   0.198   1.914  11.923 -0.1163 -1.9626 -1.3608
 8036SOL    HW235568   0.145   1.863  12.056 -1.8189  1.4060 -1.4343
 8037SOL     OW35569   3.862   2.186   4.927 -0.0607 -0.6528  0.3586
 8037SOL    HW135570   3.856   2.277   4.898 -0.4944 -0.6060  0.5966
 8037SOL    HW235571   3.771   2.157   4.916  0.4608 -1.8354 -0.8327
 8038SOL     OW35572   1.137   3.543   7.887 -0.4806  0.0196  0.2913
 8038SOL    HW135573   1.045   3.521   7.869 -0.1520  0.8969 -2.3494
 8038SOL    HW235574   1.144   3.530   7.982  1.8768 -2.1613 -0.1840
 8039SOL     OW35575   1.136   1.385   0.734  0.3189 -0.4275 -0.3726
 8039SOL    HW135576   1.100   1.336   0.807  1.1228  0.0525  0.3578
 8039SOL    HW235577   1.100   1.470   0.760  0.3548 -0.3153 -0.6859
 8040SOL     OW35578   2.788   0.102   3.000  0.0886  0.0318 -0.4274
 8040SOL    HW135579   2.769   0.196   2.998  0.6611  0.1405 -0.5500
 8040SOL    HW235580   2.860   0.091   3.062 -1.9469  0.4283  2.0084
 8041SOL     OW35581   0.890   4.357  13.475  0.2088  0.1518  0.4486
 8041SOL    HW135582   0.869   4.294  13.544  0.7754  0.2937  0.7491
 8041SOL    HW235583   0.947   4.305  13.417 -2.5658 -3.0377  0.6030
 8042SOL     OW35584   2.868   2.626   3.095  0.1072  0.2731  0.0458
 8042SOL    HW135585   2.824   2.633   3.010 -0.9638  0.6419  0.6322
 8042SOL    HW235586   2.903   2.715   3.099  0.7882 -0.0339  1.1372
 8043SOL     OW35587   2.568   2.593   8.518 -0.1132  0.5510 -0.2315
 8043SOL    HW135588   2.532   2.634   8.596  1.1151  0.3029  0.4616
 8043SOL    HW235589   2.487   2.577   8.469  0.1367  1.6768 -1.0208
 8044SOL     OW35590   4.538   4.627   2.668  0.2150  0.1525 -0.1859
 8044SOL    HW135591   4.484   4.549   2.651  1.7597 -1.0344  0.3769
 8044SOL    HW235592   4.524   4.675   2.586  0.6076 -0.6648 -0.7297
 8045SOL     OW35593   1.367   2.433   6.452 -0.2223  0.9303 -0.2506
 8045SOL    HW135594   1.437   2.428   6.517  0.1591 -0.0581 -0.7402
 8045SOL    HW235595   1.352   2.342   6.426 -2.9794  1.8202 -1.7234
 8046SOL     OW35596   0.160   4.059   7.916 -0.4216 -0.2981 -0.0188
 8046SOL    HW135597   0.090   4.009   7.958 -1.9749  0.7674 -1.3263
 8046SOL    HW235598   0.218   3.989   7.887  0.0501  0.0737  0.0063
 8047SOL     OW35599   4.332   4.112   7.334  0.2979 -0.1973  0.2740
 8047SOL    HW135600   4.310   4.195   7.291 -2.8747 -1.5977 -0.8401
 8047SOL    HW235601   4.265   4.115   7.403  1.0296 -0.6401  1.0056
 8048SOL     OW35602   1.297   0.514   6.226 -0.2263 -0.0750 -0.1863
 8048SOL    HW135603   1.269   0.501   6.317 -0.2755 -0.1173 -0.2076
 8048SOL    HW235604   1.392   0.520   6.228 -0.2119 -0.5352  0.5228
 8049SOL     OW35605   1.815   2.155   4.650 -0.4922  0.0076  0.2766
 8049SOL    HW135606   1.775   2.096   4.586 -0.9271 -1.0796  1.5367
 8049SOL    HW235607   1.890   2.183   4.598  0.6257 -2.5197  0.5136
 8050SOL     OW35608   0.159   3.156   5.554 -0.8106 -0.0313 -0.4593
 8050SOL    HW135609   0.161   3.187   5.463  2.2803 -1.2784 -0.8137
 8050SOL    HW235610   0.120   3.237   5.584 -1.0652  0.5598 -2.3456
 8051SOL     OW35611   1.687   0.743   6.896  0.1762  0.8366 -0.7335
 8051SOL    HW135612   1.747   0.686   6.848 -1.2521 -2.0353  0.8158
 8051SOL    HW235613   1.607   0.697   6.871  0.4572 -0.0628  0.0068
 8052SOL     OW35614   1.170   4.372   3.808  0.8641 -0.2597 -0.0610
 8052SOL    HW135615   1.258   4.404   3.789  0.9369 -1.5125 -1.7268
 8052SOL    HW235616   1.127   4.399   3.727  0.5696 -0.8484 -0.0986
 8053SOL     OW35617   3.856   3.801   7.397 -0.1433 -0.1592  0.1306
 8053SOL    HW135618   3.901   3.809   7.312 -1.2884  0.0305 -0.4590
 8053SOL    HW235619   3.802   3.879   7.398  0.6083  0.3350  1.1829
 8054SOL     OW35620   4.025   1.844   8.967 -0.0093  0.2542 -0.1131
 8054SOL    HW135621   4.117   1.820   8.955  0.0361  0.6247 -0.5293
 8054SOL    HW235622   3.989   1.764   9.006  0.4463 -0.2665 -0.7676
 8055SOL     OW35623   2.781   0.761   0.887 -0.2340 -0.1384  0.3420
 8055SOL    HW135624   2.837   0.696   0.930  1.3058  0.3147 -0.9782
 8055SOL    HW235625   2.694   0.750   0.924 -1.2414  0.8047 -1.7801
 8056SOL     OW35626   3.993   2.469   8.482 -0.4095 -0.5974 -0.4742
 8056SOL    HW135627   4.006   2.405   8.553  1.0949  2.4988  2.0447
 8056SOL    HW235628   3.991   2.554   8.526  0.4606 -0.9995  0.3349
 8057SOL     OW35629   2.988   0.820   5.879 -0.4093  0.3289 -0.4727
 8057SOL    HW135630   3.064   0.762   5.873  0.8514  1.7093  1.7787
 8057SOL    HW235631   3.001   0.850   5.970  1.1545  0.4756 -0.7321
 8058SOL     OW35632   4.668   4.147  16.820  0.6520  0.0254 -0.2369
 8058SOL    HW135633   4.634   4.193  16.743  0.6786  1.3609  0.5439
 8058SOL    HW235634   0.024   4.106  16.790 -0.3493 -2.2560  0.2273
 8059SOL     OW35635   0.604   1.794   4.821 -0.1633 -0.1335  0.0362
 8059SOL    HW135636   0.626   1.840   4.902 -1.5669 -0.6800  0.7229
 8059SOL    HW235637   0.647   1.850   4.756 -3.2164  0.1505 -1.7239
 8060SOL     OW35638   4.377   3.727   8.172 -0.3854 -0.2316  0.6806
 8060SOL    HW135639   4.310   3.663   8.146 -1.4545  1.0061  0.3942
 8060SOL    HW235640   4.369   3.803   8.115  1.3425  0.0670  0.8358
 8061SOL     OW35641   0.978   2.514   8.377 -0.3389  0.5591  0.6756
 8061SOL    HW135642   0.931   2.442   8.418  0.8171 -0.3044  0.4667
 8061SOL    HW235643   0.959   2.587   8.437 -0.4759  0.4644  0.7484
 8062SOL     OW35644   2.425   1.050  10.085 -0.1620  0.0389  0.4730
 8062SOL    HW135645   2.457   0.967  10.120  2.1289  1.3990  1.5836
 8062SOL    HW235646   2.482   1.119  10.116  0.2593 -0.3276  0.5100
 8063SOL     OW35647   0.808   0.001  10.014  0.0128 -0.3426  0.2740
 8063SOL    HW135648   0.750   0.045  10.076  2.2837  1.7039  0.9432
 8063SOL    HW235649   0.774   4.636  10.012 -1.5322  0.2582  0.1760
 8064SOL     OW35650   2.637   0.930   3.961  0.5929 -0.8588  0.5429
 8064SOL    HW135651   2.594   0.851   3.927 -3.4954  1.5136  0.2232
 8064SOL    HW235652   2.639   0.913   4.055  3.0353 -1.1179  0.4482
 8065SOL     OW35653   3.400   2.798   2.132 -0.1419  0.1385  0.5494
 8065SOL    HW135654   3.437   2.719   2.172  0.2475  2.2751  4.3665
 8065SOL    HW235655   3.308   2.776   2.148 -0.7919  2.2314 -0.2436
 8066SOL     OW35656   2.474   0.641   8.179 -0.2402 -0.1825  0.4340
 8066SOL    HW135657   2.383   0.627   8.204 -0.5271  2.0942  0.6272
 8066SOL    HW235658   2.514   0.588   8.249  0.5256  1.0792  0.9473
 8067SOL     OW35659   3.523   3.439   7.264  0.1559 -0.4370 -0.0837
 8067SOL    HW135660   3.577   3.405   7.193 -0.7019 -2.6078  0.2941
 8067SOL    HW235661   3.591   3.494   7.302  1.5574 -2.2311 -0.0202
 8068SOL     OW35662   3.248   2.592   4.828 -0.3546  0.2767 -0.3005
 8068SOL    HW135663   3.183   2.619   4.893  0.9245  2.6484  0.0202
 8068SOL    HW235664   3.326   2.586   4.884 -0.6893 -1.3736 -0.0267
 8069SOL     OW35665   4.405   2.245  11.231  0.0329 -0.2300 -0.1184
 8069SOL    HW135666   4.472   2.177  11.236  1.4638  1.1501 -0.4878
 8069SOL    HW235667   4.371   2.233  11.320 -0.0751  0.7418 -0.0203
 8070SOL     OW35668   0.971   1.803   5.034  0.1437  0.4798  0.1200
 8070SOL    HW135669   1.021   1.800   4.953 -1.0003 -2.3149 -0.5203
 8070SOL    HW235670   1.030   1.760   5.096  0.8600  1.8342  0.3769
 8071SOL     OW35671   3.152   3.531   3.498  0.0747 -0.6597  0.0842
 8071SOL    HW135672   3.125   3.535   3.407  0.7165 -0.4151 -0.0966
 8071SOL    HW235673   3.120   3.614   3.533 -2.4738 -2.1523  1.3141
 8072SOL     OW35674   1.843   0.038   5.897  1.1837  0.0272  0.1301
 8072SOL    HW135675   1.788   4.712   5.837 -0.0636 -1.0178  2.1602
 8072SOL    HW235676   1.874   4.703   5.965  2.8173  0.2756 -0.4056
 8073SOL     OW35677   2.825   0.276   6.579 -0.6631 -0.3654  0.8420
 8073SOL    HW135678   2.892   0.207   6.585  1.8750  1.9908 -0.2124
 8073SOL    HW235679   2.793   0.281   6.669  1.5100 -0.1165  1.6051
 8074SOL     OW35680   0.202   0.636  16.504 -0.4454 -0.2894 -0.4273
 8074SOL    HW135681   0.123   0.599  16.543 -0.4504  0.0615 -0.1083
 8074SOL    HW235682   0.181   0.602  16.417 -0.4579  0.2493 -0.6357
 8075SOL     OW35683   1.290   3.668  17.249  0.1256  0.6627  0.4665
 8075SOL    HW135684   1.293   3.666  17.345 -0.5822 -1.2868  0.4357
 8075SOL    HW235685   1.382   3.684  17.227 -0.7397  1.6964 -2.3540
 8076SOL     OW35686   0.663   1.071  15.456 -0.4123 -0.1906  0.2643
 8076SOL    HW135687   0.713   1.044  15.380  2.2205  2.2141  1.1314
 8076SOL    HW235688   0.615   1.143  15.415 -0.0669 -1.1213 -1.7693
 8077SOL     OW35689   2.248   4.027  11.427  0.4237 -0.5883  0.3333
 8077SOL    HW135690   2.187   3.958  11.403  1.5376 -1.2743 -0.5163
 8077SOL    HW235691   2.236   4.099  11.364 -2.9171 -2.2182 -0.8749
 8078SOL     OW35692   1.682   0.856  15.525  0.5081 -0.5393 -0.6582
 8078SOL    HW135693   1.757   0.902  15.564  1.4294 -1.2282 -1.6087
 8078SOL    HW235694   1.700   0.768  15.559  3.4557 -0.3921 -1.8282
 8079SOL     OW35695   3.466   4.546  17.192  0.2104  1.0392  0.6617
 8079SOL    HW135696   3.486   4.609  17.123  0.5190  1.4806  1.1467
 8079SOL    HW235697   3.550   4.547  17.239  0.8425 -1.6129 -0.4145
 8080SOL     OW35698   1.421   0.773  15.457 -0.1287 -0.0372  0.3332
 8080SOL    HW135699   1.512   0.794  15.477 -0.3003  1.3876 -0.3717
 8080SOL    HW235700   1.432   0.686  15.418  1.1061  1.3682 -2.4848
 8081SOL     OW35701   3.324   0.744   2.801  0.0951  0.3510  0.3324
 8081SOL    HW135702   3.385   0.746   2.875 -2.8436 -0.7920  2.7710
 8081SOL    HW235703   3.359   0.819   2.753  1.5835  0.1357  1.0831
 8082SOL     OW35704   1.770   4.242   4.249  0.3568  0.0434  0.5405
 8082SOL    HW135705   1.739   4.158   4.283 -0.2639  0.4984  1.0948
 8082SOL    HW235706   1.863   4.240   4.273  0.4160  0.0133  0.3069
 8083SOL     OW35707   0.598   1.284   5.029 -0.4170  0.4395  0.4075
 8083SOL    HW135708   0.549   1.245   4.956  2.0479 -2.2838  0.1910
 8083SOL    HW235709   0.600   1.375   5.001  0.8788  0.4837  0.6400
 8084SOL     OW35710   1.493   4.490   6.427  1.0401 -0.0484 -0.2891
 8084SOL    HW135711   1.427   4.559   6.427  2.0446  0.9120 -0.9244
 8084SOL    HW235712   1.551   4.512   6.500 -0.1930  1.5856  0.2038
 8085SOL     OW35713   2.863   3.465   6.602  0.1029 -0.3990  0.2536
 8085SOL    HW135714   2.831   3.487   6.514 -2.8414  0.7428  1.6130
 8085SOL    HW235715   2.820   3.532   6.655 -1.9623  0.5033 -2.5385
 8086SOL     OW35716   3.274   0.332   1.174  0.8576 -0.6655 -0.1515
 8086SOL    HW135717   3.232   0.321   1.259  0.9144  1.2661  0.1400
 8086SOL    HW235718   3.234   0.266   1.117  2.8991 -0.1023 -2.2616
 8087SOL     OW35719   2.786   3.657   6.381  0.0650 -0.1981 -0.2181
 8087SOL    HW135720   2.811   3.707   6.459  0.7934  0.4537 -0.8562
 8087SOL    HW235721   2.692   3.671   6.373 -0.2620 -1.6584  1.1138
 8088SOL     OW35722   2.559   2.011   3.506 -0.4714 -0.0489  0.3262
 8088SOL    HW135723   2.475   2.056   3.515 -0.9621 -0.8142 -0.4500
 8088SOL    HW235724   2.608   1.993   3.586  2.6784 -0.1067 -1.6360
 8089SOL     OW35725   1.573   1.127   3.388  0.2018 -0.5880 -0.0409
 8089SOL    HW135726   1.569   1.222   3.374 -0.8967 -1.1041 -3.3447
 8089SOL    HW235727   1.650   1.120   3.331  0.3191  2.6181 -0.3169
 8090SOL     OW35728   2.059   3.087   2.746 -0.1386 -0.1878 -0.0874
 8090SOL    HW135729   2.061   3.038   2.828 -0.1148  1.2071  0.7489
 8090SOL    HW235730   1.966   3.111   2.740 -0.0894 -0.3065 -1.3619
 8091SOL     OW35731   1.906   2.020  13.223  0.2204  0.0079 -0.6645
 8091SOL    HW135732   1.860   2.064  13.151 -3.0568  0.6443  1.7834
 8091SOL    HW235733   1.856   1.938  13.213 -2.0906  1.5623 -1.9309
 8092SOL     OW35734   0.529   3.091   1.884  0.1788  0.1049 -0.4555
 8092SOL    HW135735   0.450   3.125   1.841 -0.1209  1.3899  1.1151
 8092SOL    HW235736   0.600   3.103   1.822  0.1358 -0.5644 -0.6344
 8093SOL     OW35737   0.775   1.126  12.130  0.5278  0.6828  0.0861
 8093SOL    HW135738   0.720   1.203  12.145  3.1063  3.0839 -2.8958
 8093SOL    HW235739   0.705   1.061  12.138  0.8492  0.0836 -2.0646
 8094SOL     OW35740   1.338   4.627   7.024  0.6210  0.4850  0.4456
 8094SOL    HW135741   1.422   4.665   7.050  1.2228 -2.3686  2.6909
 8094SOL    HW235742   1.357   4.601   6.934  1.6059 -0.0177  0.8002
 8095SOL     OW35743   1.614   0.301   3.841 -0.1707  0.1578 -0.8066
 8095SOL    HW135744   1.708   0.317   3.849  0.2473 -1.3015 -2.7648
 8095SOL    HW235745   1.578   0.355   3.911  0.1439 -0.0620 -0.4708
 8096SOL     OW35746   2.664   0.225   3.419 -0.0562  0.0153 -0.1535
 8096SOL    HW135747   2.692   0.135   3.401 -2.6163 -0.7168 -0.5012
 8096SOL    HW235748   2.741   0.266   3.457 -0.3156  0.4998 -0.1458
 8097SOL     OW35749   1.287   0.161  10.779  0.4640 -0.7388 -0.1812
 8097SOL    HW135750   1.226   0.218  10.824  1.4944 -0.3978  0.7749
 8097SOL    HW235751   1.345   0.231  10.749  1.1893 -1.2773 -0.0562
 8098SOL     OW35752   4.083   0.458   2.994  0.0029 -0.0991 -0.3589
 8098SOL    HW135753   4.109   0.460   2.902  2.6838  0.1345  0.4099
 8098SOL    HW235754   4.137   0.530   3.026 -0.8450  0.0632  0.7226
 8099SOL     OW35755   4.218   2.655   5.409 -0.0712  0.2890 -0.2217
 8099SOL    HW135756   4.277   2.729   5.427 -1.8715  1.7571 -0.3962
 8099SOL    HW235757   4.142   2.705   5.379 -0.7975  0.6873  2.3201
 8100SOL     OW35758   0.875   0.155  14.162  0.1655  0.3526  0.1517
 8100SOL    HW135759   0.846   0.099  14.233  2.8175  0.3995  1.2938
 8100SOL    HW235760   0.801   0.159  14.101 -1.2894  1.5626  2.0065
 8101SOL     OW35761   0.227   2.120   6.726  0.2296  0.5415 -0.7756
 8101SOL    HW135762   0.171   2.161   6.791  1.3754  0.4530  0.2503
 8101SOL    HW235763   0.165   2.050   6.704 -0.4442  1.0884 -0.6165
 8102SOL     OW35764   0.278   3.933   7.609 -0.3849 -0.2451  0.2465
 8102SOL    HW135765   0.212   3.987   7.650 -0.9496 -1.9014  1.5242
 8102SOL    HW235766   0.270   3.958   7.517  1.6541 -0.0189  0.1107
 8103SOL     OW35767   2.576   3.450   8.451 -0.8189  0.1354  1.1934
 8103SOL    HW135768   2.492   3.495   8.461 -0.6917  0.4801  0.6833
 8103SOL    HW235769   2.616   3.466   8.536  0.8172 -1.7860  0.7979
 8104SOL     OW35770   0.116   3.558  17.607  0.1672  0.1579 -0.2596
 8104SOL    HW135771   0.086   3.514  17.687  0.3343 -0.4328 -0.5197
 8104SOL    HW235772   0.201   3.587  17.640  0.3916  0.2558 -0.9294
 8105SOL     OW35773   0.794   0.534   8.744 -0.1439 -0.5830  0.3510
 8105SOL    HW135774   0.879   0.511   8.782  1.6187  1.6618 -2.2161
 8105SOL    HW235775   0.791   0.629   8.744  2.0612 -0.5088  2.3298
 8106SOL     OW35776   1.588   2.963   7.683 -0.1074 -0.3070  0.3294
 8106SOL    HW135777   1.637   2.904   7.626  1.7007  3.1747 -1.7307
 8106SOL    HW235778   1.523   3.001   7.624  2.0876 -0.0546 -1.9247
 8107SOL     OW35779   2.346   2.756  15.335  0.1297 -0.3686  0.0642
 8107SOL    HW135780   2.374   2.676  15.378  1.6903 -0.4101 -1.0382
 8107SOL    HW235781   2.295   2.711  15.267  0.0330 -0.6004  0.2925
 8108SOL     OW35782   4.704   4.557   0.236 -0.5788  0.2895  0.6920
 8108SOL    HW135783   4.657   4.629   0.279  1.2869  1.0308  1.4837
 8108SOL    HW235784   0.071   4.567   0.264 -0.0493  0.4846 -1.1061
 8109SOL     OW35785   3.834   3.435  12.968  0.1257 -0.0434 -0.6946
 8109SOL    HW135786   3.914   3.430  12.916  0.5218  2.2259 -0.2887
 8109SOL    HW235787   3.829   3.528  12.987 -4.3380  0.5077 -4.7755
 8110SOL     OW35788   1.418   3.891   4.197 -0.2698 -0.6294 -0.1627
 8110SOL    HW135789   1.480   3.919   4.265 -0.1977 -0.0914 -0.4484
 8110SOL    HW235790   1.470   3.901   4.117  0.7405 -1.5409  0.3747
 8111SOL     OW35791   0.612   0.081  11.731 -0.4521  0.2220 -0.5178
 8111SOL    HW135792   0.656   0.000  11.702  0.7238  0.3990  0.7783
 8111SOL    HW235793   0.681   0.145  11.711  1.4835 -1.5480  0.4707
 8112SOL     OW35794   1.826   4.544   1.915  0.4208  0.4215 -0.1466
 8112SOL    HW135795   1.828   4.457   1.877  2.4047  1.1259 -1.6783
 8112SOL    HW235796   1.901   4.545   1.974 -0.7742 -2.3343  1.4065
 8113SOL     OW35797   2.852   0.915   7.845  0.1490 -0.1064  0.5643
 8113SOL    HW135798   2.849   0.982   7.776  0.9007 -0.2774  0.3605
 8113SOL    HW235799   2.834   0.969   7.922 -0.8376 -0.7223  0.7636
 8114SOL     OW35800   3.981   3.711   5.242  0.6244 -0.2113  0.2214
 8114SOL    HW135801   3.942   3.795   5.220 -0.1246 -0.4490  0.6413
 8114SOL    HW235802   4.046   3.709   5.172 -1.3425 -1.4702 -1.5517
 8115SOL     OW35803   2.716   3.255   9.416  0.4049 -0.1896  0.4192
 8115SOL    HW135804   2.651   3.214   9.359 -0.8231  2.0622  0.1963
 8115SOL    HW235805   2.691   3.348   9.415 -0.9677 -0.5612 -0.7220
 8116SOL     OW35806   2.734   1.839   3.957  0.4537  0.1694  0.2269
 8116SOL    HW135807   2.707   1.762   4.007 -2.0988  0.1582 -1.1546
 8116SOL    HW235808   2.771   1.790   3.883 -0.5645  2.2027 -1.6284
 8117SOL     OW35809   1.666   2.590   5.111 -0.4701  0.3885  0.2740
 8117SOL    HW135810   1.632   2.674   5.141  0.1002  0.4708  0.6875
 8117SOL    HW235811   1.582   2.545   5.112  0.4765 -1.4452 -1.6042
 8118SOL     OW35812   4.593   0.214  16.606  0.1557 -0.0009  0.1569
 8118SOL    HW135813   4.654   0.288  16.611 -1.6254  1.3711  1.7562
 8118SOL    HW235814   4.563   0.204  16.697 -0.7644  0.9219 -0.0371
 8119SOL     OW35815   2.154   3.223   4.091  0.4482  0.0220  0.5190
 8119SOL    HW135816   2.156   3.216   4.187  2.1835  0.0646  0.4872
 8119SOL    HW235817   2.142   3.129   4.075 -1.2216  0.4854 -0.9337
 8120SOL     OW35818   2.725   2.572  11.609 -0.4375  0.4763 -0.1951
 8120SOL    HW135819   2.714   2.666  11.622  0.9962  0.6787 -0.4513
 8120SOL    HW235820   2.820   2.560  11.603 -0.3952 -1.0834  4.0010
 8121SOL     OW35821   1.341   2.308  13.462 -0.2423 -0.1490 -0.1524
 8121SOL    HW135822   1.415   2.318  13.402 -0.1444  0.1695  0.0229
 8121SOL    HW235823   1.282   2.378  13.433  1.2497  0.8039 -0.8425
 8122SOL     OW35824   3.275   0.891  15.684  0.4993  0.1195  0.0892
 8122SOL    HW135825   3.343   0.856  15.626 -0.5646 -3.1855  0.8294
 8122SOL    HW235826   3.303   0.859  15.770  1.3164 -0.2611 -0.3089
 8123SOL     OW35827   2.889   2.080   4.072 -0.3721 -0.0525 -0.0375
 8123SOL    HW135828   2.846   2.071   4.158 -0.2599  1.8480  0.2254
 8123SOL    HW235829   2.834   2.017   4.026  0.7500 -1.4873  0.5821
 8124SOL     OW35830   2.497   2.176  11.594  0.3274 -0.2073 -0.5060
 8124SOL    HW135831   2.565   2.226  11.640  0.8165 -0.2902 -1.1411
 8124SOL    HW235832   2.418   2.212  11.634  1.1019 -0.1475  0.9768
 8125SOL     OW35833   0.382   4.595  11.059  0.4423 -0.0006 -0.4117
 8125SOL    HW135834   0.425   4.612  11.142 -1.0779 -0.4224  0.4626
 8125SOL    HW235835   0.396   4.500  11.051  0.2902 -0.0350 -0.2714
 8126SOL     OW35836   2.587   3.906  11.499  0.6337  0.5114  0.6858
 8126SOL    HW135837   2.594   3.818  11.462  0.6217  1.0913 -0.7290
 8126SOL    HW235838   2.679   3.931  11.499  0.6406  0.5056 -1.9532
 8127SOL     OW35839   1.964   4.153   7.869 -0.3393  0.4422 -0.6947
 8127SOL    HW135840   1.930   4.077   7.917  1.9290  0.2311  0.5867
 8127SOL    HW235841   2.056   4.153   7.896 -0.3349 -1.8177 -0.6740
 8128SOL     OW35842   4.336   2.170   4.487  0.2615 -0.8985  0.4306
 8128SOL    HW135843   4.324   2.223   4.566  0.2375 -0.7570  0.3321
 8128SOL    HW235844   4.247   2.162   4.453  0.3160 -0.6036  0.2226
 8129SOL     OW35845   0.085   3.238  17.534  0.5959 -0.0679 -0.1945
 8129SOL    HW135846   0.181   3.239  17.530  0.6232  0.3796  0.4534
 8129SOL    HW235847   0.063   3.301  17.466 -0.9041  0.3007  0.6304
 8130SOL     OW35848   1.992   2.945   2.988  0.8734 -0.3835  0.1071
 8130SOL    HW135849   1.990   2.889   3.066  0.2787 -1.5940 -0.7755
 8130SOL    HW235850   2.054   3.012   3.016 -0.2720  1.5869 -2.1561
 8131SOL     OW35851   0.009   1.211   4.763 -0.4153 -0.3297  0.1983
 8131SOL    HW135852   4.680   1.213   4.683 -1.5389 -0.4606  0.9434
 8131SOL    HW235853   0.099   1.234   4.739 -0.0264  0.5342  2.5714
 8132SOL     OW35854   0.658   1.979   9.414 -0.5539 -0.1035  0.1522
 8132SOL    HW135855   0.624   1.974   9.324 -0.5495 -0.4792  0.1695
 8132SOL    HW235856   0.581   1.944   9.460 -1.0626 -1.0943 -1.4356
 8133SOL     OW35857   1.868   2.827   3.225 -0.4027  0.1451  0.6491
 8133SOL    HW135858   1.783   2.784   3.215 -0.1931  0.1796 -1.1339
 8133SOL    HW235859   1.894   2.771   3.298  0.2218  0.2737  0.5243
 8134SOL     OW35860   3.902   3.645  17.361  0.4314  0.1298  0.1357
 8134SOL    HW135861   3.836   3.627  17.428 -0.3184  1.4706 -0.2410
 8134SOL    HW235862   3.855   3.702  17.300  1.0882  1.9996  1.3803
 8135SOL     OW35863   3.858   4.281   3.962  0.2290  0.5289  0.4950
 8135SOL    HW135864   3.909   4.353   3.999  0.5541  0.8544 -0.5949
 8135SOL    HW235865   3.927   4.225   3.925 -1.1710 -1.4169  0.8424
 8136SOL     OW35866   3.355   2.089   5.904 -0.4088 -0.1946  0.0147
 8136SOL    HW135867   3.260   2.104   5.902 -0.1496  1.3597  0.1684
 8136SOL    HW235868   3.376   2.169   5.952  1.3552 -0.2831 -0.6472
 8137SOL     OW35869   0.270   3.910  16.956 -0.1433 -0.0299 -0.2827
 8137SOL    HW135870   0.275   3.863  16.872  0.6894  0.3977 -0.4660
 8137SOL    HW235871   0.266   3.998  16.918  0.2403  0.1783  0.1678
 8138SOL     OW35872   0.190   3.334  16.988  0.2348  0.0635 -0.1929
 8138SOL    HW135873   0.098   3.360  16.982  0.0242 -0.6101  0.0949
 8138SOL    HW235874   0.175   3.254  16.938 -2.0194  0.3103  0.0935
 8139SOL     OW35875   2.747   2.020   8.510  0.2489 -0.3513 -0.1077
 8139SOL    HW135876   2.748   1.950   8.576  0.4526 -1.0407 -0.8357
 8139SOL    HW235877   2.771   2.095   8.564 -1.1153 -0.4482  0.6337
 8140SOL     OW35878   0.620   2.393   7.533 -0.1356  0.4768  0.0078
 8140SOL    HW135879   0.610   2.455   7.461 -1.2384 -0.8317 -0.9673
 8140SOL    HW235880   0.530   2.378   7.563  0.3696 -1.7649  0.4499
 8141SOL     OW35881   2.775   0.624   0.121 -0.4278  0.4348 -0.1636
 8141SOL    HW135882   2.853   0.645   0.069 -0.5877 -0.2079 -0.6764
 8141SOL    HW235883   2.807   0.553   0.176  0.0992  1.4722  0.8550
 8142SOL     OW35884   1.283   4.040   0.830 -0.7066  0.1287 -0.2776
 8142SOL    HW135885   1.189   4.035   0.813 -1.0925 -0.0325  1.8832
 8142SOL    HW235886   1.286   4.030   0.925 -0.9667  1.0007 -0.1783
 8143SOL     OW35887   1.461   2.820   6.512  0.2924  0.0686  0.5055
 8143SOL    HW135888   1.521   2.887   6.480 -3.3123  3.4816  0.8579
 8143SOL    HW235889   1.515   2.779   6.579  0.0803 -0.0527  0.6032
 8144SOL     OW35890   2.516   4.475  15.949 -0.3695 -0.3059 -0.3580
 8144SOL    HW135891   2.580   4.421  15.996  2.2609  1.0881 -2.3949
 8144SOL    HW235892   2.435   4.424  15.951 -1.3305  1.2887  1.5924
 8145SOL     OW35893   3.428   4.050  17.615 -0.3417  1.0262  0.2609
 8145SOL    HW135894   3.488   4.015  17.680 -0.2822  1.8534  0.6542
 8145SOL    HW235895   3.485   4.091  17.549  0.5999 -1.6108 -0.5818
 8146SOL     OW35896   4.385   1.899  11.147  0.3299  0.2413  0.7138
 8146SOL    HW135897   4.304   1.937  11.112  1.5170  2.7759  0.7354
 8146SOL    HW235898   4.347   1.871  11.231 -0.2456 -1.1997 -0.0159
 8147SOL     OW35899   2.942   2.224   1.210 -0.8593 -1.5010 -0.0693
 8147SOL    HW135900   3.025   2.235   1.256 -1.7348  2.8071  0.4516
 8147SOL    HW235901   2.953   2.289   1.141  0.9108  0.7530  2.3097
 8148SOL     OW35902   4.529   0.177   3.536 -0.2353 -0.0169  0.2770
 8148SOL    HW135903   4.502   0.163   3.446 -1.0638  1.3739  0.3074
 8148SOL    HW235904   4.458   0.230   3.572 -0.4570  0.1420 -0.3958
 8149SOL     OW35905   2.258   3.453  10.274  0.3137  0.1182 -0.6059
 8149SOL    HW135906   2.323   3.467  10.205  0.5109  1.1737 -0.2124
 8149SOL    HW235907   2.314   3.454  10.352 -1.6211  1.9757  0.7335
 8150SOL     OW35908   2.467   2.242   5.430 -0.0093 -0.2771 -0.1418
 8150SOL    HW135909   2.468   2.198   5.516  1.1252 -1.3119 -0.6767
 8150SOL    HW235910   2.536   2.193   5.385 -1.3303 -2.0162 -0.3159
 8151SOL     OW35911   2.023   2.086  11.195  0.4017 -0.2207 -0.4469
 8151SOL    HW135912   2.015   2.020  11.264  0.7969 -0.1054 -0.2908
 8151SOL    HW235913   1.991   2.164  11.240 -0.0232 -0.5883 -0.1152
 8152SOL     OW35914   4.207   1.083  16.201  0.0900 -0.2925  0.2299
 8152SOL    HW135915   4.161   1.153  16.247  0.5297 -0.2767  0.6415
 8152SOL    HW235916   4.298   1.114  16.200 -0.2400  0.5546 -3.3786
 8153SOL     OW35917   0.530   3.469   8.066 -0.5255  0.8002 -0.2857
 8153SOL    HW135918   0.484   3.452   7.985 -2.2142  0.7143  0.6986
 8153SOL    HW235919   0.473   3.442   8.138 -0.2033  0.2499 -0.2395
 8154SOL     OW35920   4.618   1.148   4.997 -0.2477  0.0218  0.3995
 8154SOL    HW135921   4.653   1.137   4.909 -2.0634  2.4668 -0.6257
 8154SOL    HW235922   4.666   1.222   5.034 -2.9597  0.4444  3.0828
 8155SOL     OW35923   4.153   4.102   4.943 -0.1020  0.3161 -0.1752
 8155SOL    HW135924   4.107   4.135   4.866 -0.9573  1.0724  0.6622
 8155SOL    HW235925   4.091   4.130   5.011 -0.3431 -1.6416  0.4075
 8156SOL     OW35926   4.424   0.163  12.466 -0.1723 -1.0604  0.2624
 8156SOL    HW135927   4.342   0.121  12.491 -1.8634  1.8437 -0.3953
 8156SOL    HW235928   4.485   0.090  12.479  0.9080 -0.0678  0.7823
 8157SOL     OW35929   0.305   0.030   3.077  0.3721 -0.1761  0.2651
 8157SOL    HW135930   0.285   0.124   3.070  0.2987 -0.3737 -2.0343
 8157SOL    HW235931   0.221   0.001   3.041  0.1523  0.0261  0.6076
 8158SOL     OW35932   0.226   4.209  11.305  0.3761  0.3199 -0.4060
 8158SOL    HW135933   0.161   4.161  11.254 -0.6553 -0.2995  1.5284
 8158SOL    HW235934   0.210   4.171  11.391  0.2705  1.9648  0.3067
 8159SOL     OW35935   0.398   4.703  17.644 -0.4043  0.6240  0.2176
 8159SOL    HW135936   0.438   0.012   0.026  0.9097  0.1104 -0.2217
 8159SOL    HW235937   0.449   0.017  17.572  0.5062  0.8784  0.9956
 8160SOL     OW35938   0.960   1.039   3.643  0.6480  0.4366 -0.5817
 8160SOL    HW135939   1.050   1.051   3.612  0.3532 -1.2109 -2.0919
 8160SOL    HW235940   0.920   1.123   3.621  0.8711  0.4823 -0.8081
 8161SOL     OW35941   0.093   2.534  17.059 -0.0680  0.4374 -0.2590
 8161SOL    HW135942   0.027   2.510  16.994 -0.7970  0.4059  0.4948
 8161SOL    HW235943   0.113   2.616  17.015  1.4428  0.5009  0.5165
 8162SOL     OW35944   4.228   0.609   3.979  0.0620 -0.4433  0.1351
 8162SOL    HW135945   4.212   0.667   4.053 -2.6483 -1.0909  0.0737
 8162SOL    HW235946   4.244   0.672   3.908  0.6504  0.1806  0.8254
 8163SOL     OW35947   3.196   2.916   1.240  0.1798 -0.2743 -0.2321
 8163SOL    HW135948   3.255   2.947   1.308 -0.7245  0.2225  0.3186
 8163SOL    HW235949   3.135   2.990   1.241 -0.2774 -0.6042 -2.2930
 8164SOL     OW35950   0.040   2.370  11.012 -0.4982  0.3417 -0.0357
 8164SOL    HW135951   4.723   2.417  11.084 -0.3315  1.0199 -0.3812
 8164SOL    HW235952   4.708   2.399  10.940 -0.7258 -1.2079 -0.4836
 8165SOL     OW35953   3.178   2.603   1.288 -0.3202 -0.9323  0.2461
 8165SOL    HW135954   3.187   2.565   1.201  1.9498 -3.6360  1.6786
 8165SOL    HW235955   3.090   2.635   1.267 -0.3176 -0.6765  0.6150
 8166SOL     OW35956   0.947   2.902  16.005  0.3972 -0.4784 -0.5089
 8166SOL    HW135957   0.864   2.864  15.976  0.2173  1.6771 -2.8236
 8166SOL    HW235958   0.918   2.948  16.084  1.0247 -1.0390  0.0392
 8167SOL     OW35959   2.467   1.523   4.981 -0.1176 -0.1617 -0.3071
 8167SOL    HW135960   2.494   1.553   4.894  0.7379 -0.1234 -0.0243
 8167SOL    HW235961   2.522   1.571   5.044  0.1944  2.3961 -2.5157
 8168SOL     OW35962   2.970   3.909  14.392 -0.4394 -0.4245 -0.2485
 8168SOL    HW135963   2.960   3.925  14.298 -0.1099  1.2625  0.0019
 8168SOL    HW235964   2.881   3.915  14.424 -0.7227  2.3744 -1.5642
 8169SOL     OW35965   2.177   0.920   4.941  0.2190 -0.8679  0.4449
 8169SOL    HW135966   2.215   0.840   4.904 -0.7100 -0.9374 -0.3399
 8169SOL    HW235967   2.162   0.889   5.030  2.9547 -1.9909  0.5312
 8170SOL     OW35968   2.614   1.311   9.621  0.2362  0.4037 -0.0711
 8170SOL    HW135969   2.616   1.259   9.702  2.1115  0.4893 -0.0518
 8170SOL    HW235970   2.697   1.283   9.581  0.3892  1.4490 -0.4877
 8171SOL     OW35971   3.108   3.340   3.120 -0.0009  0.3394  0.0252
 8171SOL    HW135972   3.172   3.389   3.069  1.3054 -0.2437  1.1058
 8171SOL    HW235973   3.029   3.348   3.067 -0.3355 -0.4191  0.3967
 8172SOL     OW35974   0.917   1.766   5.529  0.2648  0.8616  0.2176
 8172SOL    HW135975   0.994   1.718   5.559 -0.3056 -1.1670 -1.5224
 8172SOL    HW235976   0.947   1.807   5.448 -1.7831  1.3130 -0.3039
 8173SOL     OW35977   1.730   4.547  13.628  0.5300 -0.0036 -0.2260
 8173SOL    HW135978   1.733   4.467  13.681  0.0689 -1.2840 -2.1361
 8173SOL    HW235979   1.732   4.604  13.704 -1.5856 -0.0969 -0.1008
 8174SOL     OW35980   0.638   0.206   2.635 -0.3379 -0.1844  0.1358
 8174SOL    HW135981   0.645   0.165   2.549  5.0786  0.7303  0.1403
 8174SOL    HW235982   0.723   0.177   2.668 -0.3809 -1.1183 -0.5942
 8175SOL     OW35983   1.792   1.204   6.078  0.1555  0.2654 -0.5695
 8175SOL    HW135984   1.798   1.299   6.081  0.4419  0.2666 -1.1244
 8175SOL    HW235985   1.749   1.176   6.159  1.2862 -1.7091 -0.6431
 8176SOL     OW35986   3.056   4.435   5.554 -0.1329 -0.0044 -0.7687
 8176SOL    HW135987   3.146   4.465   5.543 -0.1688  0.2295 -0.4177
 8176SOL    HW235988   3.020   4.514   5.594 -1.3034 -0.3416 -1.1639
 8177SOL     OW35989   4.576   1.917  11.889  0.2462  0.1627  0.3036
 8177SOL    HW135990   4.541   1.941  11.804 -0.1769  0.9031  0.6837
 8177SOL    HW235991   4.621   2.000  11.907  1.9335 -0.4953 -1.0133
 8178SOL     OW35992   2.411   4.672  12.095 -0.0621  0.4510  0.1762
 8178SOL    HW135993   2.338   4.627  12.138  0.9623 -0.2568  1.1563
 8178SOL    HW235994   2.376   4.681  12.006  0.1222  0.7350  0.1343
 8179SOL     OW35995   3.875   3.129   2.213  0.4001 -0.6294  0.7161
 8179SOL    HW135996   3.826   3.049   2.233 -0.1919 -0.5645 -0.4740
 8179SOL    HW235997   3.887   3.110   2.120 -1.1288  1.0120  0.1803
 8180SOL     OW35998   4.379   0.845   0.374 -0.5033 -0.4163  0.0838
 8180SOL    HW135999   4.432   0.765   0.375 -1.2630 -0.9228 -1.0579
 8180SOL    HW236000   4.389   0.871   0.466 -2.4012  0.8345 -0.0826
 8181SOL     OW36001   2.837   4.394   6.508 -0.8477  0.8601  0.1238
 8181SOL    HW136002   2.857   4.482   6.542  0.5629  0.8560 -0.6559
 8181SOL    HW236003   2.790   4.356   6.581  0.2703 -1.3824 -0.3186
 8182SOL     OW36004   0.969   1.832   6.608  0.3595 -0.1327 -0.3797
 8182SOL    HW136005   1.016   1.749   6.613 -0.3922 -0.5510 -0.2406
 8182SOL    HW236006   1.044   1.886   6.584  0.5367 -0.8104 -1.3515
 8183SOL     OW36007   3.046   3.251   7.404 -0.6925 -0.5240  0.0804
 8183SOL    HW136008   2.985   3.287   7.340  1.2112 -0.3779 -1.6494
 8183SOL    HW236009   3.081   3.176   7.356  0.5901 -1.0511  1.8403
 8184SOL     OW36010   1.742   2.952  16.287  0.0020 -0.3683 -0.2677
 8184SOL    HW136011   1.741   3.044  16.260  2.4950 -0.4696 -0.7237
 8184SOL    HW236012   1.651   2.924  16.297 -0.2022 -0.5641 -2.6841
 8185SOL     OW36013   2.772   4.423   8.229  0.1557 -0.3430 -0.9306
 8185SOL    HW136014   2.748   4.392   8.317 -2.4551 -0.1769 -1.6031
 8185SOL    HW236015   2.814   4.506   8.252 -1.2009  0.4760 -1.4257
 8186SOL     OW36016   3.960   1.512   4.684 -0.1277 -0.5204  0.0934
 8186SOL    HW136017   3.913   1.555   4.755  0.5810  2.1755 -1.0612
 8186SOL    HW236018   3.906   1.442   4.647  0.7631 -2.7973  3.0910
 8187SOL     OW36019   0.056   4.309   6.508  0.1029 -0.0435  0.1830
 8187SOL    HW136020   4.716   4.297   6.438 -1.8652  0.5312  1.8786
 8187SOL    HW236021   0.013   4.261   6.579  0.2926 -1.5989 -0.7702
 8188SOL     OW36022   0.950   1.514   3.946 -0.2265  0.0926  0.2010
 8188SOL    HW136023   0.865   1.530   3.985  0.4682  0.2399  1.6578
 8188SOL    HW236024   0.927   1.436   3.895  0.1932  0.2098 -0.1741
 8189SOL     OW36025   3.802   1.343  10.248  0.3566 -0.0186  0.4824
 8189SOL    HW136026   3.747   1.277  10.290 -0.3197  1.1880  1.5127
 8189SOL    HW236027   3.797   1.416  10.311  1.8178  0.2005  0.3612
 8190SOL     OW36028   3.478   0.516   5.601 -0.4926 -0.2690  0.2331
 8190SOL    HW136029   3.447   0.607   5.598  0.2828 -0.0497 -1.1146
 8190SOL    HW236030   3.535   0.506   5.525  0.5643  1.7157  0.7458
 8191SOL     OW36031   0.424   0.961   9.099  0.1320  0.3302 -0.5251
 8191SOL    HW136032   0.481   1.024   9.143  1.0491 -0.7795 -0.1189
 8191SOL    HW236033   0.463   0.938   9.015  0.8622  0.0395 -0.1002
 8192SOL     OW36034   3.979   3.303   4.351 -0.0715 -0.0037  0.0038
 8192SOL    HW136035   4.027   3.240   4.406  0.8697 -0.1329 -0.9767
 8192SOL    HW236036   4.050   3.329   4.292  0.7589 -2.0616  0.0811
 8193SOL     OW36037   1.141   1.978   8.522  0.3007  0.0484 -0.2079
 8193SOL    HW136038   1.143   1.883   8.514  2.2324  0.1549 -0.9691
 8193SOL    HW236039   1.177   1.999   8.609  0.0187  1.6794 -0.4700
 8194SOL     OW36040   3.214   0.364   3.839 -0.8511 -0.4190 -0.2236
 8194SOL    HW136041   3.228   0.343   3.931 -1.3703  1.0745  0.1946
 8194SOL    HW236042   3.156   0.440   3.848 -0.0240  0.3666 -1.5186
 8195SOL     OW36043   3.700   2.500   4.734  0.1041 -0.1274 -0.1035
 8195SOL    HW136044   3.741   2.481   4.818 -0.1605 -0.1117  0.0318
 8195SOL    HW236045   3.740   2.585   4.716  1.9111 -1.2353 -1.1682
 8196SOL     OW36046   0.733   2.253  10.041 -0.4728 -0.2329 -0.4979
 8196SOL    HW136047   0.745   2.161  10.017 -0.9006  0.0129 -1.6558
 8196SOL    HW236048   0.803   2.295   9.991  0.8205 -0.3387  1.1964
 8197SOL     OW36049   2.705   4.604   5.484 -0.3003  0.2457 -0.0771
 8197SOL    HW136050   2.762   4.547   5.432  2.6665  2.7668  0.4489
 8197SOL    HW236051   2.769   4.640   5.545 -0.2733  0.0465  0.0113
 8198SOL     OW36052   0.363   2.333   8.835 -0.2489 -0.1765  0.0113
 8198SOL    HW136053   0.330   2.286   8.759  0.1574 -0.8374  0.2447
 8198SOL    HW236054   0.306   2.312   8.909 -1.6895  1.0226 -0.7578
 8199SOL     OW36055   4.238   2.445  15.983  0.1526 -0.2870 -0.1089
 8199SOL    HW136056   4.309   2.386  16.007  0.8628  0.2260 -0.9147
 8199SOL    HW236057   4.257   2.521  16.037 -0.6950  0.6554 -1.1463
 8200SOL     OW36058   0.335   3.750  15.134 -0.4984 -0.0437  0.0753
 8200SOL    HW136059   0.380   3.811  15.192  0.4603 -1.7888  1.1442
 8200SOL    HW236060   0.279   3.710  15.200 -1.3564 -0.4862 -0.9227
 8201SOL     OW36061   1.014   1.907  12.001 -0.2976  0.8161  0.0882
 8201SOL    HW136062   0.931   1.938  11.964  0.3793  1.8808 -0.5195
 8201SOL    HW236063   0.986   1.826  12.045 -1.1524  0.0963 -1.7635
 8202SOL     OW36064   3.600   4.318   0.452 -0.0018 -0.1427 -0.6980
 8202SOL    HW136065   3.569   4.229   0.471 -1.2913  0.5100  0.2736
 8202SOL    HW236066   3.682   4.290   0.414  0.3210 -1.3266  0.8675
 8203SOL     OW36067   1.133   1.208  15.281 -0.2915 -0.0011 -0.0739
 8203SOL    HW136068   1.221   1.245  15.290 -0.5555  0.9727 -1.4065
 8203SOL    HW236069   1.139   1.161  15.198 -1.9079 -1.0815  0.4184
 8204SOL     OW36070   3.961   1.236  11.777  1.1512  0.3121 -0.1890
 8204SOL    HW136071   3.991   1.147  11.765  1.0031  0.3213 -0.6266
 8204SOL    HW236072   3.933   1.271  11.692 -2.1332  1.8916  1.5411
 8205SOL     OW36073   4.158   2.217  12.870 -0.3143  0.6170 -0.1800
 8205SOL    HW136074   4.189   2.307  12.868  0.0277  0.4938 -0.4148
 8205SOL    HW236075   4.191   2.187  12.954  0.5491  1.1683 -0.3257
 8206SOL     OW36076   3.062   1.895   7.823 -0.7522  0.5945  0.4226
 8206SOL    HW136077   2.970   1.870   7.809 -0.3782 -1.9709  2.5079
 8206SOL    HW236078   3.100   1.808   7.812 -0.5761  0.6856  0.3170
 8207SOL     OW36079   1.274   4.272  11.375  0.1051 -0.2659 -0.6923
 8207SOL    HW136080   1.211   4.205  11.402  0.1474 -0.1603 -0.3420
 8207SOL    HW236081   1.333   4.275  11.450  0.6967 -0.4812 -1.1516
 8208SOL     OW36082   3.094   1.569   4.398 -0.1189  0.2276 -0.3556
 8208SOL    HW136083   3.060   1.618   4.322 -3.2521  3.2094  2.9671
 8208SOL    HW236084   3.123   1.647   4.445 -1.6916  0.2200  0.6496
 8209SOL     OW36085   4.342   0.859   2.988 -0.4137 -0.2687  0.3460
 8209SOL    HW136086   4.278   0.914   2.942  0.6523  1.8787  1.4417
 8209SOL    HW236087   4.392   0.924   3.036 -0.1234 -0.7354  0.6796
 8210SOL     OW36088   2.242   1.235  13.563  0.0391 -0.5092 -0.4379
 8210SOL    HW136089   2.241   1.300  13.633 -0.0659 -2.5830  1.4679
 8210SOL    HW236090   2.170   1.262  13.505  1.0381 -0.3783 -1.6259
 8211SOL     OW36091   2.786   3.376  15.302  0.4953 -0.1285  0.4508
 8211SOL    HW136092   2.794   3.443  15.370 -1.8933 -0.3171  0.9144
 8211SOL    HW236093   2.830   3.421  15.230  1.0244 -1.9476 -0.3653
 8212SOL     OW36094   0.573   0.620   4.626  0.1695  0.5963  0.0712
 8212SOL    HW136095   0.586   0.625   4.532 -1.4758  1.0522 -0.1276
 8212SOL    HW236096   0.654   0.573   4.644 -0.1889  0.6658  1.9333
 8213SOL     OW36097   3.992   4.224  12.062  0.3593 -0.3720 -0.3377
 8213SOL    HW136098   4.030   4.149  12.017  1.8798  0.6431 -0.7492
 8213SOL    HW236099   4.054   4.239  12.134 -0.4375  0.0290  0.2766
 8214SOL     OW36100   3.199   4.040   4.966 -0.4590  0.1208 -0.7042
 8214SOL    HW136101   3.144   4.109   4.929 -0.5881 -0.1841 -1.0741
 8214SOL    HW236102   3.141   3.968   4.941 -2.6056  1.1898  1.1135
 8215SOL     OW36103   3.774   3.000   4.218 -0.2261 -0.2572 -0.5732
 8215SOL    HW136104   3.735   2.974   4.135  0.0113  1.2515 -1.1631
 8215SOL    HW236105   3.865   3.022   4.197 -0.0005 -2.8398 -2.2268
 8216SOL     OW36106   3.907   1.512  10.444 -0.0436 -0.1640 -0.4556
 8216SOL    HW136107   3.903   1.606  10.460 -0.5496 -0.3345  0.3991
 8216SOL    HW236108   3.922   1.484  10.534 -2.5406  1.1031  0.3487
 8217SOL     OW36109   0.972   1.452   4.485 -0.3730 -0.9259 -0.7675
 8217SOL    HW136110   1.020   1.374   4.455 -0.0090 -1.5119  1.3110
 8217SOL    HW236111   0.971   1.434   4.579 -1.0816  0.4109 -0.5242
 8218SOL     OW36112   0.286   0.324   8.537 -0.3269  0.7718 -0.1319
 8218SOL    HW136113   0.233   0.317   8.617  1.9835 -2.0982  1.1316
 8218SOL    HW236114   0.252   0.409   8.506  2.2328  1.6687 -0.4652
 8219SOL     OW36115   2.985   4.256   5.758  0.4931 -0.5310  0.0380
 8219SOL    HW136116   3.005   4.321   5.691  2.7781 -1.2699  0.0030
 8219SOL    HW236117   2.930   4.315   5.809 -0.3943 -1.7826  0.5245
 8220SOL     OW36118   4.303   1.965  11.674  0.0334  0.0046  0.0412
 8220SOL    HW136119   4.324   2.038  11.615 -1.5590 -0.1135 -0.6599
 8220SOL    HW236120   4.248   1.909  11.620 -2.9458  0.7506  2.3497
 8221SOL     OW36121   1.585   0.234   7.637 -0.5720 -0.1437  0.0742
 8221SOL    HW136122   1.561   0.228   7.729  3.6493 -0.5243  1.1701
 8221SOL    HW236123   1.678   0.214   7.629 -0.3723  0.3084  1.2232
 8222SOL     OW36124   1.933   2.579   6.872 -0.0929  0.1665 -0.2807
 8222SOL    HW136125   1.954   2.490   6.844 -3.0469  0.1001 -2.3310
 8222SOL    HW236126   1.870   2.563   6.943  0.0474 -3.8278 -1.0899
 8223SOL     OW36127   3.910   0.492  14.966 -0.3186 -0.7044 -0.1455
 8223SOL    HW136128   3.952   0.430  15.026 -0.3489  0.2621  0.8876
 8223SOL    HW236129   3.824   0.450  14.962 -1.6081  1.7589  0.9862
 8224SOL     OW36130   3.056   2.952   6.155 -0.3008  0.2735  0.3095
 8224SOL    HW136131   3.066   2.945   6.060  1.7883 -0.8203  0.6241
 8224SOL    HW236132   2.980   3.010   6.164 -1.4212 -1.3645  1.5249
 8225SOL     OW36133   1.175   3.367   9.926 -0.2216 -0.5121 -0.5257
 8225SOL    HW136134   1.178   3.463   9.924 -0.1884 -0.4836  1.1039
 8225SOL    HW236135   1.270   3.360   9.931 -0.1470 -0.6048 -1.8581
 8226SOL     OW36136   1.350   4.176  13.064 -0.1869  0.1551 -0.1648
 8226SOL    HW136137   1.365   4.198  12.972  0.1525 -0.2156 -0.2002
 8226SOL    HW236138   1.256   4.166  13.075 -0.2960  2.4558  0.7984
 8227SOL     OW36139   0.960   1.852   0.449  0.0359 -0.2566 -0.4137
 8227SOL    HW136140   0.992   1.912   0.381  1.1825 -0.5951 -0.1636
 8227SOL    HW236141   1.038   1.804   0.476  0.1309  0.1205 -0.0113
 8228SOL     OW36142   2.052   0.982   9.268 -0.0897  0.2458  0.6566
 8228SOL    HW136143   2.012   1.019   9.346  0.4677 -1.4219  1.7173
 8228SOL    HW236144   2.097   0.906   9.305  0.2205  0.7675  1.3592
 8229SOL     OW36145   0.155   2.735   1.294 -0.0597  0.2368  0.4551
 8229SOL    HW136146   0.192   2.823   1.303  1.2292 -0.2094 -0.5717
 8229SOL    HW236147   0.223   2.677   1.328 -0.0548  0.3672  0.6638
 8230SOL     OW36148   2.655   2.517  15.892 -0.1582  0.1886  0.9378
 8230SOL    HW136149   2.572   2.471  15.905 -0.1128  0.2433  1.3933
 8230SOL    HW236150   2.640   2.596  15.943  1.1958  0.5780  0.7337
 8231SOL     OW36151   3.926   1.381  13.047 -0.2760 -0.2603  0.5342
 8231SOL    HW136152   4.018   1.390  13.072 -0.6170 -0.0759  1.7410
 8231SOL    HW236153   3.893   1.325  13.117 -0.3154  0.8135  1.3837
 8232SOL     OW36154   2.341   0.602   5.459 -0.0741  0.1164 -0.0361
 8232SOL    HW136155   2.426   0.634   5.489 -0.0450  0.5833 -0.6072
 8232SOL    HW236156   2.297   0.687   5.465 -0.2970  0.1357 -2.0718
 8233SOL     OW36157   0.834   0.237   5.345  0.0262 -0.7697  0.6331
 8233SOL    HW136158   0.761   0.257   5.403  0.5146  1.3336  0.5399
 8233SOL    HW236159   0.823   0.309   5.282  1.2346  0.1503  1.4811
 8234SOL     OW36160   2.289   3.534  13.986  0.2412  0.0351 -0.0908
 8234SOL    HW136161   2.368   3.523  14.039 -0.6552  0.8032  1.3892
 8234SOL    HW236162   2.318   3.620  13.957  2.1302 -0.6947 -0.4240
 8235SOL     OW36163   0.843   4.550   7.548 -0.1823  0.1349  0.5377
 8235SOL    HW136164   0.882   4.490   7.611  2.2118  0.3097 -0.7965
 8235SOL    HW236165   0.893   4.626   7.577 -1.1696  0.5404  1.1875
 8236SOL     OW36166   2.121   4.363   6.569  0.1417 -0.5548 -0.1882
 8236SOL    HW136167   2.029   4.382   6.585 -0.0414 -0.3666 -1.4150
 8236SOL    HW236168   2.147   4.435   6.512  1.4061 -1.1633 -0.3705
 8237SOL     OW36169   1.632   0.181  15.179 -0.1931 -0.0462 -0.1795
 8237SOL    HW136170   1.694   0.243  15.142 -0.9342  0.3167 -0.7907
 8237SOL    HW236171   1.682   0.101  15.159 -3.3475 -2.0347 -0.1235
 8238SOL     OW36172   2.468   4.707  17.164 -0.2219  0.3379  0.8695
 8238SOL    HW136173   2.442   0.030  17.085 -0.5855 -0.6816  0.3790
 8238SOL    HW236174   2.406   0.012  17.231 -0.0445  1.5114  0.5238
 8239SOL     OW36175   4.177   0.396   1.057  0.0971 -0.0009 -0.3754
 8239SOL    HW136176   4.183   0.431   1.146 -2.9499 -0.2892 -0.0746
 8239SOL    HW236177   4.265   0.359   1.047  0.0481 -0.9051  2.5908
 8240SOL     OW36178   2.790   2.829  12.234  0.1517 -0.1567 -0.1924
 8240SOL    HW136179   2.812   2.916  12.269  0.2523 -1.1770  2.2590
 8240SOL    HW236180   2.695   2.828  12.246  0.1862  2.6543  0.4232
 8241SOL     OW36181   4.131   1.444   8.093  0.0767  0.0342 -0.0957
 8241SOL    HW136182   4.101   1.426   8.182  0.7894  2.0764  0.5598
 8241SOL    HW236183   4.048   1.473   8.056  0.9582  1.1419 -1.2133
 8242SOL     OW36184   4.095   0.257   4.014 -0.0237 -0.0729 -0.2669
 8242SOL    HW136185   4.108   0.351   4.000  1.3152 -0.4103 -1.2569
 8242SOL    HW236186   4.181   0.222   4.036 -0.5538 -0.1795  1.6792
 8243SOL     OW36187   3.648   3.512  12.786  1.3359  0.2072  0.0308
 8243SOL    HW136188   3.686   3.438  12.833  1.4629  1.1697  1.4183
 8243SOL    HW236189   3.600   3.455  12.725  1.2161 -0.1397  0.4509
 8244SOL     OW36190   0.795   4.721   9.427  0.8255 -0.7197  0.3599
 8244SOL    HW136191   0.809   4.633   9.393 -0.2649 -1.7771  2.5907
 8244SOL    HW236192   0.703   4.723   9.451  1.2663 -2.6178  2.2245
 8245SOL     OW36193   2.679   3.174   6.743  0.6291  0.2196  0.1125
 8245SOL    HW136194   2.755   3.232   6.749  0.3653  0.2850  3.0104
 8245SOL    HW236195   2.697   3.130   6.661 -0.5050 -1.6311  0.8483
 8246SOL     OW36196   0.981   4.697   5.362 -0.5572 -0.2552 -0.2847
 8246SOL    HW136197   0.966   4.701   5.457 -0.0718  0.4601 -0.2395
 8246SOL    HW236198   0.922   0.041   5.332 -0.1293  1.4539  2.7450
 8247SOL     OW36199   1.504   4.493  10.048 -0.4788  0.0998 -0.3102
 8247SOL    HW136200   1.540   4.430   9.985  1.5622  2.0523 -1.1206
 8247SOL    HW236201   1.490   4.568   9.989 -0.9967  0.2943  0.0651
 8248SOL     OW36202   0.008   1.564   9.776  0.1907  0.8826 -0.0932
 8248SOL    HW136203   4.709   1.477   9.809 -1.2583  1.9720  1.7656
 8248SOL    HW236204   4.648   1.576   9.732  1.1060 -0.4263 -2.2114
 8249SOL     OW36205   3.619   2.185   5.427  0.0616 -0.0433 -0.3263
 8249SOL    HW136206   3.622   2.203   5.521 -2.9797 -2.5045  0.2354
 8249SOL    HW236207   3.557   2.113   5.421 -0.6318  0.7001 -2.3125
 8250SOL     OW36208   2.927   1.110  17.219  0.3652  0.1952  0.3454
 8250SOL    HW136209   2.869   1.169  17.267  0.9044 -0.2567  1.5807
 8250SOL    HW236210   2.959   1.061  17.295  0.6881 -0.6598 -0.3415
 8251SOL     OW36211   2.468   4.162   5.692  0.2425  0.2924 -0.2892
 8251SOL    HW136212   2.556   4.129   5.709  0.7197  0.5427 -2.3132
 8251SOL    HW236213   2.484   4.255   5.677  2.9106 -0.0451  0.4852
 8252SOL     OW36214   0.000   1.989   7.229 -0.3725 -0.0968 -1.0191
 8252SOL    HW136215   0.089   2.024   7.219 -0.5164 -0.2491 -2.7878
 8252SOL    HW236216   4.685   2.008   7.144 -0.2677 -0.4354 -1.1416
 8253SOL     OW36217   4.012   2.393  10.893  0.3865  0.6399  0.0195
 8253SOL    HW136218   4.093   2.439  10.868  1.0775 -0.7631 -0.3363
 8253SOL    HW236219   4.052   2.329  10.951  0.6396 -0.9509 -1.9210
 8254SOL     OW36220   1.363   2.512   8.645  0.2620 -0.1780 -0.2344
 8254SOL    HW136221   1.365   2.459   8.725 -1.2048  0.8307  0.4617
 8254SOL    HW236222   1.325   2.449   8.584 -0.4980  0.6273 -0.5864
 8255SOL     OW36223   2.268   3.278   3.553  0.2897  0.8405 -0.4154
 8255SOL    HW136224   2.360   3.305   3.559  0.4506  0.2166 -0.0393
 8255SOL    HW236225   2.258   3.234   3.637  1.3011  1.1574 -0.1327
 8256SOL     OW36226   4.268   1.478   7.580 -0.6104 -0.3795 -0.3918
 8256SOL    HW136227   4.358   1.506   7.596 -1.0261 -0.5062  2.0303
 8256SOL    HW236228   4.254   1.552   7.521 -1.7666  0.9124  1.5068
 8257SOL     OW36229   0.562   1.116   7.546  0.1398  0.1953  0.2436
 8257SOL    HW136230   0.521   1.179   7.486  1.0042  1.0785  0.5909
 8257SOL    HW236231   0.526   1.148   7.628  3.1147 -0.3235  1.7292
 8258SOL     OW36232   1.211   1.524  17.384  0.4520 -0.3640 -0.3606
 8258SOL    HW136233   1.243   1.594  17.326 -2.0972  0.1585 -1.1422
 8258SOL    HW236234   1.163   1.582  17.443 -0.6586  1.0445 -2.6517
 8259SOL     OW36235   1.788   2.363  16.238 -0.0566  0.5400 -0.3512
 8259SOL    HW136236   1.841   2.339  16.162  0.3393 -2.6920  0.9683
 8259SOL    HW236237   1.727   2.290  16.236  0.6303 -0.0389 -0.0450
 8260SOL     OW36238   3.985   4.070   1.067 -0.1101 -0.3088  0.2985
 8260SOL    HW136239   3.958   4.143   1.011 -0.4726  0.1379  1.0464
 8260SOL    HW236240   3.915   4.068   1.133 -1.0850  2.4835 -0.6580
 8261SOL     OW36241   1.929   4.167   4.759  0.5774 -0.0775  0.3241
 8261SOL    HW136242   1.960   4.257   4.774  0.3426  0.5117 -2.7891
 8261SOL    HW236243   1.834   4.183   4.753  0.8562  1.0169 -1.3640
 8262SOL     OW36244   1.236   2.536  15.570  0.0703 -0.5757 -0.0956
 8262SOL    HW136245   1.311   2.507  15.519 -0.6177 -0.8284 -0.9491
 8262SOL    HW236246   1.231   2.465  15.634  1.0808 -0.0210  0.6164
 8263SOL     OW36247   2.421   1.861   7.730 -0.0001 -0.0954 -0.0096
 8263SOL    HW136248   2.329   1.846   7.712 -0.1318  1.3986 -0.5415
 8263SOL    HW236249   2.431   1.954   7.752  0.2679 -0.2663  0.5872
 8264SOL     OW36250   3.701   0.383   6.007 -0.4495 -0.0666 -0.3121
 8264SOL    HW136251   3.668   0.293   6.012  3.0414 -1.4078 -0.9658
 8264SOL    HW236252   3.776   0.386   6.066 -0.0475  3.1989 -0.9945
 8265SOL     OW36253   0.322   2.665   3.318 -0.0840  0.2577  0.2477
 8265SOL    HW136254   0.347   2.745   3.365 -0.4496  0.1095  0.6943
 8265SOL    HW236255   0.339   2.673   3.224 -0.8556  1.1745  0.1748
 8266SOL     OW36256   3.286   0.496  14.413  0.1615 -0.0631 -0.1084
 8266SOL    HW136257   3.265   0.406  14.437 -0.3275  0.2490  0.6089
 8266SOL    HW236258   3.207   0.545  14.433  0.9594  1.9139 -1.8829
 8267SOL     OW36259   3.447   2.104   7.289 -0.5984  0.3478  0.0491
 8267SOL    HW136260   3.418   2.043   7.357  2.7043 -2.5704 -1.1602
 8267SOL    HW236261   3.388   2.174   7.319  0.2431  1.3747 -0.7061
 8268SOL     OW36262   2.843   1.641   3.823  0.0813  0.5293  0.2785
 8268SOL    HW136263   2.906   1.666   3.755 -0.7009  0.0551 -0.6120
 8268SOL    HW236264   2.828   1.549   3.803  2.9263 -0.0272  0.7607
 8269SOL     OW36265   3.973   1.492   2.705  0.2752 -0.3930 -0.2129
 8269SOL    HW136266   4.058   1.520   2.736  0.1328 -0.2803  0.0749
 8269SOL    HW236267   3.917   1.522   2.777  0.8836 -2.1787  0.9859
 8270SOL     OW36268   3.636   3.902   2.629  0.2037 -0.4366 -0.4499
 8270SOL    HW136269   3.572   3.942   2.570 -0.2221 -2.4104 -1.3289
 8270SOL    HW236270   3.718   3.922   2.584  2.0651 -2.4347  1.9961
 8271SOL     OW36271   2.322   1.342   8.091  0.3821  0.1558 -0.0295
 8271SOL    HW136272   2.413   1.327   8.065  0.5695  1.2972 -0.0129
 8271SOL    HW236273   2.290   1.253   8.107 -1.7063  1.0865  0.9900
 8272SOL     OW36274   4.499   0.226   5.031  0.2464 -0.0958 -0.5160
 8272SOL    HW136275   4.409   0.209   5.002  0.2138 -0.2673 -0.3055
 8272SOL    HW236276   4.549   0.151   4.999  4.1405  1.3452  2.2318
 8273SOL     OW36277   1.206   1.275   2.243  0.3175  0.0913  0.0328
 8273SOL    HW136278   1.268   1.204   2.227 -1.2287 -1.1733 -0.3940
 8273SOL    HW236279   1.244   1.339   2.183 -0.0815 -0.9830 -1.3948
 8274SOL     OW36280   0.592   0.243   6.891  0.0175  0.1675  0.1476
 8274SOL    HW136281   0.623   0.164   6.934 -0.5797  0.2059  0.6353
 8274SOL    HW236282   0.613   0.312   6.953  0.3054  0.6188 -0.4452
 8275SOL     OW36283   4.675   1.154   1.324 -0.1363 -0.2340 -0.5050
 8275SOL    HW136284   0.030   1.156   1.270 -1.1146  1.2646 -1.9017
 8275SOL    HW236285   4.627   1.081   1.285 -0.5050 -0.1853 -0.1441
 8276SOL     OW36286   0.679   0.421   3.431  0.6333  0.2851  0.4784
 8276SOL    HW136287   0.727   0.413   3.513  0.1276 -1.1786  0.6327
 8276SOL    HW236288   0.714   0.496   3.384 -0.0647  1.6967  2.1849
 8277SOL     OW36289   1.099   2.368   1.866  0.0989 -0.3122 -0.4485
 8277SOL    HW136290   1.030   2.401   1.809  0.8019  1.9720  0.0037
 8277SOL    HW236291   1.118   2.282   1.827 -0.4988 -0.4507 -0.4310
 8278SOL     OW36292   3.293   3.512   1.463  0.4624  0.0413  0.2443
 8278SOL    HW136293   3.324   3.437   1.513  0.9262  0.3507  0.4164
 8278SOL    HW236294   3.245   3.565   1.527 -0.5132 -0.8420  0.2430
 8279SOL     OW36295   1.446   4.170   2.408  0.1405 -0.2753 -0.2666
 8279SOL    HW136296   1.532   4.134   2.428  0.7909  0.6174 -1.4199
 8279SOL    HW236297   1.388   4.133   2.475  1.6827  0.0279  1.2413
 8280SOL     OW36298   1.903   2.302   3.637  0.1518 -0.3018 -0.1148
 8280SOL    HW136299   1.815   2.303   3.598 -0.4931 -1.2138  1.3308
 8280SOL    HW236300   1.878   2.248   3.712  0.1560 -3.0245 -2.0983
 8281SOL     OW36301   2.699   3.351  11.831 -0.8584  0.1863 -0.1046
 8281SOL    HW136302   2.710   3.321  11.741  2.9053  1.9851 -0.2347
 8281SOL    HW236303   2.632   3.290  11.861  1.2155  0.1662  4.4941
 8282SOL     OW36304   1.358   1.409   4.191 -0.3030 -0.3864 -0.4670
 8282SOL    HW136305   1.317   1.449   4.115 -2.4433  0.3825  1.0843
 8282SOL    HW236306   1.343   1.317   4.170  2.7361 -1.0030 -0.0038
 8283SOL     OW36307   2.295   4.490  16.547 -0.0517 -0.3926  0.2976
 8283SOL    HW136308   2.326   4.580  16.555 -1.8222  0.3116 -0.8080
 8283SOL    HW236309   2.383   4.454  16.554  0.5001  1.3568  2.3014
 8284SOL     OW36310   0.275   3.498   4.004  0.3557  0.0325 -0.0400
 8284SOL    HW136311   0.330   3.421   4.020 -0.5958 -0.4455  0.9018
 8284SOL    HW236312   0.331   3.545   3.942 -0.0785  1.3637  0.5875
 8285SOL     OW36313   2.863   2.540   6.686 -0.5622  0.3894 -0.3882
 8285SOL    HW136314   2.854   2.510   6.776  1.9210  1.3209  0.1926
 8285SOL    HW236315   2.777   2.530   6.646 -1.0272 -0.7543  0.8992
 8286SOL     OW36316   0.237   2.271   5.096 -0.6938 -0.3395 -0.0873
 8286SOL    HW136317   0.171   2.272   5.165 -0.2926  0.7035  0.2723
 8286SOL    HW236318   0.315   2.281   5.150  0.1363 -1.5962 -1.0499
 8287SOL     OW36319   2.863   2.083   2.467  0.4482 -0.0548  0.4389
 8287SOL    HW136320   2.864   2.021   2.539  0.9345 -0.0511  0.4353
 8287SOL    HW236321   2.954   2.076   2.440  0.8242  2.6022  1.0370
 8288SOL     OW36322   3.945   0.415   6.133  0.0100  0.1323 -0.3561
 8288SOL    HW136323   3.994   0.450   6.059 -0.9387 -0.3388 -1.2142
 8288SOL    HW236324   3.986   0.329   6.139 -1.5393 -0.5148  0.8995
 8289SOL     OW36325   3.739   4.115   8.697 -0.5649 -0.0656  0.2422
 8289SOL    HW136326   3.741   4.099   8.602  0.7461  0.3612  0.1995
 8289SOL    HW236327   3.649   4.093   8.722 -0.0946  0.1939  2.0973
 8290SOL     OW36328   3.782   2.341   4.539 -0.4642 -0.6325 -0.2741
 8290SOL    HW136329   3.723   2.274   4.505  0.9427 -1.9766 -0.0235
 8290SOL    HW236330   3.724   2.395   4.592 -0.2805 -1.4991  0.8023
 8291SOL     OW36331   4.374   4.377   7.630  0.4280 -0.0446  0.3161
 8291SOL    HW136332   4.438   4.323   7.584 -0.2606 -0.6884  0.1098
 8291SOL    HW236333   4.418   4.426   7.699  1.1501 -0.4964  0.1759
 8292SOL     OW36334   1.368   1.151   0.376 -0.1510  0.2570 -0.2792
 8292SOL    HW136335   1.327   1.082   0.427 -1.8421 -0.3160 -2.4353
 8292SOL    HW236336   1.313   1.228   0.389 -1.4684 -1.0766  1.9956
 8293SOL     OW36337   4.200   1.555  16.547 -0.3715  0.5096  0.9128
 8293SOL    HW136338   4.288   1.532  16.579 -0.1930 -0.9880 -0.6103
 8293SOL    HW236339   4.139   1.489  16.580 -0.3008 -1.5695 -3.0958
 8294SOL     OW36340   3.449   4.013   5.349  0.0956 -0.3464 -0.5976
 8294SOL    HW136341   3.513   3.958   5.395 -0.4738 -1.1792 -0.8054
 8294SOL    HW236342   3.472   4.103   5.373 -1.6968 -0.4962  1.6700
 8295SOL     OW36343   2.856   0.445   8.781  0.1718 -0.6398 -0.1650
 8295SOL    HW136344   2.951   0.438   8.777  0.4131  0.8936  2.4073
 8295SOL    HW236345   2.842   0.539   8.780  1.6241 -0.4505 -1.8959
 8296SOL     OW36346   1.282   4.413   9.066  0.6582 -0.1161 -0.0966
 8296SOL    HW136347   1.306   4.448   8.980 -0.4465 -1.1611 -0.8196
 8296SOL    HW236348   1.224   4.488   9.081 -0.7608 -0.7576 -2.3478
 8297SOL     OW36349   2.440   3.239  11.807  0.4045  0.0675  0.8834
 8297SOL    HW136350   2.390   3.223  11.887  0.0436 -1.9127  0.2609
 8297SOL    HW236351   2.394   3.320  11.784  0.1916  0.2781  2.0675
 8298SOL     OW36352   0.923   1.259   0.433 -0.5059 -0.2207 -0.0312
 8298SOL    HW136353   0.844   1.235   0.481  1.1410 -2.7074  1.3917
 8298SOL    HW236354   0.940   1.184   0.376 -0.4945  1.3085 -2.0243
 8299SOL     OW36355   3.011   4.221   3.762  0.4795  0.2699 -0.5811
 8299SOL    HW136356   3.049   4.199   3.847  0.2624 -1.9716 -1.0824
 8299SOL    HW236357   3.077   4.190   3.700  0.9015  1.8828 -0.9326
 8300SOL     OW36358   1.125   1.830   4.808 -0.3083  0.2457  0.1760
 8300SOL    HW136359   1.094   1.897   4.746  3.7732  2.6497  0.7383
 8300SOL    HW236360   1.189   1.777   4.760  0.4173 -0.3594  1.8190
 8301SOL     OW36361   2.182   2.670   2.004 -0.4907 -0.1842  0.4103
 8301SOL    HW136362   2.119   2.606   2.037 -0.6002 -0.2647  0.0358
 8301SOL    HW236363   2.135   2.749   1.977 -2.9160 -1.5297  0.7194
 8302SOL     OW36364   3.366   2.745  17.607 -0.0362 -0.2351  0.7073
 8302SOL    HW136365   3.416   2.668  17.634  0.6421 -0.6474 -1.7340
 8302SOL    HW236366   3.373   2.732  17.513  1.3687  1.5117  0.5888
 8303SOL     OW36367   0.068   1.674  14.151  0.0816 -0.1762  0.3673
 8303SOL    HW136368   0.075   1.673  14.056  0.6955  3.0366  0.3759
 8303SOL    HW236369   0.161   1.676  14.175  0.3247 -2.0896 -0.4654
 8304SOL     OW36370   1.186   1.164   7.995  0.0592  0.3395  0.1284
 8304SOL    HW136371   1.266   1.212   7.975 -0.0039 -0.4981 -2.1625
 8304SOL    HW236372   1.215   1.086   8.043  0.5300  1.0494  0.9798
 8305SOL     OW36373   1.328   3.253   4.835  0.2252  0.2336 -0.2884
 8305SOL    HW136374   1.297   3.338   4.803 -2.0510 -1.1404 -1.7402
 8305SOL    HW236375   1.355   3.290   4.919 -3.4483 -0.9572  1.4068
 8306SOL     OW36376   1.147   2.681   3.438 -0.2472 -0.1203  0.2007
 8306SOL    HW136377   1.077   2.645   3.383  1.3637 -0.7056 -1.4378
 8306SOL    HW236378   1.102   2.759   3.472  0.7906  1.0561 -1.1326
 8307SOL     OW36379   4.719   2.927   4.922  0.6028 -0.2923 -0.5008
 8307SOL    HW136380   4.645   2.955   4.976  1.6336 -0.6413  1.1162
 8307SOL    HW236381   4.684   2.923   4.833  0.2323  2.2881 -0.4658
 8308SOL     OW36382   4.058   2.308   8.682 -0.5946 -0.0942 -0.1432
 8308SOL    HW136383   4.114   2.237   8.650 -1.4382 -1.3272  1.1276
 8308SOL    HW236384   4.001   2.259   8.741  1.2549 -1.3200  0.6150
 8309SOL     OW36385   1.654   1.598   7.369  0.1355 -0.2035  0.5890
 8309SOL    HW136386   1.573   1.604   7.419  2.0309  1.3112  3.5354
 8309SOL    HW236387   1.637   1.655   7.294  1.5522 -0.2134  0.2614
 8310SOL     OW36388   4.386   2.146  14.488 -0.0674 -0.0946  0.1478
 8310SOL    HW136389   4.359   2.059  14.514 -1.6226  0.3320 -0.0113
 8310SOL    HW236390   4.448   2.121  14.419  0.3027 -2.0321  1.2041
 8311SOL     OW36391   1.083   2.745  15.642  0.5321 -0.6703  0.3052
 8311SOL    HW136392   1.007   2.756  15.585  0.0370  1.7016  1.4231
 8311SOL    HW236393   1.122   2.661  15.616 -2.0893 -2.0820  0.8734
 8312SOL     OW36394   3.146   0.883   8.115 -0.2200 -0.2585  0.4776
 8312SOL    HW136395   3.169   0.935   8.193  2.2612 -1.7302  0.7232
 8312SOL    HW236396   3.056   0.906   8.089 -0.5646 -0.6591  1.3239
 8313SOL     OW36397   4.477   3.695  14.140 -0.0590  0.5097 -0.3075
 8313SOL    HW136398   4.549   3.635  14.162  1.3046  2.5196  0.6950
 8313SOL    HW236399   4.405   3.633  14.127 -0.1561  0.3557  0.9588
 8314SOL     OW36400   0.461   0.803   5.909 -0.4691 -0.5590 -0.0399
 8314SOL    HW136401   0.528   0.850   5.860 -1.3769 -2.1015 -2.7830
 8314SOL    HW236402   0.392   0.801   5.842 -0.7688  0.5121  0.2442
 8315SOL     OW36403   3.595   4.257   3.191 -0.1542  0.0635  0.3164
 8315SOL    HW136404   3.683   4.272   3.155 -0.8792 -0.7154 -1.7667
 8315SOL    HW236405   3.544   4.295   3.120 -0.1509 -1.3194 -0.4310
 8316SOL     OW36406   0.030   1.145   7.076  0.0701 -0.1992  0.1629
 8316SOL    HW136407   4.678   1.109   7.030 -0.1022 -0.9368  1.0346
 8316SOL    HW236408   0.067   1.188   6.998 -2.1366 -0.1773 -0.8901
 8317SOL     OW36409   2.344   1.616  17.342  0.4082  0.0127 -0.4732
 8317SOL    HW136410   2.331   1.645  17.252  0.6157 -1.6506 -1.0392
 8317SOL    HW236411   2.272   1.553  17.334 -1.0542  1.3546  2.0292
 8318SOL     OW36412   3.947   2.217  13.862 -0.9609 -0.8536  0.2271
 8318SOL    HW136413   3.908   2.182  13.942 -1.5333  0.0521  0.3413
 8318SOL    HW236414   3.986   2.299  13.891  0.3798 -1.6667  0.6946
 8319SOL     OW36415   1.042   0.390   4.822  0.0512 -0.3375  0.1339
 8319SOL    HW136416   1.089   0.354   4.747 -0.6666 -1.6851  0.3352
 8319SOL    HW236417   1.048   0.313   4.879 -0.5788  0.2986  1.0478
 8320SOL     OW36418   0.164   0.661   6.906  0.1158  0.2568  0.1834
 8320SOL    HW136419   0.070   0.649   6.889  0.2487 -0.8098  0.2421
 8320SOL    HW236420   0.203   0.649   6.820 -1.3472 -0.6094 -0.3592
 8321SOL     OW36421   2.744   1.985  11.103  0.0967  0.2156  0.3363
 8321SOL    HW136422   2.784   1.931  11.171  0.7332 -1.6147 -1.5201
 8321SOL    HW236423   2.827   2.006  11.061 -0.1801 -3.3061 -1.9234
 8322SOL     OW36424   3.918   4.678   8.634  0.0287  0.0019 -0.0834
 8322SOL    HW136425   3.973   0.029   8.656  0.6208 -0.1022 -1.2055
 8322SOL    HW236426   3.841   0.008   8.614 -1.1498 -0.6996  2.5435
 8323SOL     OW36427   2.002   1.719   1.218 -0.5003 -0.5902  0.5378
 8323SOL    HW136428   1.961   1.719   1.304 -1.9255  2.0932 -0.1649
 8323SOL    HW236429   1.927   1.732   1.160  1.0267 -1.0227 -1.5338
 8324SOL     OW36430   3.747   1.226   3.639 -0.2726 -0.6730 -0.3335
 8324SOL    HW136431   3.697   1.304   3.662 -1.4537 -2.2267  2.2848
 8324SOL    HW236432   3.803   1.265   3.571 -0.2299 -0.7956 -0.3690
 8325SOL     OW36433   4.410   3.077   7.081  0.3418 -0.3009  0.0819
 8325SOL    HW136434   4.393   3.103   6.991  1.8913  0.8571  0.1277
 8325SOL    HW236435   4.459   3.146   7.124  1.3678 -0.7153 -0.4187
 8326SOL     OW36436   0.882   0.452   5.065 -0.2516  0.2136 -0.2104
 8326SOL    HW136437   0.892   0.467   4.971 -0.5874 -3.0696 -0.7731
 8326SOL    HW236438   0.786   0.452   5.070 -0.3180 -0.9783 -1.6121
 8327SOL     OW36439   1.207   0.427   9.857  0.0052 -0.3066 -0.2266
 8327SOL    HW136440   1.164   0.508   9.885 -2.6481 -1.2908 -1.4680
 8327SOL    HW236441   1.142   0.374   9.812 -1.5571  1.3943  0.0094
 8328SOL     OW36442   0.630   2.312  15.823 -0.1664  0.1871  0.4761
 8328SOL    HW136443   0.560   2.354  15.874  0.5383  2.2661 -0.2450
 8328SOL    HW236444   0.617   2.370  15.748 -4.6987 -0.6229  0.6311
 8329SOL     OW36445   1.430   2.184   5.612 -0.1532 -0.5959  0.0983
 8329SOL    HW136446   1.378   2.110   5.580 -0.8954  0.0762 -0.2491
 8329SOL    HW236447   1.467   2.219   5.531  0.1944  0.0517  0.5368
 8330SOL     OW36448   3.029   0.335   2.011 -0.2954 -0.1628  0.4420
 8330SOL    HW136449   2.969   0.396   2.055 -0.0347  0.7460 -0.4435
 8330SOL    HW236450   3.086   0.402   1.973  2.7662 -1.5841  2.5499
 8331SOL     OW36451   3.231   2.262   0.970  0.0610 -0.7288 -0.2158
 8331SOL    HW136452   3.147   2.242   0.928  0.6782 -0.4652 -1.5759
 8331SOL    HW236453   3.270   2.174   0.971 -0.6783 -1.0588 -0.6294
 8332SOL     OW36454   4.581   2.108  11.015  0.4745  0.3139 -0.1699
 8332SOL    HW136455   4.517   2.173  10.984 -0.1490 -0.7136 -1.0477
 8332SOL    HW236456   4.539   2.023  11.004  0.9096 -0.2359  2.5860
 8333SOL     OW36457   3.321   2.990   9.623 -0.0194  0.1993 -0.0333
 8333SOL    HW136458   3.379   2.921   9.653 -1.5755 -1.6606 -1.2982
 8333SOL    HW236459   3.368   3.061   9.667  0.6074  1.0626 -2.0986
 8334SOL     OW36460   0.857   0.650  10.735  0.2384  0.2318  0.0440
 8334SOL    HW136461   0.841   0.658  10.829  0.8881  1.5520  0.0509
 8334SOL    HW236462   0.779   0.686  10.693  0.0128  0.5008  0.7014
 8335SOL     OW36463   2.227   4.582   5.450 -0.1146  0.3592 -0.0980
 8335SOL    HW136464   2.300   4.572   5.511  0.5450 -0.4234 -1.0240
 8335SOL    HW236465   2.247   4.656   5.393 -0.5022  0.9675  0.5486
 8336SOL     OW36466   3.932   3.114   3.482  0.1541  0.0638 -0.1892
 8336SOL    HW136467   4.027   3.097   3.483  0.2643  0.7040  0.6468
 8336SOL    HW236468   3.913   3.086   3.392  0.8394  1.0407 -0.6368
 8337SOL     OW36469   0.559   3.455   4.003  0.0988  0.2555  0.6112
 8337SOL    HW136470   0.653   3.469   4.012 -0.2407  1.1943  2.7252
 8337SOL    HW236471   0.529   3.540   3.971  1.6069  0.6662  0.2936
 8338SOL     OW36472   4.653   3.846   6.022 -0.2806  0.3340  0.1402
 8338SOL    HW136473   4.566   3.873   5.990 -0.0316  0.8120 -0.1341
 8338SOL    HW236474   4.675   3.782   5.955  0.8478 -1.4892  2.2566
 8339SOL     OW36475   3.217   2.185   8.430 -0.0514 -0.2151 -0.1106
 8339SOL    HW136476   3.165   2.217   8.355 -2.6215 -0.4235  1.5882
 8339SOL    HW236477   3.285   2.143   8.377 -0.8971 -1.7500  0.0446
 8340SOL     OW36478   1.258   4.201  10.971 -0.7255 -0.3448 -0.3726
 8340SOL    HW136479   1.225   4.241  11.052  0.0300 -0.4122 -0.0319
 8340SOL    HW236480   1.325   4.146  11.011 -0.3583 -0.4958 -1.1994
 8341SOL     OW36481   2.812   4.234   4.497 -0.2319 -0.3026 -0.0273
 8341SOL    HW136482   2.748   4.236   4.426 -0.6619  1.0585  0.3947
 8341SOL    HW236483   2.887   4.199   4.449  1.2120 -0.3606  2.2132
 8342SOL     OW36484   2.312   2.650   2.274 -0.5770  0.0667  0.4731
 8342SOL    HW136485   2.350   2.733   2.305 -0.1843 -0.0432  0.2928
 8342SOL    HW236486   2.287   2.665   2.183 -0.0244 -1.3671  0.0891
 8343SOL     OW36487   0.307   4.395  11.595  0.0634  0.4656  0.0274
 8343SOL    HW136488   0.238   4.461  11.593  1.2066  1.6852  0.0028
 8343SOL    HW236489   0.287   4.338  11.669 -0.4241  0.6080  0.0059
 8344SOL     OW36490   1.502   0.090  10.342  0.1430 -0.1824  0.0241
 8344SOL    HW136491   1.555   0.122  10.270 -1.5983 -0.6110 -1.4420
 8344SOL    HW236492   1.523   0.163  10.400 -0.6641 -0.3384  0.5192
 8345SOL     OW36493   1.890   2.489   2.356  0.3242 -0.2089 -0.2841
 8345SOL    HW136494   1.953   2.558   2.373 -1.6741  2.3202 -3.1284
 8345SOL    HW236495   1.939   2.410   2.376 -1.3263 -0.9989  0.7030
 8346SOL     OW36496   3.381   3.532   7.724  0.5813  0.2911 -0.0481
 8346SOL    HW136497   3.471   3.564   7.732 -0.1670  1.3674  4.4992
 8346SOL    HW236498   3.342   3.590   7.658 -2.5046 -1.3289  0.3671
 8347SOL     OW36499   1.939   1.717  13.544  0.1087 -0.4424  0.2217
 8347SOL    HW136500   1.920   1.642  13.488  1.6455  0.6945 -1.8090
 8347SOL    HW236501   1.990   1.684  13.618  0.8541  0.8427  0.2890
 8348SOL     OW36502   0.044   0.824   1.467  0.5414  0.0410  0.0187
 8348SOL    HW136503   0.122   0.843   1.520 -0.0649 -1.1449  1.3501
 8348SOL    HW236504   0.051   0.728   1.468  0.8030  0.0473 -2.7759
 8349SOL     OW36505   2.089   3.838   8.505 -0.6696  0.3723 -0.5910
 8349SOL    HW136506   2.076   3.804   8.594  1.1494 -1.0956 -0.8759
 8349SOL    HW236507   2.164   3.785   8.477  0.3720  1.3870  0.2335
 8350SOL     OW36508   2.482   2.368  10.218 -0.6091  0.3815  0.3117
 8350SOL    HW136509   2.399   2.336  10.184  0.1815 -0.5407 -0.7403
 8350SOL    HW236510   2.552   2.344  10.158 -0.0004 -1.2532  1.6427
 8351SOL     OW36511   0.584   0.366   5.767 -0.4325 -0.0202  0.4512
 8351SOL    HW136512   0.642   0.371   5.842 -1.3272  0.3959  1.1171
 8351SOL    HW236513   0.536   0.286   5.787 -1.8287 -0.2225 -3.5701
 8352SOL     OW36514   3.537   1.257   6.270 -0.3890 -0.1607 -0.3942
 8352SOL    HW136515   3.536   1.351   6.255  0.0273 -0.5263 -2.8024
 8352SOL    HW236516   3.492   1.245   6.354 -2.3562  1.0390 -1.2823
 8353SOL     OW36517   3.945   0.354   3.226 -0.1528  0.6849  0.3661
 8353SOL    HW136518   3.976   0.264   3.232 -0.8604  0.3445 -1.2301
 8353SOL    HW236519   3.985   0.388   3.146 -0.4662 -1.4342 -0.6826
 8354SOL     OW36520   0.800   0.073   6.002 -0.1097 -0.4091  0.3173
 8354SOL    HW136521   0.710   0.094   6.027 -0.2700 -0.9965  0.2443
 8354SOL    HW236522   0.807   0.142   5.937 -2.3056 -0.3546  0.1388
 8355SOL     OW36523   1.415   1.879   9.298 -0.5171 -0.5034  0.4756
 8355SOL    HW136524   1.475   1.824   9.348  2.5823  3.4161  1.1042
 8355SOL    HW236525   1.428   1.967   9.333 -0.4487 -0.2829 -0.0937
 8356SOL     OW36526   2.560   2.426   1.750 -0.5234  0.5370  0.3747
 8356SOL    HW136527   2.481   2.429   1.803 -0.4937 -0.7817  0.4852
 8356SOL    HW236528   2.588   2.337   1.770  0.4783  0.8754  0.4794
 8357SOL     OW36529   0.352   3.153   7.251 -0.4624  0.6166 -0.2396
 8357SOL    HW136530   0.395   3.089   7.307  0.1232  2.8131  1.7971
 8357SOL    HW236531   0.259   3.135   7.263 -0.8378  1.4905 -1.8403
 8358SOL     OW36532   2.892   4.101   6.631 -0.0796  0.6588 -0.2678
 8358SOL    HW136533   2.844   4.022   6.606 -0.5489  0.5309  1.0417
 8358SOL    HW236534   2.981   4.068   6.645 -0.4016  0.0903  0.3929
 8359SOL     OW36535   2.323   2.101   9.413  0.3581 -0.5397  0.2536
 8359SOL    HW136536   2.244   2.121   9.464  1.2283 -0.0154  1.3951
 8359SOL    HW236537   2.293   2.093   9.323  0.0589  0.6492  0.2483
 8360SOL     OW36538   1.285   2.191   8.661 -0.0625  0.3951  0.1765
 8360SOL    HW136539   1.217   2.183   8.727 -1.3269  2.5082 -0.8668
 8360SOL    HW236540   1.345   2.119   8.678  0.5575  0.6797 -0.8113
 8361SOL     OW36541   0.796   0.405   3.671 -0.1768 -0.7145 -0.3181
 8361SOL    HW136542   0.884   0.443   3.658 -0.9939  1.3218  0.1564
 8361SOL    HW236543   0.756   0.452   3.743 -3.6564 -2.6812 -0.9815
 8362SOL     OW36544   2.942   0.862   4.219  0.3559  0.1471 -0.2364
 8362SOL    HW136545   3.018   0.919   4.226  2.4853 -2.2987 -3.8775
 8362SOL    HW236546   2.951   0.839   4.127 -1.7344  2.1699 -0.9693
 8363SOL     OW36547   1.846   4.468  15.917  0.3352 -0.0217  0.1893
 8363SOL    HW136548   1.862   4.472  15.822 -2.0291 -0.0895 -0.2013
 8363SOL    HW236549   1.754   4.495  15.913 -0.2981 -2.2798 -0.3300
 8364SOL     OW36550   4.506   4.518   2.947 -0.3451  0.2862  0.6741
 8364SOL    HW136551   4.417   4.512   2.914  0.8349  2.0747 -2.7815
 8364SOL    HW236552   4.560   4.530   2.869  1.4018 -2.6039  1.4411
 8365SOL     OW36553   0.297   3.271   2.032  0.1060  0.4220 -0.1006
 8365SOL    HW136554   0.290   3.346   1.973 -0.3542 -1.0561 -1.9579
 8365SOL    HW236555   0.268   3.211   1.963  1.6729  0.0597 -0.4437
 8366SOL     OW36556   2.856   0.599   4.278 -0.6149 -0.3946  0.0999
 8366SOL    HW136557   2.900   0.673   4.236 -0.7439  0.2736  1.1413
 8366SOL    HW236558   2.879   0.527   4.220  0.7645 -1.5198  2.0694
 8367SOL     OW36559   4.215   2.708   9.047  0.0202 -0.1717 -0.6879
 8367SOL    HW136560   4.205   2.690   9.141 -0.4502  0.7173 -0.5639
 8367SOL    HW236561   4.286   2.770   9.064 -0.6787  0.1473  1.1123
 8368SOL     OW36562   0.062   4.624   4.650 -0.1537  0.0797  0.5900
 8368SOL    HW136563   0.147   4.637   4.609  0.1003 -0.7067  0.8684
 8368SOL    HW236564   0.042   4.533   4.629  2.8509  0.0909 -2.3516
 8369SOL     OW36565   2.571   2.985  15.847  0.1771 -0.2877  0.2834
 8369SOL    HW136566   2.594   2.922  15.779 -1.4685 -1.5460  0.9005
 8369SOL    HW236567   2.490   3.022  15.812 -0.2765 -1.5281  0.0363
 8370SOL     OW36568   4.455   1.724  16.444  0.5046 -0.2576 -0.2591
 8370SOL    HW136569   4.381   1.691  16.393  0.2757 -3.0658  1.8904
 8370SOL    HW236570   4.414   1.758  16.524  0.2193 -0.1367 -0.4578
 8371SOL     OW36571   2.489   2.970   7.107  0.0816 -0.9938 -0.0516
 8371SOL    HW136572   2.457   2.929   7.027  2.3216  1.1388 -2.0400
 8371SOL    HW236573   2.564   3.025   7.083  0.0105 -0.7956  0.1764
 8372SOL     OW36574   1.015   4.678   3.315  0.5644 -0.5253 -0.2925
 8372SOL    HW136575   0.956   0.023   3.345  0.2427 -0.3206 -1.3836
 8372SOL    HW236576   1.098   0.001   3.317  1.7096 -2.6049  0.9655
 8373SOL     OW36577   3.753   3.615  13.288 -0.2636 -0.4373  0.0329
 8373SOL    HW136578   3.701   3.686  13.326  0.2487  0.1717 -0.4120
 8373SOL    HW236579   3.743   3.550  13.357  1.8959 -1.4529 -0.5999
 8374SOL     OW36580   2.184   4.689   6.690 -0.3567  0.2543  0.2622
 8374SOL    HW136581   2.122   4.637   6.742 -0.2263  2.0184  2.1774
 8374SOL    HW236582   2.171   4.644   6.606  0.4057 -1.5789  1.1369
 8375SOL     OW36583   3.610   3.388   1.054 -0.7651 -0.2074 -0.4555
 8375SOL    HW136584   3.558   3.315   1.086  0.9078 -1.4987 -0.7095
 8375SOL    HW236585   3.537   3.444   1.026 -0.2064 -0.1079 -1.7116
 8376SOL     OW36586   0.564   0.709   7.347 -0.6265 -0.3396  0.5915
 8376SOL    HW136587   0.550   0.636   7.407  1.7166 -0.3338  1.1614
 8376SOL    HW236588   0.614   0.771   7.400  0.3881  0.2979 -1.1174
 8377SOL     OW36589   4.216   1.109   8.405 -0.2529 -0.2535 -0.4759
 8377SOL    HW136590   4.213   1.046   8.333 -2.5802  0.2346 -0.7816
 8377SOL    HW236591   4.285   1.171   8.381 -1.3831  1.7171  1.3561
 8378SOL     OW36592   3.472   2.053   8.328  0.3323 -0.0901  0.1146
 8378SOL    HW136593   3.507   1.985   8.386 -0.5440  0.4649  1.2948
 8378SOL    HW236594   3.531   2.125   8.350 -1.2897  1.0697  0.6369
 8379SOL     OW36595   1.881   1.706   9.218 -0.3749 -0.4689 -0.1231
 8379SOL    HW136596   1.971   1.717   9.248 -0.5640 -1.6906  0.9366
 8379SOL    HW236597   1.873   1.789   9.172  1.0813  0.3099  1.0108
 8380SOL     OW36598   3.645   3.306  17.622 -0.2177 -0.3187 -0.0733
 8380SOL    HW136599   3.646   3.262   0.009  2.6585  1.6112  0.8986
 8380SOL    HW236600   3.606   3.234  17.572  1.7691 -1.3320 -0.1427
 8381SOL     OW36601   3.794   1.678   8.671  0.2251  0.2008 -0.1801
 8381SOL    HW136602   3.729   1.725   8.723  0.7359  1.5657 -0.8068
 8381SOL    HW236603   3.869   1.736   8.673  0.5827 -0.2229 -1.2382
 8382SOL     OW36604   0.443   4.327  11.023  0.1648 -0.6108  0.0432
 8382SOL    HW136605   0.424   4.247  10.974 -2.0899  1.9945 -3.3349
 8382SOL    HW236606   0.522   4.303  11.071  0.8386 -1.3082 -1.3932
 8383SOL     OW36607   2.883   4.480  12.249 -0.5759 -0.1184 -0.5245
 8383SOL    HW136608   2.968   4.522  12.234 -0.5040 -0.4892 -1.1352
 8383SOL    HW236609   2.899   4.397  12.206  0.2566 -0.4031  0.3140
 8384SOL     OW36610   3.602   4.534   9.929 -0.0312 -0.7960 -0.0226
 8384SOL    HW136611   3.633   4.460   9.876 -2.2382 -0.4238 -1.8480
 8384SOL    HW236612   3.660   4.520  10.003  0.0689 -1.6833 -0.2661
 8385SOL     OW36613   4.466   2.197   5.434 -0.0490 -0.0053  0.5684
 8385SOL    HW136614   4.540   2.152   5.475  0.1627 -0.3078 -0.1453
 8385SOL    HW236615   4.462   2.139   5.358 -0.0977 -0.3604  0.8378
 8386SOL     OW36616   2.119   1.718   8.522  1.0821 -0.0489 -0.2643
 8386SOL    HW136617   2.202   1.672   8.508  1.7324  1.1429 -0.3479
 8386SOL    HW236618   2.121   1.785   8.454 -1.3761  1.3260  1.0643
 8387SOL     OW36619   2.506   2.555   9.350 -0.5217 -0.7173  0.1489
 8387SOL    HW136620   2.553   2.521   9.274  1.0998 -0.1517  0.8704
 8387SOL    HW236621   2.569   2.624   9.372  0.3080 -2.6737  3.9095
 8388SOL     OW36622   2.754   2.172   4.639  0.3729 -1.0408 -0.2849
 8388SOL    HW136623   2.685   2.164   4.573 -0.1782 -1.9283  0.3987
 8388SOL    HW236624   2.714   2.225   4.707  0.3229 -2.6563  0.9403
 8389SOL     OW36625   2.812   2.176   6.102 -0.8357 -0.4998 -0.6631
 8389SOL    HW136626   2.824   2.095   6.151  1.3115  0.2785  0.1064
 8389SOL    HW236627   2.755   2.228   6.160  0.1563  0.2118 -0.3264
 8390SOL     OW36628   4.433   3.745   4.514  0.3578 -0.1002  0.1918
 8390SOL    HW136629   4.423   3.711   4.602  2.2357  1.6438  1.0944
 8390SOL    HW236630   4.391   3.831   4.513  0.1766 -0.2007 -0.8530
 8391SOL     OW36631   3.884   1.923   5.289 -0.1023  0.0317  1.1298
 8391SOL    HW136632   3.909   2.010   5.257  0.7590 -1.8913 -3.4352
 8391SOL    HW236633   3.809   1.900   5.234 -0.4386  1.5415  0.9347
 8392SOL     OW36634   0.309   1.779   7.418  0.1416 -0.1341 -0.0842
 8392SOL    HW136635   0.304   1.818   7.505  0.9349  2.6455 -1.2950
 8392SOL    HW236636   0.308   1.845   7.349  1.7471  0.2594  0.2665
 8393SOL     OW36637   4.259   0.791   3.803  0.5164 -0.8409  0.2013
 8393SOL    HW136638   4.165   0.800   3.789  0.4920  1.8541  1.9937
 8393SOL    HW236639   4.289   0.872   3.761 -1.7392  0.8550  1.8953
 8394SOL     OW36640   1.243   1.118  16.216  0.2734  0.0545 -0.1409
 8394SOL    HW136641   1.295   1.191  16.249  2.0184  0.0862 -3.0013
 8394SOL    HW236642   1.303   1.044  16.226  0.5886  0.2617 -0.5323
 8395SOL     OW36643   1.865   2.176   4.318 -0.0224  0.1585  0.5865
 8395SOL    HW136644   1.803   2.249   4.314 -1.2319 -0.9010  0.1949
 8395SOL    HW236645   1.920   2.204   4.391  2.6111 -0.6717 -1.0966
 8396SOL     OW36646   2.916   4.209   6.287 -0.1799 -0.2074  0.2622
 8396SOL    HW136647   2.955   4.277   6.233 -0.0590 -0.0475  0.5490
 8396SOL    HW236648   2.884   4.262   6.360 -0.8130  1.8546 -1.5453
 8397SOL     OW36649   1.101   0.090  14.032  0.2897  0.4276  0.3640
 8397SOL    HW136650   1.086   4.723  14.058  1.9379  0.7301  2.3437
 8397SOL    HW236651   1.014   0.128  14.044 -0.3034 -0.2933 -1.5786
 8398SOL     OW36652   1.435   4.422   0.467 -0.5687 -0.3578 -0.1082
 8398SOL    HW136653   1.443   4.516   0.482  1.5222 -0.7124  1.0019
 8398SOL    HW236654   1.525   4.408   0.495 -0.7692  0.8591  1.1725
 8399SOL     OW36655   2.644   0.158   0.922 -0.8246  0.0639  0.2135
 8399SOL    HW136656   2.565   0.149   0.975 -1.9888  2.6895 -1.0575
 8399SOL    HW236657   2.604   0.213   0.854 -0.5503 -0.1523 -0.1199
 8400SOL     OW36658   0.328   2.580  15.307  0.3789  0.1750 -0.1382
 8400SOL    HW136659   0.319   2.633  15.228 -2.5251  0.6920  0.5254
 8400SOL    HW236660   0.403   2.523  15.291 -0.6341 -0.6841 -1.7932
 8401SOL     OW36661   3.354   4.496   4.414  0.3230 -0.2999  0.4390
 8401SOL    HW136662   3.433   4.441   4.416  0.0944 -0.6823 -1.1778
 8401SOL    HW236663   3.304   4.463   4.489 -0.8920 -0.8231 -0.6027
 8402SOL     OW36664   4.151   0.504  14.822  0.3198 -0.3506 -0.2379
 8402SOL    HW136665   4.060   0.494  14.851  0.8770  0.0299  1.6136
 8402SOL    HW236666   4.190   0.431  14.870  0.4472 -0.3437 -0.3312
 8403SOL     OW36667   0.450   0.183   2.833  0.0490  0.3523  0.0601
 8403SOL    HW136668   0.512   0.203   2.763  0.4467  1.6618  0.7933
 8403SOL    HW236669   0.432   0.090   2.819  0.6906  0.1038  0.8769
 8404SOL     OW36670   1.808   3.384  17.246 -0.2395 -0.1809 -0.0916
 8404SOL    HW136671   1.723   3.379  17.289  0.6420 -0.5962  1.6086
 8404SOL    HW236672   1.863   3.321  17.294 -0.0917 -0.3699 -0.5140
 8405SOL     OW36673   4.275   2.963   7.266  0.3455  0.1019  0.0258
 8405SOL    HW136674   4.356   3.010   7.244 -1.6710  3.7341  0.2873
 8405SOL    HW236675   4.266   2.905   7.191 -3.5543  0.7299  0.0039
 8406SOL     OW36676   4.276   4.633   6.328  0.3211  0.1116 -0.8496
 8406SOL    HW136677   4.294   4.719   6.292  0.6644  0.4768  0.1821
 8406SOL    HW236678   4.229   4.595   6.254 -0.2262 -2.0859  0.6246
 8407SOL     OW36679   1.910   3.774   3.714  0.5565  0.4708  0.3326
 8407SOL    HW136680   1.924   3.750   3.622 -2.6159 -0.4534  0.0511
 8407SOL    HW236681   1.815   3.767   3.724  0.3783  0.5275 -1.2258
 8408SOL     OW36682   1.942   1.841   8.705 -0.7514  0.8315 -0.3096
 8408SOL    HW136683   1.999   1.790   8.763 -0.0447 -0.5539 -2.2159
 8408SOL    HW236684   1.976   1.816   8.619 -0.6643  1.7205 -0.5353
 8409SOL     OW36685   1.630   4.304  11.329 -0.6304  0.4037  0.3015
 8409SOL    HW136686   1.725   4.292  11.324 -0.2601  3.8486 -0.9321
 8409SOL    HW236687   1.603   4.223  11.287 -1.5375  0.6155  0.4760
 8410SOL     OW36688   3.332   3.341   7.431 -0.2045  0.4262 -0.1591
 8410SOL    HW136689   3.409   3.361   7.378 -0.7461  0.9685 -0.7456
 8410SOL    HW236690   3.267   3.335   7.360 -0.6398 -0.5549  0.3269
 8411SOL     OW36691   4.076   4.228  12.312  0.5159  0.4078  0.6923
 8411SOL    HW136692   4.089   4.285  12.387 -0.1291  0.4020  0.8114
 8411SOL    HW236693   4.106   4.145  12.349  0.5873  0.5305  0.9089
 8412SOL     OW36694   0.006   1.091   1.714 -0.7356  0.0613  0.0715
 8412SOL    HW136695   4.724   1.184   1.691 -0.8733 -0.8607 -3.6026
 8412SOL    HW236696   0.057   1.104   1.794 -2.3031  1.9243  0.8014
 8413SOL     OW36697   4.310   4.514   8.143  0.0279  0.2346 -0.3232
 8413SOL    HW136698   4.402   4.512   8.169  0.2152 -0.4011 -1.0539
 8413SOL    HW236699   4.257   4.507   8.223  0.5599  0.4305  0.0444
 8414SOL     OW36700   1.680   1.109  15.763 -0.1740  0.0333  0.3262
 8414SOL    HW136701   1.736   1.033  15.754 -1.3486 -0.9849  1.6427
 8414SOL    HW236702   1.722   1.177  15.710  0.4560 -1.0883 -0.5908
 8415SOL     OW36703   3.244   1.181   6.995 -0.3799  0.2854 -0.2935
 8415SOL    HW136704   3.184   1.246   6.959  0.3426  0.9505 -0.2735
 8415SOL    HW236705   3.312   1.231   7.040 -2.8782  1.9367  1.6348
 8416SOL     OW36706   4.315   1.927   6.535 -0.0357 -0.2361  0.2933
 8416SOL    HW136707   4.398   1.915   6.489 -0.6660 -0.6509 -0.7252
 8416SOL    HW236708   4.282   1.837   6.542  3.2613 -1.3132  1.8006
 8417SOL     OW36709   1.883   1.813   7.738  0.1617 -0.3202 -0.3834
 8417SOL    HW136710   1.875   1.720   7.719 -0.6743  0.1482 -2.3393
 8417SOL    HW236711   1.832   1.817   7.819 -0.2673  0.3606 -0.6840
 8418SOL     OW36712   1.185   3.941   1.940  0.4912 -0.3235 -0.7466
 8418SOL    HW136713   1.100   3.971   1.971  0.5896  0.0095 -0.7914
 8418SOL    HW236714   1.235   4.020   1.960  1.0233 -0.1912 -2.5872
 8419SOL     OW36715   3.369   1.141   6.714  0.5640 -0.0809  0.3530
 8419SOL    HW136716   3.337   1.111   6.799 -0.9550 -0.4531 -0.3428
 8419SOL    HW236717   3.456   1.102   6.711  0.4595 -0.1393 -2.0464
 8420SOL     OW36718   0.407   2.223   5.323 -0.2098  0.0525 -0.4021
 8420SOL    HW136719   0.316   2.244   5.345  0.2866 -0.4279  2.0936
 8420SOL    HW236720   0.443   2.228   5.412  1.2304  0.0609 -0.9861
 8421SOL     OW36721   2.239   1.288   7.393  0.0931 -0.3047 -0.0043
 8421SOL    HW136722   2.261   1.279   7.300 -2.0668  2.1779 -0.7191
 8421SOL    HW236723   2.295   1.220   7.430  0.9437 -1.2757 -3.0184
 8422SOL     OW36724   3.633   0.243   8.187  0.2101  0.2293 -0.4849
 8422SOL    HW136725   3.643   0.282   8.100 -0.2361  0.2661 -0.5171
 8422SOL    HW236726   3.539   0.246   8.202  0.4354 -0.9030  1.0633
 8423SOL     OW36727   2.808   1.188   8.288 -0.0788 -0.9740  0.2940
 8423SOL    HW136728   2.753   1.130   8.341 -0.7802 -1.6989 -1.2450
 8423SOL    HW236729   2.862   1.246   8.341  0.3260  0.6525 -1.8997
 8424SOL     OW36730   3.774   1.101   5.882  0.1464  0.2742  0.6318
 8424SOL    HW136731   3.831   1.048   5.938 -2.1588 -3.4113 -0.4724
 8424SOL    HW236732   3.765   1.181   5.933  3.5100  1.2902 -0.3480
 8425SOL     OW36733   3.785   1.357   1.681 -0.3078 -0.7394 -0.3758
 8425SOL    HW136734   3.769   1.333   1.772 -1.9448  0.0311 -0.4528
 8425SOL    HW236735   3.700   1.330   1.646 -0.3020 -0.3036 -0.7260
 8426SOL     OW36736   4.390   0.420   6.704  0.1022 -0.1170  0.0147
 8426SOL    HW136737   4.344   0.356   6.650 -0.7608  1.0661 -0.6431
 8426SOL    HW236738   4.373   0.497   6.650 -0.4860 -1.5347 -1.7943
 8427SOL     OW36739   3.566   0.134  14.552  0.2918  0.3580  0.0644
 8427SOL    HW136740   3.632   0.163  14.615 -0.3696  0.8162  0.5507
 8427SOL    HW236741   3.568   0.214  14.500 -3.0215  0.9384  0.7805
 8428SOL     OW36742   3.895   0.533  10.901 -0.2101 -0.2482  0.0147
 8428SOL    HW136743   3.827   0.566  10.842  0.1582  0.9011  0.2228
 8428SOL    HW236744   3.975   0.538  10.848 -0.1598  1.2313  0.2066
 8429SOL     OW36745   0.123   0.451   9.050 -0.2734  0.0830 -0.1959
 8429SOL    HW136746   0.139   0.544   9.069 -0.3465 -0.0071  0.3091
 8429SOL    HW236747   0.112   0.437   8.956 -2.0227  0.9636 -0.1128
 8430SOL     OW36748   0.648   2.726   9.105 -0.2441  0.7584  0.1289
 8430SOL    HW136749   0.711   2.655   9.109 -1.1312 -0.0142  0.4401
 8430SOL    HW236750   0.653   2.755   9.014 -0.1060  2.1179  0.5642
 8431SOL     OW36751   3.535   0.206   9.183  0.5152  0.0593 -0.6797
 8431SOL    HW136752   3.482   0.126   9.175 -1.1101  1.0189  0.4967
 8431SOL    HW236753   3.529   0.210   9.279  0.2948  0.0270 -0.6909
 8432SOL     OW36754   1.952   2.943   8.419  0.0778 -0.1760  0.5454
 8432SOL    HW136755   1.957   2.848   8.412  1.5960 -0.2851  3.3010
 8432SOL    HW236756   1.986   2.973   8.334 -2.3788 -0.4634 -0.5278
 8433SOL     OW36757   0.142   0.511   4.807  0.5424  0.1754  0.2598
 8433SOL    HW136758   0.052   0.502   4.839 -0.5540  1.9875 -2.2457
 8433SOL    HW236759   0.192   0.444   4.853  2.1678  0.3866 -1.2146
 8434SOL     OW36760   2.414   1.005   3.701  0.2434  0.2591  0.1756
 8434SOL    HW136761   2.454   1.087   3.672 -0.5909 -0.2629 -2.3626
 8434SOL    HW236762   2.366   1.055   3.767  0.6979  0.8444  0.0742
 8435SOL     OW36763   3.903   4.122   2.412  0.2111  0.4899 -0.2046
 8435SOL    HW136764   3.915   4.207   2.454 -2.2820 -0.2761  2.0054
 8435SOL    HW236765   3.992   4.117   2.375  0.9491  1.5816  1.4290
 8436SOL     OW36766   0.291   2.134   1.963 -0.2424 -0.4394  0.0380
 8436SOL    HW136767   0.226   2.096   1.903  1.2128 -2.4234 -0.2669
 8436SOL    HW236768   0.380   2.110   1.936 -0.8018 -1.0303 -1.2904
 8437SOL     OW36769   1.002   3.595  17.370 -0.8085 -0.2204 -0.5743
 8437SOL    HW136770   1.046   3.512  17.352  1.5143  0.8721  0.0238
 8437SOL    HW236771   0.926   3.564  17.419  1.8727 -0.3415  3.6123
 8438SOL     OW36772   0.897   0.564  13.064  0.2967  0.3724  0.1019
 8438SOL    HW136773   0.806   0.535  13.064  0.2418  0.5175  1.8489
 8438SOL    HW236774   0.900   0.578  12.970  1.2834 -0.8703 -0.0428
 8439SOL     OW36775   1.505   2.217   5.364  0.3422  0.0445  0.4734
 8439SOL    HW136776   1.496   2.261   5.279 -0.8922  1.1434  1.1792
 8439SOL    HW236777   1.592   2.180   5.350  1.0811  2.2411 -0.8338
 8440SOL     OW36778   4.616   3.531   2.200  0.0635  0.5939  0.0618
 8440SOL    HW136779   4.675   3.520   2.275 -1.0789 -2.9525  0.4485
 8440SOL    HW236780   4.578   3.614   2.227 -0.0011  1.1181 -1.6469
 8441SOL     OW36781   2.590   0.482   9.311  0.4217  0.3005  0.1248
 8441SOL    HW136782   2.680   0.515   9.314  0.5183  0.1527 -1.3558
 8441SOL    HW236783   2.610   0.389   9.308  0.6130  0.3609 -0.5171
 8442SOL     OW36784   4.491   2.775  12.552  0.0794 -0.3988  0.4937
 8442SOL    HW136785   4.581   2.769  12.584  0.1692 -2.5392 -0.1088
 8442SOL    HW236786   4.449   2.810  12.630 -3.1193  1.0292 -1.8977
 8443SOL     OW36787   0.623   0.204  12.758  0.3595 -0.2832  0.0555
 8443SOL    HW136788   0.682   0.246  12.696 -1.0653  0.7666 -0.5812
 8443SOL    HW236789   0.686   0.159  12.815 -0.5581 -1.7194 -0.0552
 8444SOL     OW36790   4.539   3.176   7.998  0.5566  0.5956 -0.1483
 8444SOL    HW136791   4.477   3.222   8.055  0.7016  2.8753 -1.8016
 8444SOL    HW236792   4.552   3.098   8.052 -1.1538 -0.0810 -0.7311
 8445SOL     OW36793   0.922   2.215   8.671 -0.1615 -0.8304 -0.9760
 8445SOL    HW136794   0.979   2.174   8.606 -1.1990 -0.7902 -1.9100
 8445SOL    HW236795   0.848   2.156   8.685  0.5078 -2.1322 -3.0495
 8446SOL     OW36796   0.894   0.169   8.573 -0.0454 -0.6306  0.1724
 8446SOL    HW136797   0.812   0.151   8.527  0.5273 -0.2536 -0.9875
 8446SOL    HW236798   0.866   0.154   8.663 -1.4449 -3.4868 -0.7630
 8447SOL     OW36799   2.150   1.548   3.056 -0.1570 -0.6265  0.0556
 8447SOL    HW136800   2.180   1.631   3.094 -1.3768  0.5228 -1.5061
 8447SOL    HW236801   2.071   1.572   3.008 -1.6898 -0.2809  2.7318
 8448SOL     OW36802   4.362   4.283   7.991  0.3769  0.2527  0.0525
 8448SOL    HW136803   4.319   4.353   8.040  0.4788  1.0371 -0.9855
 8448SOL    HW236804   4.450   4.312   7.967  0.1848 -1.1675 -2.3417
 8449SOL     OW36805   3.988   2.095   1.453 -1.0943  0.0235 -0.9406
 8449SOL    HW136806   3.921   2.160   1.475  0.9909  1.4760  1.0646
 8449SOL    HW236807   4.048   2.156   1.410 -0.8610  1.7227  1.7819
 8450SOL     OW36808   1.001   3.463  10.555 -0.5021  0.0226 -0.2551
 8450SOL    HW136809   0.948   3.514  10.616  0.7719  0.6049  0.3729
 8450SOL    HW236810   0.937   3.454  10.484 -2.2797  0.2395  1.3392
 8451SOL     OW36811   4.413   4.546   4.815 -0.5273 -0.2850  0.3584
 8451SOL    HW136812   4.485   4.538   4.878  1.2752  1.6869 -1.4628
 8451SOL    HW236813   4.429   4.464   4.770  1.3582  0.4750 -0.3709
 8452SOL     OW36814   4.252   1.832   8.539 -0.1597  0.4480  0.0962
 8452SOL    HW136815   4.330   1.783   8.564 -0.0662  1.2178  1.3385
 8452SOL    HW236816   4.250   1.827   8.443 -0.1230 -0.5274  0.1533
 8453SOL     OW36817   1.121   1.916   6.295  0.7453  0.0787 -0.3246
 8453SOL    HW136818   1.026   1.919   6.308  0.7030 -1.9891 -0.1001
 8453SOL    HW236819   1.117   1.862   6.216  0.2912  0.0499 -0.2820
 8454SOL     OW36820   2.497   3.095  14.467  0.1551  0.2356 -0.1892
 8454SOL    HW136821   2.512   3.184  14.500  0.6569  0.1842 -0.2845
 8454SOL    HW236822   2.514   3.037  14.541 -0.4300  1.9009  1.2538
 8455SOL     OW36823   0.465   3.996  16.674 -0.0686  0.5281  0.2427
 8455SOL    HW136824   0.426   3.912  16.699  1.6184 -0.7171 -1.3718
 8455SOL    HW236825   0.544   3.997  16.727 -0.8770 -0.9290  1.4788
 8456SOL     OW36826   3.209   2.202   5.612 -0.0310 -0.1817  0.0167
 8456SOL    HW136827   3.254   2.265   5.555 -1.2373  0.6609 -0.0118
 8456SOL    HW236828   3.217   2.246   5.697  0.8968 -1.1124  0.4113
 8457SOL     OW36829   0.264   2.813  12.166 -0.3214 -0.5789 -0.2167
 8457SOL    HW136830   0.352   2.778  12.183 -0.6997 -0.9183  1.0002
 8457SOL    HW236831   0.266   2.782  12.075  2.0258 -1.2689  0.0654
 8458SOL     OW36832   1.944   1.098   5.252 -0.1439  0.2759  0.3390
 8458SOL    HW136833   1.956   1.005   5.234 -1.5953 -0.1858  1.7792
 8458SOL    HW236834   2.029   1.143   5.251 -0.1014  0.2366  1.5673
 8459SOL     OW36835   2.609   4.471   1.032 -0.2512  0.2210 -0.2449
 8459SOL    HW136836   2.700   4.460   1.003  0.1258  0.8379  0.7014
 8459SOL    HW236837   2.583   4.382   1.055 -0.0665 -0.6393 -3.3353
 8460SOL     OW36838   0.769   0.594   9.828  0.2446  0.2281 -0.4714
 8460SOL    HW136839   0.853   0.607   9.873  0.0234 -2.1170  0.5802
 8460SOL    HW236840   0.786   0.611   9.736 -0.0779 -0.6518 -0.6939
 8461SOL     OW36841   3.144   0.091   6.977  0.7297 -0.1866  0.2548
 8461SOL    HW136842   3.159   0.050   6.891 -0.4516  0.0841 -0.0725
 8461SOL    HW236843   3.115   0.182   6.965 -0.0048 -0.8074 -2.6777
 8462SOL     OW36844   1.922   2.476  10.601  0.1328  0.2517  0.0314
 8462SOL    HW136845   1.838   2.507  10.635 -0.7383 -0.6407 -1.3536
 8462SOL    HW236846   1.934   2.389  10.640  0.0882 -0.3311 -1.2792
 8463SOL     OW36847   4.255   2.623  13.740 -0.5993  0.3031  0.2261
 8463SOL    HW136848   4.289   2.564  13.808 -1.3292 -0.6871 -0.2626
 8463SOL    HW236849   4.194   2.674  13.792 -0.9489 -0.5613  0.6653
 8464SOL     OW36850   1.895   3.536   8.324 -0.4735 -0.0800  0.2816
 8464SOL    HW136851   1.819   3.494   8.364 -1.8532  2.2097  0.0755
 8464SOL    HW236852   1.926   3.468   8.264  0.9082  2.0582 -1.4173
 8465SOL     OW36853   0.525   1.999  13.888 -0.4722  0.1165  0.1485
 8465SOL    HW136854   0.605   2.043  13.917 -0.3463  0.6256 -0.9791
 8465SOL    HW236855   0.485   1.961  13.967 -1.7650 -0.9931 -1.0348
 8466SOL     OW36856   0.935   1.475   3.465  0.6169 -0.2341  0.3186
 8466SOL    HW136857   1.008   1.537   3.461  1.5212 -1.3551 -0.6272
 8466SOL    HW236858   0.926   1.452   3.372  1.7457 -0.7456  0.3392
 8467SOL     OW36859   3.938   0.631   4.616 -0.0103  0.1181 -0.0338
 8467SOL    HW136860   3.856   0.672   4.645 -0.1804 -1.8241  2.2907
 8467SOL    HW236861   3.977   0.695   4.557 -1.2141  1.5702  0.7144
 8468SOL     OW36862   3.168   0.131   8.800 -0.0738  0.0444  0.4637
 8468SOL    HW136863   3.241   0.088   8.755  0.4873 -0.0056  1.4035
 8468SOL    HW236864   3.131   0.184   8.730 -0.0609 -0.8662 -0.2382
 8469SOL     OW36865   0.127   3.071  16.452 -0.0583 -0.5281  0.0729
 8469SOL    HW136866   0.208   3.093  16.405  0.5738  0.3616  1.5750
 8469SOL    HW236867   0.077   3.150  16.431  1.8028  0.5707 -0.3137
 8470SOL     OW36868   1.030   4.675  11.161  0.4796 -0.2143  0.0405
 8470SOL    HW136869   1.067   4.597  11.202 -1.1864 -1.4380 -0.8023
 8470SOL    HW236870   1.068   0.022  11.212  0.9060 -0.3508 -0.0859
 8471SOL     OW36871   2.208   1.115   2.649  0.0826 -0.4106 -0.0192
 8471SOL    HW136872   2.142   1.179   2.675  0.7776  0.5462 -0.6156
 8471SOL    HW236873   2.215   1.131   2.555 -0.8149 -1.0437 -0.2012
 8472SOL     OW36874   1.141   3.454  12.332  0.3679  0.2122  0.1436
 8472SOL    HW136875   1.135   3.517  12.403  1.2485 -0.2355  0.6148
 8472SOL    HW236876   1.129   3.375  12.385  1.0239  0.1442  0.1908
 8473SOL     OW36877   2.683   3.989   2.741 -0.3724 -0.3806 -0.0813
 8473SOL    HW136878   2.600   3.988   2.789  0.7638 -1.1956  1.8724
 8473SOL    HW236879   2.732   4.060   2.782 -1.7107 -0.2280  1.2666
 8474SOL     OW36880   1.761   0.584  15.647 -0.0683  0.1431  0.2153
 8474SOL    HW136881   1.847   0.553  15.674  0.3567  0.1038 -1.1879
 8474SOL    HW236882   1.741   0.532  15.570 -0.1203  0.0244  0.3099
 8475SOL     OW36883   0.598   1.726   7.162  0.8257 -0.4682  0.7368
 8475SOL    HW136884   0.616   1.778   7.241 -0.1537  0.6690  0.2142
 8475SOL    HW236885   0.687   1.696   7.147  0.7545  0.0529 -0.6846
 8476SOL     OW36886   1.822   2.829   2.392  0.0812  0.7111 -0.8633
 8476SOL    HW136887   1.834   2.776   2.313 -2.5980  1.3343 -1.6824
 8476SOL    HW236888   1.859   2.907   2.349  0.5994  1.3662  0.7713
 8477SOL     OW36889   2.202   4.029   3.952 -0.3637 -0.3777  0.2614
 8477SOL    HW136890   2.116   4.001   3.985 -0.8905  1.8451  0.7779
 8477SOL    HW236891   2.252   3.961   3.997 -0.1937 -1.3656 -1.4292
 8478SOL     OW36892   2.863   3.931  10.109  0.3328 -0.3204  0.3649
 8478SOL    HW136893   2.845   3.904  10.019  2.0487 -1.0626  0.2393
 8478SOL    HW236894   2.901   3.851  10.146  1.0319  0.2784  0.9456
 8479SOL     OW36895   3.654   3.248   7.049 -0.0860  0.1498  0.1402
 8479SOL    HW136896   3.651   3.246   6.953 -2.8757  1.7853  0.2283
 8479SOL    HW236897   3.735   3.198   7.059  0.0352  0.6571  1.6931
 8480SOL     OW36898   1.350   0.454   8.558 -0.1390 -0.3370 -0.2464
 8480SOL    HW136899   1.264   0.442   8.517 -0.8076 -1.5676  1.5368
 8480SOL    HW236900   1.337   0.522   8.623  0.5297 -0.1536 -0.3057
 8481SOL     OW36901   2.444   2.367  13.282  0.3139 -0.2912 -0.3660
 8481SOL    HW136902   2.501   2.410  13.345  0.3572  0.8435 -1.1816
 8481SOL    HW236903   2.360   2.401  13.312  1.5859  1.6654  0.9576
 8482SOL     OW36904   0.353   0.967   8.209 -0.7230  0.3369 -0.1317
 8482SOL    HW136905   0.417   0.955   8.279 -0.7284  2.1642  0.1734
 8482SOL    HW236906   0.402   0.955   8.127 -2.3198  3.0839 -1.4925
 8483SOL     OW36907   0.920   0.240  13.823  0.5891 -0.5646 -0.2734
 8483SOL    HW136908   1.008   0.263  13.793  0.5645  1.4550  1.2902
 8483SOL    HW236909   0.912   0.299  13.897 -3.8764  0.3030 -1.4466
 8484SOL     OW36910   4.205   3.137  12.758  0.4792 -0.1503  0.1568
 8484SOL    HW136911   4.264   3.137  12.682  1.8102  1.4886  1.1795
 8484SOL    HW236912   4.245   3.179  12.834 -1.3090 -0.4925  1.2903
 8485SOL     OW36913   1.045   4.287  14.646 -0.1242  0.1396 -0.4157
 8485SOL    HW136914   1.057   4.214  14.585 -1.2095 -0.2618 -0.1613
 8485SOL    HW236915   0.967   4.253  14.691  0.0885 -1.6456 -1.4048
 8486SOL     OW36916   0.872   1.295  15.285 -0.2995  0.1977 -0.3318
 8486SOL    HW136917   0.968   1.289  15.293 -0.3316 -0.2010 -0.2502
 8486SOL    HW236918   0.845   1.205  15.304 -1.3235  0.3447 -1.1085
 8487SOL     OW36919   3.814   1.810   6.905  0.0126  0.4240 -0.4852
 8487SOL    HW136920   3.722   1.832   6.923  0.0481 -0.3108  0.5474
 8487SOL    HW236921   3.853   1.891   6.935 -2.7253  1.3515  0.5653
 8488SOL     OW36922   0.387   4.472   3.893  0.3539  0.1807  0.4223
 8488SOL    HW136923   0.439   4.460   3.813  0.4023  0.7432  0.3710
 8488SOL    HW236924   0.354   4.560   3.876 -0.1829 -0.1057 -0.0279
 8489SOL     OW36925   1.774   1.763   4.844  0.0553 -0.2537 -0.6970
 8489SOL    HW136926   1.729   1.847   4.833  0.5812 -0.0705 -1.4061
 8489SOL    HW236927   1.744   1.745   4.933  0.4945  1.4000 -0.2167
 8490SOL     OW36928   3.879   2.881   6.512  0.2229 -0.5858 -0.1003
 8490SOL    HW136929   3.974   2.869   6.510  0.4379  1.1669 -0.2793
 8490SOL    HW236930   3.872   2.941   6.586 -1.6525 -0.2067 -0.5844
 8491SOL     OW36931   4.221   2.722   8.185  0.9110  0.0537 -0.0186
 8491SOL    HW136932   4.165   2.796   8.208 -1.2821 -0.8796 -2.3910
 8491SOL    HW236933   4.152   2.672   8.141  1.2865 -1.5331  1.1771
 8492SOL     OW36934   0.941   1.820   2.367  0.1697  0.2909  0.0256
 8492SOL    HW136935   1.012   1.770   2.326 -0.9436 -0.9763 -0.4017
 8492SOL    HW236936   0.945   1.894   2.307 -0.8202 -0.7120 -1.3031
 8493SOL     OW36937   4.394   3.337  13.733 -0.3782  0.1594  0.5128
 8493SOL    HW136938   4.321   3.397  13.751  0.3662  0.5268  2.3955
 8493SOL    HW236939   4.468   3.358  13.790  0.3930 -1.0467 -0.0592
 8494SOL     OW36940   0.940   0.907   8.114 -0.4795  0.4598 -0.4279
 8494SOL    HW136941   0.902   0.829   8.074  1.1257  0.5130 -2.0614
 8494SOL    HW236942   0.969   0.953   8.036 -0.2141  0.5925 -0.2536
 8495SOL     OW36943   3.455   1.556   2.863  0.3224 -0.0191 -0.5675
 8495SOL    HW136944   3.379   1.570   2.806 -1.4191 -0.3316  1.6344
 8495SOL    HW236945   3.500   1.484   2.819 -0.9201 -0.1731 -1.5934
 8496SOL     OW36946   2.984   3.607   4.174  0.1290 -0.3928 -0.1537
 8496SOL    HW136947   3.076   3.632   4.169 -0.0345  0.6331  2.0218
 8496SOL    HW236948   2.954   3.619   4.083  1.9510 -1.8113 -0.9476
 8497SOL     OW36949   3.234   1.500   3.016 -0.5550  0.2997 -0.1991
 8497SOL    HW136950   3.179   1.457   2.950 -0.2058  1.3607 -1.1849
 8497SOL    HW236951   3.320   1.503   2.974 -0.0953 -1.4261  0.6009
 8498SOL     OW36952   1.932   2.712   8.052 -0.4126  0.5678  0.5680
 8498SOL    HW136953   1.928   2.663   7.970 -0.7515  2.4771 -0.5561
 8498SOL    HW236954   1.886   2.640   8.097  1.8250 -1.8998 -1.0998
 8499SOL     OW36955   4.392   1.634   4.032 -0.3992 -0.7276  0.0795
 8499SOL    HW136956   4.319   1.573   4.038 -1.1349  0.2092  0.7828
 8499SOL    HW236957   4.459   1.594   4.087 -0.1506  0.3963  0.5924
 8500SOL     OW36958   2.777   2.720  13.291 -0.1298  0.5094  0.0108
 8500SOL    HW136959   2.841   2.652  13.310 -1.0333 -0.8020 -1.6694
 8500SOL    HW236960   2.788   2.731  13.197  0.2004 -0.0705 -0.0156
 8501SOL     OW36961   3.873   3.183   1.168  0.0254 -0.1198 -0.4005
 8501SOL    HW136962   3.880   3.122   1.094  0.6220  1.4033 -1.5998
 8501SOL    HW236963   3.967   3.198   1.174 -0.1333  0.4515  0.7072
 8502SOL     OW36964   2.080   1.570  15.944  0.4913  0.6734  0.4434
 8502SOL    HW136965   2.064   1.484  15.984 -2.8678  1.4525  0.7346
 8502SOL    HW236966   2.176   1.571  15.951  0.6804 -0.5419 -1.9441
 8503SOL     OW36967   1.803   0.008   4.320 -0.0128 -0.4554 -0.2153
 8503SOL    HW136968   1.796   4.651   4.269 -4.0139  0.4180 -1.0008
 8503SOL    HW236969   1.740   0.058   4.269 -0.6972 -0.6617  0.4194
 8504SOL     OW36970   2.289   1.793   3.142 -0.0113  0.5022  0.0458
 8504SOL    HW136971   2.344   1.788   3.221  1.5699  2.2460 -0.9368
 8504SOL    HW236972   2.363   1.793   3.081  0.3861  0.4001  0.5245
 8505SOL     OW36973   1.286   1.556   5.088  0.2003  0.0305  0.3532
 8505SOL    HW136974   1.274   1.465   5.062 -1.4892  0.6673 -1.0727
 8505SOL    HW236975   1.325   1.590   5.006 -2.2578 -0.2359 -0.9204
 8506SOL     OW36976   2.202   2.022   2.082  0.4178  0.3199  0.4577
 8506SOL    HW136977   2.117   1.982   2.101  0.1428  0.5876 -0.1929
 8506SOL    HW236978   2.240   2.039   2.168 -4.1141 -1.4952  2.7910
 8507SOL     OW36979   0.455   0.952   0.121  0.5296 -0.1013 -0.0630
 8507SOL    HW136980   0.442   0.959   0.027 -0.1906 -0.2664  0.0224
 8507SOL    HW236981   0.536   1.001   0.135  1.0253 -0.6873 -0.8986
 8508SOL     OW36982   3.901   1.636   2.134 -0.0665  0.0934  0.0706
 8508SOL    HW136983   3.922   1.555   2.179 -2.0480 -1.0691 -1.0993
 8508SOL    HW236984   3.813   1.623   2.099  0.3945 -0.1682 -0.9872
 8509SOL     OW36985   2.662   0.930   4.258 -0.3938 -0.2582  0.2383
 8509SOL    HW136986   2.751   0.897   4.247 -0.0845  0.7324 -0.2392
 8509SOL    HW236987   2.632   0.877   4.332  2.3364  0.0921  1.5894
 8510SOL     OW36988   2.825   4.606   4.727  0.1309 -0.4974 -0.1726
 8510SOL    HW136989   2.733   4.629   4.740 -0.2054 -1.4438 -0.8625
 8510SOL    HW236990   2.856   4.613   4.817 -1.2784 -1.1342  0.3533
 8511SOL     OW36991   2.584   4.690  15.831 -0.0511 -0.3401  0.3492
 8511SOL    HW136992   2.517   4.712  15.767 -0.7535 -1.3567  0.7405
 8511SOL    HW236993   2.553   4.610  15.873 -0.9521  0.2063  0.7398
 8512SOL     OW36994   2.581   3.163   9.713  0.4560  0.5960  0.0699
 8512SOL    HW136995   2.666   3.195   9.744 -0.0169  0.5140  1.4316
 8512SOL    HW236996   2.559   3.236   9.655  2.5805  2.0347  1.0440
 8513SOL     OW36997   1.152   1.520   5.910 -0.3712  0.0041 -0.4657
 8513SOL    HW136998   1.207   1.497   5.835  0.5922  1.2133 -0.1279
 8513SOL    HW236999   1.082   1.460   5.887  0.3683 -0.6258 -1.0519
 8514SOL     OW37000   3.604   2.222   7.510  0.1406 -0.2910  0.0467
 8514SOL    HW137001   3.586   2.273   7.589  1.2924 -0.8351  0.6616
 8514SOL    HW237002   3.552   2.256   7.437 -1.2863 -0.6096  0.9277
 8515SOL     OW37003   0.815   0.034   0.190 -0.1303 -0.1493  0.1725
 8515SOL    HW137004   0.841   4.675   0.231 -0.1917 -1.0095 -1.5627
 8515SOL    HW237005   0.815   0.099   0.261 -0.0227 -0.1801  0.1999
 8516SOL     OW37006   1.525   4.196   5.661 -0.3814 -0.1396 -0.3265
 8516SOL    HW137007   1.553   4.131   5.597  1.3565  0.9486 -0.6781
 8516SOL    HW237008   1.449   4.149   5.696  0.5066 -0.2563  1.4721
 8517SOL     OW37009   2.701   1.822  14.204  0.2604 -0.2268  0.5901
 8517SOL    HW137010   2.648   1.895  14.239 -0.2480  0.0158 -0.7019
 8517SOL    HW237011   2.629   1.763  14.183 -1.0536  1.1847  1.0773
 8518SOL     OW37012   1.215   0.920   8.173  0.0746 -0.3850  0.6934
 8518SOL    HW137013   1.123   0.905   8.152  0.0010  0.0920  0.6809
 8518SOL    HW237014   1.257   0.835   8.187  0.4973 -0.2434  0.2807
 8519SOL     OW37015   2.846   2.954   2.765 -0.3307 -0.9982 -0.1225
 8519SOL    HW137016   2.915   2.980   2.704 -0.7790  0.9608  0.1893
 8519SOL    HW237017   2.777   3.017   2.743 -0.3750 -1.4712 -1.3375
 8520SOL     OW37018   3.078   4.316   8.026 -0.1192 -0.2615 -0.1491
 8520SOL    HW137019   3.036   4.236   8.057 -0.1808 -0.5466 -0.9469
 8520SOL    HW237020   3.165   4.277   8.014 -0.3110 -0.4777 -0.8595
 8521SOL     OW37021   3.451   1.733   0.777 -0.7842 -0.6514  0.2054
 8521SOL    HW137022   3.428   1.641   0.761 -0.2707 -0.6237 -0.7247
 8521SOL    HW237023   3.439   1.735   0.872 -1.1446  0.7672  0.1259
 8522SOL     OW37024   3.434   3.358   8.933 -0.2094  0.3503  0.0487
 8522SOL    HW137025   3.389   3.432   8.975 -1.3784 -0.0348 -0.5363
 8522SOL    HW237026   3.395   3.280   8.972  2.2790  0.1145  2.0783
 8523SOL     OW37027   3.372   4.721   6.126 -0.0820  0.3213  0.2095
 8523SOL    HW137028   3.345   4.721   6.035  2.4260 -0.2594 -0.5507
 8523SOL    HW237029   3.368   4.627   6.145 -1.9734  0.3367 -0.1007
 8524SOL     OW37030   2.466   0.385   2.929 -0.4581 -0.0948  0.1825
 8524SOL    HW137031   2.421   0.453   2.878  2.0574  2.5225  1.4464
 8524SOL    HW237032   2.558   0.400   2.906 -0.7946  0.1475 -1.0467
 8525SOL     OW37033   2.804   1.606   4.104  0.3017  0.1500 -0.5940
 8525SOL    HW137034   2.835   1.599   4.014  1.1081 -1.0085 -0.2238
 8525SOL    HW237035   2.882   1.641   4.146 -0.1975 -1.1286  1.3876
 8526SOL     OW37036   0.099   0.163   0.310 -0.2708 -0.5449 -0.2173
 8526SOL    HW137037   0.174   0.151   0.252  0.2927 -1.1119  0.6514
 8526SOL    HW237038   0.116   0.092   0.371  4.2934  0.5626 -0.2396
 8527SOL     OW37039   3.166   3.287   9.933  0.0893  0.3547 -0.5182
 8527SOL    HW137040   3.166   3.197   9.900 -0.7724 -0.0995  0.6955
 8527SOL    HW237041   3.244   3.289   9.988 -0.1332 -0.6025 -0.1678
 8528SOL     OW37042   0.720   1.954   1.604  0.1180 -0.1083  0.6658
 8528SOL    HW137043   0.746   1.970   1.695 -1.8982  2.2520  0.8273
 8528SOL    HW237044   0.748   2.035   1.562  0.9664 -0.8468 -0.1969
 8529SOL     OW37045   1.659   2.712   7.276 -0.7349  0.5392  0.0467
 8529SOL    HW137046   1.740   2.757   7.302  1.0760 -0.4115 -3.8873
 8529SOL    HW237047   1.643   2.654   7.350 -0.0388  0.6727  0.3026
 8530SOL     OW37048   2.345   1.153   3.960 -0.6273  0.4323 -0.4633
 8530SOL    HW137049   2.345   1.059   3.978  0.9071  0.0389 -2.5824
 8530SOL    HW237050   2.386   1.187   4.040 -0.2600 -0.6670 -0.1859
 8531SOL     OW37051   4.433   3.775   1.974 -1.0560  0.1172 -0.0375
 8531SOL    HW137052   4.466   3.852   1.929  0.7511 -0.3256  0.5218
 8531SOL    HW237053   4.383   3.733   1.904  1.1298  1.2385 -2.2428
 8532SOL     OW37054   0.156   0.528  15.180 -0.6801 -0.0144 -0.3919
 8532SOL    HW137055   0.094   0.602  15.182 -0.3203  0.3027 -0.9015
 8532SOL    HW237056   0.241   0.572  15.173 -0.1711 -1.4198 -2.7845
 8533SOL     OW37057   3.289   1.163  13.600  0.1758 -0.0135  0.2551
 8533SOL    HW137058   3.194   1.155  13.592  0.3785 -1.0190 -1.2130
 8533SOL    HW237059   3.295   1.252  13.634  0.3099 -0.1303  0.5331
 8534SOL     OW37060   4.232   0.615   5.432 -0.1874  0.2838  0.5988
 8534SOL    HW137061   4.270   0.634   5.518 -0.7203  0.7077  0.7349
 8534SOL    HW237062   4.242   0.702   5.394 -1.2581  0.0370 -0.2496
 8535SOL     OW37063   2.001   3.569   5.740 -0.4291  0.0452  0.9273
 8535SOL    HW137064   1.941   3.554   5.667  1.0842 -1.8769  0.0636
 8535SOL    HW237065   2.086   3.558   5.697 -0.9437 -0.2699 -0.0131
 8536SOL     OW37066   0.517   0.349   8.418 -0.0467  0.2900 -0.2251
 8536SOL    HW137067   0.426   0.357   8.446 -0.6014  2.2895 -2.6671
 8536SOL    HW237068   0.545   0.315   8.504  0.2186  0.9908 -0.0409
 8537SOL     OW37069   3.310   3.040   7.799  1.0313  0.0090 -0.1632
 8537SOL    HW137070   3.306   3.128   7.835  0.7088 -0.0551 -0.0463
 8537SOL    HW237071   3.317   3.064   7.707 -0.4126 -1.7450 -0.7316
 8538SOL     OW37072   1.515   0.084  11.685 -0.3549  0.2117 -0.6773
 8538SOL    HW137073   1.427   0.100  11.717 -0.1740  2.1020 -1.1135
 8538SOL    HW237074   1.579   0.098  11.755  1.6522  0.9712 -2.6405
 8539SOL     OW37075   2.240   1.925   7.269  0.2909 -0.0302  0.5841
 8539SOL    HW137076   2.181   1.850   7.271 -1.0059  0.9333 -1.0003
 8539SOL    HW237077   2.246   1.926   7.365  0.1675 -2.7262  0.6137
 8540SOL     OW37078   4.122   4.440   7.476 -0.3727  0.0212 -0.0325
 8540SOL    HW137079   4.153   4.366   7.529  0.8825  0.2165 -0.5001
 8540SOL    HW237080   4.170   4.419   7.396 -0.8060 -1.3243  0.0466
 8541SOL     OW37081   1.177   0.314   7.381 -0.1646 -0.1069  0.2506
 8541SOL    HW137082   1.227   0.340   7.458  1.6129 -1.7461 -0.3661
 8541SOL    HW237083   1.243   0.316   7.312  1.0402  1.1953  1.4346
 8542SOL     OW37084   0.317   0.080  15.181  0.2228  0.2612 -0.6816
 8542SOL    HW137085   0.281   0.145  15.120  0.2289  1.3926  0.5350
 8542SOL    HW237086   0.289   0.000  15.136 -0.4681  1.2850 -2.0515
 8543SOL     OW37087   1.061   0.996   9.727  0.3865  0.9414  0.1598
 8543SOL    HW137088   1.042   1.055   9.800 -0.7314  1.3401 -0.4494
 8543SOL    HW237089   1.123   0.934   9.766 -1.3205 -0.9120 -0.1090
 8544SOL     OW37090   0.325   1.633  11.637 -0.0384  0.0822 -0.2033
 8544SOL    HW137091   0.357   1.613  11.725 -0.2748 -0.2667 -0.1955
 8544SOL    HW237092   0.259   1.703  11.648 -0.4829 -0.4739  0.7027
 8545SOL     OW37093   3.849   1.617  13.143  0.5056  0.0390  0.4338
 8545SOL    HW137094   3.876   1.669  13.067  1.8638 -0.5551  0.5082
 8545SOL    HW237095   3.864   1.527  13.114  1.2762  0.0670  0.7495
 8546SOL     OW37096   0.338   3.143   0.366 -0.2611 -0.5669 -0.1753
 8546SOL    HW137097   0.330   3.157   0.272 -0.1458 -0.5811 -0.1871
 8546SOL    HW237098   0.359   3.229   0.402 -1.5904  1.1615 -3.5567
 8547SOL     OW37099   2.729   0.811   8.258  0.2092 -0.1756 -0.7000
 8547SOL    HW137100   2.656   0.805   8.196  0.2954  2.5753 -1.0755
 8547SOL    HW237101   2.691   0.855   8.334  0.8351 -2.0994  0.7263
 8548SOL     OW37102   2.592   4.147  11.689 -0.3185 -0.5175  0.3937
 8548SOL    HW137103   2.604   4.195  11.770  0.3874 -1.0516  0.6019
 8548SOL    HW237104   2.672   4.171  11.644 -0.7242 -0.3296 -0.2263
 8549SOL     OW37105   4.104   0.536   6.722 -0.1556 -0.3828  0.4894
 8549SOL    HW137106   4.134   0.519   6.811  1.0769  0.2312  0.1937
 8549SOL    HW237107   4.077   0.628   6.716  0.7884 -0.1445 -0.0340
 8550SOL     OW37108   2.751   1.063   6.894 -0.1248 -0.0602  0.1952
 8550SOL    HW137109   2.766   1.103   6.979  0.7831 -0.8320  0.3943
 8550SOL    HW237110   2.690   1.126   6.854  0.6088  1.0125  0.7713
 8551SOL     OW37111   4.657   4.418   0.006 -0.0858  0.2607  0.0265
 8551SOL    HW137112   4.723   4.352   0.029 -0.2493  0.6953  1.7705
 8551SOL    HW237113   4.661   4.471   0.086 -0.8662 -2.0230  1.6028
 8552SOL     OW37114   1.188   1.116  12.736  0.2954 -0.1832  0.1149
 8552SOL    HW137115   1.110   1.069  12.708  0.1349 -0.2917  0.7443
 8552SOL    HW237116   1.197   1.104  12.831 -1.3201 -0.7634  0.1907
 8553SOL     OW37117   0.502   4.300   5.009 -0.2744 -0.6553  0.0136
 8553SOL    HW137118   0.490   4.343   4.924  2.2269 -2.2143 -1.1352
 8553SOL    HW237119   0.474   4.209   4.994 -1.1616 -0.6483  1.6689
 8554SOL     OW37120   2.414   2.524  15.454 -0.4445  0.1620 -0.7037
 8554SOL    HW137121   2.497   2.498  15.493 -0.6701  0.8481  0.2326
 8554SOL    HW237122   2.364   2.447  15.483  0.6040 -1.2742 -2.6895
 8555SOL     OW37123   1.328   3.299  16.489  0.2374 -0.5810  0.4598
 8555SOL    HW137124   1.400   3.237  16.478  0.3395 -0.7529  2.0142
 8555SOL    HW237125   1.253   3.252  16.454  0.4554 -0.8168  0.3042
 8556SOL     OW37126   3.909   3.239  11.809 -0.4312 -0.1852  0.1904
 8556SOL    HW137127   3.908   3.160  11.756 -0.8622  1.3323 -2.0684
 8556SOL    HW237128   3.926   3.190  11.889 -0.5931 -1.7683 -0.7628
 8557SOL     OW37129   1.755   3.772   8.272  1.1516 -0.3475  0.9170
 8557SOL    HW137130   1.798   3.687   8.262  2.6244  0.6877 -1.6145
 8557SOL    HW237131   1.814   3.825   8.325  2.3273 -0.8068  0.0591
 8558SOL     OW37132   2.342   0.385   6.495  0.8983 -0.0557 -0.1124
 8558SOL    HW137133   2.371   0.315   6.436 -1.9643 -0.4717 -1.0310
 8558SOL    HW237134   2.250   0.359   6.489  0.9478 -0.2678  0.0531
 8559SOL     OW37135   0.328   1.117  17.255 -0.8762  0.6087 -0.0676
 8559SOL    HW137136   0.354   1.026  17.267 -2.4976 -0.0009 -1.0427
 8559SOL    HW237137   0.337   1.122  17.160 -1.0383  2.1605  0.0048
 8560SOL     OW37138   4.156   4.520   8.385  0.3988  0.0577  0.3498
 8560SOL    HW137139   4.076   4.471   8.406 -0.7049  1.1990 -1.2269
 8560SOL    HW237140   4.134   4.594   8.329 -3.3763  0.9354  2.9972
 8561SOL     OW37141   3.284   0.884   6.995  0.6319  0.2053 -0.0135
 8561SOL    HW137142   3.359   0.853   7.046  1.3933 -2.9801 -3.0323
 8561SOL    HW237143   3.284   0.979   7.003  1.4694  0.2844 -0.8300
 8562SOL     OW37144   2.792   2.784   0.854 -0.3381  0.0300 -0.0469
 8562SOL    HW137145   2.730   2.739   0.912  0.6402 -1.0967  0.1389
 8562SOL    HW237146   2.862   2.797   0.918 -0.2380  0.6046 -0.2823
 8563SOL     OW37147   4.168   2.199   9.055 -0.2964 -0.3920 -0.1404
 8563SOL    HW137148   4.186   2.243   9.138  0.2509  3.1162 -2.0935
 8563SOL    HW237149   4.193   2.265   8.990  0.0193 -0.1931  0.1859
 8564SOL     OW37150   3.574   3.234   2.444 -0.2677 -0.1750 -0.0452
 8564SOL    HW137151   3.523   3.153   2.435  0.5126 -0.6742  0.0364
 8564SOL    HW237152   3.625   3.216   2.523 -0.0012  0.3265 -0.1054
 8565SOL     OW37153   0.115   3.299   6.364 -0.3627 -0.0354  0.8163
 8565SOL    HW137154   0.161   3.260   6.290 -0.7695 -0.1420  0.6173
 8565SOL    HW237155   0.165   3.377   6.386  1.3500 -1.4635  1.9278
 8566SOL     OW37156   4.646   2.455  16.108  0.2719  0.0916  0.2477
 8566SOL    HW137157   4.592   2.380  16.133 -1.8626  1.8077  0.7889
 8566SOL    HW237158   4.655   2.439  16.014  1.3976 -2.1757  0.7518
 8567SOL     OW37159   0.774   1.178   8.870  0.0690 -0.1097  0.0594
 8567SOL    HW137160   0.754   1.197   8.778 -0.5295  1.6907  0.5569
 8567SOL    HW237161   0.857   1.225   8.879 -0.5239  1.3982 -2.1393
 8568SOL     OW37162   2.094   4.351   8.282 -0.3486  0.2758 -0.0558
 8568SOL    HW137163   2.024   4.296   8.315  0.7238 -0.9481  0.1813
 8568SOL    HW237164   2.117   4.410   8.354  1.2155 -0.6133  0.1790
 8569SOL     OW37165   2.974   1.348   8.099 -0.0782 -0.5931 -0.6470
 8569SOL    HW137166   2.892   1.316   8.136  0.6098  1.2077  2.5374
 8569SOL    HW237167   3.031   1.276   8.125  1.0072 -0.2319 -2.0262
 8570SOL     OW37168   2.763   4.080   8.398 -0.6627 -0.0387 -0.1443
 8570SOL    HW137169   2.728   4.165   8.424  1.7744  0.9533 -0.1801
 8570SOL    HW237170   2.810   4.067   8.480  0.8856  0.6983 -0.9326
 8571SOL     OW37171   1.518   0.684   6.172  0.3999  0.0090 -0.4110
 8571SOL    HW137172   1.600   0.641   6.198 -0.1141 -0.5261  0.3367
 8571SOL    HW237173   1.542   0.769   6.207  0.6240  0.0134 -0.5722
 8572SOL     OW37174   0.099   4.334  10.124 -0.2022 -0.3305 -0.4613
 8572SOL    HW137175   0.040   4.272  10.168 -0.7121  0.4136 -0.0826
 8572SOL    HW237176   0.169   4.328  10.189 -1.4098  0.1546  0.9120
 8573SOL     OW37177   4.459   1.057  10.705  0.0482 -0.0643 -0.3620
 8573SOL    HW137178   4.424   1.046  10.793  1.3604  2.3093  0.4552
 8573SOL    HW237179   4.398   0.999  10.659 -1.5406  0.0706  1.5582
 8574SOL     OW37180   2.762   1.988  16.254 -0.6818 -0.6079  0.7432
 8574SOL    HW137181   2.703   2.001  16.180 -1.5850  0.3795  1.6465
 8574SOL    HW237182   2.745   1.898  16.281  0.1713 -0.4217  1.8843
 8575SOL     OW37183   0.059   3.957   2.344 -0.1010  0.1228 -0.0929
 8575SOL    HW137184   0.131   3.962   2.282 -0.9443 -0.9883 -1.1711
 8575SOL    HW237185   0.007   3.888   2.303  1.5870 -1.1497 -0.0872
 8576SOL     OW37186   0.271   1.852   3.814  0.1229 -0.5836 -0.3849
 8576SOL    HW137187   0.222   1.862   3.896  1.3717 -1.1607  0.4287
 8576SOL    HW237188   0.317   1.935   3.821 -0.7965 -0.2242  1.3458
 8577SOL     OW37189   2.597   4.445   3.966  0.0392  0.0370  0.8519
 8577SOL    HW137190   2.575   4.352   3.959 -1.2474  0.5252 -1.4190
 8577SOL    HW237191   2.682   4.426   4.007  0.7193 -1.1708 -1.1075
 8578SOL     OW37192   0.194   2.330   2.576  0.2496  0.0222  0.5361
 8578SOL    HW137193   0.172   2.346   2.484  2.1038  0.7807  0.2291
 8578SOL    HW237194   0.232   2.411   2.608  0.6372  0.7440 -1.7102
 8579SOL     OW37195   2.480   0.202   5.733  0.2122 -0.0311  0.3504
 8579SOL    HW137196   2.459   0.289   5.699  2.3119  0.6184  0.7078
 8579SOL    HW237197   2.473   0.164   5.646 -0.9651 -0.8034  0.7899
 8580SOL     OW37198   0.311   4.168   9.229 -0.4500  0.6406 -0.1391
 8580SOL    HW137199   0.243   4.230   9.204 -0.6403  0.2100 -0.6962
 8580SOL    HW237200   0.263   4.088   9.211 -0.3902  0.2543  1.3626
 8581SOL     OW37201   2.900   0.527   6.468  0.7141 -0.0334 -0.1064
 8581SOL    HW137202   2.841   0.588   6.513 -0.9196 -1.0109 -0.9683
 8581SOL    HW237203   2.860   0.446   6.499 -1.8683  1.2560 -0.0252
 8582SOL     OW37204   4.318   2.230   0.203  0.4592  0.7342  0.5135
 8582SOL    HW137205   4.332   2.284   0.281  0.2097 -0.6548  1.5211
 8582SOL    HW237206   4.350   2.142   0.223 -0.0921 -0.0887 -2.2810
 8583SOL     OW37207   1.356   0.596   2.636  0.5284  0.4499 -0.8188
 8583SOL    HW137208   1.305   0.672   2.606 -0.3418 -0.1867 -0.9260
 8583SOL    HW237209   1.278   0.542   2.648  0.5303  0.4267 -0.9125
 8584SOL     OW37210   1.142   4.005   9.193  0.8816  0.1161  0.3611
 8584SOL    HW137211   1.134   4.050   9.109 -0.2551 -0.2179  0.2960
 8584SOL    HW237212   1.235   4.023   9.207  0.7356  1.0286  0.1970
 8585SOL     OW37213   2.612   0.657   9.939 -0.4543 -0.0406 -0.7923
 8585SOL    HW137214   2.578   0.567   9.942  1.3354 -0.7327 -1.4490
 8585SOL    HW237215   2.588   0.691  10.025 -0.7515 -1.1144 -0.4482
 8586SOL     OW37216   4.433   2.094   1.535  0.3779  0.1391 -0.2527
 8586SOL    HW137217   4.373   2.098   1.461 -0.7775 -0.5953  0.6473
 8586SOL    HW237218   4.378   2.050   1.600  0.6773  2.0953  1.3121
 8587SOL     OW37219   4.586   3.165   0.894  0.5536  0.4112  0.5360
 8587SOL    HW137220   4.508   3.215   0.872 -1.1574 -2.0363  1.1039
 8587SOL    HW237221   4.654   3.232   0.901 -1.1530  2.1881 -0.1591
 8588SOL     OW37222   3.298   1.199   9.324 -0.0243  0.4874  0.4743
 8588SOL    HW137223   3.372   1.146   9.353 -0.1272  0.2665  0.3374
 8588SOL    HW237224   3.336   1.280   9.290  1.8108 -1.4903 -2.1515
 8589SOL     OW37225   0.471   0.034   4.742 -0.4351  0.8102 -0.5123
 8589SOL    HW137226   0.384   0.072   4.758 -0.3968  0.2473  1.0710
 8589SOL    HW237227   0.480   4.696   4.815 -1.5730  0.8083 -0.3642
 8590SOL     OW37228   1.036   4.586   6.389 -0.0140  0.2134 -0.4800
 8590SOL    HW137229   0.947   4.586   6.425  0.3300 -0.9333  0.3460
 8590SOL    HW237230   1.025   4.595   6.294 -0.6583 -1.7228 -0.5889
 8591SOL     OW37231   0.719   1.472  16.411 -0.0370  0.2790 -0.0230
 8591SOL    HW137232   0.729   1.439  16.321 -0.0195 -0.1764  0.1482
 8591SOL    HW237233   0.634   1.514  16.405 -0.3768 -0.4266 -0.1674
 8592SOL     OW37234   1.853   0.452  11.278 -0.3203 -0.0900 -0.0701
 8592SOL    HW137235   1.773   0.427  11.324  0.6252 -0.5235  1.3554
 8592SOL    HW237236   1.837   0.542  11.251  1.4716 -0.2848 -1.7620
 8593SOL     OW37237   1.184   1.699   2.349 -0.5661  0.2845 -0.1527
 8593SOL    HW137238   1.214   1.788   2.366  0.2778  0.0854 -0.6080
 8593SOL    HW237239   1.240   1.661   2.416 -1.7958 -0.8943  0.2041
 8594SOL     OW37240   3.809   1.857   6.375 -0.2229  0.2303  0.1329
 8594SOL    HW137241   3.896   1.889   6.397  1.1827 -0.4674 -4.4516
 8594SOL    HW237242   3.837   1.772   6.340  0.4765  0.5481 -0.0760
 8595SOL     OW37243   1.441   4.610  16.594  0.9902  0.2510 -0.5928
 8595SOL    HW137244   1.429   4.555  16.516 -3.4811  1.0708 -0.4617
 8595SOL    HW237245   1.395   4.562  16.662 -0.0150  0.0827 -1.3936
 8596SOL     OW37246   0.573   0.650   8.224  0.1250 -0.6411  0.6111
 8596SOL    HW137247   0.605   0.577   8.171  2.7914  0.4291  0.7492
 8596SOL    HW237248   0.480   0.626   8.233 -0.1020  0.5582  1.4070
 8597SOL     OW37249   2.758   1.159   3.860  0.2482  0.0700 -0.2102
 8597SOL    HW137250   2.846   1.121   3.864 -0.4579 -1.5385 -0.2176
 8597SOL    HW237251   2.713   1.077   3.878  1.0717  0.0616  1.9335
 8598SOL     OW37252   0.331   3.121  17.565 -0.1526 -0.9251  0.3327
 8598SOL    HW137253   0.344   3.036  17.524  0.3621 -2.2456  3.2511
 8598SOL    HW237254   0.416   3.161  17.546 -1.4112  1.1557 -1.0169
 8599SOL     OW37255   0.580   0.523   2.937  0.3053  0.0792  0.4479
 8599SOL    HW137256   0.610   0.519   2.846  2.1900  0.3005  1.0507
 8599SOL    HW237257   0.588   0.431   2.963 -0.9544  0.1040  0.9371
 8600SOL     OW37258   2.035   3.521  10.479  0.2286  0.8156  0.1004
 8600SOL    HW137259   2.089   3.574  10.537 -1.5842  1.9750  0.7474
 8600SOL    HW237260   2.081   3.526  10.395 -0.8264  0.1895 -0.5185
 8601SOL     OW37261   1.786   0.430   8.875  0.4768  0.0983 -0.3846
 8601SOL    HW137262   1.690   0.420   8.874  0.4209  0.6766 -1.0080
 8601SOL    HW237263   1.793   0.425   8.970 -1.1767  1.1940 -0.2155
 8602SOL     OW37264   3.474   0.491   7.212  0.6584  0.3174 -0.4292
 8602SOL    HW137265   3.480   0.472   7.118 -2.2066 -2.0529 -0.1681
 8602SOL    HW237266   3.510   0.406   7.237 -0.1156 -0.0670 -0.6192
 8603SOL     OW37267   2.089   2.104  11.678 -0.3275 -0.6959  0.0821
 8603SOL    HW137268   2.047   2.027  11.640  1.4313 -1.2780 -0.6478
 8603SOL    HW237269   2.172   2.104  11.631 -0.2984  1.1989  0.1341
 8604SOL     OW37270   2.627   2.567   7.734  0.0227  0.0055  0.5765
 8604SOL    HW137271   2.616   2.599   7.644  0.4973 -1.4401  0.0091
 8604SOL    HW237272   2.672   2.485   7.716 -1.3443 -0.7546  0.6549
 8605SOL     OW37273   3.110   0.864   6.772 -0.1526 -0.1052 -0.2920
 8605SOL    HW137274   3.032   0.842   6.823 -0.8447  0.3547 -1.1590
 8605SOL    HW237275   3.173   0.885   6.841 -0.2212  1.2058 -0.6151
 8606SOL     OW37276   1.942   3.738  16.726 -0.0559 -0.1390  0.3685
 8606SOL    HW137277   1.999   3.800  16.771  3.9771 -3.9929  0.5459
 8606SOL    HW237278   1.946   3.766  16.634  0.9672 -1.4465  0.0145
 8607SOL     OW37279   4.158   2.245  11.064 -0.3574  0.1366  0.4460
 8607SOL    HW137280   4.242   2.274  11.100  0.0503  0.9335 -1.1275
 8607SOL    HW237281   4.153   2.150  11.072 -2.9661  0.2548  0.1638
 8608SOL     OW37282   0.876   0.771   7.214 -0.0169  0.1708  0.3081
 8608SOL    HW137283   0.869   0.828   7.290 -0.8312 -2.1821  2.0136
 8608SOL    HW237284   0.959   0.724   7.225 -0.5971 -0.6942  0.9696
 8609SOL     OW37285   0.955   1.150   8.375 -0.3162  0.1536 -0.2983
 8609SOL    HW137286   0.884   1.166   8.312  0.4146 -0.5186 -1.3036
 8609SOL    HW237287   0.964   1.055   8.374  1.2054  0.3110 -2.9014
 8610SOL     OW37288   3.699   2.847   6.763  0.0482  0.1686  0.2628
 8610SOL    HW137289   3.615   2.820   6.724  0.0853  0.1346  0.2068
 8610SOL    HW237290   3.678   2.938   6.785 -1.0729  0.3385 -1.4950
 8611SOL     OW37291   0.831   1.375  12.385  0.2091 -0.3104  1.1054
 8611SOL    HW137292   0.770   1.302  12.380  0.3248 -0.3080 -0.2490
 8611SOL    HW237293   0.863   1.379  12.475  1.2606  0.3747  0.7090
 8612SOL     OW37294   2.315   4.595   4.711  0.2977 -0.0318  0.4858
 8612SOL    HW137295   2.239   4.653   4.721  0.9835  0.4541  2.9033
 8612SOL    HW237296   2.388   4.657   4.714  0.7101 -0.6254  2.7096
 8613SOL     OW37297   4.407   3.237  13.503  0.2007  0.3654 -0.3917
 8613SOL    HW137298   4.404   3.286  13.585  0.4588  0.2263 -0.2986
 8613SOL    HW237299   4.339   3.172  13.517  1.5492 -1.3105 -1.5067
 8614SOL     OW37300   1.163   2.321   5.030 -0.0339  0.4294  0.2816
 8614SOL    HW137301   1.145   2.323   4.936 -1.8639  1.2112  0.6473
 8614SOL    HW237302   1.146   2.227   5.041  1.8859 -0.0577 -1.0376
 8615SOL     OW37303   0.210   2.029   1.558 -0.2877  0.0860 -0.4160
 8615SOL    HW137304   0.210   2.031   1.654 -0.4093  2.1842 -0.4584
 8615SOL    HW237305   0.116   2.019   1.540 -0.1262 -0.2962 -1.0466
 8616SOL     OW37306   0.586   1.551   2.522 -0.4790  0.4238  0.1501
 8616SOL    HW137307   0.623   1.490   2.457  2.0691  1.7534  0.3594
 8616SOL    HW237308   0.492   1.560   2.502 -0.1125  3.5034 -0.1995
 8617SOL     OW37309   3.925   4.464   4.690 -0.5306 -0.7233  0.2729
 8617SOL    HW137310   4.005   4.515   4.672  1.1194 -3.2672  0.3755
 8617SOL    HW237311   3.924   4.473   4.785  0.1074 -0.8672  0.2961
 8618SOL     OW37312   4.569   0.913  12.456 -0.4477  0.6298 -0.8626
 8618SOL    HW137313   4.539   0.823  12.464  2.4375 -0.1431  1.0615
 8618SOL    HW237314   4.523   0.946  12.533 -0.1353  0.1990 -0.4897
 8619SOL     OW37315   0.048   1.520  16.016 -0.3171  0.3489  0.7054
 8619SOL    HW137316   0.100   1.585  16.063  0.9810 -0.1580 -0.0305
 8619SOL    HW237317   4.694   1.528  16.071  0.1633  0.3026  1.3904
 8620SOL     OW37318   1.173   2.021   4.414  0.0378 -0.0715 -0.2582
 8620SOL    HW137319   1.172   2.116   4.421 -0.9139  0.0421 -1.9110
 8620SOL    HW237320   1.178   2.023   4.318 -0.8273  3.3652 -0.2132
 8621SOL     OW37321   1.698   2.382   5.875  0.5387 -0.2869  0.1136
 8621SOL    HW137322   1.651   2.299   5.866  1.1455 -0.7395  1.1347
 8621SOL    HW237323   1.630   2.432   5.830  0.5978 -0.3907 -0.0932
 8622SOL     OW37324   3.887   0.289   5.049  0.0679  0.3869 -0.3238
 8622SOL    HW137325   3.854   0.262   4.964  0.1467 -0.3945 -0.1063
 8622SOL    HW237326   3.877   0.384   5.037 -0.5283  0.1589 -1.5558
 8623SOL     OW37327   0.765   1.257  15.787  0.2464  0.2454  0.2351
 8623SOL    HW137328   0.837   1.240  15.726 -0.8938  0.5852 -1.2059
 8623SOL    HW237329   0.783   1.193  15.856 -4.0869 -0.3909  0.7649
 8624SOL     OW37330   2.764   4.336   9.600 -0.5177 -0.0366  0.2373
 8624SOL    HW137331   2.776   4.428   9.624  0.3398 -0.5746  1.8702
 8624SOL    HW237332   2.854   4.308   9.616 -0.2561  0.9919  0.5655
 8625SOL     OW37333   0.863   0.330   9.952 -0.0294  0.3078  0.0305
 8625SOL    HW137334   0.806   0.407   9.941 -0.2138  0.0369 -0.9264
 8625SOL    HW237335   0.898   0.325   9.863 -2.7185  1.9032 -1.1321
 8626SOL     OW37336   4.356   1.776  16.737  0.1758 -0.6315 -0.2392
 8626SOL    HW137337   4.278   1.724  16.718 -0.6272  0.9080 -1.1478
 8626SOL    HW237338   4.348   1.784  16.832  1.2602 -0.4583 -0.1602
 8627SOL     OW37339   3.194   3.544  10.151  0.1430  0.2718 -0.4550
 8627SOL    HW137340   3.235   3.598  10.218 -0.8989  0.0441  0.3646
 8627SOL    HW237341   3.184   3.455  10.185 -0.8513  0.9294  0.9660
 8628SOL     OW37342   4.217   2.830  15.205  0.8142 -0.5014  0.1606
 8628SOL    HW137343   4.206   2.829  15.300 -0.5108  1.5500  0.0456
 8628SOL    HW237344   4.135   2.870  15.176  0.9279  0.1129  0.7015
 8629SOL     OW37345   2.265   3.957   5.284 -0.2577  0.5324  0.8982
 8629SOL    HW137346   2.280   3.864   5.300  3.3609  0.9212 -0.2806
 8629SOL    HW237347   2.339   3.987   5.231 -0.1774 -0.7329  0.3082
 8630SOL     OW37348   3.904   3.600   8.787 -0.3984  0.1832  0.5197
 8630SOL    HW137349   3.809   3.595   8.775 -0.3237 -1.8557  0.8091
 8630SOL    HW237350   3.917   3.694   8.799 -1.1357  0.5339 -1.4163
 8631SOL     OW37351   4.694   0.009   6.451 -0.3355  0.2006 -0.1248
 8631SOL    HW137352   0.009   4.696   6.530 -0.7030 -0.9160 -0.4620
 8631SOL    HW237353   4.607   4.697   6.471  0.0704  0.2752  1.7431
 8632SOL     OW37354   4.714   3.324  11.669  0.3650 -0.2577  0.3157
 8632SOL    HW137355   0.035   3.297  11.589 -0.3812 -1.8462  0.4460
 8632SOL    HW237356   0.023   3.414  11.671  1.2916 -0.5478 -1.4383
 8633SOL     OW37357   0.701   3.109   0.356 -0.3517  0.0074  0.2902
 8633SOL    HW137358   0.617   3.105   0.402 -0.2152  1.0770  0.6209
 8633SOL    HW237359   0.663   3.150   0.278 -0.1922  1.3283  0.9046
 8634SOL     OW37360   0.881   2.657   1.792 -0.1207 -0.3864  0.5805
 8634SOL    HW137361   0.923   2.581   1.751 -1.4342 -1.1880  0.7103
 8634SOL    HW237362   0.894   2.725   1.726  1.2500 -0.4366  0.7861
 8635SOL     OW37363   0.877   1.521  12.886  0.3267  0.0768 -0.1227
 8635SOL    HW137364   0.824   1.579  12.940  0.3023 -1.8993  1.9582
 8635SOL    HW237365   0.826   1.514  12.805 -0.8964 -0.8370  0.7183
 8636SOL     OW37366   4.344   3.496   7.379 -0.4142  0.5224  0.1214
 8636SOL    HW137367   4.350   3.572   7.438  0.5186  0.9289 -0.4940
 8636SOL    HW237368   4.390   3.524   7.299 -1.7493  1.6039 -0.2826
 8637SOL     OW37369   0.363   3.446   0.382 -0.3440 -0.6955  0.1294
 8637SOL    HW137370   0.270   3.429   0.370 -0.5793  0.5599  0.1898
 8637SOL    HW237371   0.375   3.519   0.322  0.3866 -2.4699 -1.8895
 8638SOL     OW37372   3.680   4.105   7.906 -0.4614 -0.1683  0.3921
 8638SOL    HW137373   3.734   4.080   7.981 -0.7080 -0.9395  0.3111
 8638SOL    HW237374   3.656   4.195   7.927 -0.3695 -0.5231  2.0513
 8639SOL     OW37375   1.144   1.254   3.632 -0.3721 -0.3632 -0.3961
 8639SOL    HW137376   1.190   1.337   3.621  0.8515 -0.9430  0.3311
 8639SOL    HW237377   1.192   1.194   3.575 -0.6932 -2.0837  1.1416
 8640SOL     OW37378   0.393   1.006   0.719  0.3922  0.4287 -0.4312
 8640SOL    HW137379   0.340   0.949   0.662 -0.0514 -0.1458  0.5425
 8640SOL    HW237380   0.426   1.064   0.650  0.3885  0.5706 -0.3124
 8641SOL     OW37381   4.463   0.156   3.240 -0.7251  0.6196 -0.1233
 8641SOL    HW137382   4.420   0.241   3.252 -0.9774  0.3969  0.4942
 8641SOL    HW237383   4.509   0.180   3.159  0.8464 -0.6290  0.4124
 8642SOL     OW37384   4.009   0.963   7.188 -0.5968  0.0151 -0.1228
 8642SOL    HW137385   3.947   1.036   7.180  1.1805  1.6598  1.0005
 8642SOL    HW237386   4.078   0.999   7.244 -0.7241  2.3645 -1.4686
 8643SOL     OW37387   3.196   3.019   4.425  0.3877  0.7394  0.1759
 8643SOL    HW137388   3.231   3.041   4.512  1.8915  1.7287 -0.6822
 8643SOL    HW237389   3.144   2.939   4.438 -0.5306  1.1975 -0.6686
 8644SOL     OW37390   3.620   0.313   1.785 -0.4569 -0.3666 -0.2458
 8644SOL    HW137391   3.644   0.229   1.746  1.0508  0.7388 -1.6695
 8644SOL    HW237392   3.696   0.338   1.837  0.5547 -1.9075 -0.9941
 8645SOL     OW37393   3.023   0.666   1.511  0.5070  0.6707 -0.6798
 8645SOL    HW137394   3.114   0.650   1.485  0.0855 -3.1547  0.3234
 8645SOL    HW237395   2.984   0.630   1.432 -1.9138  2.4994 -0.3022
 8646SOL     OW37396   1.609   1.598   2.075 -0.2433 -0.1929  0.4829
 8646SOL    HW137397   1.544   1.550   2.024 -0.7845  0.5701  0.4560
 8646SOL    HW237398   1.577   1.689   2.081 -0.5432 -0.3536  1.3738
 8647SOL     OW37399   3.140   0.738   4.716 -0.1332  0.1846 -0.9144
 8647SOL    HW137400   3.130   0.833   4.718  1.6556  0.3379  0.3742
 8647SOL    HW237401   3.082   0.718   4.643 -0.4926  0.9795 -0.8448
 8648SOL     OW37402   3.602   2.205   1.093  0.2633 -0.7507 -0.1113
 8648SOL    HW137403   3.536   2.218   1.162  0.5196 -0.2359  0.0408
 8648SOL    HW237404   3.676   2.254   1.130 -0.7250  2.2003 -2.1186
 8649SOL     OW37405   1.448   2.031  11.620 -0.6862 -0.0348  0.0197
 8649SOL    HW137406   1.534   2.062  11.648 -0.7618 -1.6287  2.0275
 8649SOL    HW237407   1.395   2.109  11.636 -0.4785  0.3406 -1.1388
 8650SOL     OW37408   1.992   1.864   2.132  0.2542  0.2051  0.1098
 8650SOL    HW137409   1.902   1.866   2.097 -0.4297  2.0072  1.9565
 8650SOL    HW237410   1.971   1.832   2.220  2.0120 -1.8181 -0.2174
 8651SOL     OW37411   2.491   3.419  15.298  0.4064 -0.1043  0.5994
 8651SOL    HW137412   2.580   3.384  15.295 -0.5496 -2.4774 -0.0461
 8651SOL    HW237413   2.476   3.450  15.387  0.9516  2.5303 -0.1959
 8652SOL     OW37414   1.342   0.855   9.278  0.6497  0.4085 -0.2294
 8652SOL    HW137415   1.248   0.857   9.265  0.8911 -0.1546 -2.0477
 8652SOL    HW237416   1.369   0.946   9.286  0.2613  0.4362  0.7261
 8653SOL     OW37417   2.116   2.804   4.259 -0.4374  0.1889  0.6101
 8653SOL    HW137418   2.199   2.836   4.293 -1.5076  0.9016  2.5293
 8653SOL    HW237419   2.058   2.863   4.306 -0.5560 -0.8880  1.8181
 8654SOL     OW37420   2.238   0.281   7.007  0.1619  0.4372  0.1046
 8654SOL    HW137421   2.288   0.200   7.019  0.3340  0.5243 -0.0147
 8654SOL    HW237422   2.258   0.333   7.084  1.7996 -2.9348  1.9667
 8655SOL     OW37423   0.751   2.822   8.843  0.1256  0.0383 -0.4271
 8655SOL    HW137424   0.838   2.788   8.827  0.6483  0.3484  1.7263
 8655SOL    HW237425   0.761   2.917   8.832 -0.2596  0.0573 -0.6225
 8656SOL     OW37426   4.684   3.413  17.338 -0.5463  0.7084 -0.0472
 8656SOL    HW137427   4.621   3.461  17.392  1.0559  1.2622  1.3359
 8656SOL    HW237428   0.013   3.486  17.306  1.7689 -0.2108  1.6993
 8657SOL     OW37429   1.881   3.371   2.818  0.1282  0.5789  0.3019
 8657SOL    HW137430   1.923   3.456   2.805  2.0466  0.0418  2.9119
 8657SOL    HW237431   1.951   3.351   2.880  1.1147 -1.0516 -1.3582
 8658SOL     OW37432   3.769   0.782   4.948  0.0412  0.6472  0.3080
 8658SOL    HW137433   3.772   0.757   5.041  0.3567  1.9379  0.6446
 8658SOL    HW237434   3.777   0.876   4.963 -0.9517  0.7560  0.1450
 8659SOL     OW37435   3.324   0.291  16.105  0.0139  0.6416 -1.0773
 8659SOL    HW137436   3.365   0.207  16.128  0.1900  1.3964  1.3210
 8659SOL    HW237437   3.249   0.255  16.058 -1.2050  1.2905  0.3732
 8660SOL     OW37438   0.785   0.497   8.486 -0.2484 -0.1543 -0.3868
 8660SOL    HW137439   0.782   0.512   8.581  0.5650 -1.9057 -0.0968
 8660SOL    HW237440   0.694   0.486   8.459  0.1057  0.7948 -1.9974
 8661SOL     OW37441   0.561   3.411  14.860  0.4860 -0.2504 -0.2543
 8661SOL    HW137442   0.534   3.426  14.769  3.0456 -0.7705 -1.0981
 8661SOL    HW237443   0.476   3.425  14.900 -0.1845 -1.2871 -1.3129
 8662SOL     OW37444   0.411   3.610  17.646 -0.3693 -0.4986  0.3137
 8662SOL    HW137445   0.387   3.625  17.555 -2.0421 -1.1462  0.6494
 8662SOL    HW237446   0.473   3.538  17.640  1.6778  1.2501  0.4101
 8663SOL     OW37447   3.995   0.293  12.600 -0.9020 -0.1209  0.5997
 8663SOL    HW137448   4.009   0.277  12.507 -2.1581  2.9173 -0.0938
 8663SOL    HW237449   4.075   0.345  12.611 -0.9294 -0.1217  0.7994
 8664SOL     OW37450   0.224   1.856  13.936  0.0405 -0.0991 -0.5418
 8664SOL    HW137451   0.281   1.811  13.998 -1.7807  0.1894  1.3327
 8664SOL    HW237452   0.209   1.783  13.876 -3.3650  0.5718 -0.5017
 8665SOL     OW37453   3.514   0.817   8.676  0.0681 -0.5207 -1.0456
 8665SOL    HW137454   3.598   0.784   8.709 -1.2338  0.0627  2.9116
 8665SOL    HW237455   3.541   0.815   8.585  0.6893 -1.9312 -0.8332
 8666SOL     OW37456   2.382   1.674   2.699  0.1883  0.1661 -0.4033
 8666SOL    HW137457   2.387   1.586   2.662  0.8238 -0.4099  1.0709
 8666SOL    HW237458   2.286   1.679   2.696  0.1570 -0.8427 -1.1667
 8667SOL     OW37459   0.696   3.530   5.979  0.5198 -0.3992  0.3689
 8667SOL    HW137460   0.789   3.510   5.988 -0.0372 -2.8779  0.8494
 8667SOL    HW237461   0.691   3.541   5.884  1.6351  0.1249  0.3705
 8668SOL     OW37462   1.552   0.562  11.161  0.6747  0.2208  0.1793
 8668SOL    HW137463   1.521   0.564  11.071 -2.0124 -1.8213  1.0658
 8668SOL    HW237464   1.500   0.488  11.192  0.3399 -0.3942 -1.8610
 8669SOL     OW37465   0.338   3.108   2.754 -0.0714 -0.5098  0.2723
 8669SOL    HW137466   0.319   3.201   2.748 -1.7492 -0.7514  1.6639
 8669SOL    HW237467   0.430   3.105   2.779 -0.2193 -1.6929  0.6954
 8670SOL     OW37468   0.025   2.806  12.624 -0.5385  0.1357 -0.4174
 8670SOL    HW137469   0.002   2.734  12.565  0.0027 -0.1996 -0.2147
 8670SOL    HW237470   0.107   2.834  12.583  0.3138 -0.0609  1.1721
 8671SOL     OW37471   0.415   2.087   2.537 -0.3128 -0.2544  0.4139
 8671SOL    HW137472   0.472   2.156   2.504  1.7432 -1.0181  2.3922
 8671SOL    HW237473   0.416   2.127   2.624 -1.0633  0.1969  0.2127
 8672SOL     OW37474   3.837   4.642   5.750  0.5816  0.6748 -0.3953
 8672SOL    HW137475   3.745   4.652   5.771  0.0889 -0.0092 -2.2017
 8672SOL    HW237476   3.856   0.010   5.732 -0.7733  1.3063  1.5147
 8673SOL     OW37477   4.261   0.617   7.764 -0.0340 -0.7746 -0.2124
 8673SOL    HW137478   4.206   0.682   7.806  0.2431  1.5896 -3.4510
 8673SOL    HW237479   4.316   0.670   7.705 -0.4476  0.3090  0.3800
 8674SOL     OW37480   3.201   4.078   5.789 -0.3843  0.1746 -0.0081
 8674SOL    HW137481   3.127   4.139   5.794  0.5457  1.2668  0.5709
 8674SOL    HW237482   3.143   4.005   5.807  0.1019 -1.2364 -4.0386
 8675SOL     OW37483   2.744   2.460   4.454  0.0083  0.3148  0.3379
 8675SOL    HW137484   2.806   2.435   4.523  1.0687 -0.9671 -1.0810
 8675SOL    HW237485   2.796   2.492   4.380 -0.4174  0.0309 -0.0883
 8676SOL     OW37486   4.150   0.947   6.111 -0.8883  0.1716 -0.2635
 8676SOL    HW137487   4.234   0.915   6.077  1.3056  3.2795  2.3233
 8676SOL    HW237488   4.085   0.889   6.070  0.8720 -0.4505 -2.2126
 8677SOL     OW37489   3.839   2.377   4.152  0.0566 -0.6261 -0.6733
 8677SOL    HW137490   3.779   2.417   4.214 -0.2346 -1.2098 -0.5791
 8677SOL    HW237491   3.821   2.285   4.170 -0.2485 -0.9242 -2.5520
 8678SOL     OW37492   0.547   4.676   6.432  0.2747  0.0960  0.4782
 8678SOL    HW137493   0.536   4.641   6.344 -1.9842  0.4849  0.5984
 8678SOL    HW237494   0.476   0.016   6.436 -1.1202 -1.4531  0.4798
 8679SOL     OW37495   1.932   3.330   2.512 -0.5718 -0.5819 -0.6664
 8679SOL    HW137496   1.924   3.299   2.602  1.2413  0.6926 -0.0754
 8679SOL    HW237497   2.025   3.320   2.493  0.0178 -0.0006  1.9204
 8680SOL     OW37498   3.592   2.222   5.693  0.3640 -0.2099 -0.3106
 8680SOL    HW137499   3.602   2.308   5.732  0.6685  0.0901 -1.0543
 8680SOL    HW237500   3.585   2.171   5.774  1.2520  2.4579  1.4269
 8681SOL     OW37501   3.089   3.771  16.961 -0.0748 -0.2180  0.4152
 8681SOL    HW137502   3.126   3.720  16.889  1.2817  0.7312  0.4561
 8681SOL    HW237503   3.110   3.862  16.939  2.0414 -0.5510  1.1103
 8682SOL     OW37504   1.232   1.303   1.208  0.0225 -0.1757 -0.1377
 8682SOL    HW137505   1.161   1.284   1.269 -0.8179 -0.3112 -1.1383
 8682SOL    HW237506   1.309   1.282   1.260  0.2173  0.2892 -0.2418
 8683SOL     OW37507   3.836   2.619   5.550 -0.9941 -0.4028 -0.4973
 8683SOL    HW137508   3.825   2.714   5.559  0.2511 -0.2711 -0.2404
 8683SOL    HW237509   3.747   2.597   5.576 -0.7322 -1.6510 -0.6624
 8684SOL     OW37510   1.376   4.233  12.793  0.2032 -0.7055  0.4567
 8684SOL    HW137511   1.353   4.235  12.700  0.3423 -0.4299  0.4302
 8684SOL    HW237512   1.465   4.196  12.790  0.9428  1.1115  0.3572
 8685SOL     OW37513   1.071   2.932   4.300 -0.5129  0.1719 -0.5558
 8685SOL    HW137514   1.162   2.936   4.331 -0.4807  0.1206 -0.6427
 8685SOL    HW237515   1.029   2.922   4.385 -1.8175  1.1804 -1.0884
 8686SOL     OW37516   0.878   3.249  11.848 -0.2987 -0.4724 -0.3490
 8686SOL    HW137517   0.852   3.330  11.893 -1.1453 -0.3258 -1.1238
 8686SOL    HW237518   0.797   3.210  11.816 -0.3501 -0.6408 -0.0093
 8687SOL     OW37519   3.447   2.263   4.980 -0.6422 -0.5722 -0.1210
 8687SOL    HW137520   3.392   2.239   5.054 -3.9905 -2.7359 -3.3287
 8687SOL    HW237521   3.463   2.357   4.991 -0.5799 -0.6598  0.5551
 8688SOL     OW37522   1.810   1.052   5.686  0.0445  0.1435  0.2557
 8688SOL    HW137523   1.864   1.124   5.652 -0.6244  0.3989 -0.2731
 8688SOL    HW237524   1.726   1.097   5.693 -0.6804 -1.3459  0.9784
 8689SOL     OW37525   3.551   2.065   2.881  0.7209  0.5888 -0.2014
 8689SOL    HW137526   3.475   2.122   2.893  1.1444  1.2203 -0.5116
 8689SOL    HW237527   3.593   2.105   2.805  1.0070  1.3002  0.3323
 8690SOL     OW37528   4.124   1.794   4.451 -0.0282 -0.2542 -0.4409
 8690SOL    HW137529   4.187   1.850   4.406  0.4333 -0.0408  0.4679
 8690SOL    HW237530   4.180   1.757   4.519  0.5539 -0.0809 -0.8286
 8691SOL     OW37531   2.659   4.483   2.096 -0.2774  0.1971 -0.0028
 8691SOL    HW137532   2.637   4.493   2.189 -0.2671 -4.2011  0.4715
 8691SOL    HW237533   2.690   4.570   2.072  0.1435 -0.0242 -0.2759
 8692SOL     OW37534   3.345   0.091   3.798  0.3661 -0.3559  0.7892
 8692SOL    HW137535   3.285   0.105   3.871 -2.6037 -0.1694 -1.7071
 8692SOL    HW237536   3.424   0.143   3.815 -1.1126  2.0821  0.2184
 8693SOL     OW37537   3.525   4.546  15.935  0.2763  0.0676 -0.8842
 8693SOL    HW137538   3.448   4.493  15.957 -0.1092  0.7674 -0.5275
 8693SOL    HW237539   3.526   4.608  16.009  0.8944  2.9195 -3.2878
 8694SOL     OW37540   0.344   3.353  11.872  0.1443 -0.3978  0.2381
 8694SOL    HW137541   0.342   3.440  11.911  1.1647 -1.4978  2.7808
 8694SOL    HW237542   0.394   3.368  11.792 -0.4610 -1.0437 -0.2552
 8695SOL     OW37543   1.316   3.378   6.667 -0.3450 -0.3060 -0.4147
 8695SOL    HW137544   1.300   3.379   6.572 -1.7385  2.5793 -0.1309
 8695SOL    HW237545   1.305   3.283   6.677  2.9232 -0.7673 -1.0403
 8696SOL     OW37546   1.366   4.053  10.193 -0.5437  0.1099  0.1870
 8696SOL    HW137547   1.431   4.074  10.126 -0.7144 -0.5839 -0.1925
 8696SOL    HW237548   1.349   4.146  10.212  2.0003  0.3760  1.1141
 8697SOL     OW37549   2.231   2.343   5.271  0.1985  0.1617  0.7916
 8697SOL    HW137550   2.153   2.395   5.289 -0.1785  0.3917 -1.4820
 8697SOL    HW237551   2.275   2.347   5.356 -0.2012 -1.4703  1.0684
 8698SOL     OW37552   2.409   0.094   6.436  0.2070  0.4403  0.8714
 8698SOL    HW137553   2.493   0.109   6.393  0.1597  0.0965  0.6561
 8698SOL    HW237554   2.435   0.042   6.512  0.8113  1.3858  1.3216
 8699SOL     OW37555   0.153   4.051  16.688  0.9014 -0.7953  0.6483
 8699SOL    HW137556   0.212   4.118  16.722 -0.4648  1.0587 -0.6180
 8699SOL    HW237557   0.215   4.014  16.626  0.8761  0.6841 -0.2551
 8700SOL     OW37558   0.611   2.259  12.441  0.1781 -0.5248  0.7617
 8700SOL    HW137559   0.587   2.209  12.518  1.2174 -0.8607  0.8714
 8700SOL    HW237560   0.627   2.177  12.394 -0.9716  0.0315 -0.5992
 8701SOL     OW37561   3.954   4.249  17.102 -0.1624 -0.4379  0.3859
 8701SOL    HW137562   4.005   4.316  17.056 -0.4852 -1.2329 -1.1257
 8701SOL    HW237563   4.013   4.203  17.162 -2.0140 -3.0362  0.2208
 8702SOL     OW37564   1.940   2.736  10.182 -0.2120  0.4436  0.6301
 8702SOL    HW137565   1.858   2.749  10.135  0.1412  1.3331  0.2639
 8702SOL    HW237566   1.991   2.806  10.141  1.9090  0.3403  3.0693
 8703SOL     OW37567   1.468   2.824  14.829 -0.1637 -0.8431 -0.3977
 8703SOL    HW137568   1.427   2.861  14.907 -0.8607 -0.9104 -0.7329
 8703SOL    HW237569   1.463   2.896  14.767 -0.5442 -1.1138 -0.6779
 8704SOL     OW37570   0.319   4.264   5.944  0.4265  0.1686 -0.0173
 8704SOL    HW137571   0.405   4.227   5.961 -0.0960 -1.6446 -1.3039
 8704SOL    HW237572   0.325   4.330   6.013  2.8685  0.1048 -0.1910
 8705SOL     OW37573   2.144   0.765  15.165  0.8976  0.6518 -0.2001
 8705SOL    HW137574   2.224   0.808  15.198  1.3836  0.8327 -1.6359
 8705SOL    HW237575   2.111   0.828  15.101  1.1411  0.8834 -0.0989
 8706SOL     OW37576   3.699   3.713   0.110  0.1238 -0.1148 -0.2895
 8706SOL    HW137577   3.640   3.642   0.135 -0.5929  1.0127  1.1685
 8706SOL    HW237578   3.741   3.676   0.032  1.2518 -0.5846  0.5329
 8707SOL     OW37579   2.320   2.116  15.872  0.4447 -0.2230 -0.2012
 8707SOL    HW137580   2.253   2.050  15.885 -0.8219  0.7007 -1.9322
 8707SOL    HW237581   2.401   2.067  15.888  0.4556 -1.1961 -3.1603
 8708SOL     OW37582   4.416   1.739   2.878 -0.0008 -0.2290 -0.0434
 8708SOL    HW137583   4.466   1.811   2.918  0.1181 -0.9824  1.1630
 8708SOL    HW237584   4.476   1.664   2.883 -1.4147 -1.2485  1.4649
 8709SOL     OW37585   0.659   2.526   1.405 -0.1185  0.2610  0.3362
 8709SOL    HW137586   0.749   2.558   1.413 -0.1851  0.2937  1.0315
 8709SOL    HW237587   0.661   2.452   1.465  0.7300 -0.0998 -0.1390
 8710SOL     OW37588   2.955   1.095   4.520  0.0821  0.4356 -0.4926
 8710SOL    HW137589   2.864   1.067   4.509  0.5608  0.0864 -3.6233
 8710SOL    HW237590   2.952   1.191   4.522  1.0992  0.4363  0.8660
 8711SOL     OW37591   4.053   1.606   7.154  0.3643  0.0100 -0.3382
 8711SOL    HW137592   4.002   1.675   7.197  1.5012  0.4423  0.2989
 8711SOL    HW237593   4.128   1.651   7.116 -0.7961  3.2032  1.1508
 8712SOL     OW37594   2.435   0.344  16.745  0.5690 -0.4483  0.4447
 8712SOL    HW137595   2.367   0.277  16.747 -1.0200  1.1578 -0.0965
 8712SOL    HW237596   2.450   0.354  16.651  0.0296 -3.1942  0.0490
 8713SOL     OW37597   0.441   0.874  17.288 -0.1127 -0.2245 -0.3373
 8713SOL    HW137598   0.493   0.928  17.229  0.3643 -0.8926 -0.5293
 8713SOL    HW237599   0.434   0.794  17.235  1.1918 -1.0432  0.7416
 8714SOL     OW37600   3.311   2.040   6.842  0.1663  0.5446  0.0524
 8714SOL    HW137601   3.264   1.978   6.898 -0.2127 -1.3855 -2.3795
 8714SOL    HW237602   3.280   2.127   6.868  0.7901  0.9221 -0.4694
 8715SOL     OW37603   1.168   1.641   2.089 -0.2380  0.3080 -0.6398
 8715SOL    HW137604   1.233   1.571   2.099  2.2827  2.4623 -1.8427
 8715SOL    HW237605   1.158   1.679   2.176  1.6464  0.6472 -0.5607
 8716SOL     OW37606   0.337   3.783   5.826 -0.9426 -0.5923  0.6834
 8716SOL    HW137607   0.282   3.845   5.873  0.3472  0.0839  1.3053
 8716SOL    HW237608   0.298   3.702   5.858  1.5463 -1.8736  0.5014
 8717SOL     OW37609   2.956   3.098   0.887 -0.2582  0.3772 -0.1585
 8717SOL    HW137610   2.882   3.139   0.842 -0.5031 -2.2501 -2.0977
 8717SOL    HW237611   2.925   3.068   0.973 -0.1238 -0.3597 -0.3686
 8718SOL     OW37612   2.837   4.309  16.850  0.1582  0.5826  0.5882
 8718SOL    HW137613   2.760   4.348  16.809 -0.4740 -0.0921  1.1256
 8718SOL    HW237614   2.872   4.385  16.896  0.7631  0.9929 -0.5589
 8719SOL     OW37615   3.878   4.290  16.162  0.3044 -0.1619 -0.2467
 8719SOL    HW137616   3.852   4.309  16.252  1.7700  0.7530 -0.0065
 8719SOL    HW237617   3.890   4.195  16.169 -1.9408 -0.4856 -1.0191
 8720SOL     OW37618   0.836   1.395   9.671  0.2940 -0.2365  0.3227
 8720SOL    HW137619   0.915   1.407   9.618 -0.8867  0.5989 -1.2291
 8720SOL    HW237620   0.794   1.480   9.684 -1.8395 -1.5473  1.9981
 8721SOL     OW37621   0.033   4.400   7.665  0.4428 -0.2062 -0.0649
 8721SOL    HW137622   4.710   4.483   7.672 -2.4294 -1.5663 -3.3701
 8721SOL    HW237623   4.696   4.338   7.625  0.5223 -1.4371  1.6897
 8722SOL     OW37624   3.264   4.249  11.111 -0.6179 -0.1065 -0.6965
 8722SOL    HW137625   3.216   4.319  11.156 -1.1998 -1.8829  1.4628
 8722SOL    HW237626   3.255   4.179  11.176 -0.8453  1.9469  1.4954
 8723SOL     OW37627   1.063   1.712   3.816  0.4496  0.3218  0.6978
 8723SOL    HW137628   1.024   1.637   3.861 -0.8365 -0.0050 -0.9895
 8723SOL    HW237629   1.007   1.711   3.739  1.6863 -2.0982 -0.1537
 8724SOL     OW37630   0.437   0.912  16.872  0.6240  0.3215  0.0854
 8724SOL    HW137631   0.360   0.872  16.832  1.2976 -1.8099  0.9024
 8724SOL    HW237632   0.508   0.898  16.809  0.3977 -0.6803  0.0684
 8725SOL     OW37633   4.174   2.920   0.755  0.5224  0.3815  0.1326
 8725SOL    HW137634   4.245   2.864   0.787  0.1929  1.1259  2.1999
 8725SOL    HW237635   4.140   2.957   0.837  1.5833  0.5335  0.5053
 8726SOL     OW37636   4.233   4.559   4.247  0.1536  0.6815 -0.3008
 8726SOL    HW137637   4.253   4.652   4.256 -1.1386  0.9403 -0.1071
 8726SOL    HW237638   4.321   4.540   4.215 -0.7262 -2.9179 -0.6129
 8727SOL     OW37639   2.429   4.628   0.637  0.0441  0.1632  0.6402
 8727SOL    HW137640   2.337   4.605   0.649 -0.0392  0.9291  1.4784
 8727SOL    HW237641   2.472   4.554   0.680 -1.3829 -1.6377 -1.0586
 8728SOL     OW37642   3.743   4.119  14.692 -0.2160  0.6398  0.6298
 8728SOL    HW137643   3.682   4.126  14.619  2.0504  1.4993 -1.1726
 8728SOL    HW237644   3.784   4.199  14.661 -0.6013  0.1381 -1.1594
 8729SOL     OW37645   2.035   0.684   5.482 -0.0608 -0.2646 -0.0116
 8729SOL    HW137646   2.108   0.746   5.481  2.1823 -2.8922  1.6918
 8729SOL    HW237647   1.961   0.743   5.465  0.2870 -0.1584 -1.2066
 8730SOL     OW37648   3.848   2.039   4.300  0.9348  0.0627  0.3365
 8730SOL    HW137649   3.764   2.021   4.343  1.1516  2.2307  1.6564
 8730SOL    HW237650   3.838   1.996   4.215 -1.0908 -0.7119  0.9462
 8731SOL     OW37651   1.875   0.151   9.918 -0.1920 -0.3751 -0.1482
 8731SOL    HW137652   1.959   0.198   9.917 -0.6174  0.3681 -0.6040
 8731SOL    HW237653   1.815   0.217   9.884 -1.9473 -1.7384  0.3276
 8732SOL     OW37654   0.044   3.007   2.168  0.3942  0.0789 -0.3941
 8732SOL    HW137655   0.126   2.980   2.207  0.1222 -0.1624  0.0021
 8732SOL    HW237656   0.044   3.102   2.180 -1.3935  0.5558 -4.0025
 8733SOL     OW37657   3.831   1.193   3.348  0.1793 -0.4783 -0.3062
 8733SOL    HW137658   3.919   1.157   3.351  0.4049 -0.0389 -1.6252
 8733SOL    HW237659   3.845   1.288   3.343 -0.9561 -0.3566 -1.1356
 8734SOL     OW37660   2.142   4.265  10.610 -0.1694 -0.3945  0.2072
 8734SOL    HW137661   2.115   4.316  10.686 -0.5783 -3.1024  1.8974
 8734SOL    HW237662   2.180   4.325  10.546  1.9076 -1.2107  0.6996
 8735SOL     OW37663   3.920   2.236   3.534  0.2170 -0.6483  0.4134
 8735SOL    HW137664   3.868   2.197   3.605 -0.8615 -0.3188 -0.2024
 8735SOL    HW237665   3.877   2.190   3.463 -0.0471  0.0457  0.1260
 8736SOL     OW37666   2.165   0.484   3.264  0.4314 -0.1793  0.6587
 8736SOL    HW137667   2.183   0.412   3.324  1.7275 -0.6213 -0.2521
 8736SOL    HW237668   2.098   0.528   3.316 -0.0472  0.0575 -0.1547
 8737SOL     OW37669   3.327   4.038   4.406  0.1245  0.0984 -0.2963
 8737SOL    HW137670   3.386   4.112   4.397 -1.2139  1.3844  1.3652
 8737SOL    HW237671   3.319   4.038   4.502  0.7551  1.5122 -0.2421
 8738SOL     OW37672   3.177   2.761   6.755 -0.2747 -0.0845  0.1746
 8738SOL    HW137673   3.184   2.681   6.807  0.9793 -1.3786 -1.9835
 8738SOL    HW237674   3.254   2.748   6.700  0.5378 -0.1777  1.3389
 8739SOL     OW37675   4.129   4.173   2.685  0.2181  0.0546  0.6123
 8739SOL    HW137676   4.091   4.186   2.771 -0.3956 -0.1667  0.3732
 8739SOL    HW237677   4.062   4.232   2.650 -0.9790 -1.9002 -0.3763
 8740SOL     OW37678   3.269   4.324  16.164 -0.1290  0.6706 -0.0088
 8740SOL    HW137679   3.203   4.254  16.169  0.6928 -0.1464 -0.5571
 8740SOL    HW237680   3.280   4.308  16.070 -1.5520  3.9696 -0.7501
 8741SOL     OW37681   3.511   0.845   6.402 -0.6440 -0.2456  0.5003
 8741SOL    HW137682   3.493   0.799   6.483 -0.6011 -2.5880 -0.8235
 8741SOL    HW237683   3.548   0.932   6.420 -2.1614  0.4281  0.3699
 8742SOL     OW37684   1.010   0.768   1.721  0.0911 -0.0990 -0.0863
 8742SOL    HW137685   0.928   0.718   1.727 -1.2469  1.8167 -2.2985
 8742SOL    HW237686   1.079   0.703   1.707  0.3509  0.2711 -0.5331
 8743SOL     OW37687   0.855   4.198   8.579  0.6244 -0.3892 -0.1426
 8743SOL    HW137688   0.867   4.107   8.552  0.0087 -0.6589  0.5280
 8743SOL    HW237689   0.761   4.198   8.594  0.7701  4.0475  0.7497
 8744SOL     OW37690   3.567   2.528   0.645 -0.1061 -0.2077  0.3646
 8744SOL    HW137691   3.552   2.490   0.731  2.1145  1.3779  1.4511
 8744SOL    HW237692   3.651   2.492   0.619  0.0088 -1.5676  2.6746
 8745SOL     OW37693   2.894   4.674   1.030 -0.2304 -1.0035 -0.0222
 8745SOL    HW137694   2.957   4.675   0.957 -1.3369  0.4043 -0.9512
 8745SOL    HW237695   2.956   4.642   1.095  1.7009  0.5185 -1.1305
 8746SOL     OW37696   3.083   0.898   6.107 -0.0332  0.6833 -0.1202
 8746SOL    HW137697   3.012   0.923   6.165 -0.8570  0.5580 -1.0872
 8746SOL    HW237698   3.156   0.874   6.165 -0.1891 -0.1666 -0.2760
 8747SOL     OW37699   1.013   4.587  12.776  0.2428  0.0878 -0.5489
 8747SOL    HW137700   0.966   4.651  12.829  2.3185  0.8043  0.4437
 8747SOL    HW237701   0.956   4.514  12.797  0.9672 -0.1504  0.5797
 8748SOL     OW37702   2.143   2.737   3.894  0.3577  0.7587 -0.5470
 8748SOL    HW137703   2.185   2.659   3.929  0.0984  0.1462 -1.5925
 8748SOL    HW237704   2.139   2.713   3.801 -2.4654 -0.1648 -0.1935
 8749SOL     OW37705   3.878   1.633   6.011 -0.4101  0.0768 -0.2859
 8749SOL    HW137706   3.820   1.704   5.986  0.3765  1.0462  0.5960
 8749SOL    HW237707   3.924   1.613   5.930 -0.2063 -1.2656  0.1652
 8750SOL     OW37708   4.172   1.349   3.461 -0.0820  0.0410 -0.2945
 8750SOL    HW137709   4.234   1.400   3.410  0.9675 -2.0950 -1.1852
 8750SOL    HW237710   4.234   1.280   3.485  1.1217  0.4275 -2.3304
 8751SOL     OW37711   3.342   4.443   0.646  0.6064 -0.3396  0.2940
 8751SOL    HW137712   3.382   4.477   0.726  0.3130  0.0797  0.2613
 8751SOL    HW237713   3.265   4.500   0.643 -0.6975 -2.1515 -0.0675
 8752SOL     OW37714   1.907   4.460   7.096  0.3063 -0.0363 -0.4046
 8752SOL    HW137715   1.963   4.431   7.024  0.8529 -0.4803  0.2041
 8752SOL    HW237716   1.932   4.400   7.166  0.5974  1.7245  0.9802
 8753SOL     OW37717   0.583   0.015   7.234 -0.4999 -0.0509 -0.2253
 8753SOL    HW137718   0.660   0.072   7.229 -0.6602  0.2515  0.6194
 8753SOL    HW237719   0.625   4.663   7.275  0.3023 -0.4946 -1.8637
 8754SOL     OW37720   2.692   3.507   7.550  0.3100 -0.4569 -0.1869
 8754SOL    HW137721   2.669   3.440   7.485  0.4476 -1.2751  0.5972
 8754SOL    HW237722   2.662   3.592   7.521 -0.4523 -0.2283  1.2758
 8755SOL     OW37723   3.480   3.905  11.391 -0.4283 -0.1146  0.1807
 8755SOL    HW137724   3.528   3.841  11.338  0.0659  0.8671 -0.5445
 8755SOL    HW237725   3.471   3.843  11.464  2.5073  0.5910  1.1426
 8756SOL     OW37726   2.142   1.126   8.054  0.0029 -0.3249 -0.0812
 8756SOL    HW137727   2.193   1.077   8.119  1.7350  1.4485 -0.0877
 8756SOL    HW237728   2.105   1.050   8.009  4.7832 -1.5703 -1.8648
 8757SOL     OW37729   1.790   1.391   4.785 -0.3198 -0.3644 -0.2980
 8757SOL    HW137730   1.790   1.423   4.694 -0.2046  1.6070  0.4037
 8757SOL    HW237731   1.813   1.298   4.786 -5.9943 -1.7697  0.2948
 8758SOL     OW37732   2.188   0.792   0.475 -0.6830  0.1981 -0.4926
 8758SOL    HW137733   2.256   0.724   0.477  0.6880  1.6913  3.6432
 8758SOL    HW237734   2.170   0.786   0.381 -0.3667 -0.9381 -0.4832
 8759SOL     OW37735   3.365   0.040   7.134 -0.0934 -0.3106  0.2868
 8759SOL    HW137736   3.286   0.065   7.086  1.0353  0.9013 -0.9567
 8759SOL    HW237737   3.337   0.055   7.224 -0.6200  0.5990 -0.0356
 8760SOL     OW37738   3.353   2.488   6.671 -0.2272 -0.0997  0.1022
 8760SOL    HW137739   3.425   2.547   6.647  0.4810  0.4990  3.7957
 8760SOL    HW237740   3.392   2.405   6.646  0.5959 -0.5313  2.8143
 8761SOL     OW37741   1.494   1.295   5.191 -0.2619  0.4394 -0.2668
 8761SOL    HW137742   1.550   1.314   5.116 -0.1290 -0.0051 -0.2755
 8761SOL    HW237743   1.555   1.294   5.264  0.0621 -0.4027 -0.5549
 8762SOL     OW37744   2.822   1.631  10.273 -0.8315  0.0411 -0.0885
 8762SOL    HW137745   2.783   1.673  10.349  1.3873  1.6968  0.1539
 8762SOL    HW237746   2.902   1.599  10.314 -1.4978 -1.4813  0.0282
 8763SOL     OW37747   4.165   2.799   7.538 -0.4078 -0.2131  0.2412
 8763SOL    HW137748   4.247   2.785   7.492  0.6823 -0.7602  2.3562
 8763SOL    HW237749   4.156   2.718   7.589  0.5870 -0.3609  0.1841
 8764SOL     OW37750   0.830   2.540   9.100 -0.0783 -0.7366  0.1755
 8764SOL    HW137751   0.786   2.491   9.031 -0.9767 -4.3454  3.3550
 8764SOL    HW237752   0.847   2.468   9.160 -0.0455  0.5621  1.7148
 8765SOL     OW37753   4.545   1.392  11.867 -0.0696  0.6530  0.4739
 8765SOL    HW137754   4.526   1.466  11.925  2.2563  2.1530 -0.6907
 8765SOL    HW237755   4.454   1.378  11.842 -0.6442  1.4836  2.0752
 8766SOL     OW37756   4.386   4.146   4.322  0.6232 -0.4874 -0.5245
 8766SOL    HW137757   4.466   4.180   4.363  0.3337  1.8271 -1.8812
 8766SOL    HW237758   4.323   4.204   4.365  1.5121 -0.6617  1.0130
 8767SOL     OW37759   1.563   0.961   4.710 -0.7199  0.1946  0.4406
 8767SOL    HW137760   1.596   1.029   4.652  0.3830 -0.7511 -0.0300
 8767SOL    HW237761   1.612   0.880   4.692 -0.7205 -0.1213  1.8755
 8768SOL     OW37762   1.793   2.025  11.994 -0.2359 -0.4834 -0.5390
 8768SOL    HW137763   1.759   2.111  12.020 -1.1786 -0.3052 -2.3113
 8768SOL    HW237764   1.885   2.046  12.011 -1.0378  3.5519 -1.2046
 8769SOL     OW37765   0.635   3.682  16.935 -0.4612  0.6124  0.3482
 8769SOL    HW137766   0.723   3.670  16.970 -0.0248 -1.9480 -1.5533
 8769SOL    HW237767   0.650   3.698  16.842  0.0730  1.2874  0.5543
 8770SOL     OW37768   1.472   1.469   2.274 -0.4161 -0.0730  0.1724
 8770SOL    HW137769   1.406   1.466   2.204  0.6851  0.4245 -0.9037
 8770SOL    HW237770   1.476   1.564   2.289 -0.4936  0.0823 -0.7804
 8771SOL     OW37771   0.621   1.919   3.567  0.2914  0.4680  0.1223
 8771SOL    HW137772   0.574   2.003   3.573 -0.6022 -0.0782  0.8834
 8771SOL    HW237773   0.578   1.880   3.491  0.3166 -1.5567  1.1561
 8772SOL     OW37774   1.148   0.230  11.587 -0.8808 -0.3511 -0.6964
 8772SOL    HW137775   1.230   0.277  11.572 -0.9828  0.1653  0.3649
 8772SOL    HW237776   1.105   0.308  11.624 -1.0946 -0.5893 -0.4468
 8773SOL     OW37777   1.007   3.835  16.152 -0.5634  0.5200 -0.5041
 8773SOL    HW137778   0.923   3.881  16.146 -0.3357  0.9439 -0.4340
 8773SOL    HW237779   1.034   3.814  16.063 -1.3582 -1.6095 -0.2496
 8774SOL     OW37780   2.575   0.450  11.635 -0.1029  0.1989 -0.4828
 8774SOL    HW137781   2.549   0.454  11.727  2.1654  1.4598  0.0853
 8774SOL    HW237782   2.563   0.541  11.607  0.2426  0.2083 -0.5956
 8775SOL     OW37783   4.376   3.063   1.176  0.3687  0.4943  0.2164
 8775SOL    HW137784   4.341   3.147   1.148  0.3195  0.2622 -0.4165
 8775SOL    HW237785   4.302   3.003   1.170  0.5049  0.1903  1.5594
 8776SOL     OW37786   3.886   3.194   6.182 -0.2919 -0.0791 -0.1111
 8776SOL    HW137787   3.868   3.236   6.266  0.1375  0.5358 -0.3233
 8776SOL    HW237788   3.805   3.222   6.139  0.0152 -2.6641 -2.3594
 8777SOL     OW37789   0.600   3.640   9.902  0.3075 -0.1362  0.7082
 8777SOL    HW137790   0.620   3.700   9.830  0.6877  0.0813  0.9982
 8777SOL    HW237791   0.663   3.572   9.876  1.9457  1.0440  1.5394
 8778SOL     OW37792   2.592   4.477  10.475  0.2252  0.2390  0.2195
 8778SOL    HW137793   2.576   4.409  10.409  0.4308 -0.2573  0.6854
 8778SOL    HW237794   2.666   4.436  10.519  1.2393  1.0526 -0.7154
 8779SOL     OW37795   1.178   3.480   0.937  0.0128  0.2084 -0.6237
 8779SOL    HW137796   1.147   3.488   1.027 -1.0095  0.2847 -0.9831
 8779SOL    HW237797   1.263   3.523   0.947  0.3324 -0.3871 -0.7738
 8780SOL     OW37798   0.883   1.309  10.962 -0.3250  0.0750 -0.2755
 8780SOL    HW137799   0.856   1.228  11.006  1.7058  1.1983  3.0874
 8780SOL    HW237800   0.975   1.290  10.980 -0.8155  0.7195  2.9645
 8781SOL     OW37801   1.735   2.492   2.778 -0.2508 -0.0365 -0.1153
 8781SOL    HW137802   1.726   2.514   2.685  0.6049 -2.5459 -0.7971
 8781SOL    HW237803   1.825   2.460   2.773 -0.4754 -0.5318 -0.9566
 8782SOL     OW37804   3.096   0.364   7.000  0.0053 -0.4016  0.1874
 8782SOL    HW137805   3.053   0.389   7.082  0.2535 -0.5133  0.3518
 8782SOL    HW237806   3.025   0.395   6.944  0.6794  0.5022 -0.1646
 8783SOL     OW37807   3.441   1.527  13.209  0.1897 -0.5608  0.2546
 8783SOL    HW137808   3.483   1.480  13.137  0.5563 -0.8795  0.6804
 8783SOL    HW237809   3.468   1.617  13.188  1.0538 -0.2320  2.8309
 8784SOL     OW37810   3.645   1.529   6.803  0.0893  0.4932  0.1129
 8784SOL    HW137811   3.644   1.596   6.735 -1.6106 -0.5622 -0.9152
 8784SOL    HW237812   3.551   1.512   6.816  0.0967  0.5824  0.2836
 8785SOL     OW37813   0.552   2.082   1.847  0.1087  0.8359  0.2159
 8785SOL    HW137814   0.516   2.013   1.792 -0.9746  0.1726  1.7658
 8785SOL    HW237815   0.639   2.044   1.855 -1.1215 -2.1040 -0.5000
 8786SOL     OW37816   1.102   2.794   2.596 -0.0067 -0.4155 -0.1025
 8786SOL    HW137817   1.109   2.787   2.692  0.3325  2.5566  0.0780
 8786SOL    HW237818   1.168   2.859   2.573  0.0964  0.4662  2.6713
 8787SOL     OW37819   2.786   0.718   8.727 -0.7489 -0.1759 -0.0647
 8787SOL    HW137820   2.691   0.723   8.735 -0.8951 -1.6357 -0.8820
 8787SOL    HW237821   2.811   0.801   8.687  0.5510 -0.0934  0.9211
 8788SOL     OW37822   1.893   3.098   0.745  0.2094  0.3761 -0.8684
 8788SOL    HW137823   1.960   3.031   0.731  2.1859  1.9527  1.0846
 8788SOL    HW237824   1.935   3.171   0.701 -0.1375  1.2158  0.1931
 8789SOL     OW37825   0.836   3.153  17.016 -0.4827 -0.0778 -0.2192
 8789SOL    HW137826   0.869   3.240  16.995  0.4348 -0.1226  1.0134
 8789SOL    HW237827   0.858   3.134  17.107 -2.1359  1.5580  0.5350
 8790SOL     OW37828   1.987   1.868  16.251 -0.2986  0.8627 -0.0730
 8790SOL    HW137829   2.070   1.901  16.287  0.6450 -2.2161  0.5942
 8790SOL    HW237830   1.988   1.914  16.168  0.1660 -1.7865 -1.5331
 8791SOL     OW37831   2.183   2.263  16.253 -0.8783  0.1122  0.4086
 8791SOL    HW137832   2.244   2.330  16.283 -1.3448 -0.1764  2.0360
 8791SOL    HW237833   2.113   2.315  16.214  1.5345  1.0594 -2.5872
 8792SOL     OW37834   2.250   2.032   4.218  0.2424  0.2962 -0.6767
 8792SOL    HW137835   2.235   2.045   4.125  0.8994  1.2549 -0.6485
 8792SOL    HW237836   2.182   1.966   4.237  0.2698  0.7614  1.0951
 8793SOL     OW37837   0.111   0.855  15.038  0.0779 -0.4149 -0.1576
 8793SOL    HW137838   0.049   0.859  15.110  0.7263 -1.0555  0.4353
 8793SOL    HW237839   0.199   0.857  15.076 -0.1569 -3.1927  0.4899
 8794SOL     OW37840   3.080   1.055  15.227 -0.0627 -0.2389  0.0043
 8794SOL    HW137841   3.045   1.132  15.271  0.2102 -0.6685  0.9830
 8794SOL    HW237842   3.136   1.101  15.165  1.1783 -0.0309  1.2801
 8795SOL     OW37843   4.101   3.781   1.872  0.0375 -0.0884  0.0418
 8795SOL    HW137844   4.053   3.794   1.953 -1.2420  0.4881 -0.8045
 8795SOL    HW237845   4.184   3.751   1.908 -0.7172 -3.2857 -0.9014
 8796SOL     OW37846   1.307   1.766   1.877 -0.2319 -0.1691 -0.5972
 8796SOL    HW137847   1.333   1.823   1.949 -1.4070 -0.5445  0.1311
 8796SOL    HW237848   1.254   1.711   1.935 -1.1873 -0.5853 -1.8521
 8797SOL     OW37849   1.439   0.181  12.731 -0.0023  0.9830  0.7808
 8797SOL    HW137850   1.414   0.192  12.823  0.1205  1.9069  0.6989
 8797SOL    HW237851   1.363   0.212  12.681 -1.5867 -0.4713  2.2778
 8798SOL     OW37852   3.775   3.200   4.787  0.7933  0.7071 -0.4324
 8798SOL    HW137853   3.802   3.250   4.710 -1.6103  2.7861  0.0939
 8798SOL    HW237854   3.683   3.185   4.767  1.3281 -2.1384 -0.7747
 8799SOL     OW37855   0.937   2.877   5.676  0.3675 -0.2811 -0.2104
 8799SOL    HW137856   1.030   2.896   5.660 -0.8551  4.2175 -2.0308
 8799SOL    HW237857   0.901   2.856   5.590 -0.6596  0.3783  0.0629
 8800SOL     OW37858   3.898   1.800   7.311 -0.0451  0.3867  0.1244
 8800SOL    HW137859   3.839   1.854   7.259 -0.3600 -0.2058 -0.1316
 8800SOL    HW237860   3.846   1.777   7.387 -1.5731  0.7481 -0.8061
 8801SOL     OW37861   4.691   2.049   5.552  0.2320 -0.0165  0.0568
 8801SOL    HW137862   0.051   2.080   5.584  0.5300 -0.5308 -0.2215
 8801SOL    HW237863   4.703   1.954   5.558  0.8974 -0.0141 -1.1996
 8802SOL     OW37864   3.213   0.394   5.578  0.3092  0.2927 -0.1733
 8802SOL    HW137865   3.304   0.422   5.589  0.0500  1.1880 -0.3037
 8802SOL    HW237866   3.176   0.479   5.554 -0.1947  0.1813  0.2024
 8803SOL     OW37867   3.800   4.718   9.301 -0.6175  0.2953 -0.1647
 8803SOL    HW137868   3.742   4.677   9.366 -1.9226 -0.0562 -1.5633
 8803SOL    HW237869   3.757   4.698   9.218  0.7385  0.8270 -0.9994
 8804SOL     OW37870   3.028   4.337   5.156  0.2337 -1.0700 -0.0604
 8804SOL    HW137871   3.082   4.259   5.147  1.3143 -0.2756 -0.3801
 8804SOL    HW237872   3.096   4.403   5.152 -0.0168 -0.8652 -0.9157
 8805SOL     OW37873   1.891   1.645  11.422  0.7130 -0.7173 -0.2838
 8805SOL    HW137874   1.849   1.569  11.461  1.1583  0.1510  1.8837
 8805SOL    HW237875   1.956   1.611  11.360  2.3455 -0.1945  1.1453
 8806SOL     OW37876   4.422   2.631   1.181  0.0286  0.1042  1.0118
 8806SOL    HW137877   4.405   2.656   1.272  0.9261  1.3360  0.8380
 8806SOL    HW237878   4.508   2.673   1.180  0.1320 -0.2414 -3.1992
 8807SOL     OW37879   3.932   2.777   1.213  0.1398  0.3061  0.1004
 8807SOL    HW137880   3.900   2.749   1.127 -2.6433  0.2578  1.1416
 8807SOL    HW237881   3.848   2.781   1.259  0.3296 -0.4994  0.5260
 8808SOL     OW37882   1.581   2.474   6.618  0.0747  0.2895  0.1117
 8808SOL    HW137883   1.653   2.498   6.559  0.4504  0.9460  0.8410
 8808SOL    HW237884   1.558   2.558   6.657 -0.7719 -0.0939  0.4313
 8809SOL     OW37885   4.072   1.075   5.278 -0.0364  0.8483  0.3047
 8809SOL    HW137886   4.044   1.164   5.255 -0.3155  0.4571 -0.8404
 8809SOL    HW237887   4.072   1.087   5.373 -0.1017 -0.2275  0.4383
 8810SOL     OW37888   2.352   1.505  15.974  0.0147  0.5504  0.0624
 8810SOL    HW137889   2.426   1.462  16.017 -1.2702 -0.2334  1.4759
 8810SOL    HW237890   2.403   1.565  15.918  0.1691  0.4737  0.1224
 8811SOL     OW37891   4.217   2.113   8.796 -0.4515  0.2609  0.0149
 8811SOL    HW137892   4.175   2.101   8.882 -2.7732 -1.0342 -1.3096
 8811SOL    HW237893   4.306   2.095   8.825 -0.6703  1.4396  1.4497
 8812SOL     OW37894   3.640   3.545   8.725  0.0352 -0.8053 -0.3883
 8812SOL    HW137895   3.545   3.557   8.734  0.2831  0.3568  0.6832
 8812SOL    HW237896   3.660   3.453   8.707  2.7304 -0.0990 -0.9532
 8813SOL     OW37897   4.393   1.247  14.883  0.3245  0.0080 -0.2836
 8813SOL    HW137898   4.314   1.200  14.908 -0.1302  0.6454 -0.5417
 8813SOL    HW237899   4.368   1.256  14.791 -2.1912  1.3108  0.5336
 8814SOL     OW37900   2.427   3.007  14.242  0.2306  0.2790 -0.1395
 8814SOL    HW137901   2.340   3.043  14.226 -0.1710 -1.2724 -1.3386
 8814SOL    HW237902   2.447   3.046  14.328  3.5520 -2.9536  0.5267
 8815SOL     OW37903   2.588   2.142   5.184 -0.1910  0.0390 -0.0046
 8815SOL    HW137904   2.632   2.121   5.101  0.3456  0.0140  0.2880
 8815SOL    HW237905   2.549   2.055   5.188  0.7182 -0.5148 -2.8758
 8816SOL     OW37906   2.908   4.670   5.647  0.1185  0.1980 -0.0238
 8816SOL    HW137907   2.899   4.673   5.743  0.6265  0.0425  0.0314
 8816SOL    HW237908   2.956   0.027   5.632  1.1943 -0.2861  0.7871
 8817SOL     OW37909   3.688   0.068  15.284 -0.3651  0.0408 -0.5152
 8817SOL    HW137910   3.709   0.018  15.363  0.7410 -0.2641 -1.0094
 8817SOL    HW237911   3.729   0.150  15.310 -3.4135  1.1062  0.9400
 8818SOL     OW37912   1.704   4.226  12.367  0.0082  0.4586  0.3640
 8818SOL    HW137913   1.708   4.131  12.355 -2.0037  0.4352 -0.2287
 8818SOL    HW237914   1.685   4.261  12.280 -0.2954  0.5993  0.4881
 8819SOL     OW37915   0.117   4.096  14.983  0.3384  0.0027  1.4188
 8819SOL    HW137916   0.166   4.020  14.952  1.8691  1.0399  1.2993
 8819SOL    HW237917   0.172   4.168  14.952  0.9613 -0.5196  1.3283
 8820SOL     OW37918   0.899   3.383   3.201 -0.2720 -0.9268  0.0226
 8820SOL    HW137919   0.944   3.422   3.277  1.1959 -0.7731 -0.9390
 8820SOL    HW237920   0.822   3.439   3.195  1.9464  2.3874  1.7991
 8821SOL     OW37921   2.247   3.503   5.623 -0.4833 -0.1250 -0.0830
 8821SOL    HW137922   2.310   3.570   5.597 -0.8904  1.1360  2.1476
 8821SOL    HW237923   2.303   3.428   5.639  0.6231  0.9692  1.1633
 8822SOL     OW37924   4.135   2.403   1.630 -0.1784  0.0018 -0.6981
 8822SOL    HW137925   4.163   2.493   1.614 -0.4654  0.3679  0.8379
 8822SOL    HW237926   4.160   2.385   1.721 -2.2690  1.9735  0.2800
 8823SOL     OW37927   4.575   1.082   5.679  0.0709  0.0206 -0.1996
 8823SOL    HW137928   4.520   1.152   5.711  0.1359 -0.7402  1.5970
 8823SOL    HW237929   4.666   1.108   5.694 -0.1974  2.0388 -2.2062
 8824SOL     OW37930   1.704   3.992   5.547 -0.2637  0.6452 -0.0892
 8824SOL    HW137931   1.788   4.027   5.576 -0.4086  0.6445  0.3270
 8824SOL    HW237932   1.700   3.901   5.578  1.2883  1.0140  1.1781
 8825SOL     OW37933   3.737   1.758   9.759  0.3895 -0.1818  0.2433
 8825SOL    HW137934   3.644   1.747   9.741  0.5849 -1.2435 -0.1328
 8825SOL    HW237935   3.776   1.692   9.702  1.2412  1.2022 -0.7503
 8826SOL     OW37936   0.413   2.901  16.545 -0.0902 -0.3261 -0.1751
 8826SOL    HW137937   0.501   2.920  16.514  0.2955  0.1431  1.1886
 8826SOL    HW237938   0.378   2.990  16.541  1.7736  0.3477 -1.4509
 8827SOL     OW37939   2.928   3.554   5.307 -0.5427  0.1318  0.6841
 8827SOL    HW137940   3.006   3.500   5.307 -0.9625 -0.4724 -0.6363
 8827SOL    HW237941   2.946   3.607   5.230 -4.0717  1.2376  0.5969
 8828SOL     OW37942   2.967   4.246   3.444  0.2026  0.0336 -0.4411
 8828SOL    HW137943   2.976   4.160   3.402 -0.4738 -0.3560  0.2179
 8828SOL    HW237944   3.030   4.303   3.400  0.3393 -0.9056 -1.4728
 8829SOL     OW37945   0.232   1.332   3.282  0.2358  0.5134  0.0966
 8829SOL    HW137946   0.182   1.260   3.321 -1.0672  1.9687  1.1043
 8829SOL    HW237947   0.200   1.405   3.335  0.2736  0.1477  0.6240
 8830SOL     OW37948   4.325   1.366  11.708  0.5558  0.4029 -0.2813
 8830SOL    HW137949   4.253   1.428  11.694  1.0522  0.3638 -2.9770
 8830SOL    HW237950   4.306   1.308  11.634 -0.1704 -0.8101  0.8511
 8831SOL     OW37951   0.431   2.308   8.014  0.0236  0.0164  0.0710
 8831SOL    HW137952   0.391   2.349   8.091 -0.9963 -1.6376  0.4272
 8831SOL    HW237953   0.523   2.315   8.038  0.1301 -2.7807  0.4578
 8832SOL     OW37954   0.752   2.839   8.389 -0.1668 -0.7446 -0.9620
 8832SOL    HW137955   0.833   2.810   8.432  0.1337  1.5657  0.0333
 8832SOL    HW237956   0.728   2.915   8.443 -0.0394 -1.2960 -0.1295
 8833SOL     OW37957   0.969   0.348  16.428  1.0610  0.0714  0.3732
 8833SOL    HW137958   0.947   0.304  16.346  3.4407  0.2263 -0.3372
 8833SOL    HW237959   0.958   0.441  16.407  0.5025  0.4562  2.3855
 8834SOL     OW37960   4.126   2.773   6.365 -0.4128 -0.1858 -0.5963
 8834SOL    HW137961   4.211   2.762   6.408 -0.4859  1.3879 -0.0362
 8834SOL    HW237962   4.130   2.861   6.327 -0.9633 -0.7091 -1.8805
 8835SOL     OW37963   1.761   0.680  12.025 -0.2935  0.1343 -0.0203
 8835SOL    HW137964   1.852   0.707  12.032 -0.2374 -0.1392  0.3198
 8835SOL    HW237965   1.767   0.594  12.068 -1.5424  0.3803  0.6468
 8836SOL     OW37966   2.517   0.315  16.483 -1.0140  0.1594  0.4698
 8836SOL    HW137967   2.583   0.310  16.414 -2.0950  2.0091 -0.6959
 8836SOL    HW237968   2.524   0.226  16.519  1.1336  0.2916  0.4101
 8837SOL     OW37969   3.223   2.075   8.680  0.4622 -0.1536 -0.3310
 8837SOL    HW137970   3.317   2.072   8.692  0.3538  0.2645  0.5677
 8837SOL    HW237971   3.221   2.124   8.598 -0.4490  4.5112  2.5190
 8838SOL     OW37972   0.231   3.358   8.037  0.1281 -0.3389  0.3009
 8838SOL    HW137973   0.202   3.448   8.052 -2.3512 -0.8383 -1.3385
 8838SOL    HW237974   0.269   3.340   8.123 -0.1072  0.2978  0.5350
 8839SOL     OW37975   4.077   0.170   6.789  0.0723  0.0701 -0.1900
 8839SOL    HW137976   4.046   0.238   6.848 -0.6720 -3.0463  3.0243
 8839SOL    HW237977   4.049   0.091   6.834 -3.2824  1.2310 -0.2839
 8840SOL     OW37978   3.016   4.569  13.272  0.6260 -0.5542 -0.2486
 8840SOL    HW137979   3.095   4.602  13.314 -1.1114  1.3747  1.4826
 8840SOL    HW237980   3.027   4.609  13.185 -2.6641 -0.1056 -0.4666
 8841SOL     OW37981   2.098   1.863   6.166 -0.1794  0.0197  0.4206
 8841SOL    HW137982   2.104   1.785   6.222  0.4766 -1.0768 -1.1496
 8841SOL    HW237983   2.156   1.925   6.209  1.8978 -0.7486 -1.2812
 8842SOL     OW37984   3.359   3.479   8.688  0.1189 -0.8818  0.6933
 8842SOL    HW137985   3.270   3.445   8.691  0.3364 -1.5543 -0.4800
 8842SOL    HW237986   3.381   3.449   8.776  1.3704  0.6176  0.8869
 8843SOL     OW37987   1.335   3.436   5.471  0.1332 -0.0976 -0.0625
 8843SOL    HW137988   1.395   3.506   5.444  0.0025 -0.6057 -1.6548
 8843SOL    HW237989   1.387   3.357   5.459 -0.0612 -0.3774  0.9851
 8844SOL     OW37990   4.704   2.592   7.903  0.1334  0.4214 -0.4245
 8844SOL    HW137991   4.674   2.506   7.935 -1.1860  1.0112 -0.0868
 8844SOL    HW237992   4.635   2.649   7.935 -0.4816 -0.3143 -0.4320
 8845SOL     OW37993   3.868   0.183   2.758 -0.1471  0.4904  0.2552
 8845SOL    HW137994   3.963   0.191   2.753  0.0012 -1.0283  0.5911
 8845SOL    HW237995   3.868   0.087   2.756 -0.7159  0.4953 -0.0571
 8846SOL     OW37996   1.373   0.130   0.805  0.0089  0.7026 -0.5194
 8846SOL    HW137997   1.430   0.207   0.806  0.6084  0.2612 -0.8680
 8846SOL    HW237998   1.342   0.143   0.715  0.7613  0.2715 -0.8344
 8847SOL     OW37999   1.750   2.992   8.868 -0.1732 -0.4298  0.4193
 8847SOL    HW138000   1.799   2.913   8.893  1.7064  0.5105 -0.3010
 8847SOL    HW238001   1.772   3.060   8.931  1.1475  1.0398 -1.6119
 8848SOL     OW38002   0.966   3.821   3.369  0.0929  0.1167 -0.1477
 8848SOL    HW138003   0.944   3.833   3.461  2.2445  0.7108  0.2774
 8848SOL    HW238004   1.022   3.896   3.349 -0.5419  0.2555 -1.4703
 8849SOL     OW38005   2.368   4.714   3.136 -0.3478 -0.1133 -0.2246
 8849SOL    HW138006   2.340   0.081   3.133  0.6803  0.1813 -1.1146
 8849SOL    HW238007   2.292   4.660   3.155  0.7444 -0.9030  1.8786
 8850SOL     OW38008   2.380   0.264   7.447 -0.6461  1.2763 -0.4624
 8850SOL    HW138009   2.411   0.177   7.474  1.6566  1.6138 -1.9536
 8850SOL    HW238010   2.433   0.328   7.495  0.4358  0.9654 -1.2511
 8851SOL     OW38011   0.005   4.138  10.744  0.5339  0.1535 -0.6943
 8851SOL    HW138012   4.720   4.212  10.804  2.9147 -0.8617  0.9359
 8851SOL    HW238013   4.679   4.076  10.797 -0.7169  1.9887  0.2914
 8852SOL     OW38014   0.310   0.886   6.560  0.3220  0.5626 -0.0749
 8852SOL    HW138015   0.264   0.804   6.578  0.5408  0.2000 -1.1929
 8852SOL    HW238016   0.351   0.886   6.474 -1.2520 -1.6435 -0.8101
 8853SOL     OW38017   1.123   3.254   7.362  0.1453 -0.0694  0.4720
 8853SOL    HW138018   1.049   3.314   7.362 -0.5770 -0.9716  0.0922
 8853SOL    HW238019   1.170   3.293   7.435  0.2062  1.5752 -0.4473
 8854SOL     OW38020   0.892   3.650  17.035 -0.4119 -0.2995 -0.5450
 8854SOL    HW138021   0.949   3.726  17.022 -1.2559  0.5632  0.6782
 8854SOL    HW238022   0.850   3.675  17.118 -0.9152 -1.2355 -0.5230
 8855SOL     OW38023   0.045   3.859  17.109  0.2210 -0.2285 -0.3460
 8855SOL    HW138024   0.131   3.858  17.067  0.0043 -1.8628 -0.7523
 8855SOL    HW238025   0.052   3.914  17.187 -2.5021 -0.6592  0.2088
 8856SOL     OW38026   4.603   4.269   6.856 -0.3415 -0.4296  0.0353
 8856SOL    HW138027   4.546   4.345   6.849  0.7363  0.6326  2.6935
 8856SOL    HW238028   4.566   4.216   6.785 -2.0496  2.8966 -1.5426
 8857SOL     OW38029   3.640   2.425   5.871  0.1076 -0.2930  0.2539
 8857SOL    HW138030   3.608   2.476   5.946  1.8965  1.0682  0.0901
 8857SOL    HW238031   3.658   2.342   5.915  1.6392  1.3313  2.6729
 8858SOL     OW38032   2.223   1.634   9.649 -0.0989  0.1500 -0.2904
 8858SOL    HW138033   2.218   1.559   9.708  0.1889 -0.4463 -1.0270
 8858SOL    HW238034   2.132   1.655   9.630 -0.5253  0.1935  1.8350
 8859SOL     OW38035   1.201   0.732  11.044 -0.1982 -0.3509 -0.0532
 8859SOL    HW138036   1.116   0.768  11.016  0.4919  0.3353 -1.3021
 8859SOL    HW238037   1.231   0.810  11.091  3.4061 -2.4089  1.0355
 8860SOL     OW38038   0.133   0.693   9.264 -0.2218  0.4961  0.2970
 8860SOL    HW138039   0.067   0.624   9.275  0.7991 -0.9379 -2.5360
 8860SOL    HW238040   0.079   0.772   9.253  0.2541  1.0173  1.8234
 8861SOL     OW38041   4.372   0.632   7.211  0.2024 -0.9482  0.0051
 8861SOL    HW138042   4.402   0.592   7.292 -2.7421  0.7512  1.9538
 8861SOL    HW238043   4.289   0.586   7.224 -0.5151  0.0070 -1.2009
 8862SOL     OW38044   2.208   3.110   3.056  0.5056 -0.3329 -0.1981
 8862SOL    HW138045   2.300   3.129   3.037  0.4780 -2.0580 -2.1736
 8862SOL    HW238046   2.223   3.092   3.148  0.4276  0.8038  0.0329
 8863SOL     OW38047   4.539   0.947   4.594 -0.2035 -0.3674 -0.4349
 8863SOL    HW138048   4.600   1.020   4.595 -0.0038 -0.5376 -0.1502
 8863SOL    HW238049   4.473   0.982   4.654  1.4073  2.1516 -0.1147
 8864SOL     OW38050   0.493   0.208   3.723 -0.4492  0.0053  0.0873
 8864SOL    HW138051   0.438   0.238   3.651  0.5978  1.6208 -0.0374
 8864SOL    HW238052   0.450   0.126   3.747  3.0064 -1.0391  2.7189
 8865SOL     OW38053   4.196   4.720   8.868  0.3427  0.1591 -0.0682
 8865SOL    HW138054   4.135   4.682   8.931  0.3318  2.0884  1.0951
 8865SOL    HW238055   4.243   0.057   8.926 -0.6625  1.8966 -1.0707
 8866SOL     OW38056   4.704   1.691   6.734 -0.1075 -0.6334 -0.0165
 8866SOL    HW138057   4.698   1.622   6.800 -0.3137 -1.5027 -0.9423
 8866SOL    HW238058   0.073   1.714   6.742 -0.2490  0.1192 -0.5786
 8867SOL     OW38059   2.584   3.782   3.300 -0.6533  0.0905 -0.0338
 8867SOL    HW138060   2.602   3.852   3.364  0.4680  0.1640 -0.4264
 8867SOL    HW238061   2.651   3.789   3.232  0.7958  1.5436  1.5434
 8868SOL     OW38062   0.712   1.667   1.875  0.1604 -0.1706 -0.0623
 8868SOL    HW138063   0.724   1.628   1.789 -0.7201  0.3497 -0.4124
 8868SOL    HW238064   0.796   1.634   1.908  0.3692  0.4883  0.0640
 8869SOL     OW38065   4.359   3.337   8.186  0.2354 -0.0902  0.0580
 8869SOL    HW138066   4.431   3.333   8.248  0.1199 -0.9228  0.1393
 8869SOL    HW238067   4.302   3.264   8.208 -2.2705  1.1802 -2.0528
 8870SOL     OW38068   0.298   3.364   3.580 -0.8536 -0.5269 -0.2224
 8870SOL    HW138069   0.314   3.458   3.584  0.3710 -0.7508  0.0712
 8870SOL    HW238070   0.295   3.342   3.673  3.0021 -0.2144 -0.0276
 8871SOL     OW38071   2.702   3.119   7.053  0.3873  0.0668  0.0757
 8871SOL    HW138072   2.690   3.126   6.959 -2.5674  0.3329  0.4481
 8871SOL    HW238073   2.759   3.191   7.080  1.3820 -0.1195 -1.5487
 8872SOL     OW38074   0.620   2.559   5.520  0.3985  0.1155 -0.1322
 8872SOL    HW138075   0.707   2.565   5.560  0.3137 -1.3041  0.2551
 8872SOL    HW238076   0.642   2.550   5.427 -0.7766  1.4846 -0.5443
 8873SOL     OW38077   0.428   2.930   8.489 -0.6327  0.0820 -0.4276
 8873SOL    HW138078   0.452   2.877   8.565 -4.1273 -1.3145 -0.3014
 8873SOL    HW238079   0.332   2.934   8.490 -0.6011  0.9842 -1.8213
 8874SOL     OW38080   4.369   2.346   4.698  0.4976  0.2325  0.1866
 8874SOL    HW138081   4.429   2.414   4.730  0.1422  0.1759  0.9789
 8874SOL    HW238082   4.288   2.381   4.736  0.7555  0.2974  0.6789
 8875SOL     OW38083   2.149   2.434   6.129  0.5519  0.1548  0.1975
 8875SOL    HW138084   2.179   2.505   6.073 -1.1200  1.2466  0.7011
 8875SOL    HW238085   2.057   2.454   6.144  0.1160 -2.0435  0.5276
 8876SOL     OW38086   4.041   0.089   9.193  0.2637 -0.4099  0.0214
 8876SOL    HW138087   3.992   0.043   9.126  1.1573 -1.6672  0.2271
 8876SOL    HW238088   3.978   0.075   9.263  1.2040  0.1709  0.9995
 8877SOL     OW38089   2.092   4.318  16.512  0.0718 -0.3749  0.0202
 8877SOL    HW138090   2.162   4.382  16.499 -0.1698 -0.4857 -1.9212
 8877SOL    HW238091   2.132   4.232  16.520  1.0071  0.0509 -0.1042
 8878SOL     OW38092   2.077   1.697   7.304  0.1324  0.1183  0.2263
 8878SOL    HW138093   2.017   1.741   7.364  1.5130  0.5841  1.2671
 8878SOL    HW238094   2.046   1.606   7.306 -0.2312  0.2207 -0.9826
 8879SOL     OW38095   2.901   0.415   1.363  0.5620 -0.1006 -0.0457
 8879SOL    HW138096   2.996   0.426   1.364  0.3486  1.7086  0.6410
 8879SOL    HW238097   2.885   0.342   1.423  1.9189 -0.3925 -0.0303
 8880SOL     OW38098   2.439   0.737   5.004 -0.5329  0.2753 -0.8869
 8880SOL    HW138099   2.370   0.687   5.048  0.5343 -0.7123 -0.3376
 8880SOL    HW238100   2.494   0.774   5.073 -0.6378  1.1013 -1.2445
 8881SOL     OW38101   0.042   4.084   8.412  0.6667 -0.4392  0.1642
 8881SOL    HW138102   0.046   4.138   8.491  0.9818  2.4623 -1.8139
 8881SOL    HW238103   4.683   4.108   8.372  0.4590 -1.8667 -0.2694
 8882SOL     OW38104   1.095   2.687   4.967 -0.0520  0.0037 -0.0876
 8882SOL    HW138105   1.187   2.674   4.945 -0.0138 -2.3072  1.4418
 8882SOL    HW238106   1.051   2.680   4.882 -2.0099 -2.1253  1.0980
 8883SOL     OW38107   0.543   4.609   3.094 -0.2718 -0.1785  0.6244
 8883SOL    HW138108   0.539   4.632   3.187  2.2422  1.5825  0.3217
 8883SOL    HW238109   0.461   4.649   3.065 -0.0097  1.1594  1.7126
 8884SOL     OW38110   1.753   2.951   0.568  0.1442 -0.2045  0.6286
 8884SOL    HW138111   1.776   2.864   0.600  0.3737  0.3366  1.9516
 8884SOL    HW238112   1.813   3.007   0.618  0.5579  0.3243 -0.4737
 8885SOL     OW38113   1.338   1.527  10.283  0.0342 -0.1624 -0.3301
 8885SOL    HW138114   1.370   1.549  10.370  0.9382 -1.1420 -0.4184
 8885SOL    HW238115   1.333   1.618  10.255  1.3794 -0.5928 -1.9680
 8886SOL     OW38116   0.948   3.064  11.507 -0.0510 -0.1589 -0.9057
 8886SOL    HW138117   0.983   3.031  11.424 -2.3911 -0.7215 -1.6642
 8886SOL    HW238118   1.019   3.118  11.542 -1.7259  1.6748 -0.3321
 8887SOL     OW38119   3.653   3.306   2.143  0.6179  0.6890  0.4016
 8887SOL    HW138120   3.723   3.267   2.195 -2.0257 -2.6169  1.5532
 8887SOL    HW238121   3.574   3.254   2.161  2.5021 -2.2009  0.3863
 8888SOL     OW38122   0.241   4.098   8.204  0.0098  0.2451 -0.1811
 8888SOL    HW138123   0.223   4.039   8.131  1.4707  0.4077 -0.6596
 8888SOL    HW238124   0.161   4.099   8.256 -0.1538 -2.6376 -0.3683
 8889SOL     OW38125   0.258   2.892   2.939 -0.3388 -0.7304  0.7851
 8889SOL    HW138126   0.304   2.973   2.959 -2.3451  1.0244 -1.7430
 8889SOL    HW238127   0.315   2.859   2.869 -2.0115 -0.6500 -0.6058
 8890SOL     OW38128   1.044   0.035   9.537 -0.0648 -0.0877  0.0008
 8890SOL    HW138129   1.091   0.014   9.456  0.4233  2.1861 -0.3312
 8890SOL    HW238130   0.953   0.039   9.508 -0.8183 -0.7720  2.2771
 8891SOL     OW38131   0.859   3.511   8.181 -0.0930 -0.8380 -0.5208
 8891SOL    HW138132   0.880   3.575   8.113  0.9903  0.3119  0.9010
 8891SOL    HW238133   0.918   3.541   8.250  1.7209  1.7461 -3.1585
 8892SOL     OW38134   0.320   2.940   6.916 -0.6577 -0.0909  0.3688
 8892SOL    HW138135   0.260   2.990   6.862 -1.3692  0.7232  1.9074
 8892SOL    HW238136   0.403   2.959   6.872 -1.2626  0.4958 -0.5202
 8893SOL     OW38137   2.905   0.784   8.965  0.2042  0.6477 -0.0804
 8893SOL    HW138138   2.865   0.754   8.883  0.7204 -3.7365  1.2688
 8893SOL    HW238139   2.998   0.776   8.944  0.3493  0.6142  0.5993
 8894SOL     OW38140   4.082   0.280   7.047  0.3361  0.3065  0.1696
 8894SOL    HW138141   4.026   0.356   7.060  1.4483  1.0058  0.8671
 8894SOL    HW238142   4.154   0.331   7.008 -0.7006 -0.4634 -2.7981
 8895SOL     OW38143   2.123   4.452   2.541  0.0098 -0.2344 -0.7146
 8895SOL    HW138144   2.073   4.380   2.580  0.4856 -0.5655 -0.7117
 8895SOL    HW238145   2.159   4.498   2.616 -0.6285 -0.4627 -0.2735
 8896SOL     OW38146   3.017   2.796  15.797 -0.3058  0.5399  0.3369
 8896SOL    HW138147   3.043   2.781  15.888 -0.2551  0.5776  0.3294
 8896SOL    HW238148   2.963   2.872  15.819 -0.3384  0.9752 -1.2339
 8897SOL     OW38149   2.038   3.308   1.510  0.3153  0.0601 -0.4801
 8897SOL    HW138150   1.952   3.350   1.509  0.0711 -0.4361 -0.8015
 8897SOL    HW238151   2.092   3.386   1.522  1.0338 -0.3319 -1.1708
 8898SOL     OW38152   3.954   2.582   7.342  0.3620  0.1929 -0.4425
 8898SOL    HW138153   3.976   2.600   7.251 -2.8376  1.7371 -0.9061
 8898SOL    HW238154   3.893   2.654   7.354  0.7110  0.4273 -0.0821
 8899SOL     OW38155   0.787   0.374  12.566 -0.1905 -0.2537  0.1184
 8899SOL    HW138156   0.851   0.328  12.511 -1.5475  0.3297 -1.9198
 8899SOL    HW238157   0.714   0.391  12.507  0.6060 -0.1099 -0.8345
 8900SOL     OW38158   3.097   4.143  10.928 -0.1538  0.2232  0.2415
 8900SOL    HW138159   3.159   4.201  10.972  0.3995 -1.4867  1.7129
 8900SOL    HW238160   3.123   4.143  10.836  0.0513 -2.5728  0.3063
 8901SOL     OW38161   3.796   1.597   2.878  0.3834 -0.3694  0.5804
 8901SOL    HW138162   3.748   1.679   2.868 -0.3295 -1.1401 -2.4896
 8901SOL    HW238163   3.724   1.534   2.886 -0.0363 -0.0027 -0.2477
 8902SOL     OW38164   4.571   0.047   9.223 -0.2332 -0.0376 -0.6084
 8902SOL    HW138165   4.566   0.107   9.148  0.3968 -0.4299 -0.9645
 8902SOL    HW238166   4.484   0.009   9.223  0.3108 -1.2733  1.0571
 8903SOL     OW38167   1.805   0.013   3.279 -0.2545 -0.5063  0.6650
 8903SOL    HW138168   1.751   0.091   3.267  0.5036  0.2913  2.3350
 8903SOL    HW238169   1.831   4.703   3.194 -0.9825  2.7385 -0.8542
 8904SOL     OW38170   0.521   1.470   1.632  0.0630  0.0012  0.3155
 8904SOL    HW138171   0.450   1.406   1.631  0.0496  0.0277 -1.9112
 8904SOL    HW238172   0.481   1.547   1.672  0.7233  0.2738  0.4556
 8905SOL     OW38173   4.391   2.424  15.475  0.8376  0.3952 -0.5593
 8905SOL    HW138174   4.371   2.385  15.390  0.2155  1.0622 -0.7186
 8905SOL    HW238175   4.465   2.482  15.457  1.8150 -0.8010 -0.3791
 8906SOL     OW38176   4.497   3.367   5.388 -0.2465 -0.4755  1.1051
 8906SOL    HW138177   4.523   3.386   5.297  2.2988 -0.9200  1.7582
 8906SOL    HW238178   4.451   3.447   5.413 -0.7197 -0.2482 -0.4690
 8907SOL     OW38179   4.002   2.581   2.168  0.5439  0.2004  0.2629
 8907SOL    HW138180   4.042   2.508   2.120  1.3149  1.4811 -1.0351
 8907SOL    HW238181   3.921   2.596   2.120  0.3934 -1.7041 -0.0882
 8908SOL     OW38182   1.038   3.953   5.295 -0.5203  0.4959  0.3694
 8908SOL    HW138183   1.080   3.970   5.380 -0.1682  0.6560  0.1655
 8908SOL    HW238184   0.979   4.026   5.275  2.7622  2.7085 -1.5096
 8909SOL     OW38185   2.747   1.325  14.010 -0.3011 -0.3214  0.1315
 8909SOL    HW138186   2.792   1.366  14.084  0.4729  0.4855 -0.7797
 8909SOL    HW238187   2.686   1.260  14.044  0.3945 -0.8576  0.3416
 8910SOL     OW38188   4.077   2.161   4.349 -0.0181  0.0916 -0.4643
 8910SOL    HW138189   4.035   2.226   4.406 -1.5590 -0.4270 -1.0041
 8910SOL    HW238190   3.994   2.123   4.321  0.2889 -1.8315  1.1790
 8911SOL     OW38191   1.034   1.554   8.778 -0.4218 -0.2760  0.2046
 8911SOL    HW138192   1.011   1.644   8.800  1.0255  0.6035 -2.0477
 8911SOL    HW238193   1.113   1.542   8.831  1.4181 -2.4137 -3.0450
 8912SOL     OW38194   2.141   1.528   4.767  0.7745  0.2010  0.1374
 8912SOL    HW138195   2.079   1.542   4.838  0.2790 -1.8567  0.1097
 8912SOL    HW238196   2.196   1.606   4.777  0.6782  0.4720 -1.4655
 8913SOL     OW38197   0.623   3.276   7.261  0.4000  0.1654  0.0739
 8913SOL    HW138198   0.533   3.254   7.286 -0.0045 -0.3135 -1.8051
 8913SOL    HW238199   0.648   3.202   7.206 -0.1802 -0.8763  1.2240
 8914SOL     OW38200   4.407   2.812   6.845  0.2167  0.8553 -0.1797
 8914SOL    HW138201   4.338   2.746   6.838  0.9809  0.0697 -0.2783
 8914SOL    HW238202   4.357   2.891   6.863 -0.5809 -0.2087  2.2744
 8915SOL     OW38203   1.896   1.414   2.432  0.2301  0.3586 -0.0149
 8915SOL    HW138204   1.930   1.361   2.360 -0.1857 -1.0598  0.8316
 8915SOL    HW238205   1.827   1.354   2.459  1.1942 -0.7750 -0.0630
 8916SOL     OW38206   2.388   2.853   6.856  0.1070 -0.0155 -0.2790
 8916SOL    HW138207   2.432   2.857   6.771  1.1247 -0.2753  0.2343
 8916SOL    HW238208   2.343   2.768   6.857 -0.3473  0.2443  1.4240
 8917SOL     OW38209   2.550   2.363  11.063 -0.1956 -0.1760 -0.1496
 8917SOL    HW138210   2.583   2.400  11.145 -0.7475  1.3463 -0.6107
 8917SOL    HW238211   2.545   2.443  11.011  0.8504  0.4365  0.6949
 8918SOL     OW38212   4.643   0.664   1.987  0.3100 -0.5216  0.4337
 8918SOL    HW138213   0.010   0.641   1.967 -0.4304 -2.1165 -1.1419
 8918SOL    HW238214   4.612   0.585   2.033 -1.1292  0.1648  0.6284
 8919SOL     OW38215   0.635   0.270   3.008  0.0698 -0.6242  0.5459
 8919SOL    HW138216   0.570   0.210   2.972 -1.4709 -0.5717  3.2620
 8919SOL    HW238217   0.714   0.216   2.999 -0.0142 -0.8192  0.9896
 8920SOL     OW38218   0.662   3.530  12.893  0.1525 -0.3384  0.1141
 8920SOL    HW138219   0.656   3.435  12.903  2.5474 -0.3768  1.0694
 8920SOL    HW238220   0.663   3.560  12.984  0.0114  1.5200 -0.5059
 8921SOL     OW38221   2.709   3.194  13.250 -0.0678 -0.3756 -0.3191
 8921SOL    HW138222   2.712   3.110  13.296  0.6342 -1.3552 -2.1852
 8921SOL    HW238223   2.785   3.237  13.288 -0.6140  0.7964 -0.5392
 8922SOL     OW38224   1.124   4.399   4.588 -0.0912  0.0625  0.2618
 8922SOL    HW138225   1.187   4.357   4.529 -0.4508  1.7189 -1.2978
 8922SOL    HW238226   1.078   4.460   4.529 -0.8929  1.0336  1.8994
 8923SOL     OW38227   3.142   2.227   0.323 -0.4410 -0.1921  0.0448
 8923SOL    HW138228   3.235   2.237   0.300 -0.5683 -1.7922 -1.1341
 8923SOL    HW238229   3.148   2.153   0.383 -1.1282 -1.1016 -1.0049
 8924SOL     OW38230   3.020   1.277  15.362 -0.3520 -0.6254  0.3823
 8924SOL    HW138231   2.971   1.266  15.444 -0.0820  0.4226  0.6774
 8924SOL    HW238232   3.106   1.302  15.395 -0.2615 -0.2253 -0.1592
 8925SOL     OW38233   3.064   4.022   7.937  0.1934 -0.3675  0.4238
 8925SOL    HW138234   3.049   3.942   7.988 -1.8038  0.3136  0.9231
 8925SOL    HW238235   2.984   4.020   7.885 -0.4830 -0.3776  1.4661
 8926SOL     OW38236   4.234   0.100   2.920  0.0348  0.2666  0.1767
 8926SOL    HW138237   4.178   0.146   2.983 -2.8929  0.1358 -2.3477
 8926SOL    HW238238   4.316   0.090   2.969  0.0365 -1.2290 -0.1414
 8927SOL     OW38239   2.155   1.311  12.138  0.3771 -1.0194  0.1909
 8927SOL    HW138240   2.147   1.266  12.222 -2.7908 -1.1192 -0.1704
 8927SOL    HW238241   2.181   1.232  12.090  3.5560 -0.9947  1.8309
 8928SOL     OW38242   0.292   4.381   7.503 -0.3251 -0.3057 -0.4923
 8928SOL    HW138243   0.334   4.325   7.438  1.5234  1.7918 -1.1117
 8928SOL    HW238244   0.216   4.417   7.458 -0.9920  0.0308  0.8786
 8929SOL     OW38245   2.453   4.541  12.508  0.0169  0.0764 -0.1919
 8929SOL    HW138246   2.437   4.630  12.542  1.3549 -0.3749  1.6764
 8929SOL    HW238247   2.546   4.555  12.488 -0.2980 -0.1846 -1.7519
 8930SOL     OW38248   4.296   3.089   6.834 -0.1501 -0.2244 -0.0367
 8930SOL    HW138249   4.217   3.141   6.818  0.7099  0.8093 -1.0513
 8930SOL    HW238250   4.329   3.086   6.744  0.8357  1.2988  0.2607
 8931SOL     OW38251   3.940   3.937   4.000  0.2865  0.3621 -0.2529
 8931SOL    HW138252   3.970   3.988   4.076  0.5374 -0.6803  0.3544
 8931SOL    HW238253   3.976   3.992   3.931  1.1181  1.4637  1.0513
 8932SOL     OW38254   1.569   4.134   5.346 -0.0415 -0.2476 -0.3745
 8932SOL    HW138255   1.661   4.127   5.369  0.0882  0.1463 -0.7768
 8932SOL    HW238256   1.551   4.042   5.367  0.1696  0.6696  3.8504
 8933SOL     OW38257   0.009   4.065   5.584 -0.0400  0.0327 -0.3397
 8933SOL    HW138258   4.724   4.120   5.506 -1.6254  0.5505  0.2119
 8933SOL    HW238259   0.070   4.122   5.631  1.0489 -1.5149  0.1208
 8934SOL     OW38260   1.839   0.672  15.929  0.5043 -0.1091 -0.3950
 8934SOL    HW138261   1.780   0.611  15.887  1.5725 -2.7030  1.8555
 8934SOL    HW238262   1.793   0.735  15.985  1.2021  1.2088 -1.3090
 8935SOL     OW38263   0.164   3.197   0.717 -0.2138  0.2543 -0.6927
 8935SOL    HW138264   0.249   3.235   0.737 -0.8274  0.4242  1.5639
 8935SOL    HW238265   0.191   3.128   0.656  0.5840 -0.1916  0.1680
 8936SOL     OW38266   3.249   4.397   6.867 -0.2126  0.3968  0.5043
 8936SOL    HW138267   3.215   4.331   6.806  1.7526  0.7961 -1.0126
 8936SOL    HW238268   3.330   4.425   6.825 -0.2549  0.3110  0.3645
 8937SOL     OW38269   1.577   3.019   6.782 -0.2310  0.1896 -0.2540
 8937SOL    HW138270   1.552   3.022   6.875 -1.0715  0.9247 -0.5086
 8937SOL    HW238271   1.639   2.946   6.775 -0.0410  0.0719  2.3479
 8938SOL     OW38272   4.560   2.380  14.477  0.2029 -0.3029  0.3142
 8938SOL    HW138273   4.503   2.309  14.508 -1.5968  0.4296 -1.3130
 8938SOL    HW238274   4.623   2.337  14.419  0.0958 -2.0043  1.4599
 8939SOL     OW38275   2.603   4.151   0.839 -0.2828  0.3354  0.0357
 8939SOL    HW138276   2.692   4.163   0.804  0.8679  0.9786  3.1494
 8939SOL    HW238277   2.569   4.239   0.822 -1.0948 -0.1618 -0.9412
 8940SOL     OW38278   4.191   1.141   2.138 -0.1704 -0.0270  0.8432
 8940SOL    HW138279   4.141   1.075   2.090  0.4714  0.4049 -0.4036
 8940SOL    HW238280   4.144   1.222   2.118  1.2294  0.3430 -0.8837
 8941SOL     OW38281   3.685   0.560   9.887 -0.4673  0.7570 -0.2294
 8941SOL    HW138282   3.699   0.616   9.963  0.6127  1.3219 -0.8428
 8941SOL    HW238283   3.761   0.550   9.830  0.2565  2.4503  0.4536
 8942SOL     OW38284   1.694   4.506   3.688 -0.3429  0.4691 -0.2322
 8942SOL    HW138285   1.691   4.447   3.613 -0.7913 -0.9533  0.9074
 8942SOL    HW238286   1.741   4.580   3.650  1.5862 -0.4933  0.2879
 8943SOL     OW38287   1.212   1.993   5.112  0.0945 -0.1788  0.4157
 8943SOL    HW138288   1.225   1.900   5.131 -0.9427 -0.2095  0.9841
 8943SOL    HW238289   1.276   2.002   5.041  1.4884  0.2774  1.7308
 8944SOL     OW38290   3.345   1.066   2.398 -0.4171 -0.1864  0.2811
 8944SOL    HW138291   3.437   1.077   2.370 -0.9235  1.5357 -0.7320
 8944SOL    HW238292   3.304   1.053   2.313 -0.1233 -2.2888  0.4579
 8945SOL     OW38293   2.540   4.690  13.896  0.0383 -0.2690  0.2133
 8945SOL    HW138294   2.594   4.662  13.823  2.0481  0.9603  1.2009
 8945SOL    HW238295   2.602   4.688  13.970  0.5412  1.4250 -0.1625
 8946SOL     OW38296   3.151   3.010   7.313  0.2546  0.0423  0.0422
 8946SOL    HW138297   3.246   2.999   7.319  0.2862  1.2943  2.1629
 8946SOL    HW238298   3.139   2.969   7.228 -2.5062 -0.7075  0.7894
 8947SOL     OW38299   2.289   3.965   6.773 -0.3098  0.3811  0.4222
 8947SOL    HW138300   2.240   4.039   6.810  1.8142  2.3012 -0.6147
 8947SOL    HW238301   2.223   3.897   6.786 -0.7496  0.9433  1.1668
 8948SOL     OW38302   1.266   0.483   5.829 -0.1019 -0.3057  0.1411
 8948SOL    HW138303   1.275   0.549   5.897 -2.2193 -0.4056  0.5054
 8948SOL    HW238304   1.347   0.432   5.829  0.6776  0.9635  2.2085
 8949SOL     OW38305   4.514   4.045   5.190 -0.3357 -0.1594 -0.1566
 8949SOL    HW138306   4.551   4.116   5.243 -2.3398 -0.1051  1.1801
 8949SOL    HW238307   4.468   3.997   5.259 -0.0002 -0.8580 -0.4124
 8950SOL     OW38308   1.833   0.827   9.098 -1.0900  0.2769 -0.0611
 8950SOL    HW138309   1.878   0.759   9.048  0.3805  2.2720 -1.4326
 8950SOL    HW238310   1.902   0.893   9.107 -0.5193 -0.0559 -1.9870
 8951SOL     OW38311   0.887   0.825  12.826 -0.0863 -0.7273  0.0053
 8951SOL    HW138312   0.892   0.736  12.791 -0.8835 -1.7186  2.4117
 8951SOL    HW238313   0.899   0.884  12.751  0.0024  1.8511  2.0326
 8952SOL     OW38314   2.670   0.483   7.999 -0.3686  0.3375 -0.0442
 8952SOL    HW138315   2.736   0.464   8.065  0.7045  0.5438 -1.0710
 8952SOL    HW238316   2.596   0.490   8.060  0.2029  0.4624  0.6286
 8953SOL     OW38317   0.135   2.643   6.247  0.0953 -0.7688 -0.7283
 8953SOL    HW138318   0.209   2.664   6.190 -0.3835  1.8245 -0.4001
 8953SOL    HW238319   0.064   2.650   6.184 -3.1333  1.7140  3.2339
 8954SOL     OW38320   4.440   1.471   3.764 -0.3205  0.3081  0.3635
 8954SOL    HW138321   4.486   1.461   3.680 -0.4594 -2.3949  0.6242
 8954SOL    HW238322   4.390   1.553   3.759  0.8061  0.8736 -1.8201
 8955SOL     OW38323   0.862   1.979   6.289 -0.2802 -0.4423 -0.2502
 8955SOL    HW138324   0.828   1.918   6.354  1.8447 -0.7526  0.5730
 8955SOL    HW238325   0.841   2.063   6.328  1.5132 -0.5904  1.0406
 8956SOL     OW38326   3.641   3.177   4.482 -0.3030  0.7729 -0.7695
 8956SOL    HW138327   3.558   3.141   4.513  0.6439 -2.6785 -2.3378
 8956SOL    HW238328   3.677   3.115   4.419 -2.1387 -2.8735  1.8081
 8957SOL     OW38329   1.975   0.384   2.681  0.0364  0.3224 -0.2991
 8957SOL    HW138330   1.959   0.402   2.589  0.4007  1.0417 -0.2177
 8957SOL    HW238331   1.916   0.450   2.717 -1.1948 -1.5567  1.1918
 8958SOL     OW38332   4.062   3.943   6.786  0.0409 -0.0536 -0.4091
 8958SOL    HW138333   4.036   3.850   6.789  2.2482 -0.6553 -0.1633
 8958SOL    HW238334   4.084   3.952   6.693  1.1552 -0.2233 -0.1539
 8959SOL     OW38335   3.628   2.080   7.795  0.0051  0.0561 -0.2820
 8959SOL    HW138336   3.594   1.990   7.798 -0.8336  0.3634 -0.5046
 8959SOL    HW238337   3.547   2.119   7.828  0.4023 -2.8934  4.1337
 8960SOL     OW38338   3.481   3.656  17.017 -0.3415  0.0218  0.0395
 8960SOL    HW138339   3.526   3.728  17.062 -0.4762  0.2757 -0.2287
 8960SOL    HW238340   3.438   3.605  17.085 -0.4991 -0.8129 -0.6895
 8961SOL     OW38341   1.193   1.469   1.491  0.6656  0.2869  0.6307
 8961SOL    HW138342   1.282   1.502   1.500  0.1109  1.9665 -0.0968
 8961SOL    HW238343   1.150   1.537   1.439  0.0520  0.2349  1.0753
 8962SOL     OW38344   3.877   1.511  16.190 -0.4823  0.3750  0.4268
 8962SOL    HW138345   3.890   1.568  16.266 -3.1068 -1.9260  2.6100
 8962SOL    HW238346   3.908   1.557  16.112  1.5492  0.4585  1.2884
 8963SOL     OW38347   1.687   2.591   2.518 -0.1386 -0.6420  0.5618
 8963SOL    HW138348   1.765   2.555   2.476  2.1451  0.5691  3.7585
 8963SOL    HW238349   1.690   2.685   2.500  0.1646 -0.7907 -0.1496
 8964SOL     OW38350   3.474   2.746   6.599  0.2585 -0.2115  0.3543
 8964SOL    HW138351   3.561   2.718   6.569  0.1118 -0.6315  0.3236
 8964SOL    HW238352   3.433   2.759   6.514 -1.8296  1.4769  1.6135
 8965SOL     OW38353   2.018   2.403   3.299  0.6594 -0.1747  0.4200
 8965SOL    HW138354   2.037   2.314   3.269  2.1722  0.1824  0.3347
 8965SOL    HW238355   1.987   2.447   3.219  1.9437  1.7477  0.9798
 8966SOL     OW38356   1.249   4.094   7.622  0.0242 -0.1048 -0.1913
 8966SOL    HW138357   1.337   4.091   7.658 -0.6717  0.4304  1.5931
 8966SOL    HW238358   1.197   4.155   7.676  0.2769 -0.0694  0.0091
 8967SOL     OW38359   2.528   0.923   0.397  0.2748  0.2099 -0.0356
 8967SOL    HW138360   2.533   0.847   0.340 -2.9411 -0.3885  0.5207
 8967SOL    HW238361   2.538   0.885   0.485  0.7796  0.7154  0.1292
 8968SOL     OW38362   2.710   2.323  14.284  0.1382 -0.6132 -0.5910
 8968SOL    HW138363   2.688   2.244  14.236  0.0573  0.3253 -2.1140
 8968SOL    HW238364   2.692   2.382  14.211  0.3260  1.9525  1.4403
 8969SOL     OW38365   4.030   1.858   9.650  0.4000  0.3971  0.6526
 8969SOL    HW138366   3.972   1.931   9.631 -1.0542 -1.3278 -1.4592
 8969SOL    HW238367   4.014   1.830   9.740 -0.5733 -1.7065 -0.1806
 8970SOL     OW38368   4.335   4.649   3.528 -0.2684 -0.3304  0.4877
 8970SOL    HW138369   4.321   4.706   3.603 -0.0885 -0.6149  0.7366
 8970SOL    HW238370   4.299   4.566   3.558 -0.0553 -1.2693 -1.8306
 8971SOL     OW38371   0.848   2.201   7.750  0.5719 -0.3466  0.2097
 8971SOL    HW138372   0.832   2.294   7.733 -0.7874 -0.3750  1.3013
 8971SOL    HW238373   0.942   2.200   7.770  0.5951 -2.6482  0.0443
 8972SOL     OW38374   2.833   2.858  16.161  0.4582  0.2120 -0.5436
 8972SOL    HW138375   2.761   2.800  16.136 -0.6905  1.0744  0.7955
 8972SOL    HW238376   2.802   2.891  16.245  1.2359 -0.5649  0.0368
 8973SOL     OW38377   2.881   4.425   3.628 -0.8810  0.1241  0.3664
 8973SOL    HW138378   2.915   4.354   3.574 -1.4676  1.2658 -1.5125
 8973SOL    HW238379   2.891   4.377   3.710 -0.9662 -1.0157 -0.2851
 8974SOL     OW38380   4.685   2.594   6.481  0.3895  0.5374 -0.0323
 8974SOL    HW138381   4.675   2.688   6.489  1.3360  0.7480 -1.3534
 8974SOL    HW238382   0.053   2.577   6.464 -0.1350 -3.1946  0.8815
 8975SOL     OW38383   1.210   1.360  17.157 -0.0841  0.0912 -0.0556
 8975SOL    HW138384   1.155   1.287  17.188  1.2432 -0.9677 -0.1629
 8975SOL    HW238385   1.220   1.403  17.242 -0.2171 -0.7375  0.3821
 8976SOL     OW38386   0.974   2.060   2.232  0.2914 -0.2071 -0.3467
 8976SOL    HW138387   0.956   2.153   2.217  0.8110  0.0221  0.4513
 8976SOL    HW238388   1.000   2.039   2.142  0.9548 -0.5639 -0.0692
 8977SOL     OW38389   1.460   1.204   2.478 -0.2691 -0.1319 -0.5004
 8977SOL    HW138390   1.482   1.286   2.522  1.7222  0.3908 -2.4374
 8977SOL    HW238391   1.368   1.193   2.500 -0.3309  4.5955  1.5727
 8978SOL     OW38392   4.082   4.523   9.904  0.3405  0.0987 -0.4584
 8978SOL    HW138393   4.121   4.610   9.914  2.0322 -1.1141  3.6785
 8978SOL    HW238394   4.070   4.494   9.994  0.0057 -1.2237 -0.9217
 8979SOL     OW38395   4.523   1.013   6.925  0.0648  0.1604  0.4071
 8979SOL    HW138396   4.554   0.954   6.857 -0.4071 -0.4189  0.6962
 8979SOL    HW238397   4.456   0.965   6.973  0.1403  1.0799  1.4511
 8980SOL     OW38398   4.423   1.710   5.672 -0.0140  0.8896 -0.0174
 8980SOL    HW138399   4.401   1.722   5.765  1.2025  2.3576  0.0820
 8980SOL    HW238400   4.351   1.756   5.630 -0.5126 -0.2819 -0.4461
 8981SOL     OW38401   2.234   4.527   9.318 -0.4904  0.5818 -0.1820
 8981SOL    HW138402   2.184   4.531   9.237 -0.0542 -0.2985 -0.4940
 8981SOL    HW238403   2.310   4.478   9.286 -1.0791  0.5789 -1.5576
 8982SOL     OW38404   4.634   2.754  16.526 -0.8019  0.0201  0.0837
 8982SOL    HW138405   4.557   2.789  16.481  0.2969 -0.3215 -2.0735
 8982SOL    HW238406   4.629   2.661  16.507  1.5334 -0.4721  1.8385
 8983SOL     OW38407   3.268   2.464  15.427  0.0296 -0.2571 -0.6788
 8983SOL    HW138408   3.177   2.434  15.429  0.6776 -2.0744  1.2595
 8983SOL    HW238409   3.323   2.386  15.419  0.2433 -0.0170 -1.5630
 8984SOL     OW38410   4.516   1.120   8.067  0.1865  0.6418 -0.2665
 8984SOL    HW138411   4.550   1.052   8.009  0.3813 -0.0091  0.6071
 8984SOL    HW238412   4.452   1.162   8.010 -0.3603 -1.3924 -1.1407
 8985SOL     OW38413   1.568   3.442   4.630  0.6232  0.0780 -1.0138
 8985SOL    HW138414   1.527   3.412   4.711  0.5804 -0.4739 -1.2382
 8985SOL    HW238415   1.532   3.383   4.564  3.5840  0.4689 -2.9529
 8986SOL     OW38416   1.186   3.858   9.407 -0.0418  0.3799 -0.5600
 8986SOL    HW138417   1.099   3.833   9.439 -1.3427  2.0481 -2.7028
 8986SOL    HW238418   1.158   3.888   9.320 -0.7367  0.9717 -0.1333
 8987SOL     OW38419   3.332   1.428   9.631  0.2074 -0.0951  0.2414
 8987SOL    HW138420   3.340   1.351   9.688  0.5654  1.3994  2.1950
 8987SOL    HW238421   3.251   1.404   9.586 -0.6267 -2.9887  3.2591
 8988SOL     OW38422   3.637   1.073   6.482  0.4382 -0.6280  0.5568
 8988SOL    HW138423   3.656   1.167   6.482 -2.3636 -0.0900 -1.3589
 8988SOL    HW238424   3.647   1.051   6.575 -1.8123 -1.3910  0.6031
 8989SOL     OW38425   2.626   4.545   2.375 -0.1698  0.5183 -0.2461
 8989SOL    HW138426   2.554   4.604   2.394  0.1272  0.3891  1.2909
 8989SOL    HW238427   2.663   4.528   2.461  0.3882  2.2243 -0.1515
 8990SOL     OW38428   4.576   3.775  16.336 -0.3737 -0.1316  0.5051
 8990SOL    HW138429   4.521   3.837  16.289 -2.8821 -1.5816  1.5607
 8990SOL    HW238430   4.515   3.732  16.395  1.9297  1.1420  3.7756
 8991SOL     OW38431   3.183   0.873   3.011  0.0502  0.8367  0.2222
 8991SOL    HW138432   3.259   0.826   3.044 -1.0381 -1.1233 -0.0830
 8991SOL    HW238433   3.118   0.805   3.025  0.3854  0.5822  0.5294
 8992SOL     OW38434   1.631   1.929   7.456  0.2010 -0.8890  0.2399
 8992SOL    HW138435   1.546   1.972   7.457  1.7683  2.2791 -0.3544
 8992SOL    HW238436   1.669   1.960   7.373  0.2360 -1.3596  0.0769
 8993SOL     OW38437   3.061   1.669  10.893  0.6690 -0.5135  0.0087
 8993SOL    HW138438   2.983   1.615  10.901 -0.3982  1.1865  0.9553
 8993SOL    HW238439   3.101   1.650  10.978  0.9110 -1.3159 -0.2875
 8994SOL     OW38440   2.533   3.787   9.856 -0.4860  0.2993  0.2674
 8994SOL    HW138441   2.622   3.770   9.886 -0.7788 -1.4045  0.1504
 8994SOL    HW238442   2.526   3.882   9.870  2.1767  0.5688 -0.2477
 8995SOL     OW38443   2.064   2.516  14.986 -0.5162 -0.3646 -0.0332
 8995SOL    HW138444   2.103   2.587  15.037 -0.0918 -1.0494  0.5908
 8995SOL    HW238445   2.009   2.479  15.056  0.2544  0.4098  0.9847
 8996SOL     OW38446   3.562   2.120  10.421  0.3287  0.1043  0.5938
 8996SOL    HW138447   3.616   2.060  10.472 -2.4556 -3.4823 -0.6272
 8996SOL    HW238448   3.531   2.190  10.479 -2.2811 -0.7272  0.2218
 8997SOL     OW38449   3.398   1.925   7.496 -0.3848 -0.0951  0.2947
 8997SOL    HW138450   3.337   1.859   7.530 -0.6284 -0.4894 -0.8782
 8997SOL    HW238451   3.382   1.995   7.558  0.3293 -0.4394  0.8681
 8998SOL     OW38452   1.461   2.508  15.397 -0.1414  0.3772 -0.3654
 8998SOL    HW138453   1.464   2.462  15.314 -2.6232  0.5995 -0.5730
 8998SOL    HW238454   1.553   2.506  15.423  0.3435  1.8220 -2.0119
 8999SOL     OW38455   1.475   3.714   2.758 -0.2277  0.0407 -0.2960
 8999SOL    HW138456   1.487   3.724   2.664  0.2044  2.0394 -0.0286
 8999SOL    HW238457   1.530   3.782   2.796  0.3696 -0.5145 -0.1727
 9000SOL     OW38458   1.528   0.322  10.505 -0.1580  0.2242  0.4154
 9000SOL    HW138459   1.588   0.289  10.571 -1.1773 -2.2780  0.1016
 9000SOL    HW238460   1.462   0.364  10.559 -0.6918 -0.5999  0.3977
 9001SOL     OW38461   0.283   4.246  10.325 -0.3493  0.2359  0.0230
 9001SOL    HW138462   0.365   4.287  10.353  0.7398 -1.2182 -1.0515
 9001SOL    HW238463   0.271   4.185  10.398  0.7869  0.5231  0.4518
 9002SOL     OW38464   4.130   2.611   6.126  0.1667  0.3435  0.2052
 9002SOL    HW138465   4.147   2.661   6.046  1.6532  0.9827  0.9229
 9002SOL    HW238466   4.137   2.677   6.194 -0.8645  1.8891 -1.1999
 9003SOL     OW38467   3.941   1.034   3.933  1.2054  0.1922 -0.4505
 9003SOL    HW138468   3.981   0.972   3.872  1.8699 -0.9220  1.1095
 9003SOL    HW238469   3.850   1.039   3.905  0.8380 -2.7185  0.2181
 9004SOL     OW38470   4.189   3.861  17.281  0.3055 -0.1626  0.2421
 9004SOL    HW138471   4.136   3.792  17.242  1.1580 -0.9777  0.5399
 9004SOL    HW238472   4.272   3.816  17.298 -0.6115 -1.4860  1.2011
 9005SOL     OW38473   0.497   1.558   4.928  0.5080 -0.3453 -0.0610
 9005SOL    HW138474   0.537   1.610   4.998  0.7337  1.5978 -1.6432
 9005SOL    HW238475   0.520   1.615   4.855 -1.5884  1.6488  0.8653
 9006SOL     OW38476   0.273   4.293  13.316 -0.3220 -0.4793 -0.0680
 9006SOL    HW138477   0.260   4.345  13.236 -0.2215  0.7004  0.6904
 9006SOL    HW238478   0.238   4.347  13.387  0.0344  0.3518 -0.5249
 9007SOL     OW38479   3.971   3.991   6.389  1.1624 -0.1001  0.0478
 9007SOL    HW138480   4.050   4.044   6.401 -0.5420  1.7223  3.1874
 9007SOL    HW238481   3.973   3.983   6.294 -0.3073 -1.5546  0.1387
 9008SOL     OW38482   2.542   1.659   4.077 -0.4054 -0.0194 -0.6695
 9008SOL    HW138483   2.550   1.737   4.132  3.2367 -0.3638 -0.7272
 9008SOL    HW238484   2.626   1.619   4.100  0.2384  1.0953 -1.1055
 9009SOL     OW38485   2.330   1.611   9.030 -0.3291 -0.0967 -0.4347
 9009SOL    HW138486   2.291   1.534   8.989 -0.8368  0.8624 -1.7579
 9009SOL    HW238487   2.372   1.570   9.105 -2.2297  1.8079  1.6654
 9010SOL     OW38488   3.471   0.086   8.528 -0.3641  0.1057 -0.4394
 9010SOL    HW138489   3.409   0.056   8.462  0.2741  0.1218 -1.0460
 9010SOL    HW238490   3.431   0.024   8.588  1.6526  0.6775  1.4857
 9011SOL     OW38491   0.997   0.909  10.669  0.5849  0.0415  0.7302
 9011SOL    HW138492   0.965   0.827  10.705  0.8719  0.1926  1.3410
 9011SOL    HW238493   1.009   0.876  10.580  0.9931  0.9864  0.4302
 9012SOL     OW38494   1.911   1.464   1.839  0.2460 -0.5368 -0.0017
 9012SOL    HW138495   1.906   1.480   1.933  1.8810 -1.8813  0.3219
 9012SOL    HW238496   2.001   1.495   1.824 -0.2156  0.5400 -0.5488
 9013SOL     OW38497   0.626   4.536   7.737 -0.2011 -0.5098 -0.0220
 9013SOL    HW138498   0.682   4.517   7.662  1.2884 -1.5583  1.3452
 9013SOL    HW238499   0.566   4.591   7.686 -0.8624 -1.1540  0.0529
 9014SOL     OW38500   2.635   2.766   5.293 -0.9378 -0.2523  0.1032
 9014SOL    HW138501   2.618   2.819   5.371 -0.1462 -1.0757  0.8405
 9014SOL    HW238502   2.612   2.680   5.329 -3.2140 -0.9033 -2.8815
 9015SOL     OW38503   3.005   1.536  10.583 -0.2897  0.1635 -0.0327
 9015SOL    HW138504   3.005   1.626  10.616 -0.3440 -0.1877  0.9173
 9015SOL    HW238505   3.070   1.500  10.643 -0.1092 -1.2019 -1.0554
 9016SOL     OW38506   1.467   1.619   1.716  1.0381 -0.2195 -0.5772
 9016SOL    HW138507   1.391   1.672   1.742 -0.1274 -1.4066 -1.5711
 9016SOL    HW238508   1.485   1.551   1.780  0.1485 -0.3171 -0.4258
 9017SOL     OW38509   0.801   3.127   5.657 -0.3214 -0.2159 -0.6146
 9017SOL    HW138510   0.867   3.188   5.626 -0.8507  0.5939 -0.1413
 9017SOL    HW238511   0.851   3.060   5.704 -1.1652  0.8882  1.8587
 9018SOL     OW38512   2.990   2.696   8.469  0.4370  0.6924 -0.0318
 9018SOL    HW138513   3.060   2.709   8.533  1.3177 -1.0769 -0.6301
 9018SOL    HW238514   2.998   2.782   8.428 -0.5751  1.3033  1.0343
 9019SOL     OW38515   0.459   3.416   4.363  0.0486 -0.0005  0.6504
 9019SOL    HW138516   0.424   3.384   4.280 -1.4604  1.0116  0.9029
 9019SOL    HW238517   0.371   3.417   4.401 -0.1805 -0.7896  0.1437
 9020SOL     OW38518   0.576   1.247   1.356 -0.0117  0.6918 -0.1402
 9020SOL    HW138519   0.507   1.291   1.306  0.4269  2.0573  0.4647
 9020SOL    HW238520   0.546   1.255   1.446 -0.2521 -1.1349 -0.0660
 9021SOL     OW38521   3.943   2.030  17.632  0.1660 -0.1980  0.1882
 9021SOL    HW138522   3.940   2.118  17.669  2.2813  0.5807 -1.5078
 9021SOL    HW238523   4.022   1.990  17.667  0.4352 -1.9121 -2.4261
 9022SOL     OW38524   1.082   0.358  13.515  0.0612  0.2625  0.4841
 9022SOL    HW138525   1.044   0.271  13.509 -2.3396  1.2929  0.6757
 9022SOL    HW238526   1.108   0.350  13.606 -0.3038  3.1120  0.8469
 9023SOL     OW38527   2.195   3.500   7.436 -0.0671  0.2644 -0.3447
 9023SOL    HW138528   2.260   3.466   7.497 -0.2624 -4.2008 -2.5706
 9023SOL    HW238529   2.126   3.434   7.447 -0.2692  0.4659 -0.3903
 9024SOL     OW38530   3.903   3.082   6.740 -0.0196 -0.6726  0.6350
 9024SOL    HW138531   3.885   3.093   6.834 -0.7856 -0.6763  0.4817
 9024SOL    HW238532   3.893   3.171   6.706 -0.5824 -0.1184  2.2607
 9025SOL     OW38533   0.543   4.399   1.408  0.0875  0.3352  0.6498
 9025SOL    HW138534   0.614   4.383   1.346  0.3304  1.4358  0.6387
 9025SOL    HW238535   0.471   4.358   1.359  2.6602 -2.2394 -0.9939
 9026SOL     OW38536   3.937   1.827   9.297  0.3110 -0.2309 -0.0838
 9026SOL    HW138537   3.965   1.765   9.229  0.0929 -0.9351  0.4733
 9026SOL    HW238538   3.936   1.910   9.250  0.6779 -0.0258  0.2717
 9027SOL     OW38539   2.868   0.097   0.616  0.0303  0.1387  0.2620
 9027SOL    HW138540   2.890   0.188   0.596  1.2996 -0.5638 -1.5585
 9027SOL    HW238541   2.892   0.059   0.531 -0.1495  0.8692 -0.1210
 9028SOL     OW38542   2.216   1.999   3.723  0.0344  0.4187  0.2967
 9028SOL    HW138543   2.263   2.066   3.772 -2.4574  0.4177  2.6656
 9028SOL    HW238544   2.245   2.020   3.634 -0.0500  2.4633  0.7625
 9029SOL     OW38545   4.597   2.714   7.107  0.2237  0.0188 -0.3635
 9029SOL    HW138546   4.666   2.769   7.146 -1.2793 -0.4856  2.9671
 9029SOL    HW238547   4.516   2.763   7.122 -1.7589 -3.2093 -0.5695
 9030SOL     OW38548   0.687   2.044  15.703 -0.2402  0.7036 -0.9215
 9030SOL    HW138549   0.684   2.102  15.779  2.3125 -0.8101  0.3255
 9030SOL    HW238550   0.780   2.033  15.684 -0.2321  0.5264 -0.7869
 9031SOL     OW38551   1.121   2.806   6.327  0.1841 -0.1772  0.6725
 9031SOL    HW138552   1.147   2.848   6.409 -1.7004 -0.6261  1.5076
 9031SOL    HW238553   1.122   2.713   6.351  0.6902 -0.6614 -1.2267
 9032SOL     OW38554   0.373   0.451  11.239 -0.1496  0.1814  0.4473
 9032SOL    HW138555   0.424   0.481  11.314 -2.1695  0.7491  1.6169
 9032SOL    HW238556   0.374   0.527  11.180 -0.2953 -0.5698 -0.5256
 9033SOL     OW38557   3.315   3.733  14.471  0.1206 -0.3673 -0.3189
 9033SOL    HW138558   3.384   3.796  14.453 -0.2753 -0.2968 -1.6146
 9033SOL    HW238559   3.366   3.684  14.535  1.8182  3.0742  0.9615
 9034SOL     OW38560   4.285   2.056  15.750 -0.2049 -0.1336  0.1190
 9034SOL    HW138561   4.370   2.061  15.792  0.4491 -0.6001 -1.1548
 9034SOL    HW238562   4.271   2.149  15.733  0.1218 -0.4126 -1.6519
 9035SOL     OW38563   0.970   2.298   1.137 -0.0622 -0.6092 -0.3305
 9035SOL    HW138564   0.875   2.289   1.146  0.0125 -0.6670  0.3813
 9035SOL    HW238565   0.991   2.258   1.222 -1.6899  0.5823  0.6327
 9036SOL     OW38566   2.509   3.454   4.100  0.2432 -0.2127  0.0100
 9036SOL    HW138567   2.432   3.493   4.142 -0.3179 -1.1560 -0.1325
 9036SOL    HW238568   2.482   3.459   4.009 -2.0942 -2.8668  0.5423
 9037SOL     OW38569   4.443   0.785   7.591 -0.2429 -0.6393 -0.0053
 9037SOL    HW138570   4.510   0.853   7.594 -0.3164 -0.5708  0.1045
 9037SOL    HW238571   4.488   0.719   7.538  1.7662  0.1113  0.8146
 9038SOL     OW38572   1.021   1.424  12.161  0.1909 -0.3631 -0.0179
 9038SOL    HW138573   1.111   1.399  12.180 -0.9868 -2.6763  2.4798
 9038SOL    HW238574   0.961   1.385  12.225 -0.0569 -1.4041 -0.8843
 9039SOL     OW38575   2.163   3.696   0.451  0.1841  0.2993 -0.0879
 9039SOL    HW138576   2.214   3.775   0.470  0.8301  0.4274 -2.2887
 9039SOL    HW238577   2.219   3.645   0.393 -1.6912  0.7862 -2.3394
 9040SOL     OW38578   3.240   4.172   7.770 -0.1142  0.0460  0.1133
 9040SOL    HW138579   3.316   4.201   7.820  1.1294  1.2605 -2.4553
 9040SOL    HW238580   3.211   4.099   7.824  0.9548  1.4045  2.5429
 9041SOL     OW38581   3.004   1.329   3.246 -0.1131 -0.5580  0.1850
 9041SOL    HW138582   2.909   1.318   3.246 -0.0087 -1.4863  1.9766
 9041SOL    HW238583   3.018   1.415   3.206 -2.2220 -0.9507 -1.4211
 9042SOL     OW38584   0.875   0.117   2.691  0.3896  0.0590 -0.2099
 9042SOL    HW138585   0.925   0.128   2.610 -1.5751  1.3083 -1.2582
 9042SOL    HW238586   0.941   0.111   2.759  1.5262  0.6835 -1.2743
 9043SOL     OW38587   0.308   3.898  10.917 -0.1108 -0.0421  0.0785
 9043SOL    HW138588   0.247   3.936  10.854 -0.7631 -2.9566 -1.0550
 9043SOL    HW238589   0.283   3.806  10.907  0.8062 -0.2837  0.0334
 9044SOL     OW38590   3.805   4.622   7.675  0.1614 -1.2116 -0.4885
 9044SOL    HW138591   3.875   4.679   7.644 -0.2008  1.0502  2.8312
 9044SOL    HW238592   3.755   4.605   7.595  0.4597 -1.2825 -0.6605
 9045SOL     OW38593   3.993   4.192   9.725 -0.1404  0.0640  0.3124
 9045SOL    HW138594   3.937   4.266   9.750 -1.3976 -0.2593 -1.5395
 9045SOL    HW238595   4.039   4.236   9.653  0.4657  0.1056  0.7328
 9046SOL     OW38596   2.967   1.478   1.204 -0.1346 -0.0456  0.0457
 9046SOL    HW138597   2.912   1.547   1.242 -0.6626 -1.3308  1.6244
 9046SOL    HW238598   3.024   1.445   1.273 -1.7827 -0.1022  1.3839
 9047SOL     OW38599   0.299   1.204   8.861 -0.1659 -0.3604 -0.5083
 9047SOL    HW138600   0.298   1.268   8.932  0.8046  0.8074 -1.5523
 9047SOL    HW238601   0.344   1.130   8.902 -0.2417  0.1164  0.4513
 9048SOL     OW38602   0.271   2.402   5.725 -0.0753  0.3434 -0.3913
 9048SOL    HW138603   0.283   2.482   5.675 -1.1786 -0.2994 -1.6908
 9048SOL    HW238604   0.357   2.409   5.767  0.4050 -1.1202 -1.1427
 9049SOL     OW38605   4.173   0.681   5.070 -0.0904  0.9643 -0.1217
 9049SOL    HW138606   4.195   0.694   5.163  1.0135  2.5334 -0.6025
 9049SOL    HW238607   4.135   0.762   5.036  0.7450  0.7452 -1.5580
 9050SOL     OW38608   2.574   1.018   9.428 -0.4535 -0.0493 -0.4792
 9050SOL    HW138609   2.592   0.945   9.370 -1.5249 -0.0052 -0.8761
 9050SOL    HW238610   2.638   1.080   9.393 -1.6401 -0.0171 -2.5612
 9051SOL     OW38611   3.388   3.680  10.365  0.2629  0.6549  0.5740
 9051SOL    HW138612   3.480   3.653  10.371  0.6755  1.9649 -0.0003
 9051SOL    HW238613   3.344   3.603  10.401 -0.5283  1.7555  1.9457
 9052SOL     OW38614   1.078   2.137   5.689 -0.3007  0.4785  0.0904
 9052SOL    HW138615   1.146   2.121   5.623  0.3032  2.2851  0.2766
 9052SOL    HW238616   1.116   2.200   5.750 -0.4711 -0.2238  0.9270
 9053SOL     OW38617   3.972   1.323   5.227 -0.2432  0.0694  0.1099
 9053SOL    HW138618   3.959   1.376   5.148 -1.6115  0.6982  0.7457
 9053SOL    HW238619   3.925   1.375   5.293  0.2750  1.8941 -0.9654
 9054SOL     OW38620   2.791   2.020   9.179 -0.1005  0.3465 -0.1808
 9054SOL    HW138621   2.701   2.023   9.145 -0.5229  2.1060  1.1060
 9054SOL    HW238622   2.818   1.934   9.145  3.2565  1.6419 -0.7492
 9055SOL     OW38623   3.782   0.195   4.815 -0.0623  0.7363  0.6854
 9055SOL    HW138624   3.694   0.210   4.850 -0.8613 -0.4753 -0.8244
 9055SOL    HW238625   3.770   0.125   4.751  3.6086  0.6799  0.0767
 9056SOL     OW38626   0.368   0.294   0.776 -0.1284  0.4363 -0.6634
 9056SOL    HW138627   0.370   0.389   0.762  1.5685 -0.0819 -4.0465
 9056SOL    HW238628   0.419   0.286   0.856  0.7366 -3.5608 -1.6136
 9057SOL     OW38629   0.935   3.313   3.779  0.0948  0.2263 -0.4505
 9057SOL    HW138630   0.945   3.282   3.689  1.3959  1.1455 -0.6046
 9057SOL    HW238631   0.989   3.251   3.827  0.2110 -1.6083 -2.9221
 9058SOL     OW38632   4.697   4.245   5.381 -0.0802  0.3588 -0.2891
 9058SOL    HW138633   0.012   4.291   5.307 -0.0616 -0.1787 -0.6110
 9058SOL    HW238634   4.651   4.322   5.415 -0.3037  0.0111  0.1939
 9059SOL     OW38635   1.349   4.621   7.331 -0.0406  0.0849 -0.1249
 9059SOL    HW138636   1.430   4.601   7.284 -0.3083 -1.6248  0.1459
 9059SOL    HW238637   1.381   4.695   7.382  2.1950 -2.0484  1.6084
 9060SOL     OW38638   4.153   2.755  13.526 -0.0722 -0.3542 -0.7228
 9060SOL    HW138639   4.167   2.703  13.606  0.5842 -0.5124 -0.9439
 9060SOL    HW238640   4.210   2.721  13.458  1.2509  0.0610  0.1605
 9061SOL     OW38641   4.595   4.344   8.939  0.0565 -0.1610  0.0657
 9061SOL    HW138642   4.569   4.421   8.887  1.3373  0.0843 -0.2097
 9061SOL    HW238643   4.541   4.348   9.019 -0.3142 -1.5038 -0.1144
 9062SOL     OW38644   3.725   1.037   6.199  0.0583  0.2461  0.6182
 9062SOL    HW138645   3.737   0.945   6.225 -1.5337 -0.5727 -1.4822
 9062SOL    HW238646   3.665   1.071   6.265  0.1684 -1.0756  1.4032
 9063SOL     OW38647   0.306   4.202   8.905 -0.1371  0.6915  0.7293
 9063SOL    HW138648   0.322   4.279   8.960 -1.0859 -0.3399  2.4347
 9063SOL    HW238649   0.211   4.208   8.896 -0.4585 -0.6810  3.2615
 9064SOL     OW38650   3.742   1.859   5.891  0.0833  0.1111  0.3408
 9064SOL    HW138651   3.698   1.840   5.809  0.0444 -0.0975  0.4113
 9064SOL    HW238652   3.672   1.844   5.954  1.4273  0.0800  1.8436
 9065SOL     OW38653   0.647   0.964   9.345  0.3100  0.4480 -0.1749
 9065SOL    HW138654   0.565   0.958   9.394 -0.9447 -2.3242 -2.5322
 9065SOL    HW238655   0.648   1.057   9.325  0.3762  0.7019  1.0362
 9066SOL     OW38656   0.764   1.285   0.655 -0.0639 -0.1695 -0.2539
 9066SOL    HW138657   0.797   1.228   0.725 -0.7355  0.7711  0.8293
 9066SOL    HW238658   0.797   1.372   0.677  0.7202 -0.5431  0.0506
 9067SOL     OW38659   2.862   3.993   4.124 -0.4155  0.4237 -0.1543
 9067SOL    HW138660   2.917   3.990   4.202 -0.6254 -0.9654 -0.0725
 9067SOL    HW238661   2.931   3.978   4.060  0.0044  0.9707  0.1683
 9068SOL     OW38662   1.082   4.118  10.588  0.0233 -0.6109  0.5762
 9068SOL    HW138663   1.068   4.155  10.501 -1.7150  0.1196  1.1686
 9068SOL    HW238664   1.136   4.186  10.630 -0.7350 -0.2885  1.0285
 9069SOL     OW38665   2.788   1.158   7.161 -0.5359 -0.8230 -0.1694
 9069SOL    HW138666   2.772   1.064   7.171 -2.0334 -0.4820  0.5501
 9069SOL    HW238667   2.768   1.202   7.243  1.6392 -0.0715 -0.0272
 9070SOL     OW38668   2.212   4.037   2.369  0.4177  0.4960 -0.0903
 9070SOL    HW138669   2.280   4.023   2.304  1.2807  0.1402  0.8828
 9070SOL    HW238670   2.217   3.951   2.410 -0.5244  1.1167  1.3543
 9071SOL     OW38671   4.105   0.119   5.180 -0.6924 -0.3130 -0.1004
 9071SOL    HW138672   4.055   0.186   5.132 -2.6300  0.0110  2.3366
 9071SOL    HW238673   4.098   0.044   5.122  0.6824  0.0290 -0.7026
 9072SOL     OW38674   1.257   0.326   2.911  0.4700  0.3897 -0.2094
 9072SOL    HW138675   1.230   0.403   2.861 -0.5391  0.8643  1.0614
 9072SOL    HW238676   1.269   0.370   2.995  1.7886 -1.4773  0.5810
 9073SOL     OW38677   0.842   0.515   4.680 -0.2938 -0.4903 -0.8518
 9073SOL    HW138678   0.908   0.583   4.681 -0.5990 -0.2242  1.4641
 9073SOL    HW238679   0.897   0.445   4.716 -0.1799  0.4649  0.8626
 9074SOL     OW38680   1.280   0.243   5.365 -0.0231  0.3893 -0.0700
 9074SOL    HW138681   1.191   0.275   5.354 -0.1695 -0.4210 -1.1862
 9074SOL    HW238682   1.297   0.249   5.459  1.1767 -2.8449 -0.0883
 9075SOL     OW38683   1.152   1.954   1.529 -0.0789 -0.1294 -0.7153
 9075SOL    HW138684   1.107   1.877   1.565  1.3595 -1.0466 -0.8880
 9075SOL    HW238685   1.235   1.915   1.501  0.6791  0.8155  0.2397
 9076SOL     OW38686   0.661   3.318  12.470  0.0693 -0.4265 -0.2692
 9076SOL    HW138687   0.571   3.287  12.459 -0.4852  0.8288  0.7472
 9076SOL    HW238688   0.683   3.280  12.555 -1.2802 -0.2398  0.1610
 9077SOL     OW38689   4.268   2.674   3.268  0.9261 -0.1823 -0.5640
 9077SOL    HW138690   4.178   2.648   3.285  0.5148  1.4666 -0.1515
 9077SOL    HW238691   4.291   2.603   3.209 -0.2084 -0.3802 -0.7696
 9078SOL     OW38692   3.367   2.948   2.387  0.4090  0.5705 -0.7218
 9078SOL    HW138693   3.363   2.935   2.293 -0.6392  0.4048 -0.6531
 9078SOL    HW238694   3.280   2.986   2.401  0.9088  2.0899 -1.7124
 9079SOL     OW38695   1.027   3.727  15.841  0.6548 -0.4286  0.1515
 9079SOL    HW138696   1.040   3.758  15.751 -0.8991 -0.1117  0.0241
 9079SOL    HW238697   1.115   3.697  15.862  0.4641  0.7508  2.5855
 9080SOL     OW38698   1.007   2.865   7.160 -0.1805  0.0162  0.0564
 9080SOL    HW138699   1.023   2.857   7.067 -1.5882  3.0686 -0.4535
 9080SOL    HW238700   1.047   2.783   7.190 -2.4817 -0.9648  0.4050
 9081SOL     OW38701   2.581   1.021   8.415 -0.1354 -0.0029 -0.0118
 9081SOL    HW138702   2.517   0.962   8.453  1.1246 -1.8110 -0.6686
 9081SOL    HW238703   2.534   1.103   8.425 -2.0134 -1.1909  0.8436
 9082SOL     OW38704   4.011   0.851   8.350 -0.0772 -0.1326  0.2637
 9082SOL    HW138705   4.057   0.881   8.428 -0.1242 -1.2514  0.7150
 9082SOL    HW238706   4.052   0.768   8.327 -1.1418 -0.9276  1.2298
 9083SOL     OW38707   0.400   3.923   5.529 -0.1907  0.2961 -0.0897
 9083SOL    HW138708   0.479   3.891   5.573  0.9717  1.2820 -1.5097
 9083SOL    HW238709   0.385   4.000   5.583 -1.6368  0.1384 -0.2636
 9084SOL     OW38710   0.216   0.236   2.414  0.1004 -0.1491 -0.1569
 9084SOL    HW138711   0.250   0.318   2.378 -2.3455  0.4796 -1.0513
 9084SOL    HW238712   0.124   0.234   2.387 -0.5294  0.7529  1.8913
 9085SOL     OW38713   3.504   0.379  16.311 -0.7240  0.2213 -0.1028
 9085SOL    HW138714   3.571   0.392  16.244  0.8063 -1.3719  1.1016
 9085SOL    HW238715   3.430   0.384  16.250 -2.1298  1.5732  1.7061
 9086SOL     OW38716   4.591   3.860  16.886 -0.3285 -0.4643 -0.2500
 9086SOL    HW138717   4.635   3.854  16.971 -1.1878  1.8028  0.3493
 9086SOL    HW238718   4.597   3.955  16.872 -0.4319 -0.5631 -0.9393
 9087SOL     OW38719   3.118   1.392   6.231 -0.8870  0.2207 -0.8031
 9087SOL    HW138720   3.037   1.374   6.183 -0.2317 -1.9052 -1.1215
 9087SOL    HW238721   3.126   1.329   6.301 -2.8811 -1.2867 -1.9400
 9088SOL     OW38722   3.040   3.903   6.806  0.4243 -0.5597  0.4552
 9088SOL    HW138723   3.121   3.893   6.856  0.0121 -1.4445  0.9440
 9088SOL    HW238724   2.975   3.947   6.860 -0.8959 -0.5018 -1.1694
 9089SOL     OW38725   4.353   0.042   4.601  0.5729 -0.3090  0.1619
 9089SOL    HW138726   4.348   0.121   4.655  0.3359  0.4986 -1.0378
 9089SOL    HW238727   4.353   4.702   4.672 -1.0401  0.5105  0.8940
 9090SOL     OW38728   2.876   0.438   8.186  0.0092 -0.1840 -0.3126
 9090SOL    HW138729   2.937   0.442   8.111  1.2437 -3.3038  0.5167
 9090SOL    HW238730   2.911   0.507   8.242 -0.1830 -0.4703  0.1620
 9091SOL     OW38731   3.298   2.584   6.295 -0.3606  0.1532 -0.3656
 9091SOL    HW138732   3.229   2.538   6.343 -0.8515 -1.6538 -2.8515
 9091SOL    HW238733   3.262   2.672   6.304 -0.4547  0.2614 -1.9315
 9092SOL     OW38734   4.461   4.211  15.303 -0.3960  0.1397  0.0129
 9092SOL    HW138735   4.513   4.194  15.224 -0.1874 -0.5170  0.3023
 9092SOL    HW238736   4.490   4.301  15.318 -0.0548  0.1325 -0.6040
 9093SOL     OW38737   0.360   0.195  15.442  0.1792 -0.2091  0.4715
 9093SOL    HW138738   0.279   0.246  15.436  1.1787  1.1002 -2.2328
 9093SOL    HW238739   0.360   0.146  15.359  1.2535 -0.3408  0.5480
 9094SOL     OW38740   4.044   1.300   3.790  0.6598  0.4479  0.6559
 9094SOL    HW138741   4.052   1.211   3.821 -0.3733  0.3717  0.7158
 9094SOL    HW238742   3.989   1.293   3.712  0.0839  0.6525  1.0469
 9095SOL     OW38743   4.098   4.442  12.486  0.0346 -0.0835  0.2218
 9095SOL    HW138744   4.147   4.436  12.569  0.5413  1.4363  0.0255
 9095SOL    HW238745   4.050   4.524  12.501  1.9837  1.0590  0.2306
 9096SOL     OW38746   3.954   0.558   5.437  0.6127  0.2349  0.0848
 9096SOL    HW138747   4.048   0.562   5.455  0.0429  1.4784  2.7732
 9096SOL    HW238748   3.945   0.477   5.387  0.3730  0.2369  0.1251
 9097SOL     OW38749   1.874   4.014   3.043  0.6990  0.4880  0.2510
 9097SOL    HW138750   1.899   4.099   3.007 -1.7448  1.1293  0.0982
 9097SOL    HW238751   1.958   3.968   3.034  0.7234  0.7393 -0.8020
 9098SOL     OW38752   1.884   0.282   1.501 -0.6331  0.3206 -0.2401
 9098SOL    HW138753   1.871   0.201   1.549  1.8168 -0.8442 -1.5427
 9098SOL    HW238754   1.953   0.327   1.549 -1.1227 -2.4839  3.0274
 9099SOL     OW38755   2.816   0.239  12.811  0.3889  0.0333 -0.1595
 9099SOL    HW138756   2.743   0.179  12.825 -0.2911  0.7966 -0.4391
 9099SOL    HW238757   2.772   0.324  12.810  0.3006 -0.0112 -0.0602
 9100SOL     OW38758   2.372   0.033   4.021  0.4117  0.1842  0.9084
 9100SOL    HW138759   2.322   0.011   4.100 -0.3886  0.2324  0.4116
 9100SOL    HW238760   2.382   4.673   3.978 -0.2351  0.0943  0.9397
 9101SOL     OW38761   1.760   0.683   2.350 -0.4689 -0.3121  0.0278
 9101SOL    HW138762   1.697   0.627   2.396 -0.3534  0.1349  0.7289
 9101SOL    HW238763   1.708   0.700   2.271 -0.0576  0.5282 -0.0634
 9102SOL     OW38764   3.737   1.892  11.236 -0.2145 -0.4143 -0.2504
 9102SOL    HW138765   3.693   1.957  11.181  0.6133 -1.7561 -2.5014
 9102SOL    HW238766   3.822   1.934  11.247 -1.2123  1.1720  1.3414
 9103SOL     OW38767   1.398   1.248   3.132 -0.6646 -0.8905  0.3607
 9103SOL    HW138768   1.333   1.316   3.147  0.5271  0.2837  0.2413
 9103SOL    HW238769   1.356   1.178   3.181  0.4019 -0.6081  1.6728
 9104SOL     OW38770   0.572   0.063   8.785  0.2820 -0.0672 -0.5865
 9104SOL    HW138771   0.589   0.097   8.697  1.1358  1.5665  0.2188
 9104SOL    HW238772   0.510   0.129   8.815  0.6703 -0.1556  0.4004
 9105SOL     OW38773   0.883   3.955  12.591  0.1726  0.2680 -0.1343
 9105SOL    HW138774   0.953   3.969  12.655  0.8022 -1.5519 -0.4032
 9105SOL    HW238775   0.927   3.877  12.557 -0.0043 -0.1465  0.5817
 9106SOL     OW38776   4.675   1.987   1.582 -0.6554 -0.0266 -0.2619
 9106SOL    HW138777   4.589   2.028   1.591 -0.5897 -0.0740  0.5788
 9106SOL    HW238778   4.648   1.928   1.511 -1.8816 -0.4488  0.5665
 9107SOL     OW38779   3.993   0.002  17.483  0.5582 -0.9309  0.8909
 9107SOL    HW138780   4.001   0.049  17.401 -0.9129 -2.2675 -0.0271
 9107SOL    HW238781   3.964   0.066  17.547 -0.1323 -0.1025 -0.2548
 9108SOL     OW38782   0.830   0.440  14.128 -0.1622  0.2913 -0.2433
 9108SOL    HW138783   0.882   0.479  14.058  1.9128  1.1074  1.7742
 9108SOL    HW238784   0.878   0.357  14.136 -1.7814 -0.5982  0.3397
 9109SOL     OW38785   0.174   1.342  15.873 -0.1435  0.3383  0.2538
 9109SOL    HW138786   0.157   1.390  15.792 -2.7180 -2.2360 -0.7449
 9109SOL    HW238787   0.153   1.415  15.930 -0.3567  2.4494 -2.5265
 9110SOL     OW38788   2.643   3.054  10.155  0.4030  0.0469  0.0630
 9110SOL    HW138789   2.598   3.126  10.110  0.6107  0.3937  0.4067
 9110SOL    HW238790   2.713   3.031  10.093  1.3045 -0.9523  1.4614
 9111SOL     OW38791   0.374   0.532   5.811  0.0769 -0.1468  0.1807
 9111SOL    HW138792   0.396   0.557   5.721 -1.0328  0.4200  0.0641
 9111SOL    HW238793   0.459   0.489   5.823  0.7230  1.8021  2.8558
 9112SOL     OW38794   2.975   1.534   1.595 -0.2333  0.0987 -0.4956
 9112SOL    HW138795   2.931   1.501   1.673 -1.0435 -3.1021 -2.2855
 9112SOL    HW238796   2.982   1.628   1.614  0.4368  0.1262 -0.8622
 9113SOL     OW38797   1.973   3.489  17.072  0.0125  0.4576 -0.3313
 9113SOL    HW138798   1.998   3.577  17.100 -1.2883  1.0417 -0.9693
 9113SOL    HW238799   1.901   3.471  17.133  0.3819  0.4884  0.1094
 9114SOL     OW38800   0.444   1.607   1.877 -0.0525 -0.3658  0.3236
 9114SOL    HW138801   0.530   1.648   1.868 -0.7655  0.6936 -1.6751
 9114SOL    HW238802   0.424   1.635   1.967  1.8006 -1.7243  1.1710
 9115SOL     OW38803   4.339   4.351   3.925 -0.4361 -0.4149  0.2742
 9115SOL    HW138804   4.425   4.381   3.899 -1.0444  1.0019 -0.0881
 9115SOL    HW238805   4.353   4.273   3.980  0.5385  0.0106  0.6202
 9116SOL     OW38806   1.757   1.258   0.595 -0.8360  0.4358 -0.1774
 9116SOL    HW138807   1.823   1.247   0.526 -0.0247  2.3669  0.2882
 9116SOL    HW238808   1.782   1.185   0.652 -0.6875 -0.2414 -1.1053
 9117SOL     OW38809   2.415   4.031   2.853  0.3896 -0.0116 -0.3881
 9117SOL    HW138810   2.394   4.066   2.939 -1.6287 -1.6262 -0.2275
 9117SOL    HW238811   2.436   4.110   2.802  2.8602 -0.2141  0.2982
 9118SOL     OW38812   3.940   2.745   0.919 -0.0327 -0.3946 -0.1459
 9118SOL    HW138813   3.860   2.694   0.931 -1.1518  0.9512 -2.0164
 9118SOL    HW238814   3.996   2.673   0.890  0.3492  0.0249 -0.4507
 9119SOL     OW38815   0.742   4.604   2.618 -0.4135  0.1347  0.7301
 9119SOL    HW138816   0.648   4.618   2.630 -0.7772 -0.4050 -1.5540
 9119SOL    HW238817   0.783   4.691   2.625 -1.5761  0.6350  1.3368
 9120SOL     OW38818   2.475   2.710   3.832 -0.0707 -0.0056  0.1265
 9120SOL    HW138819   2.435   2.693   3.918  1.5321 -4.2018  0.0545
 9120SOL    HW238820   2.548   2.648   3.834 -0.6037 -0.5631  2.0458
 9121SOL     OW38821   4.670   1.030  11.057  0.7002 -0.0039 -0.0439
 9121SOL    HW138822   4.585   0.990  11.073  1.1275  0.0394  2.3044
 9121SOL    HW238823   4.677   1.085  11.135  1.6617  0.6236 -0.5565
 9122SOL     OW38824   4.677   3.676   5.664 -0.6965  0.1541 -0.1361
 9122SOL    HW138825   4.714   3.726   5.591  1.3246 -1.7586 -0.4121
 9122SOL    HW238826   4.676   3.593   5.617  0.4554 -0.1893  0.4214
 9123SOL     OW38827   4.592   4.172   0.406  0.4870  0.1256 -0.0263
 9123SOL    HW138828   4.564   4.080   0.402 -3.1642  1.2295 -0.0763
 9123SOL    HW238829   4.685   4.153   0.397  0.3214  0.3380 -2.1942
 9124SOL     OW38830   0.500   4.609   6.714  0.3024  0.0460  0.2198
 9124SOL    HW138831   0.480   4.516   6.720 -1.9894  0.6107  1.3690
 9124SOL    HW238832   0.503   4.617   6.619 -3.1950 -1.4938 -0.0275
 9125SOL     OW38833   2.937   3.749   2.972 -0.1859  0.0573  0.1679
 9125SOL    HW138834   2.853   3.759   3.017 -0.9829 -2.3781 -0.7827
 9125SOL    HW238835   2.993   3.791   3.037 -0.6677  1.0440 -0.0568
 9126SOL     OW38836   1.003   4.020  11.643  0.7037 -0.1970  0.1496
 9126SOL    HW138837   1.003   4.046  11.551  0.4445  0.8763  0.4462
 9126SOL    HW238838   1.098   4.026  11.656  0.4928 -2.0102  2.4408
 9127SOL     OW38839   3.805   0.279  10.803 -0.0645  0.1575 -0.3179
 9127SOL    HW138840   3.841   0.361  10.837 -0.1513  0.9660 -2.1290
 9127SOL    HW238841   3.743   0.254  10.871 -1.4981  0.4462 -1.5139
 9128SOL     OW38842   4.381   0.646   2.815  0.2735 -0.2725  0.1826
 9128SOL    HW138843   4.403   0.726   2.862 -1.0571  0.5763 -0.6360
 9128SOL    HW238844   4.429   0.583   2.868 -0.3742 -0.3294  0.7021
 9129SOL     OW38845   3.268   4.290   3.229  0.5422 -0.6783  0.1977
 9129SOL    HW138846   3.328   4.330   3.166 -0.7952  0.4686 -0.3407
 9129SOL    HW238847   3.298   4.316   3.316  0.0774 -0.1420  0.1962
 9130SOL     OW38848   4.372   1.308   2.849  0.6674 -0.0433  0.1054
 9130SOL    HW138849   4.310   1.242   2.882  0.4518  0.3722  0.5332
 9130SOL    HW238850   4.325   1.388   2.875 -4.0035 -2.6483 -0.2229
 9131SOL     OW38851   4.030   0.917  10.286  0.1353 -0.1324 -0.5978
 9131SOL    HW138852   4.049   0.836  10.237 -0.0210  0.9823 -2.5088
 9131SOL    HW238853   4.113   0.964  10.284 -0.6099  1.1404 -1.3127
 9132SOL     OW38854   4.490   1.137  16.240 -0.0395  0.1033 -0.1927
 9132SOL    HW138855   4.501   1.182  16.157  1.2288 -2.8176 -1.6348
 9132SOL    HW238856   4.580   1.109  16.259  0.0408 -0.0979 -0.8754
 9133SOL     OW38857   2.374   2.383   3.349 -0.2783  0.2052  0.2243
 9133SOL    HW138858   2.451   2.403   3.402  0.4980  0.3877 -0.9820
 9133SOL    HW238859   2.341   2.468   3.317  1.8770  0.0571 -2.3719
 9134SOL     OW38860   4.649   3.401   2.657  0.3172  0.6363 -0.8321
 9134SOL    HW138861   4.697   3.339   2.601 -1.2644 -0.0089 -1.4907
 9134SOL    HW238862   4.673   3.482   2.610  3.3602  0.5519  0.5897
 9135SOL     OW38863   4.135   1.559   5.672 -0.0274 -0.3656  0.1220
 9135SOL    HW138864   4.123   1.653   5.686 -2.9242 -0.6110 -0.6850
 9135SOL    HW238865   4.053   1.528   5.712  0.1582  2.0603  2.3995
 9136SOL     OW38866   2.751   0.428   1.909 -0.2745 -0.2244  0.2668
 9136SOL    HW138867   2.798   0.460   1.832  1.4755 -0.2416  1.3278
 9136SOL    HW238868   2.724   0.338   1.891  1.4852 -0.6077 -0.4717
 9137SOL     OW38869   0.805   3.151  13.274  0.3333 -0.4793  0.1675
 9137SOL    HW138870   0.840   3.170  13.361  2.5979  2.0906 -1.2816
 9137SOL    HW238871   0.771   3.239  13.260  0.2789 -0.5376 -0.0713
 9138SOL     OW38872   3.130   1.588   4.039  0.0271  0.4457  0.0739
 9138SOL    HW138873   3.221   1.603   4.014  0.2389 -2.1471 -0.7195
 9138SOL    HW238874   3.118   1.679   4.069  0.0337  0.0133  1.3813
 9139SOL     OW38875   1.422   2.822  12.510  0.4370 -0.2893  0.5174
 9139SOL    HW138876   1.375   2.904  12.528 -1.3935 -1.0792 -0.6951
 9139SOL    HW238877   1.379   2.764  12.572  1.2239  0.8604  2.1403
 9140SOL     OW38878   2.186   3.671  12.580  0.2459 -0.2138 -0.5753
 9140SOL    HW138879   2.203   3.661  12.674 -1.5300  1.2144 -0.1072
 9140SOL    HW238880   2.100   3.632  12.571  0.1315 -0.2101  0.5164
 9141SOL     OW38881   2.148   0.994   7.251 -0.5772 -0.3196 -0.6562
 9141SOL    HW138882   2.214   0.944   7.299  0.3461 -0.0370 -1.6420
 9141SOL    HW238883   2.071   0.938   7.259  0.4462 -1.6245  0.0536
 9142SOL     OW38884   2.296   1.128  10.482 -0.2656  0.3402 -0.2763
 9142SOL    HW138885   2.342   1.205  10.447 -1.3530  0.7161 -0.8757
 9142SOL    HW238886   2.212   1.155  10.446 -0.9579 -0.9403  0.3956
 9143SOL     OW38887   1.286   1.065   9.554  0.5369 -0.6746  0.1018
 9143SOL    HW138888   1.195   1.052   9.581  0.9786 -0.0175  1.9145
 9143SOL    HW238889   1.268   1.020   9.472 -0.1475  1.1981 -0.7707
 9144SOL     OW38890   2.724   4.253   6.792 -0.0461  0.5554 -0.3668
 9144SOL    HW138891   2.764   4.186   6.736 -0.2434 -1.8108  2.3494
 9144SOL    HW238892   2.792   4.256   6.859 -1.5425  0.2299  1.1750
 9145SOL     OW38893   4.585   3.856   9.571  0.5512 -0.2294 -0.5056
 9145SOL    HW138894   4.621   3.858   9.482 -2.6669  2.8313 -1.7207
 9145SOL    HW238895   4.645   3.913   9.620  1.3306 -1.2344 -0.3075
 9146SOL     OW38896   2.034   3.756  17.202 -0.0026  0.3237  0.4475
 9146SOL    HW138897   2.087   3.830  17.171 -1.0827  0.9791  0.1651
 9146SOL    HW238898   1.952   3.791  17.168  0.4622 -0.6989 -1.6891
 9147SOL     OW38899   0.368   2.354   0.174  0.5406 -0.5800  0.0886
 9147SOL    HW138900   0.440   2.313   0.222  0.1596  1.0257  2.0076
 9147SOL    HW238901   0.292   2.315   0.216  1.8706 -1.5511  1.5823
 9148SOL     OW38902   3.514   4.459   7.686  0.2086 -0.5757 -0.4270
 9148SOL    HW138903   3.540   4.527   7.623  4.0183 -2.5617 -1.0076
 9148SOL    HW238904   3.424   4.433   7.664  0.3360  0.8402 -2.6216
 9149SOL     OW38905   3.208   0.564   8.481 -0.5919 -0.1728  0.3189
 9149SOL    HW138906   3.298   0.533   8.482  0.0539  1.6718 -2.3204
 9149SOL    HW238907   3.216   0.644   8.533  2.8924 -0.6386  0.4578
 9150SOL     OW38908   4.356   3.441   6.925 -0.0018  0.1371 -0.1107
 9150SOL    HW138909   4.345   3.404   7.013  2.2870 -1.0032 -0.2997
 9150SOL    HW238910   4.267   3.463   6.898  0.2258  0.3275 -0.6957
 9151SOL     OW38911   3.863   1.801   3.752  0.1777 -0.3970 -1.2594
 9151SOL    HW138912   3.959   1.804   3.745  0.3183 -1.1001  0.2469
 9151SOL    HW238913   3.835   1.890   3.735 -1.0947 -1.0277 -2.4323
 9152SOL     OW38914   3.916   0.936   6.434 -0.1726 -0.3807 -0.5543
 9152SOL    HW138915   3.830   0.974   6.448  0.9579  1.8393  0.2626
 9152SOL    HW238916   3.894   0.873   6.365 -2.2115  0.2871 -0.4928
 9153SOL     OW38917   3.375   3.286   3.887 -0.2739 -0.4574 -0.1403
 9153SOL    HW138918   3.461   3.302   3.926 -0.0954  0.2490 -0.8327
 9153SOL    HW238919   3.388   3.196   3.858  0.0143 -0.3485 -0.3459
 9154SOL     OW38920   3.131   1.066   8.799 -0.1014 -0.0193 -1.0955
 9154SOL    HW138921   3.168   1.096   8.882 -1.6158 -0.3843 -0.3063
 9154SOL    HW238922   3.042   1.041   8.821 -0.4395  1.6661 -0.5968
 9155SOL     OW38923   1.896   3.663   7.190 -0.2451 -1.4902  0.0775
 9155SOL    HW138924   1.885   3.684   7.097  1.1137 -0.2688  0.1790
 9155SOL    HW238925   1.989   3.685   7.204 -0.9235  1.7540 -0.3554
 9156SOL     OW38926   4.112   2.684   1.585  0.0496 -0.3064  0.5766
 9156SOL    HW138927   4.155   2.748   1.642 -0.0246 -0.7218  1.1037
 9156SOL    HW238928   4.023   2.719   1.589  0.3997  0.6142  0.0509
 9157SOL     OW38929   2.090   2.182   3.148  0.3487  0.2921 -0.0569
 9157SOL    HW138930   2.175   2.225   3.132 -0.1422  1.6574  0.9306
 9157SOL    HW238931   2.113   2.099   3.107  3.3513  0.7386  0.6470
 9158SOL     OW38932   2.699   3.627  11.802 -0.0728 -0.3583 -0.0930
 9158SOL    HW138933   2.687   3.537  11.834 -0.7425 -0.0746  0.4523
 9158SOL    HW238934   2.720   3.678  11.880 -1.0745  0.0757 -0.1070
 9159SOL     OW38935   1.655   0.319   6.615 -0.4807 -0.1536  0.2718
 9159SOL    HW138936   1.673   0.374   6.539 -0.5986 -0.5288 -0.0304
 9159SOL    HW238937   1.563   0.293   6.607 -0.6614  0.3210  0.8675
 9160SOL     OW38938   3.179   4.414   7.686 -0.1201 -0.2265  0.0628
 9160SOL    HW138939   3.206   4.396   7.596 -0.3702  0.2550 -0.1059
 9160SOL    HW238940   3.164   4.326   7.721 -3.5880  1.2338  2.3379
 9161SOL     OW38941   4.250   4.365   4.422 -0.0979  0.4855  0.1435
 9161SOL    HW138942   4.243   4.444   4.369 -0.5035  0.4771  0.1825
 9161SOL    HW238943   4.167   4.365   4.470 -0.2865  1.4357 -0.1860
 9162SOL     OW38944   0.451   1.463   6.346  0.0446  0.0464  0.4373
 9162SOL    HW138945   0.489   1.404   6.411 -2.7909 -2.0137  0.2436
 9162SOL    HW238946   0.525   1.476   6.286 -0.4133  0.6467  0.0021
 9163SOL     OW38947   1.407   2.560   4.087  0.1721 -0.4670  0.5547
 9163SOL    HW138948   1.476   2.495   4.082  2.5459  2.0346  0.7595
 9163SOL    HW238949   1.427   2.618   4.014  1.0015  0.4939  1.5433
 9164SOL     OW38950   4.343   0.410  12.146 -0.1048 -0.3047  0.1475
 9164SOL    HW138951   4.416   0.358  12.111  0.1016 -0.4419  0.7739
 9164SOL    HW238952   4.326   0.441  12.057  1.9148  0.0773 -0.1035
 9165SOL     OW38953   3.363   3.357   3.501 -0.6659 -0.2025 -0.1352
 9165SOL    HW138954   3.291   3.414   3.473 -0.1379  0.1170 -0.8465
 9165SOL    HW238955   3.310   3.283   3.530  1.5890 -1.2926  1.1404
 9166SOL     OW38956   0.150   0.838   8.075  0.2331  0.7382 -0.3195
 9166SOL    HW138957   0.078   0.898   8.054 -0.1285  0.7920  1.0482
 9166SOL    HW238958   0.189   0.888   8.148  0.7661 -1.8828  1.2014
 9167SOL     OW38959   2.307   2.687   4.758  0.2154 -0.2273  0.3999
 9167SOL    HW138960   2.371   2.680   4.829  1.5173  1.0766 -0.6511
 9167SOL    HW238961   2.364   2.682   4.681 -1.6675 -0.4122 -0.9819
 9168SOL     OW38962   1.806   1.168   2.668 -0.3342 -0.3633 -0.1575
 9168SOL    HW138963   1.834   1.088   2.713  1.0981  0.0593 -0.3036
 9168SOL    HW238964   1.826   1.240   2.729  1.1198  1.0174 -2.2747
 9169SOL     OW38965   2.807   2.262   4.976  0.3778 -0.4428  0.0586
 9169SOL    HW138966   2.810   2.239   5.069  0.7637 -1.8701 -0.3017
 9169SOL    HW238967   2.856   2.188   4.941  2.9096  2.0519 -1.6584
 9170SOL     OW38968   0.054   3.979   3.470 -0.6911 -0.2343 -0.4843
 9170SOL    HW138969   4.715   3.908   3.485 -0.6090 -0.1193  0.3603
 9170SOL    HW238970   4.723   4.042   3.423 -0.9160 -0.8505 -1.0601
 9171SOL     OW38971   2.838   0.545   1.113 -0.8157  0.0690 -0.2674
 9171SOL    HW138972   2.892   0.510   1.184  0.5466 -0.1632 -1.4275
 9171SOL    HW238973   2.778   0.609   1.153 -0.3003 -0.4431  1.3417
 9172SOL     OW38974   2.491   2.528  11.431  0.5680  0.2021  0.5270
 9172SOL    HW138975   2.519   2.592  11.366  1.1762 -0.7991 -0.1885
 9172SOL    HW238976   2.540   2.552  11.510 -0.6281 -2.8605  2.2179
 9173SOL     OW38977   2.995   0.131   4.193  0.1363  0.1552 -0.9209
 9173SOL    HW138978   2.909   0.092   4.175  0.6546 -1.6561  0.5048
 9173SOL    HW238979   3.031   0.075   4.262 -1.4956 -2.7549 -2.4106
 9174SOL     OW38980   2.602   4.182   7.574  0.0955 -0.3209  0.1149
 9174SOL    HW138981   2.525   4.226   7.610  0.5118 -0.6381  1.3994
 9174SOL    HW238982   2.671   4.214   7.633 -1.3072 -0.6085  1.9144
 9175SOL     OW38983   3.852   2.957   1.946  0.2464 -0.4109 -0.5550
 9175SOL    HW138984   3.871   2.864   1.935  3.5668  0.1472  0.3686
 9175SOL    HW238985   3.890   2.991   1.865  0.0273 -0.4450 -0.6704
 9176SOL     OW38986   1.222   3.206  16.062 -0.1916 -0.0533  0.6858
 9176SOL    HW138987   1.307   3.245  16.085  0.4641 -0.1048 -1.5582
 9176SOL    HW238988   1.214   3.235  15.971  0.7166 -0.4407  0.4811
 9177SOL     OW38989   4.599   2.450  13.926  0.0517 -0.0119  0.0201
 9177SOL    HW138990   4.508   2.462  13.953 -0.6216 -3.4889 -0.7600
 9177SOL    HW238991   4.593   2.478  13.834  0.2808  0.4031  0.1304
 9178SOL     OW38992   0.428   4.208   6.605  0.0755  0.7269 -0.4008
 9178SOL    HW138993   0.522   4.212   6.624  0.5527  0.8180 -2.6915
 9178SOL    HW238994   0.388   4.251   6.680 -0.6372 -1.3883  0.4096
 9179SOL     OW38995   2.002   2.087  17.614 -0.6492 -0.0645 -0.1297
 9179SOL    HW138996   1.910   2.115  17.612 -1.6367 -3.1663  1.1572
 9179SOL    HW238997   2.008   2.043   0.000  1.5234 -0.0388 -0.2766
 9180SOL     OW38998   3.952   2.254   3.164  0.2310 -0.4433 -0.9541
 9180SOL    HW138999   3.974   2.336   3.122 -0.3567  0.3060  0.2073
 9180SOL    HW239000   3.860   2.261   3.191  0.7275 -1.4078  1.0803
 9181SOL     OW39001   1.061   4.307   2.425  0.2451  0.1585 -0.0433
 9181SOL    HW139002   1.142   4.351   2.448 -0.9545  1.8703  0.8979
 9181SOL    HW239003   1.087   4.245   2.357  0.1256  1.1104 -0.9544
 9182SOL     OW39004   0.771   3.142   5.209  0.2152  0.5081  0.0044
 9182SOL    HW139005   0.723   3.072   5.254  0.2348  0.4409 -0.0777
 9182SOL    HW239006   0.818   3.113   5.131  0.6327  0.6853  0.1875
 9183SOL     OW39007   1.035   1.132   5.260 -0.4607 -0.3470 -0.1891
 9183SOL    HW139008   0.956   1.082   5.281 -1.3583  1.1311  0.0026
 9183SOL    HW239009   0.998   1.201   5.204  2.2137  0.4315 -0.9808
 9184SOL     OW39010   3.219   2.946   5.160  0.0790 -0.1995 -0.1146
 9184SOL    HW139011   3.136   2.949   5.113  0.3315 -0.4033 -0.5679
 9184SOL    HW239012   3.275   2.939   5.083 -0.3036 -1.4427 -0.2758
 9185SOL     OW39013   0.505   2.521  16.900  0.0267 -0.0839 -0.3454
 9185SOL    HW139014   0.511   2.588  16.832 -0.5880 -0.6181 -0.9172
 9185SOL    HW239015   0.474   2.581  16.967 -0.4444  1.1300 -1.6647
 9186SOL     OW39016   2.533   2.678  13.109 -0.4556 -0.2000  0.2431
 9186SOL    HW139017   2.563   2.613  13.172 -0.4281  0.2149  0.6560
 9186SOL    HW239018   2.534   2.623  13.031  0.1455 -1.0185  0.8313
 9187SOL     OW39019   0.854   2.839   2.462 -0.1135  0.0566 -0.1413
 9187SOL    HW139020   0.910   2.860   2.388  0.2283 -2.6399 -0.6592
 9187SOL    HW239021   0.920   2.824   2.530 -0.8313 -1.1807  0.2972
 9188SOL     OW39022   3.008   0.533  14.486 -0.3480 -0.9060  0.4244
 9188SOL    HW139023   2.969   0.611  14.527  1.9130  0.0680  0.7038
 9188SOL    HW239024   2.960   0.457  14.519  1.0598 -1.1141  1.9536
 9189SOL     OW39025   2.983   1.819   8.446 -0.3475  0.1347  0.0849
 9189SOL    HW139026   2.998   1.859   8.531 -0.9258  0.1388  0.1801
 9189SOL    HW239027   2.888   1.821   8.446 -0.3271  1.5031 -0.8462
 9190SOL     OW39028   0.499   3.317   8.578 -0.1769 -0.1508 -0.3622
 9190SOL    HW139029   0.547   3.348   8.655  0.7314 -2.2409 -0.0701
 9190SOL    HW239030   0.422   3.279   8.621 -1.7166  0.7129 -2.4052
 9191SOL     OW39031   1.801   2.696  13.202  0.1916  0.0460  0.2872
 9191SOL    HW139032   1.731   2.665  13.260  0.0857 -0.6355 -0.2195
 9191SOL    HW239033   1.755   2.775  13.172 -1.1967 -0.4888  0.9852
 9192SOL     OW39034   0.631   1.800   4.109 -0.6880 -0.1709 -0.4437
 9192SOL    HW139035   0.643   1.710   4.139  0.1754 -0.1543 -0.7366
 9192SOL    HW239036   0.661   1.784   4.020  0.6484 -0.6641  0.0906
 9193SOL     OW39037   2.297   3.188   8.524  0.5739  0.0784  0.2826
 9193SOL    HW139038   2.259   3.121   8.582 -0.8194 -0.6594 -1.4847
 9193SOL    HW239039   2.285   3.267   8.576 -0.2356 -0.0089  0.2350
 9194SOL     OW39040   3.150   2.475   3.524  0.0116 -0.1308 -0.2814
 9194SOL    HW139041   3.149   2.512   3.436 -3.6023  0.9267  0.1801
 9194SOL    HW239042   3.197   2.540   3.575  0.1497 -1.2124  0.9492
 9195SOL     OW39043   3.372   2.799   9.456 -0.1364 -0.0712 -0.1052
 9195SOL    HW139044   3.324   2.881   9.468 -1.4869 -1.1175  1.6093
 9195SOL    HW239045   3.398   2.777   9.546  0.8833 -0.6293 -0.5282
 9196SOL     OW39046   1.436   1.113   8.240 -0.5408  0.6554  0.1443
 9196SOL    HW139047   1.359   1.056   8.244 -0.1272  0.2984  2.9404
 9196SOL    HW239048   1.474   1.073   8.318  2.0910  0.7338 -1.1151
 9197SOL     OW39049   3.555   4.628  13.541 -0.5913 -0.0249 -0.0554
 9197SOL    HW139050   3.512   4.582  13.469 -0.4315  1.0704 -0.8482
 9197SOL    HW239051   3.522   4.571  13.611  1.9775 -0.3733  0.8787
 9198SOL     OW39052   2.840   2.422   3.250 -0.3709 -0.1988 -0.0579
 9198SOL    HW139053   2.752   2.428   3.286 -1.0518 -2.8891 -1.2445
 9198SOL    HW239054   2.846   2.502   3.198 -0.1504 -0.0259  0.2343
 9199SOL     OW39055   2.195   1.430   4.517 -0.6072 -0.2247 -0.0615
 9199SOL    HW139056   2.162   1.458   4.602  1.2947 -1.7100  1.1630
 9199SOL    HW239057   2.192   1.518   4.480 -2.4543 -0.0720  0.4448
 9200SOL     OW39058   3.523   4.177  14.828  0.0508  0.3295 -0.2675
 9200SOL    HW139059   3.612   4.160  14.796 -0.4887 -1.3037 -0.9103
 9200SOL    HW239060   3.489   4.245  14.770 -1.5872 -1.2593 -1.1603
 9201SOL     OW39061   0.802   2.270   5.914 -0.9092  0.0491 -0.1348
 9201SOL    HW139062   0.735   2.339   5.918  0.0836  0.9364  1.0000
 9201SOL    HW239063   0.833   2.283   5.824  0.6030 -1.8093  0.1287
 9202SOL     OW39064   0.755   4.230  12.263 -0.0626  0.0799  0.0875
 9202SOL    HW139065   0.842   4.190  12.257  0.8974  2.0487  0.8507
 9202SOL    HW239066   0.749   4.246  12.357  0.4493 -0.1556  0.1577
 9203SOL     OW39067   0.472   1.870   1.654  0.0570  0.0260 -0.2942
 9203SOL    HW139068   0.557   1.908   1.630 -1.0648  1.9384 -1.2516
 9203SOL    HW239069   0.413   1.882   1.579 -2.6673  2.4516  2.2449
 9204SOL     OW39070   4.447   0.594   8.096 -0.7362 -0.1598 -0.0150
 9204SOL    HW139071   4.488   0.508   8.092 -1.8727 -0.6484 -1.2820
 9204SOL    HW239072   4.492   0.624   8.017 -0.8803 -1.7597 -0.6959
 9205SOL     OW39073   0.561   1.109  14.655  0.1816 -0.0377 -0.2358
 9205SOL    HW139074   0.566   1.056  14.575 -1.8655  0.1342 -0.4612
 9205SOL    HW239075   0.517   1.062  14.725 -1.5287 -0.0298 -1.3086
 9206SOL     OW39076   4.272   4.396   3.229 -0.1490  0.0567 -0.4752
 9206SOL    HW139077   4.221   4.363   3.304  0.0747  0.2736 -0.2295
 9206SOL    HW239078   4.227   4.480   3.223 -1.6091 -0.5379  1.9803
 9207SOL     OW39079   1.017   1.140  13.199 -0.4511  0.1240 -0.7795
 9207SOL    HW139080   0.999   1.199  13.126  3.1630  1.5836 -0.4897
 9207SOL    HW239081   0.989   1.056  13.162 -0.0594 -0.1393 -0.4847
 9208SOL     OW39082   3.562   3.179  10.376 -0.1747 -0.0430  0.0367
 9208SOL    HW139083   3.540   3.136  10.294  0.0078 -1.8408  0.9282
 9208SOL    HW239084   3.636   3.231  10.345 -0.3577  0.1476 -0.0803
 9209SOL     OW39085   3.657   2.198   8.475 -0.3472 -0.4491  0.6352
 9209SOL    HW139086   3.714   2.137   8.523  0.4899 -0.0428  0.1609
 9209SOL    HW239087   3.611   2.227   8.554  1.0939  0.3901  1.1634
 9210SOL     OW39088   3.768   2.469   6.664 -0.0180 -0.2602 -0.4830
 9210SOL    HW139089   3.699   2.421   6.617  0.3561 -2.8406  1.5908
 9210SOL    HW239090   3.771   2.557   6.626  1.5137  0.6669  1.7599
 9211SOL     OW39091   2.293   0.673  17.600 -0.2619  0.1131 -0.3266
 9211SOL    HW139092   2.387   0.666  17.585  0.0484  3.1083  0.3406
 9211SOL    HW239093   2.298   0.756  17.647  1.1118  0.0397 -0.3294
 9212SOL     OW39094   0.639   3.303  10.574 -0.0581 -0.1238 -0.1140
 9212SOL    HW139095   0.711   3.349  10.532  0.8422 -2.1417 -0.7267
 9212SOL    HW239096   0.662   3.314  10.666 -3.8538 -2.4811  1.1205
 9213SOL     OW39097   1.346   2.343  15.980  0.7139 -0.5388  0.6423
 9213SOL    HW139098   1.386   2.421  16.016 -0.2907 -0.0466  0.6947
 9213SOL    HW239099   1.278   2.326  16.045  1.2716 -1.6541  0.9319
 9214SOL     OW39100   0.217   3.764   0.389  0.0821  0.2223  0.1183
 9214SOL    HW139101   0.136   3.722   0.361  0.2035  0.9879 -1.3995
 9214SOL    HW239102   0.274   3.734   0.319  0.0337  1.8205 -0.6131
 9215SOL     OW39103   3.592   0.034   5.816 -0.1252 -0.1172  0.7461
 9215SOL    HW139104   3.623   0.062   5.902  0.9763 -1.9012  0.9328
 9215SOL    HW239105   3.591   0.111   5.759 -1.2535 -0.9363 -0.3470
 9216SOL     OW39106   1.795   4.221   5.773  0.6692  0.2186  0.5851
 9216SOL    HW139107   1.849   4.299   5.772  0.2849  0.4988  1.4133
 9216SOL    HW239108   1.719   4.246   5.721  0.0703 -1.7829  0.4881
 9217SOL     OW39109   3.772   4.653   8.010  0.0098 -0.0835  0.5710
 9217SOL    HW139110   3.797   0.022   8.014  0.2110 -0.1947  1.8255
 9217SOL    HW239111   3.788   4.628   7.919  0.5680 -0.0556  0.6608
 9218SOL     OW39112   0.682   3.819   3.911 -0.8350  0.0468  0.9069
 9218SOL    HW139113   0.668   3.738   3.860 -0.0627  0.9079 -0.6778
 9218SOL    HW239114   0.728   3.874   3.848 -2.1961  2.2447  1.8481
 9219SOL     OW39115   1.692   2.291   3.409  0.5200 -0.7405  0.4465
 9219SOL    HW139116   1.668   2.384   3.413 -0.2010 -0.8794 -0.8017
 9219SOL    HW239117   1.610   2.250   3.435  0.7019  0.5855  3.0959
 9220SOL     OW39118   3.166   4.620  13.889  0.7500  0.1526  0.5779
 9220SOL    HW139119   3.227   4.563  13.936 -0.4378 -0.6602  1.1337
 9220SOL    HW239120   3.094   4.633  13.951  0.3512 -1.9979  0.5390
 9221SOL     OW39121   3.683   2.312  11.361 -0.1189 -0.1435  0.6593
 9221SOL    HW139122   3.772   2.295  11.330  0.4386  0.4342  1.9456
 9221SOL    HW239123   3.652   2.345  11.277  2.6831  2.0780  0.4862
 9222SOL     OW39124   0.728   2.358   3.787 -0.2408  0.2899  0.6923
 9222SOL    HW139125   0.683   2.417   3.727 -1.6244 -0.0500  1.3908
 9222SOL    HW239126   0.785   2.421   3.830  1.0889  0.8585 -1.9154
 9223SOL     OW39127   3.821   1.203   9.414 -0.0178  0.0849 -0.1758
 9223SOL    HW139128   3.821   1.107   9.418 -0.0672  0.0686 -0.6723
 9223SOL    HW239129   3.730   1.215   9.439  0.2646 -0.9663  1.4320
 9224SOL     OW39130   1.276   4.056  12.447 -0.3542 -0.3229 -0.1018
 9224SOL    HW139131   1.319   3.973  12.461 -1.0383 -0.9522 -1.6774
 9224SOL    HW239132   1.209   4.026  12.386  0.1374  0.8947 -1.2558
 9225SOL     OW39133   3.992   2.682   4.718 -0.0667  0.0695 -0.3116
 9225SOL    HW139134   3.930   2.727   4.775  0.6844  1.0394 -0.2727
 9225SOL    HW239135   3.953   2.701   4.633  0.6441 -0.8637 -0.8471
 9226SOL     OW39136   0.119   4.684   9.285  0.7181  0.0243  0.0027
 9226SOL    HW139137   0.029   4.692   9.255 -0.3359  1.7817  3.5827
 9226SOL    HW239138   0.147   0.052   9.289  2.3242 -0.5676  2.9341
 9227SOL     OW39139   1.130   2.759   7.534 -0.3009 -0.2231  0.3557
 9227SOL    HW139140   1.129   2.844   7.491  1.5719 -0.8553 -0.9423
 9227SOL    HW239141   1.139   2.793   7.624  1.0651  0.8063 -0.1667
 9228SOL     OW39142   3.953   1.353   8.854  0.4176 -0.4322 -0.3390
 9228SOL    HW139143   4.048   1.366   8.850  0.6717 -2.1446 -0.1099
 9228SOL    HW239144   3.940   1.360   8.948 -0.5772  0.8706 -0.5829
 9229SOL     OW39145   0.866   1.834   4.264  0.0310  0.1377  0.5823
 9229SOL    HW139146   0.916   1.866   4.189 -0.0444  0.7694  0.8025
 9229SOL    HW239147   0.776   1.839   4.231 -0.2910  1.5479  1.6515
 9230SOL     OW39148   0.724   0.106   8.216 -0.0376  0.4824  0.1595
 9230SOL    HW139149   0.796   0.049   8.243 -0.6622  0.3995  1.6228
 9230SOL    HW239150   0.694   0.062   8.136  1.1376  0.3811 -0.2287
 9231SOL     OW39151   2.657   1.208   5.951  0.0200 -0.2157  0.3632
 9231SOL    HW139152   2.584   1.216   6.013 -2.1162 -0.7392 -2.0825
 9231SOL    HW239153   2.727   1.234   6.011 -0.2668 -0.8637  0.9865
 9232SOL     OW39154   2.882   1.518  12.349 -0.3789  0.7370  0.3916
 9232SOL    HW139155   2.877   1.596  12.405 -0.6862  0.2421  1.0467
 9232SOL    HW239156   2.813   1.532  12.285 -1.1199  0.9771  1.2450
 9233SOL     OW39157   1.925   0.264   2.186 -0.2374 -0.4043 -0.0808
 9233SOL    HW139158   1.950   0.222   2.269  1.0366 -0.2039 -0.3716
 9233SOL    HW239159   1.838   0.297   2.209  1.1199  1.0772  2.8971
 9234SOL     OW39160   3.264   0.043  17.193 -0.4579  0.1822 -0.2566
 9234SOL    HW139161   3.255   0.125  17.242  0.2779 -1.4057  2.5761
 9234SOL    HW239162   3.216   0.064  17.113 -0.2272  0.6214 -0.2803
 9235SOL     OW39163   1.289   2.571   1.914  0.5154  0.2154 -0.7416
 9235SOL    HW139164   1.255   2.625   1.985  0.5180  0.5813 -1.0195
 9235SOL    HW239165   1.246   2.486   1.925  0.1861  0.3339 -1.1604
 9236SOL     OW39166   0.575   0.985   8.618 -0.4455 -0.6461 -0.5112
 9236SOL    HW139167   0.573   0.937   8.535 -2.1718 -2.0214  0.3142
 9236SOL    HW239168   0.634   1.058   8.602  1.5610 -2.0541  0.5221
 9237SOL     OW39169   1.637   4.611  11.312 -0.2765  0.0591  0.4498
 9237SOL    HW139170   1.554   4.620  11.358  0.3210  0.5387  1.4363
 9237SOL    HW239171   1.658   4.519  11.333  0.9227  0.4229  0.8708
 9238SOL     OW39172   2.599   2.581  10.877 -0.6500  0.2740  0.5748
 9238SOL    HW139173   2.586   2.573  10.782  3.3806 -2.4145  0.2485
 9238SOL    HW239174   2.694   2.589  10.881 -0.6582  1.0142 -0.7125
 9239SOL     OW39175   3.912   0.528  16.297  0.4171 -0.0434  0.3133
 9239SOL    HW139176   3.826   0.555  16.263 -0.7367 -2.8612  0.9687
 9239SOL    HW239177   3.889   0.442  16.332  0.2302  0.6727  1.9421
 9240SOL     OW39178   4.143   2.409   5.307 -0.0548 -0.7518 -0.1868
 9240SOL    HW139179   4.059   2.376   5.338  0.5327 -0.8885  1.2422
 9240SOL    HW239180   4.162   2.480   5.368  2.0584 -0.7681 -0.8186
 9241SOL     OW39181   1.810   3.036  12.918  0.5776  0.1557  0.2438
 9241SOL    HW139182   1.772   2.954  12.887  0.4370  0.3149 -0.0090
 9241SOL    HW239183   1.899   3.007  12.937  0.6159  0.8463  1.1144
 9242SOL     OW39184   1.246   3.458   5.866 -0.6746 -0.2591  0.1911
 9242SOL    HW139185   1.200   3.491   5.789 -2.0615  1.8144  1.9273
 9242SOL    HW239186   1.326   3.427   5.823 -0.8833  1.5281 -1.5020
 9243SOL     OW39187   3.440   1.774   9.308  0.2278  0.0972 -0.4906
 9243SOL    HW139188   3.522   1.735   9.339 -0.4467 -2.2280 -1.5890
 9243SOL    HW239189   3.478   1.861   9.318  0.3249  0.5582 -4.6200
 9244SOL     OW39190   3.116   4.022   8.776 -0.1358  0.5384  0.3547
 9244SOL    HW139191   3.121   3.929   8.758  0.9684  0.8130 -0.7782
 9244SOL    HW239192   3.042   4.027   8.837  0.9508 -0.2372  1.7411
 9245SOL     OW39193   3.215   4.605   6.484 -0.2250 -0.6095 -0.8066
 9245SOL    HW139194   3.151   4.636   6.548  0.6952  0.7373 -0.5379
 9245SOL    HW239195   3.204   4.510   6.493  2.8665 -0.7003  1.8431
 9246SOL     OW39196   0.108   2.148   2.750 -0.3403 -0.8768  0.4941
 9246SOL    HW139197   0.150   2.191   2.676 -0.9060 -0.2165  0.5540
 9246SOL    HW239198   0.067   2.228   2.783 -1.5578 -0.2899 -2.5527
 9247SOL     OW39199   2.366   3.667  17.652  0.3813  0.3985 -0.2165
 9247SOL    HW139200   2.417   3.740  17.686  0.3981  0.7085 -0.8934
 9247SOL    HW239201   2.305   3.653   0.026  0.5735  1.1595  0.0961
 9248SOL     OW39202   4.659   0.703  15.256  0.6984  0.0016  0.3500
 9248SOL    HW139203   4.666   0.796  15.277  0.6408  0.2029 -0.5330
 9248SOL    HW239204   4.564   0.688  15.256  0.8912 -1.1836  0.3502
 9249SOL     OW39205   2.109   1.278  10.321 -0.0463  0.2524  0.1716
 9249SOL    HW139206   2.147   1.316  10.242  2.5336 -0.7129  0.9618
 9249SOL    HW239207   2.016   1.273  10.298  0.2362 -1.0165 -0.7245
 9250SOL     OW39208   1.627   0.576   6.470 -0.4521  0.1173 -0.2061
 9250SOL    HW139209   1.699   0.533   6.423  1.2463  2.4767  0.1896
 9250SOL    HW239210   1.680   0.635   6.524 -1.1415 -0.7009  1.3772
 9251SOL     OW39211   1.437   1.012  10.851 -0.1831  0.1964 -0.4425
 9251SOL    HW139212   1.424   0.993  10.944  2.5168 -2.9583 -0.7141
 9251SOL    HW239213   1.519   0.964  10.844 -0.2251 -0.1423  1.3877
 9252SOL     OW39214   3.148   3.447   5.154  0.5036  0.5062  0.3942
 9252SOL    HW139215   3.190   3.518   5.106  2.0245 -0.4072  0.3653
 9252SOL    HW239216   3.140   3.391   5.076 -0.8465  0.0016  0.8876
 9253SOL     OW39217   0.904   3.501   0.431  0.2865  0.2704  0.1075
 9253SOL    HW139218   0.853   3.572   0.470 -0.1460  0.2575 -0.4337
 9253SOL    HW239219   0.837   3.435   0.411  1.7403 -1.3830  0.7400
 9254SOL     OW39220   4.072   4.612   6.852  0.4977  0.2209  0.1231
 9254SOL    HW139221   4.158   4.588   6.886  1.4223  2.5650 -0.5555
 9254SOL    HW239222   4.010   4.562   6.905 -0.0688 -0.5628 -1.3054
 9255SOL     OW39223   3.457   0.747   7.353 -0.2691 -0.3511 -0.7983
 9255SOL    HW139224   3.477   0.795   7.272 -0.7040  2.8411  0.9818
 9255SOL    HW239225   3.484   0.662   7.317  1.5623 -0.9582  2.0061
 9256SOL     OW39226   1.693   3.683  17.449  0.6762 -0.1951 -0.4216
 9256SOL    HW139227   1.706   3.605  17.395 -0.3335  0.0096 -0.9642
 9256SOL    HW239228   1.749   3.669  17.525  0.2597 -0.2588 -0.1281
 9257SOL     OW39229   3.144   2.630   5.078 -0.2309 -0.5143 -0.5266
 9257SOL    HW139230   3.213   2.661   5.135 -0.3961  2.9338 -2.1838
 9257SOL    HW239231   3.066   2.652   5.130  1.9370  1.3207  1.9276
 9258SOL     OW39232   2.126   0.593  13.553  0.5979 -0.4477  0.4249
 9258SOL    HW139233   2.131   0.689  13.547  1.3780 -0.4163  1.5050
 9258SOL    HW239234   2.035   0.577  13.580  0.5553 -0.4693  0.2687
 9259SOL     OW39235   3.603   3.643   3.362  0.2847 -0.3405 -0.0060
 9259SOL    HW139236   3.650   3.705   3.418 -1.8641  2.2068 -1.0003
 9259SOL    HW239237   3.556   3.701   3.301 -0.5292 -1.4531 -0.4456
 9260SOL     OW39238   3.554   0.058   5.159  0.0561 -0.0785  0.0646
 9260SOL    HW139239   3.482   0.077   5.098  0.6511 -1.5033 -1.0714
 9260SOL    HW239240   3.502   0.004   5.217 -0.4008 -0.8354 -1.0424
 9261SOL     OW39241   1.311   4.376   0.019  0.1457 -0.3315 -1.0672
 9261SOL    HW139242   1.304   4.345   0.109 -1.1502 -0.1552 -1.1016
 9261SOL    HW239243   1.406   4.370   0.010 -0.0950 -4.4823 -0.8296
 9262SOL     OW39244   0.091   2.539   2.818  0.5291 -0.2901 -0.1932
 9262SOL    HW139245   0.145   2.572   2.745 -2.5911  2.2297 -1.3826
 9262SOL    HW239246   0.061   2.622   2.856 -1.2391 -0.3485 -1.4721
 9263SOL     OW39247   4.571   4.249   7.461 -0.3251 -0.3168  0.3862
 9263SOL    HW139248   4.606   4.266   7.374  0.3813  2.9989  1.3301
 9263SOL    HW239249   4.516   4.174   7.439 -0.2544 -0.1793 -0.2478
 9264SOL     OW39250   2.343   2.707  15.679  0.3124  1.0782 -0.0951
 9264SOL    HW139251   2.394   2.642  15.631 -0.2714 -1.0303  2.1241
 9264SOL    HW239252   2.278   2.734  15.615  2.2621 -0.5853 -2.7555
 9265SOL     OW39253   2.782   0.198   7.982  0.2659 -0.5014  0.4082
 9265SOL    HW139254   2.753   0.273   7.931 -0.0858 -1.5720 -0.9580
 9265SOL    HW239255   2.855   0.238   8.029 -0.1299  1.0889 -0.3485
 9266SOL     OW39256   2.733   1.595  15.419  0.2580  0.2594  0.2560
 9266SOL    HW139257   2.695   1.580  15.332  3.2785 -2.3047 -0.6604
 9266SOL    HW239258   2.826   1.597  15.393  0.2712  0.2334  0.3016
 9267SOL     OW39259   1.600   3.798  13.507 -0.2358 -0.3163 -0.1859
 9267SOL    HW139260   1.615   3.738  13.434  3.5305 -0.7191  0.9400
 9267SOL    HW239261   1.675   3.856  13.508  1.6353 -2.7332 -0.5632
 9268SOL     OW39262   1.902   0.420  15.305  0.0697 -0.6039  0.0638
 9268SOL    HW139263   1.877   0.399  15.215  1.5826 -0.8822 -0.2761
 9268SOL    HW239264   1.817   0.406  15.346  0.6704  0.8991  1.8385
 9269SOL     OW39265   2.219   4.266   6.781 -0.1256 -0.0426 -0.5535
 9269SOL    HW139266   2.311   4.252   6.758  0.4907  0.6516  1.5233
 9269SOL    HW239267   2.182   4.287   6.695  0.9426  2.2125 -0.4655
 9270SOL     OW39268   3.533   4.120   4.130 -0.2547  0.1353  0.4470
 9270SOL    HW139269   3.463   4.171   4.089 -0.6955 -0.2204  0.7661
 9270SOL    HW239270   3.571   4.080   4.052 -0.0126  0.2875  0.4864
 9271SOL     OW39271   1.773   4.577   7.799  0.5616  0.1394  0.6088
 9271SOL    HW139272   1.806   4.488   7.812  1.8561  0.3628 -1.0966
 9271SOL    HW239273   1.829   4.624   7.861  1.4946  0.5109 -0.5116
 9272SOL     OW39274   1.393   3.770   0.207  0.2940  0.4105 -0.2043
 9272SOL    HW139275   1.396   3.678   0.178 -1.0843  1.1385 -2.6493
 9272SOL    HW239276   1.462   3.813   0.158  1.9385  1.3072  2.8698
 9273SOL     OW39277   1.560   0.513   7.569  0.1266 -0.2998  0.1924
 9273SOL    HW139278   1.567   0.564   7.649  0.4855  1.0189 -0.6935
 9273SOL    HW239279   1.573   0.421   7.593 -0.8971  0.3374  3.1590
 9274SOL     OW39280   1.207   4.669  10.593  0.0362 -0.2130 -0.4156
 9274SOL    HW139281   1.222   0.014  10.658  0.5780  0.3842 -1.1723
 9274SOL    HW239282   1.284   4.619  10.619 -0.7301 -1.0307  0.2447
 9275SOL     OW39283   1.528   3.620  12.700  0.1409  0.2702  0.3220
 9275SOL    HW139284   1.521   3.542  12.645  0.1802  1.7930 -1.8742
 9275SOL    HW239285   1.486   3.591  12.781  0.2588 -0.0329  0.2728
 9276SOL     OW39286   1.435   2.834   0.330  0.4697  0.1713  0.4457
 9276SOL    HW139287   1.350   2.872   0.351  0.4432  0.6408 -0.5067
 9276SOL    HW239288   1.425   2.832   0.235 -1.7758  2.7209  0.6280
 9277SOL     OW39289   4.442   2.429   8.609  0.3714  0.4684  0.0866
 9277SOL    HW139290   4.532   2.446   8.582  1.0315  0.7807  2.5616
 9277SOL    HW239291   4.393   2.477   8.541  0.8950 -2.2290 -2.2099
 9278SOL     OW39292   1.723   0.651  13.819 -0.4756 -0.2510 -0.2652
 9278SOL    HW139293   1.648   0.600  13.848 -0.8989 -0.0631 -1.0343
 9278SOL    HW239294   1.749   0.686  13.904  0.2315  1.7667 -1.3078
 9279SOL     OW39295   0.982   0.482  11.297 -0.1077 -0.2657  0.8108
 9279SOL    HW139296   0.935   0.425  11.236  2.0431 -0.6101 -0.5244
 9279SOL    HW239297   0.951   0.446  11.380  1.1944  0.2534  1.5310
 9280SOL     OW39298   2.796   0.359   4.524  0.7111 -0.2519  0.4132
 9280SOL    HW139299   2.812   0.379   4.432  0.8344  1.8731  0.8941
 9280SOL    HW239300   2.750   0.277   4.511  1.1183 -0.8259  2.5795
 9281SOL     OW39301   4.626   3.782  10.736 -0.0217 -0.3979 -0.6534
 9281SOL    HW139302   4.656   3.831  10.660  2.0776  1.2081  1.2144
 9281SOL    HW239303   4.596   3.697  10.703 -0.9286 -1.1996  2.2467
 9282SOL     OW39304   1.627   2.980   4.640 -0.3708  0.0341 -0.5719
 9282SOL    HW139305   1.640   2.948   4.550 -0.7893 -1.0165 -0.2519
 9282SOL    HW239306   1.720   2.972   4.662 -0.1290  0.1301 -1.5589
 9283SOL     OW39307   2.695   1.364   4.771  0.3479 -0.3735  0.0376
 9283SOL    HW139308   2.693   1.450   4.813  0.2056 -0.1797 -0.3724
 9283SOL    HW239309   2.764   1.374   4.705 -2.8700  0.6532 -3.1478
 9284SOL     OW39310   3.299   3.727   1.297  0.4446  0.0349 -0.0617
 9284SOL    HW139311   3.266   3.651   1.345 -1.3659  0.5794 -0.4602
 9284SOL    HW239312   3.384   3.746   1.339 -0.4414 -0.9661  2.2087
 9285SOL     OW39313   1.814   1.605  15.142  0.1618 -0.2856  0.0852
 9285SOL    HW139314   1.852   1.667  15.205  0.7867  0.5288 -1.1077
 9285SOL    HW239315   1.722   1.623  15.124 -0.2349 -1.9112  0.4880
 9286SOL     OW39316   0.087   3.594   6.821  0.8268 -0.4182 -0.0231
 9286SOL    HW139317   0.050   3.506   6.819  1.6425 -0.7971  0.8659
 9286SOL    HW239318   0.181   3.575   6.820  1.2051  1.3026  1.6654
 9287SOL     OW39319   1.600   2.056   1.618  0.0824  0.5152 -0.1228
 9287SOL    HW139320   1.645   2.140   1.612  1.1737  0.0169  1.1873
 9287SOL    HW239321   1.665   1.986   1.615 -1.0364 -0.6098  1.2508
 9288SOL     OW39322   3.322   4.308   9.313 -0.2463 -0.1039 -0.1868
 9288SOL    HW139323   3.377   4.230   9.316  0.4441  0.5012  2.7309
 9288SOL    HW239324   3.366   4.354   9.241 -2.7668 -1.3954 -2.5480
 9289SOL     OW39325   3.646   1.346   4.807 -0.1476 -0.6620  0.3838
 9289SOL    HW139326   3.556   1.315   4.797 -0.7401  0.8342  1.2033
 9289SOL    HW239327   3.676   1.322   4.719  3.3258 -0.0271  1.4077
 9290SOL     OW39328   1.054   1.716   6.098 -0.7066 -0.1140  0.0859
 9290SOL    HW139329   1.062   1.650   6.030 -0.4014 -0.8805  0.8611
 9290SOL    HW239330   0.963   1.709   6.128 -1.2277  2.0122 -1.0120
 9291SOL     OW39331   3.296   4.489   8.265 -0.5479 -0.3757  0.3109
 9291SOL    HW139332   3.255   4.403   8.273 -0.3402 -0.7436 -2.5170
 9291SOL    HW239333   3.368   4.479   8.328 -0.0843  0.8037 -0.0239
 9292SOL     OW39334   0.078   0.631   2.816 -0.0290 -0.5012 -0.0102
 9292SOL    HW139335   0.143   0.568   2.846 -1.4237 -0.0193  4.0512
 9292SOL    HW239336   0.139   0.687   2.768  0.3326  0.5362  1.6529
 9293SOL     OW39337   2.624   0.036   3.881 -0.3401  0.5802 -0.4546
 9293SOL    HW139338   2.535   0.059   3.853 -1.3140 -1.2517  1.1152
 9293SOL    HW239339   2.615   4.665   3.878  0.7510  0.4716 -0.3570
 9294SOL     OW39340   3.363   3.918   7.962  0.5345  0.0032  0.3079
 9294SOL    HW139341   3.287   3.883   8.009  0.1706  0.1079 -0.2049
 9294SOL    HW239342   3.360   4.011   7.987 -0.9451  0.0803 -0.1139
 9295SOL     OW39343   2.273   4.041   8.980  0.2052 -0.2106  0.4339
 9295SOL    HW139344   2.269   3.947   8.995 -0.3614 -0.1016  0.9961
 9295SOL    HW239345   2.364   4.050   9.008  0.0946 -1.4874  1.2031
 9296SOL     OW39346   3.527   4.368  14.641 -0.4195 -0.3103 -0.0492
 9296SOL    HW139347   3.607   4.411  14.670 -0.2785  1.5304 -3.1029
 9296SOL    HW239348   3.551   4.300  14.578 -0.9192 -2.2553  1.8639
 9297SOL     OW39349   3.338   3.085   1.663  0.3595 -0.1161 -0.1242
 9297SOL    HW139350   3.324   3.109   1.754 -0.1951 -1.6424  0.1871
 9297SOL    HW239351   3.265   3.024   1.655 -0.0358  0.3322  0.0250
 9298SOL     OW39352   2.339   2.382  12.598  0.5437  0.3672  0.1799
 9298SOL    HW139353   2.370   2.468  12.570 -1.4332  0.2083 -2.4417
 9298SOL    HW239354   2.408   2.352  12.658  1.8671  1.9559 -0.5475
 9299SOL     OW39355   2.088   4.723  13.429 -0.1767 -0.3179 -0.2909
 9299SOL    HW139356   2.052   4.685  13.349 -2.5383 -3.1694  2.1248
 9299SOL    HW239357   2.108   0.089  13.404  0.4414  0.3324  2.5602
 9300SOL     OW39358   1.357   2.411  10.739 -0.0645 -0.2163  0.4434
 9300SOL    HW139359   1.386   2.338  10.793  0.4605 -0.1532  0.2408
 9300SOL    HW239360   1.309   2.371  10.666  1.4613 -1.7885  0.3265
 9301SOL     OW39361   4.658   1.255  14.908 -0.1775  0.2178  0.3033
 9301SOL    HW139362   4.565   1.258  14.887 -0.0903 -0.1278 -0.1263
 9301SOL    HW239363   4.681   1.165  14.882  0.3155  0.7603 -1.1213
 9302SOL     OW39364   4.680   1.653   7.210  0.0933  0.0631  0.5990
 9302SOL    HW139365   4.694   1.738   7.169 -0.1485 -0.8830 -1.4266
 9302SOL    HW239366   4.695   1.596   7.135 -0.3796  2.0910 -1.0092
 9303SOL     OW39367   0.754   2.828   6.527 -0.0627 -0.2022 -0.7348
 9303SOL    HW139368   0.679   2.783   6.565 -1.3661  2.3468 -0.3153
 9303SOL    HW239369   0.829   2.792   6.575 -1.6494 -0.8614  1.2092
 9304SOL     OW39370   2.524   3.038   2.329  0.1082 -0.0071  0.2710
 9304SOL    HW139371   2.608   3.079   2.348 -0.0444  0.4642 -0.0725
 9304SOL    HW239372   2.548   3.001   2.244 -1.2025 -2.0282  0.7783
 9305SOL     OW39373   3.108   2.062   2.374  0.6690  0.2128  0.2466
 9305SOL    HW139374   3.161   2.135   2.342  0.5132  1.3000  2.5062
 9305SOL    HW239375   3.124   1.998   2.305  0.8232  0.7373 -0.2042
 9306SOL     OW39376   4.223   2.454   1.110 -0.0420 -0.6929  0.1154
 9306SOL    HW139377   4.310   2.483   1.139 -0.6544 -0.4793  1.7617
 9306SOL    HW239378   4.167   2.512   1.161 -0.7870 -0.1326 -1.3503
 9307SOL     OW39379   0.534   1.699   5.663  0.0810  0.2150 -0.2251
 9307SOL    HW139380   0.534   1.616   5.617  1.8857  0.1373 -0.0828
 9307SOL    HW239381   0.444   1.705   5.695 -0.0329  0.6133 -0.6132
 9308SOL     OW39382   4.223   0.359   0.650  0.3771 -0.7820  0.3399
 9308SOL    HW139383   4.316   0.362   0.627  0.3140  2.3669  0.5165
 9308SOL    HW239384   4.201   0.279   0.602 -0.1296 -0.4888  0.0990
 9309SOL     OW39385   3.313   3.296   7.877  0.2481  0.4432  0.5450
 9309SOL    HW139386   3.229   3.304   7.922  1.4834 -0.7772  3.0658
 9309SOL    HW239387   3.334   3.385   7.851  0.0644  0.9539  2.1469
 9310SOL     OW39388   2.433   1.246   7.179 -0.3863  0.7842  0.0396
 9310SOL    HW139389   2.493   1.320   7.167  1.0441 -0.6028 -1.2971
 9310SOL    HW239390   2.435   1.212   7.090 -0.1127  0.1391  0.2890
 9311SOL     OW39391   3.040   4.649   5.124  0.4175  0.2687 -0.3895
 9311SOL    HW139392   3.082   4.652   5.210 -0.3105  1.4127 -0.0730
 9311SOL    HW239393   3.029   0.019   5.107  2.9223  0.0270 -3.3266
 9312SOL     OW39394   1.412   2.439   5.060 -0.6939 -1.0534  0.6375
 9312SOL    HW139395   1.460   2.357   5.049  1.3645  0.4345 -1.7099
 9312SOL    HW239396   1.325   2.408   5.084 -1.6554  2.5001  1.7979
 9313SOL     OW39397   1.702   1.937   6.627 -0.3027  0.2998 -0.1453
 9313SOL    HW139398   1.745   2.022   6.621  3.2802 -1.5500 -0.0842
 9313SOL    HW239399   1.721   1.903   6.540 -0.5070  0.2448 -0.1688
 9314SOL     OW39400   3.121   3.191   3.484 -0.6337  0.3323 -0.6878
 9314SOL    HW139401   3.043   3.150   3.446 -1.1486 -1.3379  2.2259
 9314SOL    HW239402   3.181   3.128   3.445  0.4781 -0.6316  2.6013
 9315SOL     OW39403   1.353   0.524  14.232 -0.0616  0.0649  0.0773
 9315SOL    HW139404   1.310   0.449  14.191  0.3189 -0.1919  0.1388
 9315SOL    HW239405   1.292   0.545  14.303 -0.4021  0.6900 -0.4074
 9316SOL     OW39406   1.123   0.336  10.915 -0.8413  0.2322  0.2328
 9316SOL    HW139407   1.106   0.403  10.850 -1.1911 -0.3709 -0.2973
 9316SOL    HW239408   1.046   0.342  10.973 -1.6710  1.1806 -0.9821
 9317SOL     OW39409   0.042   3.230  11.418  0.8498 -0.0364  0.2055
 9317SOL    HW139410   4.702   3.240  11.348  1.0064 -1.0365 -0.0822
 9317SOL    HW239411   0.024   3.141  11.448  1.5471  0.2367  1.4015
 9318SOL     OW39412   4.634   0.806   5.697  0.8078 -0.1064  0.1164
 9318SOL    HW139413   4.717   0.796   5.745  1.3002 -0.8573 -0.8874
 9318SOL    HW239414   4.619   0.900   5.684  1.8760 -0.2520 -2.2147
 9319SOL     OW39415   1.460   1.560   2.855  0.0890  0.2067  0.3657
 9319SOL    HW139416   1.514   1.498   2.904  0.0747 -0.1488 -0.0684
 9319SOL    HW239417   1.499   1.645   2.876 -2.5753  1.4176  0.4154
 9320SOL     OW39418   4.261   3.548  17.303 -0.1170 -0.2991  0.1623
 9320SOL    HW139419   4.324   3.620  17.295 -0.4980  0.2378  1.8656
 9320SOL    HW239420   4.293   3.481  17.243  3.3451  0.7463  0.8652
 9321SOL     OW39421   0.459   3.267   7.515  0.2130  0.9049  0.3795
 9321SOL    HW139422   0.472   3.182   7.472  3.3784  1.3380  0.4751
 9321SOL    HW239423   0.553   3.276   7.534 -0.0864  0.9177  1.8682
 9322SOL     OW39424   3.878   0.842   7.501  0.3843 -0.6841 -0.6092
 9322SOL    HW139425   3.840   0.929   7.517  0.2886 -0.3583 -2.5841
 9322SOL    HW239426   3.895   0.849   7.407  0.0293  0.7138 -0.5780
 9323SOL     OW39427   2.232   0.326   6.162  0.3643 -0.3726 -0.2492
 9323SOL    HW139428   2.181   0.315   6.082 -1.1059 -0.6606  0.7346
 9323SOL    HW239429   2.320   0.335   6.127  0.2810 -1.4466 -0.7138
 9324SOL     OW39430   2.113   0.352   1.625 -0.3911  0.3425 -0.8504
 9324SOL    HW139431   2.121   0.301   1.706  2.3340  0.7089 -0.8899
 9324SOL    HW239432   2.144   0.289   1.561  2.7150 -0.8081  1.8222
 9325SOL     OW39433   3.384   2.712   5.225  0.1181 -0.5871  0.1413
 9325SOL    HW139434   3.388   2.796   5.271 -1.7398  0.3323 -1.4078
 9325SOL    HW239435   3.448   2.659   5.273  2.1982  0.5370 -1.4141
 9326SOL     OW39436   4.211   2.589   2.815  0.4510  0.3921 -0.2731
 9326SOL    HW139437   4.305   2.591   2.796  0.1106 -0.5938 -2.0808
 9326SOL    HW239438   4.183   2.536   2.740 -0.7945  0.0890  0.4078
 9327SOL     OW39439   2.945   2.832  10.615  0.0320 -0.2479  0.5676
 9327SOL    HW139440   2.925   2.903  10.675  0.1259  0.1677  0.1048
 9327SOL    HW239441   2.874   2.848  10.554 -0.2896  0.5387  1.1492
 9328SOL     OW39442   4.407   3.795   6.993  0.3431  0.1753 -0.3265
 9328SOL    HW139443   4.359   3.876   6.977  0.6920  0.6424  1.0110
 9328SOL    HW239444   4.490   3.825   7.029 -0.4906  2.8939 -0.6557
 9329SOL     OW39445   4.218   0.822   4.157  0.1400  0.4077  0.0214
 9329SOL    HW139446   4.234   0.915   4.145  1.2297  0.1616 -0.3883
 9329SOL    HW239447   4.303   0.788   4.185 -0.5891 -1.1280  0.3668
 9330SOL     OW39448   3.097   0.130  13.754 -0.2125  0.9766 -0.0874
 9330SOL    HW139449   3.072   0.082  13.675 -0.6684 -1.2205  1.3814
 9330SOL    HW239450   3.123   0.053  13.805 -1.3756 -0.0651 -1.0421
 9331SOL     OW39451   0.717   0.389  11.442 -0.0202  0.4442  0.1600
 9331SOL    HW139452   0.635   0.341  11.456  0.1970 -0.6335 -2.3703
 9331SOL    HW239453   0.683   0.479  11.436 -1.1480  0.1319  1.6599
 9332SOL     OW39454   0.612   0.764   6.613 -0.3267 -0.4574 -0.3943
 9332SOL    HW139455   0.694   0.728   6.648 -0.5366 -0.4864  0.0636
 9332SOL    HW239456   0.551   0.750   6.686 -0.4432  0.4515 -0.3229
 9333SOL     OW39457   2.462   3.994   8.656 -0.4263  0.2982 -0.1700
 9333SOL    HW139458   2.513   4.049   8.715  0.5054  0.4679 -1.1399
 9333SOL    HW239459   2.446   4.059   8.587 -1.4838  0.1734 -0.0512
 9334SOL     OW39460   0.543   3.985   3.590 -0.0622  0.1712  0.0136
 9334SOL    HW139461   0.605   3.913   3.581 -1.4277 -1.2199  1.6956
 9334SOL    HW239462   0.522   3.995   3.498  0.1115  0.4366  0.0014
 9335SOL     OW39463   0.501   3.601   2.980 -0.1228  0.1465 -0.2283
 9335SOL    HW139464   0.548   3.684   2.978  1.0553 -0.5339 -1.4254
 9335SOL    HW239465   0.484   3.581   2.888  0.3070  0.7790 -0.4392
 9336SOL     OW39466   4.093   1.849   7.496 -0.0977  0.6709 -0.4249
 9336SOL    HW139467   4.035   1.811   7.430  0.5306  0.3356 -0.7782
 9336SOL    HW239468   4.175   1.852   7.447  0.9453 -0.3824  1.2303
 9337SOL     OW39469   4.714   0.080   5.340 -0.2443  0.1179  0.4035
 9337SOL    HW139470   0.004   0.168   5.303 -2.4294  0.4352  0.2950
 9337SOL    HW239471   0.074   0.041   5.316  0.5647  1.1435  1.5584
 9338SOL     OW39472   3.664   2.740   0.297  0.5007 -0.0960  0.1655
 9338SOL    HW139473   3.752   2.715   0.271  0.3011 -2.1556  1.4167
 9338SOL    HW239474   3.667   2.787   0.381 -0.0712  0.2968 -0.0312
 9339SOL     OW39475   0.954   0.104   6.619  0.5813  0.0480 -0.0840
 9339SOL    HW139476   0.930   0.032   6.561  0.1965 -0.7224  1.0410
 9339SOL    HW239477   0.988   0.058   6.695 -0.3080  0.8001  0.7740
 9340SOL     OW39478   4.358   1.375  14.645  0.5298  0.4821 -0.5085
 9340SOL    HW139479   4.328   1.380  14.555 -1.7847 -0.8844  0.2088
 9340SOL    HW239480   4.431   1.437  14.649 -0.6044  1.6216  2.3212
 9341SOL     OW39481   4.045   3.407   5.525  0.1530 -0.0417  0.5204
 9341SOL    HW139482   3.984   3.361   5.583  0.8813  0.1474  1.4487
 9341SOL    HW239483   4.116   3.346   5.507 -0.0316 -0.2059  0.3488
 9342SOL     OW39484   3.464   3.867  12.933 -0.1546 -0.0578 -0.4317
 9342SOL    HW139485   3.521   3.858  12.856  1.2567  0.2922  0.5859
 9342SOL    HW239486   3.423   3.782  12.919 -1.4802  0.4101  0.6968
 9343SOL     OW39487   1.802   1.237   4.305 -0.1583 -0.0800  0.2274
 9343SOL    HW139488   1.832   1.246   4.214  2.2680  1.8882  1.2044
 9343SOL    HW239489   1.887   1.239   4.349  0.1840 -0.9182 -0.3954
 9344SOL     OW39490   3.320   1.375  10.549 -0.1794 -0.3951 -0.0011
 9344SOL    HW139491   3.277   1.318  10.486  2.1639 -1.4869 -0.5971
 9344SOL    HW239492   3.410   1.372  10.518 -0.5981 -3.1209 -0.9748
 9345SOL     OW39493   0.292   2.858   7.573  0.5024  0.2596  0.4239
 9345SOL    HW139494   0.253   2.777   7.607 -0.7976  1.4270  1.6944
 9345SOL    HW239495   0.218   2.896   7.526  0.9097 -0.5687 -0.8958
 9346SOL     OW39496   0.051   2.961  17.635 -0.1554  0.1722 -0.4427
 9346SOL    HW139497   0.056   3.057  17.627 -0.9999  0.3515  1.2390
 9346SOL    HW239498   0.142   2.941  17.616  0.0196 -0.4315  1.0905
 9347SOL     OW39499   2.802   2.268  15.518  0.0251 -0.0830 -0.2979
 9347SOL    HW139500   2.849   2.224  15.589  0.4953  0.2524 -0.4015
 9347SOL    HW239501   2.876   2.308  15.471  1.1790 -1.9544 -0.1178
 9348SOL     OW39502   2.471   0.045   2.440  0.4539  1.1715 -0.0862
 9348SOL    HW139503   2.488   0.125   2.489 -2.8375  0.8511  1.6098
 9348SOL    HW239504   2.480   0.065   2.347 -0.3622  0.6255 -0.2851
 9349SOL     OW39505   3.032   2.340   6.076 -0.5204 -0.0229 -0.4279
 9349SOL    HW139506   3.091   2.297   6.137 -1.6804  0.7047  1.2145
 9349SOL    HW239507   2.950   2.294   6.094  2.3102 -3.1142  4.4014
 9350SOL     OW39508   1.209   3.454   7.553  0.3295 -0.3777 -0.1230
 9350SOL    HW139509   1.139   3.433   7.614 -1.8041  1.1923 -2.0337
 9350SOL    HW239510   1.269   3.495   7.616  0.0358 -1.9130  1.1635
 9351SOL     OW39511   0.545   2.154   4.965 -0.1705 -0.2670  0.6645
 9351SOL    HW139512   0.554   2.067   5.004  1.4925 -0.1126  0.6214
 9351SOL    HW239513   0.468   2.147   4.908 -1.2036  0.0989  2.0189
 9352SOL     OW39514   0.131   1.210   5.398  0.1410  0.0361 -0.0501
 9352SOL    HW139515   0.091   1.163   5.472  2.2838 -0.2681  0.9127
 9352SOL    HW239516   0.057   1.264   5.370 -0.9776 -1.1190  0.6606
 9353SOL     OW39517   0.874   4.491   0.215  0.6506  0.5082  0.4281
 9353SOL    HW139518   0.888   4.440   0.294 -0.1195  1.3362  1.1073
 9353SOL    HW239519   0.965   4.505   0.188  1.2096 -0.7066  1.7229
 9354SOL     OW39520   1.909   0.527   6.041 -0.4335  0.1823 -0.1079
 9354SOL    HW139521   1.956   0.449   6.013 -0.4611  0.1159  0.0334
 9354SOL    HW239522   1.878   0.570   5.961 -2.2760 -1.7307 -0.4365
 9355SOL     OW39523   1.898   4.589   5.325 -0.3893 -0.2284  0.4232
 9355SOL    HW139524   1.836   4.539   5.271  0.8453 -0.5321 -0.7185
 9355SOL    HW239525   1.976   4.589   5.270  0.5141  0.5195  1.6993
 9356SOL     OW39526   0.062   2.104   3.318 -0.0918  0.1812 -0.2272
 9356SOL    HW139527   0.035   2.194   3.299 -1.8731 -0.2534  0.2434
 9356SOL    HW239528   4.700   2.063   3.324 -0.6688  1.3688 -0.3981
 9357SOL     OW39529   1.517   2.874   2.527  0.4990  0.1562  0.1783
 9357SOL    HW139530   1.427   2.886   2.556 -0.6499 -2.5077 -2.2667
 9357SOL    HW239531   1.544   2.965   2.514 -2.1454  1.2465  2.2115
 9358SOL     OW39532   2.968   1.941   3.482 -0.2930 -0.1516  0.4650
 9358SOL    HW139533   3.008   2.018   3.442  0.9995  0.0785  2.2462
 9358SOL    HW239534   2.941   1.976   3.566 -1.2127  0.4131 -0.0566
 9359SOL     OW39535   3.164   3.395   6.630  0.2157  0.1772  0.5000
 9359SOL    HW139536   3.106   3.368   6.701  1.2656 -0.0893  1.2536
 9359SOL    HW239537   3.102   3.393   6.557 -1.5259  2.1994  1.8904
 9360SOL     OW39538   1.327   1.462   5.695  0.5557 -0.2166  0.3777
 9360SOL    HW139539   1.384   1.446   5.771  1.2172  0.9313  0.1363
 9360SOL    HW239540   1.359   1.388   5.643 -0.3002  0.9202 -1.7742
 9361SOL     OW39541   0.561   1.539   3.403 -0.0506 -0.7941 -0.3638
 9361SOL    HW139542   0.644   1.579   3.377  0.1672 -1.8780 -1.3011
 9361SOL    HW239543   0.508   1.615   3.376 -1.0996 -0.3384  2.9677
 9362SOL     OW39544   2.310   4.225  14.084  0.0541 -0.5524  0.0935
 9362SOL    HW139545   2.236   4.279  14.058 -0.5407  0.0487  3.0517
 9362SOL    HW239546   2.245   4.158  14.106 -1.1484  0.3520 -0.6791
 9363SOL     OW39547   3.075   3.810   9.075 -0.2508  0.0086 -0.3084
 9363SOL    HW139548   3.048   3.719   9.069 -1.4463  0.3531 -0.1164
 9363SOL    HW239549   3.131   3.807   9.152  1.2375  0.0808 -1.3788
 9364SOL     OW39550   3.462   2.937   4.433 -0.2251 -0.5529 -0.3466
 9364SOL    HW139551   3.384   2.951   4.380  0.5839  0.5199 -1.2484
 9364SOL    HW239552   3.445   2.851   4.471  0.0323 -0.4308  0.0410
 9365SOL     OW39553   3.642   2.490   2.507 -0.4063 -0.1882 -0.3195
 9365SOL    HW139554   3.728   2.500   2.466  0.7584  0.6727  2.3063
 9365SOL    HW239555   3.659   2.534   2.591  1.1348 -0.5215 -0.4622
 9366SOL     OW39556   0.580   0.771  16.674 -0.0130  0.2800  0.1552
 9366SOL    HW139557   0.508   0.709  16.680  1.5652 -1.3488  2.0513
 9366SOL    HW239558   0.564   0.790  16.582  1.4681 -1.0622 -0.3779
 9367SOL     OW39559   2.265   3.863   4.684  0.3952 -0.1655  0.1545
 9367SOL    HW139560   2.350   3.852   4.726 -0.2977 -0.7390  1.4079
 9367SOL    HW239561   2.270   3.948   4.641 -1.9059  0.4910  1.1569
 9368SOL     OW39562   3.061   3.859   1.553 -0.1978 -0.1868 -0.1906
 9368SOL    HW139563   3.027   3.881   1.640 -2.7658  0.9977 -1.4755
 9368SOL    HW239564   3.124   3.795   1.585 -1.0716 -0.8165  0.2666
 9369SOL     OW39565   4.661   1.854   3.014 -0.2463  0.6209 -0.6179
 9369SOL    HW139566   0.010   1.845   2.953 -0.8966  0.0773 -1.3152
 9369SOL    HW239567   4.632   1.945   3.003  0.9090  0.8839 -1.5718
 9370SOL     OW39568   1.067   4.315   8.312 -0.4683  0.3548  0.1722
 9370SOL    HW139569   0.993   4.320   8.372 -1.1657  1.0424 -0.7400
 9370SOL    HW239570   1.048   4.391   8.257  3.3010 -0.1066 -1.7599
 9371SOL     OW39571   1.606   0.972   5.233 -0.1915  0.2825 -0.5476
 9371SOL    HW139572   1.587   0.931   5.148  1.6669 -2.0640  0.1745
 9371SOL    HW239573   1.605   1.064   5.209  3.1778  1.0944  2.5351
 9372SOL     OW39574   2.645   3.419  13.104 -0.4420 -0.0902  0.2724
 9372SOL    HW139575   2.652   3.360  13.179  0.4737 -1.6631 -1.0427
 9372SOL    HW239576   2.551   3.436  13.109 -0.6998 -1.6565  0.7236
 9373SOL     OW39577   2.787   0.286   5.511  0.2504  0.0812  0.5516
 9373SOL    HW139578   2.805   0.329   5.427  0.2376 -0.3511  0.3228
 9373SOL    HW239579   2.727   0.220   5.475 -1.5256  0.5670  2.5944
 9374SOL     OW39580   1.681   4.555   7.285 -0.2627  0.3502  0.1019
 9374SOL    HW139581   1.774   4.578   7.286  0.2707 -1.8444  1.7870
 9374SOL    HW239582   1.670   4.509   7.368 -0.2426  1.0457  0.4855
 9375SOL     OW39583   2.369   1.608   7.945 -0.2128 -0.2506 -0.0229
 9375SOL    HW139584   2.276   1.628   7.934 -0.5738 -1.9748 -0.0246
 9375SOL    HW239585   2.361   1.513   7.950  1.0104 -0.1978  2.5458
 9376SOL     OW39586   4.638   1.753   0.453 -0.7515 -0.0849 -0.3795
 9376SOL    HW139587   4.595   1.675   0.419  0.5472 -1.0204  0.1549
 9376SOL    HW239588   4.566   1.802   0.492  0.5157 -0.4482  2.4412
 9377SOL     OW39589   3.790   2.081   3.371 -0.1374 -0.2600 -0.0004
 9377SOL    HW139590   3.762   2.071   3.280  1.3650 -0.1914 -0.4655
 9377SOL    HW239591   3.819   1.990   3.378 -1.0473 -0.4104  1.8832
 9378SOL     OW39592   1.460   3.600   2.491  0.3770  0.5034 -0.6969
 9378SOL    HW139593   1.536   3.549   2.520  0.8302  1.3725 -0.3685
 9378SOL    HW239594   1.455   3.558   2.406  2.4697  1.3149 -1.2161
 9379SOL     OW39595   2.761   3.312   2.992 -0.0601  0.5419  0.4128
 9379SOL    HW139596   2.743   3.273   2.907  0.3049  0.5488  0.3320
 9379SOL    HW239597   2.683   3.366   3.006  0.6616  1.6221  0.2185
 9380SOL     OW39598   1.910   0.326   3.367 -0.4482 -0.3355  0.0285
 9380SOL    HW139599   1.819   0.308   3.344 -1.2732  3.5078  0.1873
 9380SOL    HW239600   1.961   0.250   3.338 -1.6267 -0.1859 -2.4172
 9381SOL     OW39601   1.632   4.157   5.035 -0.1951 -0.4822 -0.5925
 9381SOL    HW139602   1.723   4.130   5.034  0.2374  0.8684  3.7019
 9381SOL    HW239603   1.605   4.146   5.126  1.3749 -0.9016 -0.1836
 9382SOL     OW39604   1.490   0.045   6.111  0.2632  0.5840 -0.5308
 9382SOL    HW139605   1.512   4.676   6.113 -1.3808  0.1953 -0.3806
 9382SOL    HW239606   1.460   0.059   6.201 -0.0189 -1.3811 -0.3035
 9383SOL     OW39607   1.832   0.599   5.230  0.6379  0.4402  0.4421
 9383SOL    HW139608   1.890   0.541   5.279 -0.2172 -0.1885  0.6966
 9383SOL    HW239609   1.751   0.557   5.257  1.4216 -1.5065 -0.2343
 9384SOL     OW39610   2.743   2.497   5.935  0.2239  0.4693 -0.3738
 9384SOL    HW139611   2.754   2.468   6.025 -0.0382 -0.2887 -0.5901
 9384SOL    HW239612   2.648   2.494   5.918 -0.0925  0.7397  1.4114
 9385SOL     OW39613   0.301   0.112   3.383 -0.7646 -0.4535  0.4046
 9385SOL    HW139614   0.220   0.079   3.346 -2.1243  2.5093  0.7866
 9385SOL    HW239615   0.370   0.045   3.372 -1.8857 -1.3780 -0.9966
 9386SOL     OW39616   3.742   4.572  15.791  0.5577 -0.3158  0.1601
 9386SOL    HW139617   3.812   4.530  15.842  2.5784  0.6513 -1.8092
 9386SOL    HW239618   3.663   4.560  15.844  0.0896  2.0223 -0.0085
 9387SOL     OW39619   4.437   3.714   0.070  0.3874  0.5960 -0.4867
 9387SOL    HW139620   4.352   3.706   0.026  0.4694 -0.1315 -0.5022
 9387SOL    HW239621   4.438   3.624   0.102 -1.5779 -0.1459 -2.4580
 9388SOL     OW39622   3.500   0.285   5.718 -0.6693  0.0348  0.3048
 9388SOL    HW139623   3.436   0.270   5.787  0.0597  1.4509  1.2975
 9388SOL    HW239624   3.491   0.378   5.695 -5.4321 -0.7913 -1.0219
 9389SOL     OW39625   1.714   0.148  12.740  0.0433  0.5798 -0.2786
 9389SOL    HW139626   1.623   0.174  12.751 -0.2307 -0.9628  1.1087
 9389SOL    HW239627   1.715   0.053  12.747  2.4205  0.6510  0.2305
 9390SOL     OW39628   1.140   1.714   5.249  0.6552 -0.4183  0.4363
 9390SOL    HW139629   1.198   1.652   5.205  0.9355 -0.5581  1.0123
 9390SOL    HW239630   1.138   1.689   5.341 -0.6079  1.6076  0.9641
 9391SOL     OW39631   1.140   0.108   6.904 -0.1755 -0.3084 -0.3579
 9391SOL    HW139632   1.196   0.057   6.962 -1.4695 -1.2525  0.0589
 9391SOL    HW239633   1.070   0.044   6.897  0.0143 -0.4729 -0.7399
 9392SOL     OW39634   2.941   2.574   0.753  0.1951 -0.0147  0.2800
 9392SOL    HW139635   2.927   2.555   0.846  0.3952  1.5514  0.6334
 9392SOL    HW239636   2.884   2.650   0.743 -1.7381 -1.4872  0.2253
 9393SOL     OW39637   2.721   1.712   3.048  0.0978 -0.3266  0.8750
 9393SOL    HW139638   2.642   1.748   3.007  1.5827  1.0118 -0.8361
 9393SOL    HW239639   2.762   1.799   3.058 -1.0769  0.3146  0.0816
 9394SOL     OW39640   3.440   1.220  15.257 -0.2505  0.2639 -0.0830
 9394SOL    HW139641   3.525   1.265  15.260 -0.2977  0.3042  0.5056
 9394SOL    HW239642   3.467   1.135  15.223 -0.2977  0.5921 -0.9461
 9395SOL     OW39643   2.815   3.329  16.574 -0.3893  0.0513  0.0077
 9395SOL    HW139644   2.725   3.355  16.554 -1.2004 -2.6692  0.0128
 9395SOL    HW239645   2.869   3.407  16.586  0.4500 -0.4491 -0.4701
 9396SOL     OW39646   2.546   1.727   9.315  0.1723  0.1389  0.4425
 9396SOL    HW139647   2.583   1.641   9.330 -1.2611 -0.5823 -0.1975
 9396SOL    HW239648   2.530   1.751   9.407  0.7505 -2.4259  1.2152
 9397SOL     OW39649   3.192   3.892  10.154  0.4401 -0.2772  0.3753
 9397SOL    HW139650   3.160   3.859  10.070 -0.8354 -0.0159  0.7539
 9397SOL    HW239651   3.155   3.980  10.145 -0.9266 -1.0914 -1.9970
 9398SOL     OW39652   2.009   2.853   4.599  0.6224 -0.4393 -0.3884
 9398SOL    HW139653   1.980   2.765   4.574 -1.9366  0.2565  0.1339
 9398SOL    HW239654   2.020   2.903   4.518 -0.2923  1.7518  0.8419
 9399SOL     OW39655   1.897   2.523  16.425 -0.5195 -0.4946  0.5076
 9399SOL    HW139656   1.884   2.602  16.373  1.4323 -0.2005  0.4812
 9399SOL    HW239657   1.888   2.461  16.353 -0.6495 -1.0290  0.9881
 9400SOL     OW39658   2.146   3.001  14.183  0.4316  0.3205 -0.1811
 9400SOL    HW139659   2.071   3.059  14.193 -0.3322 -0.3064 -2.2779
 9400SOL    HW239660   2.121   2.923  14.232  2.0905  0.3166  0.6566
 9401SOL     OW39661   3.341   4.506  14.476  0.3788  0.2092  0.2700
 9401SOL    HW139662   3.417   4.515  14.533  0.9877 -0.2111 -0.4817
 9401SOL    HW239663   3.274   4.541  14.534  1.1528  0.1237  1.2151
 9402SOL     OW39664   4.094   4.148   7.504 -0.3095 -0.5485 -0.5902
 9402SOL    HW139665   4.050   4.120   7.585 -0.7767  0.8823 -0.3437
 9402SOL    HW239666   4.049   4.107   7.430 -1.2194 -1.0383  0.2238
 9403SOL     OW39667   3.802   3.417   1.290  0.4213 -0.2191  0.2854
 9403SOL    HW139668   3.779   3.453   1.205 -1.3874 -0.9634  0.4537
 9403SOL    HW239669   3.838   3.331   1.268  0.8023 -0.4496  1.7802
 9404SOL     OW39670   0.296   1.916  13.034  0.0661  0.7032 -0.2224
 9404SOL    HW139671   0.380   1.936  12.992  1.0930 -0.6283  1.1703
 9404SOL    HW239672   0.235   1.970  12.985  1.0939  2.1401  0.0761
 9405SOL     OW39673   4.050   3.498   2.928 -0.0249  0.1571  0.0605
 9405SOL    HW139674   3.964   3.528   2.957  0.0510  0.3383  0.1039
 9405SOL    HW239675   4.025   3.437   2.860  0.4473 -2.8073  2.5579
 9406SOL     OW39676   0.355   4.359   6.815  0.0237  0.6560  0.0962
 9406SOL    HW139677   0.278   4.411   6.840 -1.2586 -0.7097 -1.0411
 9406SOL    HW239678   0.384   4.346   6.906 -1.0912  2.3173  0.6863
 9407SOL     OW39679   3.482   3.338   8.488 -0.2906 -0.4263 -0.1532
 9407SOL    HW139680   3.435   3.385   8.557 -0.6931 -0.8425 -0.1454
 9407SOL    HW239681   3.567   3.328   8.532 -0.7653  0.2687  0.9355
 9408SOL     OW39682   4.116   4.034   5.799 -0.2488 -0.3070 -0.0155
 9408SOL    HW139683   4.188   4.088   5.833 -1.0099 -0.9481  2.5970
 9408SOL    HW239684   4.039   4.044   5.854  0.2943 -1.0180  0.8816
 9409SOL     OW39685   3.127   0.916   2.468 -0.7562 -0.2047 -0.3057
 9409SOL    HW139686   3.091   0.936   2.554 -2.4821 -3.0880 -0.3728
 9409SOL    HW239687   3.206   0.970   2.465 -1.1503  0.4125  0.5417
 9410SOL     OW39688   2.155   1.217   6.083 -0.4411 -0.4176 -0.0861
 9410SOL    HW139689   2.117   1.146   6.032 -4.6979  0.9098  1.2263
 9410SOL    HW239690   2.107   1.224   6.166  1.2962 -2.7340  1.1087
 9411SOL     OW39691   2.857   2.089   5.725 -0.4344  0.1367 -0.4843
 9411SOL    HW139692   2.810   2.014   5.763 -2.6176  0.6286 -2.1968
 9411SOL    HW239693   2.787   2.154   5.722  0.2052  0.8204 -0.4819
 9412SOL     OW39694   0.939   1.568   1.958 -0.2523 -0.4051  0.4878
 9412SOL    HW139695   1.020   1.589   2.005 -0.6318  1.9287  0.0908
 9412SOL    HW239696   0.979   1.526   1.881 -0.6098 -0.8462  0.5408
 9413SOL     OW39697   0.116   3.048  12.125  0.0335  0.1708  0.3174
 9413SOL    HW139698   0.095   3.084  12.039 -0.4535 -0.8973  0.0007
 9413SOL    HW239699   0.195   2.995  12.112 -2.3584 -3.2142 -0.4775
 9414SOL     OW39700   0.244   4.577   4.352  0.1507  0.4113  0.5382
 9414SOL    HW139701   0.204   4.500   4.392 -0.9040  0.8764  0.3864
 9414SOL    HW239702   0.169   4.597   4.295 -0.8795 -4.5073  0.1977
 9415SOL     OW39703   1.409   2.827  16.132  0.4708 -0.7141 -0.3910
 9415SOL    HW139704   1.338   2.891  16.130 -0.0465 -1.2571  0.5632
 9415SOL    HW239705   1.462   2.838  16.211 -0.0223 -0.6842 -0.0713
 9416SOL     OW39706   1.303   1.031   0.050  0.3032 -0.1165 -0.7367
 9416SOL    HW139707   1.369   0.966   0.024  1.6012  0.3958  1.3197
 9416SOL    HW239708   1.220   0.987   0.067 -0.3227  2.8356  3.7121
 9417SOL     OW39709   2.852   1.811   2.551 -0.0592 -0.0587 -0.2147
 9417SOL    HW139710   2.773   1.758   2.542  0.9329 -1.0010 -3.5885
 9417SOL    HW239711   2.920   1.746   2.539  0.1019 -0.6422  3.8410
 9418SOL     OW39712   3.037   0.219   5.995 -0.6804  0.0740 -0.6249
 9418SOL    HW139713   3.019   0.272   6.073 -1.3127 -0.7814 -0.1975
 9418SOL    HW239714   3.030   0.297   5.940  2.0005  0.3023 -0.6235
 9419SOL     OW39715   3.840   0.871  17.107 -0.2978 -0.2920  0.4593
 9419SOL    HW139716   3.783   0.822  17.047 -0.1322  1.9698 -1.5543
 9419SOL    HW239717   3.796   0.956  17.112  1.1515  0.5880 -1.5885
 9420SOL     OW39718   2.881   4.694   9.911 -0.7424  0.2097  0.0149
 9420SOL    HW139719   2.794   0.006   9.927 -0.7474 -0.0011  0.4545
 9420SOL    HW239720   2.935   0.013   9.977 -0.1387 -2.1525  1.0651
 9421SOL     OW39721   2.297   3.112   7.999  0.0698 -0.4352  0.0081
 9421SOL    HW139722   2.375   3.150   8.040 -0.3692  1.1022 -0.5936
 9421SOL    HW239723   2.312   3.020   8.021 -0.7537 -0.7344 -0.6592
 9422SOL     OW39724   0.084   3.329   3.055 -0.3476 -0.3419  0.1948
 9422SOL    HW139725   0.136   3.317   2.975 -0.4573  0.2848  0.0342
 9422SOL    HW239726   0.155   3.332   3.119  1.7805 -0.1652 -2.1586
 9423SOL     OW39727   0.613   4.170   7.518 -0.7244  0.4996  0.7291
 9423SOL    HW139728   0.687   4.186   7.459 -1.5693 -1.2666 -0.8302
 9423SOL    HW239729   0.543   4.191   7.456  0.5813 -3.3646 -2.1205
 9424SOL     OW39730   2.200   4.503   4.473  0.0454 -0.1225  0.6487
 9424SOL    HW139731   2.172   4.573   4.414  4.0261 -0.2417 -1.4278
 9424SOL    HW239732   2.230   4.562   4.542  0.5111 -2.4559  2.4418
 9425SOL     OW39733   1.239   3.832  16.624 -0.1503  0.2582  0.5619
 9425SOL    HW139734   1.243   3.920  16.586 -2.4555 -0.2724 -0.8781
 9425SOL    HW239735   1.194   3.786  16.553 -1.3669 -0.3030  1.6960
 9426SOL     OW39736   2.418   1.120   4.240  0.5538 -0.0256  0.9094
 9426SOL    HW139737   2.483   1.058   4.205  0.7273  0.8999 -0.4124
 9426SOL    HW239738   2.355   1.071   4.292 -0.1243 -0.1694 -0.0563
 9427SOL     OW39739   0.308   0.031   3.866 -0.4051 -0.1546 -0.1511
 9427SOL    HW139740   0.229   0.081   3.842 -1.1167 -0.7982  0.8384
 9427SOL    HW239741   0.334   0.063   3.952 -2.8058  0.9503  0.1755
 9428SOL     OW39742   0.332   4.012  16.448  0.5995  0.7436 -0.0449
 9428SOL    HW139743   0.379   4.001  16.530  0.8120  1.8107 -0.0224
 9428SOL    HW239744   0.347   4.105  16.428  0.9739  0.2009 -2.2980
 9429SOL     OW39745   4.164   1.126   2.971 -0.4549 -0.1416  0.4441
 9429SOL    HW139746   4.187   1.164   3.056 -3.0266  3.2191 -0.3649
 9429SOL    HW239747   4.080   1.083   2.986 -1.1018  1.2337  0.7150
 9430SOL     OW39748   3.774   2.155   6.406  0.1494  0.6142 -0.2192
 9430SOL    HW139749   3.812   2.069   6.388  1.5047  1.1030  0.3462
 9430SOL    HW239750   3.730   2.146   6.491 -3.3062  1.0307 -1.9682
 9431SOL     OW39751   0.247   3.818   2.101 -0.5717  0.4684  0.2445
 9431SOL    HW139752   0.254   3.879   2.027  2.6090 -1.2577 -0.8657
 9431SOL    HW239753   0.181   3.758   2.066 -0.6286  0.7664 -0.1625
 9432SOL     OW39754   3.198   4.221   1.727  0.0857 -0.6170 -0.0961
 9432SOL    HW139755   3.147   4.154   1.682 -2.8035  0.5867  1.3173
 9432SOL    HW239756   3.249   4.166   1.786  2.6439  2.7588  0.8644
 9433SOL     OW39757   0.527   0.159   5.047 -0.3182  0.1008  0.0463
 9433SOL    HW139758   0.513   0.070   5.016  1.0161  0.1229 -0.5754
 9433SOL    HW239759   0.509   0.166   5.141  2.1542 -0.0482  0.5152
 9434SOL     OW39760   2.981   3.582   7.888 -0.2442 -0.0165  0.3604
 9434SOL    HW139761   2.971   3.655   7.827  1.7620  0.5115  0.6666
 9434SOL    HW239762   2.937   3.510   7.843  0.7214 -0.0474 -0.5306
 9435SOL     OW39763   2.979   0.286   2.454 -0.0612  0.8403  0.0107
 9435SOL    HW139764   2.891   0.249   2.445  0.0058  0.3476  1.3923
 9435SOL    HW239765   2.981   0.324   2.366 -0.2664 -0.3604 -0.5153
 9436SOL     OW39766   3.989   4.492   2.982  0.0796 -0.6999  0.5651
 9436SOL    HW139767   3.989   4.477   3.077 -0.5911 -0.2253  0.6396
 9436SOL    HW239768   3.895   4.489   2.968  0.2250 -1.6398 -0.2030
 9437SOL     OW39769   3.028   1.176  13.310 -0.3112 -0.1074 -0.1584
 9437SOL    HW139770   3.078   1.250  13.274 -1.0544  0.7950  0.6903
 9437SOL    HW239771   3.050   1.182  13.403  1.5780 -0.3087 -0.5921
 9438SOL     OW39772   0.343   3.512  16.871 -0.5410 -0.0328 -0.6137
 9438SOL    HW139773   0.298   3.461  16.939 -1.6019  0.8666 -0.6624
 9438SOL    HW239774   0.417   3.450  16.871  0.8874  1.6705  3.0921
 9439SOL     OW39775   3.351   1.624  15.099  0.1337  0.6486  0.0363
 9439SOL    HW139776   3.432   1.574  15.089 -0.0156  0.7882 -1.8119
 9439SOL    HW239777   3.320   1.609  15.010 -2.7202  1.8726  0.8185
 9440SOL     OW39778   1.384   0.623   7.376  0.3297 -0.7301  0.1077
 9440SOL    HW139779   1.434   0.639   7.296  0.4928  2.0149  0.7477
 9440SOL    HW239780   1.453   0.587   7.430 -0.0264 -1.8473 -0.1722
 9441SOL     OW39781   1.645   1.428  16.121 -0.5410  0.1360 -0.0011
 9441SOL    HW139782   1.635   1.377  16.040  0.9497  1.5991 -1.0953
 9441SOL    HW239783   1.740   1.427  16.133 -0.4827 -0.3500 -0.4775
 9442SOL     OW39784   1.036   3.442   3.431 -0.5219 -0.2532 -0.1172
 9442SOL    HW139785   1.097   3.372   3.452 -0.1738 -0.7308 -2.7183
 9442SOL    HW239786   1.090   3.517   3.410 -0.3109 -0.6296 -0.9171
 9443SOL     OW39787   2.971   1.460   0.325  0.0868 -0.6607  0.2963
 9443SOL    HW139788   3.041   1.467   0.260  1.4449 -0.1216  1.8020
 9443SOL    HW239789   2.939   1.373   0.301 -1.2205  0.0552 -0.5858
 9444SOL     OW39790   1.111   4.163   8.929 -0.0437 -0.3336  0.1570
 9444SOL    HW139791   1.039   4.214   8.894  1.0095  0.4290 -0.8701
 9444SOL    HW239792   1.166   4.229   8.969 -2.4232  1.1624  0.9778
 9445SOL     OW39793   4.395   0.685   8.987  0.0173 -0.1657 -0.4688
 9445SOL    HW139794   4.401   0.727   8.901  0.2730  0.6747 -0.0420
 9445SOL    HW239795   4.406   0.593   8.962  3.3680 -0.0063  0.3679
 9446SOL     OW39796   0.549   4.092   3.876 -0.6838 -0.0038  0.0746
 9446SOL    HW139797   0.542   4.088   3.781  1.8034  0.3147 -0.1310
 9446SOL    HW239798   0.616   4.026   3.896  0.0149  1.5328  2.9164
 9447SOL     OW39799   3.908   2.368   1.776 -0.2270 -0.3526 -0.3573
 9447SOL    HW139800   3.969   2.345   1.707  1.1410  1.8625  0.1209
 9447SOL    HW239801   3.831   2.381   1.720 -1.9632 -3.1803  1.3697
 9448SOL     OW39802   1.799   3.833   6.981  1.2015  0.7730 -0.8485
 9448SOL    HW139803   1.760   3.885   7.051  0.3510 -0.5510 -0.3457
 9448SOL    HW239804   1.726   3.848   6.921  1.7263 -1.1479 -1.9764
 9449SOL     OW39805   4.072   2.261   6.362 -0.1215  0.1471 -0.7036
 9449SOL    HW139806   4.058   2.286   6.271 -1.6520  1.3651 -0.1252
 9449SOL    HW239807   3.979   2.272   6.382  0.9247  1.4612  3.4247
 9450SOL     OW39808   3.226   2.784   9.866  0.6308 -0.4453  0.5178
 9450SOL    HW139809   3.231   2.699   9.911  1.6767 -1.7397 -2.0737
 9450SOL    HW239810   3.317   2.789   9.839  1.0774 -0.9030  1.9035
 9451SOL     OW39811   4.641   4.255   7.963  0.0210 -0.1239  1.0628
 9451SOL    HW139812   4.661   4.177   8.014 -2.6632 -2.1719 -1.0448
 9451SOL    HW239813   0.000   4.283   7.924 -0.8590  0.8181 -0.1519
 9452SOL     OW39814   3.283   1.860   1.728  0.5120 -0.0366  0.3453
 9452SOL    HW139815   3.271   1.954   1.735 -1.6252 -0.2268 -0.7449
 9452SOL    HW239816   3.202   1.829   1.769 -0.0063  2.0137  0.8354
 9453SOL     OW39817   1.678   0.979  12.746 -0.3248  0.2508  0.2389
 9453SOL    HW139818   1.739   0.942  12.810 -0.1205 -1.4613 -0.9651
 9453SOL    HW239819   1.658   1.065  12.784 -0.8498  0.1778  0.1300
 9454SOL     OW39820   0.471   3.547  16.542 -0.1210  0.3779  0.1673
 9454SOL    HW139821   0.405   3.486  16.575 -0.0414 -0.6943 -1.6304
 9454SOL    HW239822   0.439   3.551  16.451 -2.5658 -0.7675  0.9640
 9455SOL     OW39823   0.416   0.263  14.883  0.1644  0.4364 -0.5146
 9455SOL    HW139824   0.411   0.171  14.856  2.6274  0.5039 -1.1878
 9455SOL    HW239825   0.360   0.297  14.814  0.8215  0.6036 -0.9589
 9456SOL     OW39826   3.952   3.673   1.232 -0.2661  0.3429 -0.4395
 9456SOL    HW139827   3.946   3.607   1.163 -1.1961  0.1558 -0.1829
 9456SOL    HW239828   3.986   3.750   1.186  0.5210 -0.0558 -0.5231
 9457SOL     OW39829   3.595   2.818   6.052  0.1305 -0.0469 -0.4914
 9457SOL    HW139830   3.687   2.807   6.027  0.4754 -1.0575  1.1791
 9457SOL    HW239831   3.571   2.726   6.058  2.7337 -0.5894  1.7608
 9458SOL     OW39832   1.958   0.376   9.712  0.0586 -0.1718 -0.2456
 9458SOL    HW139833   1.917   0.461   9.698  0.1242  0.0912  1.2202
 9458SOL    HW239834   1.877   0.325   9.723  0.0507  0.0651  0.7413
 9459SOL     OW39835   1.057   4.087  11.373 -0.4069 -0.1380 -0.6953
 9459SOL    HW139836   0.965   4.071  11.353 -0.1185 -1.3090 -1.1019
 9459SOL    HW239837   1.092   3.997  11.378  1.5454  0.5481 -1.9443
 9460SOL     OW39838   4.562   0.481   4.166 -0.5943  0.0452  0.0325
 9460SOL    HW139839   4.583   0.391   4.143 -3.4880 -0.4888 -0.5926
 9460SOL    HW239840   4.507   0.461   4.242 -0.2557 -0.4568  0.1435
 9461SOL     OW39841   2.496   1.108  13.992 -0.2451 -0.5804 -0.2024
 9461SOL    HW139842   2.543   1.051  14.052  0.5446  0.2034 -0.0785
 9461SOL    HW239843   2.405   1.094  14.018 -0.7668  3.4825  0.2809
 9462SOL     OW39844   2.288   0.439  13.396  0.0521 -0.6634 -0.2987
 9462SOL    HW139845   2.333   0.520  13.373  1.2175 -1.8339 -2.1084
 9462SOL    HW239846   2.248   0.467  13.479  2.7818 -1.9234  1.4548
 9463SOL     OW39847   1.939   1.384  11.846 -0.0727  0.0617 -0.1218
 9463SOL    HW139848   1.926   1.294  11.875  3.0693  0.1279  1.4726
 9463SOL    HW239849   1.984   1.363  11.765  0.9981  3.1384 -0.3368
 9464SOL     OW39850   3.604   1.603   6.420 -0.7300 -0.4081  0.3350
 9464SOL    HW139851   3.691   1.637   6.400 -0.6702  0.6475  2.4097
 9464SOL    HW239852   3.574   1.574   6.334  1.8987 -1.9306 -0.0786
 9465SOL     OW39853   0.090   1.302   8.713  0.1247 -0.2826 -0.1259
 9465SOL    HW139854   0.161   1.260   8.761  0.1053  1.1931  1.2062
 9465SOL    HW239855   0.015   1.294   8.773 -2.8265  1.4239 -3.6230
 9466SOL     OW39856   1.391   0.730   6.479 -0.0242  0.0183 -0.2719
 9466SOL    HW139857   1.469   0.679   6.460 -0.6014 -1.1213  0.4340
 9466SOL    HW239858   1.403   0.751   6.572  3.3315 -0.6226 -0.5486
 9467SOL     OW39859   2.488   0.068  14.299  0.2312  0.5483  0.5224
 9467SOL    HW139860   2.425   0.080  14.228  1.2853 -1.1012 -0.6927
 9467SOL    HW239861   2.436   0.009  14.354  3.6676 -1.4011  1.6567
 9468SOL     OW39862   4.316   1.067   4.128  0.0839  0.1797 -0.7847
 9468SOL    HW139863   4.330   1.125   4.053 -0.7179  0.0143 -1.0569
 9468SOL    HW239864   4.359   1.116   4.199  1.0313  1.1649 -2.0547
 9469SOL     OW39865   1.183   0.359   8.219 -0.6959 -0.1508  0.5814
 9469SOL    HW139866   1.089   0.375   8.227 -0.4884  1.2123  0.3054
 9469SOL    HW239867   1.210   0.354   8.311 -4.2064  1.6191  1.6869
 9470SOL     OW39868   2.962   4.647  12.489 -0.4773 -0.1505  0.3853
 9470SOL    HW139869   3.008   4.583  12.544 -1.3690  0.0103  1.3248
 9470SOL    HW239870   2.939   4.712  12.556  1.1707 -1.0737  1.8673
 9471SOL     OW39871   2.098   3.558  12.054  0.3605  0.3155  0.1735
 9471SOL    HW139872   2.007   3.542  12.029  0.3305 -0.7482  0.9336
 9471SOL    HW239873   2.102   3.557  12.150 -1.0404  0.5786  0.2281
 9472SOL     OW39874   0.066   3.414  15.363 -0.1849 -0.0331 -0.1987
 9472SOL    HW139875   0.015   3.360  15.423  0.4829 -1.6748 -1.1133
 9472SOL    HW239876   0.026   3.394  15.278 -1.8987  1.9112  0.1511
 9473SOL     OW39877   0.022   2.200   4.195  0.0909 -0.2810  0.0823
 9473SOL    HW139878   0.011   2.140   4.268 -2.4848  1.7054  1.3409
 9473SOL    HW239879   0.085   2.264   4.228  0.1886 -0.0035 -0.6298
 9474SOL     OW39880   3.613   4.687   3.436  0.2865  0.4050  0.6222
 9474SOL    HW139881   3.658   0.040   3.472 -1.0585  1.3263  0.3258
 9474SOL    HW239882   3.524   4.716   3.418 -0.2504 -1.4691  0.3365
 9475SOL     OW39883   1.865   0.582  13.590  0.2781  0.2567  0.2342
 9475SOL    HW139884   1.830   0.655  13.539 -0.4369 -0.5623 -0.4482
 9475SOL    HW239885   1.829   0.591  13.678 -1.6984  1.8618 -0.7554
 9476SOL     OW39886   2.003   4.688   7.359  0.0665  0.4299 -0.2842
 9476SOL    HW139887   1.996   4.707   7.453 -1.4402  1.9307 -0.6899
 9476SOL    HW239888   2.095   4.670   7.340  0.6041  3.4958 -0.5446
 9477SOL     OW39889   3.019   1.606   2.695 -0.4556  0.1201  0.2796
 9477SOL    HW139890   3.057   1.536   2.748  0.3066  0.9442  0.8192
 9477SOL    HW239891   2.935   1.604   2.741 -2.5065 -1.8807 -3.5011
 9478SOL     OW39892   3.555   2.613   4.360 -0.6616  0.2017 -0.5489
 9478SOL    HW139893   3.522   2.622   4.450 -1.0263  0.4735 -0.7116
 9478SOL    HW239894   3.639   2.656   4.372  0.0706 -1.3203 -0.1950
 9479SOL     OW39895   1.766   4.291   7.739 -0.1239  0.2429  0.0925
 9479SOL    HW139896   1.839   4.249   7.784 -1.0141 -1.1183  0.2491
 9479SOL    HW239897   1.732   4.221   7.682  4.9521 -1.0467 -1.3851
 9480SOL     OW39898   4.387   3.273   1.879  0.3905 -0.0168 -0.5028
 9480SOL    HW139899   4.452   3.279   1.949 -2.0819  0.5199  1.7405
 9480SOL    HW239900   4.436   3.266   1.797 -0.0890  2.1525 -0.9734
 9481SOL     OW39901   1.450   2.035   6.346 -0.2940 -0.1483 -0.1526
 9481SOL    HW139902   1.441   1.965   6.411 -0.2678  2.9109  3.1540
 9481SOL    HW239903   1.372   2.086   6.370  0.4036  1.4400 -1.3119
 9482SOL     OW39904   4.256   2.050  17.693  0.4578  0.2003  0.2501
 9482SOL    HW139905   4.253   2.074   0.087 -0.5399  0.7296  0.0850
 9482SOL    HW239906   4.317   2.113  17.657 -1.1945  2.0090  0.5990
 9483SOL     OW39907   2.798   0.970   7.543  0.2747 -0.4403 -0.4429
 9483SOL    HW139908   2.851   0.902   7.584 -1.1291 -0.7092  0.9259
 9483SOL    HW239909   2.725   0.912   7.520 -1.2403  0.8874  1.0386
 9484SOL     OW39910   4.701   2.454  16.816 -0.2424 -0.0987  0.1569
 9484SOL    HW139911   0.050   2.511  16.792  1.4797 -2.5519 -0.4112
 9484SOL    HW239912   4.628   2.472  16.757 -2.2273 -1.5567  2.1523
 9485SOL     OW39913   0.270   0.413   7.076  0.6322  0.1957  0.4415
 9485SOL    HW139914   0.365   0.425   7.071  0.7511 -0.2766  1.5328
 9485SOL    HW239915   0.238   0.451   6.994  2.4942  0.7470 -0.0294
 9486SOL     OW39916   4.502   1.545  15.866 -0.4148  0.3729  0.1953
 9486SOL    HW139917   4.592   1.530  15.895  0.0832  1.6813 -0.6347
 9486SOL    HW239918   4.471   1.625  15.908  0.3772  0.7031  0.1588
 9487SOL     OW39919   3.359   2.329   1.201 -0.3313  0.2362  0.5043
 9487SOL    HW139920   3.296   2.285   1.258 -1.0420  0.1908 -0.3154
 9487SOL    HW239921   3.304   2.330   1.123  0.4824  0.2719 -0.0628
 9488SOL     OW39922   2.052   2.040   5.566 -0.1150 -0.3434  0.1235
 9488SOL    HW139923   2.110   2.062   5.493 -1.2870 -0.4482 -0.8399
 9488SOL    HW239924   1.963   2.029   5.532 -0.2408 -0.1281  0.3813
 9489SOL     OW39925   1.206   0.876   0.748 -0.4350  0.4509 -0.0283
 9489SOL    HW139926   1.110   0.877   0.756 -0.4177  2.9909  0.0283
 9489SOL    HW239927   1.234   0.795   0.791 -0.6438  1.1941  1.5448
 9490SOL     OW39928   3.606   1.510  10.475  0.0831 -0.4166  0.9132
 9490SOL    HW139929   3.593   1.416  10.489 -1.4300 -0.3845 -0.2610
 9490SOL    HW239930   3.698   1.526  10.496  0.0109  0.5690  0.4527
 9491SOL     OW39931   2.528   4.243   1.163  0.8911  0.0610  0.4687
 9491SOL    HW139932   2.565   4.198   1.239  1.0409 -3.0292 -1.4320
 9491SOL    HW239933   2.504   4.170   1.106  0.6984  0.3104  0.2283
 9492SOL     OW39934   1.468   3.881   0.722  0.6338 -0.3046 -0.6151
 9492SOL    HW139935   1.410   3.946   0.761  0.0706  0.2194 -2.3102
 9492SOL    HW239936   1.441   3.879   0.630  0.9736  0.5470 -0.7395
 9493SOL     OW39937   1.082   1.477   8.063  0.0570  0.6121  0.4576
 9493SOL    HW139938   1.000   1.443   8.100  0.2677 -2.6048 -2.0974
 9493SOL    HW239939   1.121   1.535   8.129  0.8602 -2.7033  2.9189
 9494SOL     OW39940   1.704   0.932  14.646  0.4485 -0.1388  0.0566
 9494SOL    HW139941   1.735   0.919  14.556 -0.5217 -0.1260 -0.2826
 9494SOL    HW239942   1.749   1.013  14.670  0.4412 -0.5782  1.5051
 9495SOL     OW39943   4.149   0.900   6.968 -0.4687 -0.3490 -0.3886
 9495SOL    HW139944   4.232   0.889   7.014  0.5748 -1.0744 -2.4466
 9495SOL    HW239945   4.090   0.936   7.034  0.7201 -0.0846  0.5264
 9496SOL     OW39946   0.436   0.107   8.119  0.0290  0.0622  0.1113
 9496SOL    HW139947   0.377   0.032   8.111 -1.1113  1.0269 -0.4774
 9496SOL    HW239948   0.415   0.119   8.212  1.9831  1.1995  0.3971
 9497SOL     OW39949   3.541   2.074  17.091  0.0829 -0.4627 -0.4645
 9497SOL    HW139950   3.587   2.151  17.056  0.4955 -1.7762 -2.7913
 9497SOL    HW239951   3.478   2.070  17.019 -1.4742 -2.3417  1.0019
 9498SOL     OW39952   1.358   3.880  13.585 -0.0525  0.2136 -0.3961
 9498SOL    HW139953   1.336   3.834  13.666  0.4096  0.3043 -0.2153
 9498SOL    HW239954   1.453   3.867  13.581  0.0736  0.5529  1.2015
 9499SOL     OW39955   3.499   0.736   1.717 -0.1467 -0.2393  0.3132
 9499SOL    HW139956   3.513   0.655   1.766 -1.3828  0.0455  1.1497
 9499SOL    HW239957   3.405   0.750   1.730 -0.1040  0.1289  0.2290
 9500SOL     OW39958   0.169   4.328  15.934 -0.0184 -0.2270  0.6523
 9500SOL    HW139959   0.231   4.368  15.995 -1.5008  1.9848  0.7052
 9500SOL    HW239960   0.095   4.361  15.984 -0.0633 -0.6819  0.8873
 9501SOL     OW39961   0.503   1.641   1.384 -0.1141  0.2750 -0.5536
 9501SOL    HW139962   0.470   1.609   1.468  2.9752 -2.0447 -0.2275
 9501SOL    HW239963   0.473   1.564   1.337  0.9724 -0.7625  0.4434
 9502SOL     OW39964   4.453   2.003   0.273 -0.0386 -0.3387  0.5176
 9502SOL    HW139965   4.437   1.917   0.235 -1.4270  0.5607 -0.9471
 9502SOL    HW239966   4.443   1.982   0.366 -2.1244  1.3065  0.6748
 9503SOL     OW39967   2.094   0.654   6.526  0.7184  0.3606 -0.4649
 9503SOL    HW139968   2.135   0.619   6.447  0.3427 -1.4286  0.1321
 9503SOL    HW239969   2.172   0.689   6.570  2.2065  0.6092 -3.3217
 9504SOL     OW39970   1.384   2.972   3.985  0.0149  0.8080 -0.1917
 9504SOL    HW139971   1.396   3.049   3.929  1.0905  2.8992  2.9506
 9504SOL    HW239972   1.290   2.959   3.978  0.5400 -2.2434 -1.9451
 9505SOL     OW39973   3.636   1.302   1.446 -0.5816  0.5585 -0.7104
 9505SOL    HW139974   3.706   1.334   1.388  0.3335 -0.4607 -0.1850
 9505SOL    HW239975   3.608   1.221   1.403 -0.5366  0.8870 -1.3496
 9506SOL     OW39976   1.568   1.673  12.634  0.0689  0.8720 -0.4183
 9506SOL    HW139977   1.518   1.754  12.646 -2.0456 -0.5946  0.7525
 9506SOL    HW239978   1.616   1.672  12.717 -0.9492  3.3117  0.2095
 9507SOL     OW39979   4.489   1.876   7.298  0.1812  0.3985  0.4649
 9507SOL    HW139980   4.579   1.899   7.277  0.2417 -0.2085  0.0652
 9507SOL    HW239981   4.435   1.924   7.235 -1.3113 -1.0817  0.5943
 9508SOL     OW39982   1.203   1.662   8.218 -0.1521 -0.2827  0.1714
 9508SOL    HW139983   1.282   1.693   8.261 -2.1517  0.6151  3.2013
 9508SOL    HW239984   1.135   1.683   8.282  1.2140  1.4255  1.0333
 9509SOL     OW39985   0.094   2.553   4.734  0.6764  0.0522  0.0220
 9509SOL    HW139986   0.183   2.586   4.718  0.6220 -0.3608 -1.1441
 9509SOL    HW239987   0.107   2.544   4.829 -2.3012  0.5200  0.4712
 9510SOL     OW39988   4.677   1.336   3.309  0.0538  0.5316 -0.4807
 9510SOL    HW139989   4.631   1.336   3.225 -1.3784  0.8985  0.3175
 9510SOL    HW239990   0.019   1.405   3.310  0.1429  0.4661 -2.4432
 9511SOL     OW39991   4.239   0.100   1.640  0.0249 -0.7338 -0.1725
 9511SOL    HW139992   4.175   0.040   1.601 -1.0609 -0.5195  1.3056
 9511SOL    HW239993   4.262   0.149   1.560  2.8330 -1.6266  0.0867
 9512SOL     OW39994   2.421   2.503   8.134  0.1021  0.6475 -0.0590
 9512SOL    HW139995   2.511   2.470   8.128 -0.7255 -1.6235  0.0833
 9512SOL    HW239996   2.375   2.422   8.114  0.4542  0.0839  1.4392
 9513SOL     OW39997   1.856   1.464   3.714 -0.2986 -0.4691 -0.4517
 9513SOL    HW139998   1.863   1.553   3.747  2.3356  0.0919 -2.5358
 9513SOL    HW239999   1.950   1.444   3.718  0.2746  2.5528  0.6642
 9514SOL     OW40000   2.930   3.387   3.585 -0.0262  0.2622  0.5374
 9514SOL    HW140001   2.993   3.321   3.555 -1.0392 -0.8421  0.8687
 9514SOL    HW240002   2.991   3.460   3.570  0.7745 -0.6186 -0.5256
 9515SOL     OW40003   1.285   0.633  13.515 -0.1784  0.4971 -0.1289
 9515SOL    HW140004   1.311   0.720  13.486 -1.9862  1.0488 -0.1033
 9515SOL    HW240005   1.215   0.619  13.451 -0.7696 -0.8769  0.8171
 9516SOL     OW40006   0.895   0.595   2.271 -0.0044 -0.1570  0.0824
 9516SOL    HW140007   0.925   0.596   2.180 -1.5174 -1.1691 -0.4187
 9516SOL    HW240008   0.803   0.613   2.253 -0.0098  0.3008  0.5710
 9517SOL     OW40009   1.423   0.203   9.342  0.0521 -0.4096 -0.3632
 9517SOL    HW140010   1.512   0.204   9.307 -0.0573  2.8333 -0.5617
 9517SOL    HW240011   1.398   0.277   9.288 -1.5063  1.4299  2.8441
 9518SOL     OW40012   2.553   0.614  17.647 -0.5312 -0.3155 -0.1649
 9518SOL    HW140013   2.626   0.615   0.011 -0.9742 -0.9136  0.3742
 9518SOL    HW240014   2.599   0.615  17.563  0.2594  0.2019  0.2760
 9519SOL     OW40015   3.494   1.454  12.961  0.0157 -0.2848  0.1873
 9519SOL    HW140016   3.567   1.486  12.908  0.4951 -0.6266  0.6405
 9519SOL    HW240017   3.438   1.409  12.898 -1.2796  0.0305  1.1201
 9520SOL     OW40018   1.842   1.503  13.371 -0.3380  0.4415  0.2887
 9520SOL    HW140019   1.851   1.462  13.285 -4.5924  3.1604 -1.4698
 9520SOL    HW240020   1.891   1.442  13.426 -0.0951  2.1846  2.0485
 9521SOL     OW40021   3.138   2.320   7.679  0.5225 -0.3602  0.0964
 9521SOL    HW140022   3.111   2.412   7.684  3.4369  0.5292 -0.4568
 9521SOL    HW240023   3.169   2.314   7.769  0.2371 -1.2774  0.1370
 9522SOL     OW40024   4.590   4.042   7.248  0.5607 -0.3273  0.0454
 9522SOL    HW140025   4.506   4.048   7.292 -0.6052 -0.4354 -2.1317
 9522SOL    HW240026   4.597   4.126   7.202  0.6046 -0.3422  0.0243
 9523SOL     OW40027   3.602   3.759  12.707 -0.4443  0.2575 -0.1180
 9523SOL    HW140028   3.542   3.760  12.632 -0.5786 -1.2025 -0.0223
 9523SOL    HW240029   3.616   3.666  12.726 -0.4496  0.2384 -0.2072
 9524SOL     OW40030   3.932   1.533   6.920  0.3262  0.0895 -0.1205
 9524SOL    HW140031   3.964   1.524   7.010  2.9507 -1.8324 -1.2517
 9524SOL    HW240032   3.880   1.613   6.919 -1.4571 -1.0686 -1.5499
 9525SOL     OW40033   3.273   0.258   7.938  0.1108  0.1377  0.0750
 9525SOL    HW140034   3.313   0.189   7.886 -1.6628  2.2722 -4.1612
 9525SOL    HW240035   3.289   0.330   7.876  0.4675  0.8581  1.0128
 9526SOL     OW40036   3.622   1.011   3.343 -0.1459 -0.0163 -0.4661
 9526SOL    HW140037   3.672   1.092   3.340 -1.1470  0.6136 -0.3325
 9526SOL    HW240038   3.630   0.985   3.251 -0.2476  0.4687 -0.6114
 9527SOL     OW40039   2.072   0.602   7.527 -0.3192  0.1612 -0.2857
 9527SOL    HW140040   1.980   0.617   7.507 -0.6306  2.3728  2.7118
 9527SOL    HW240041   2.077   0.509   7.547 -0.1524  0.0011 -1.1126
 9528SOL     OW40042   3.721   0.715   6.592  0.1543 -0.3386  0.5267
 9528SOL    HW140043   3.751   0.633   6.554  0.7749 -0.2836  0.8905
 9528SOL    HW240044   3.628   0.698   6.601 -0.0318  0.3613 -0.1128
 9529SOL     OW40045   2.102   4.470   9.695 -0.5904  0.1980  0.2212
 9529SOL    HW140046   2.164   4.397   9.698 -1.1676 -0.3864 -2.5153
 9529SOL    HW240047   2.031   4.458   9.758  0.5405  0.0729  1.4823
 9530SOL     OW40048   0.369   1.878  11.236 -0.1163  0.2137 -0.1814
 9530SOL    HW140049   0.408   1.887  11.323  0.1308  0.8672 -0.3652
 9530SOL    HW240050   0.437   1.826  11.194  0.1943 -0.8492  1.6217
 9531SOL     OW40051   1.407   2.126  11.908  0.1554 -0.5115 -0.0152
 9531SOL    HW140052   1.490   2.087  11.882  0.9714  0.7567  0.6754
 9531SOL    HW240053   1.359   2.044  11.916 -0.5463 -0.0003  0.9741
 9532SOL     OW40054   2.886   2.017  10.021 -0.1044 -0.0884  0.1413
 9532SOL    HW140055   2.894   2.077  10.095  0.2995  1.7207 -1.3845
 9532SOL    HW240056   2.869   2.075   9.948  0.9537 -0.4055 -0.3572
 9533SOL     OW40057   4.149   3.327   7.296 -0.1621  0.6659 -0.1524
 9533SOL    HW140058   4.182   3.265   7.361  3.9714  2.5270 -0.4390
 9533SOL    HW240059   4.214   3.397   7.300 -1.2645  1.5769  1.4584
 9534SOL     OW40060   3.665   0.756   4.598 -0.0098  0.1796  0.7393
 9534SOL    HW140061   3.640   0.847   4.608 -1.4433 -0.4745  3.2695
 9534SOL    HW240062   3.621   0.728   4.679 -0.8710 -2.0123 -0.4645
 9535SOL     OW40063   2.727   0.476   0.877  0.3532  0.2263 -0.0244
 9535SOL    HW140064   2.641   0.510   0.850  1.4948  1.5286 -1.9659
 9535SOL    HW240065   2.731   0.510   0.966  0.6407 -1.5571  0.6401
 9536SOL     OW40066   0.309   2.772   2.403  0.0776  0.2098 -1.2747
 9536SOL    HW140067   0.333   2.861   2.378 -0.9905  0.3650 -1.7682
 9536SOL    HW240068   0.256   2.735   2.332 -1.9321  1.1842 -0.2839
 9537SOL     OW40069   1.527   3.627   5.352 -0.5139 -0.3763 -0.0486
 9537SOL    HW140070   1.619   3.652   5.359 -0.4244 -0.6906 -0.0798
 9537SOL    HW240071   1.518   3.611   5.258  1.2774  0.6974 -0.3969
 9538SOL     OW40072   0.695   3.255   3.481 -0.2920 -0.1294 -1.3952
 9538SOL    HW140073   0.675   3.257   3.575  2.9309 -2.1632 -0.6572
 9538SOL    HW240074   0.732   3.343   3.470  2.2953 -1.0144  0.1854
 9539SOL     OW40075   4.709   1.674  11.905 -0.3299  0.2233  0.2264
 9539SOL    HW140076   4.678   1.763  11.923 -0.8740  0.0777  0.0074
 9539SOL    HW240077   4.661   1.620  11.967 -1.4046 -0.0603 -0.8584
 9540SOL     OW40078   0.286   2.027   3.456  0.0425 -0.5048 -0.0431
 9540SOL    HW140079   0.240   2.082   3.393 -0.0597  0.6807  1.0727
 9540SOL    HW240080   0.224   2.029   3.529 -0.8094 -0.0592 -0.7756
 9541SOL     OW40081   4.282   1.387  15.899  0.1428 -0.3359 -0.3202
 9541SOL    HW140082   4.308   1.297  15.915  1.2343 -0.1746 -1.1562
 9541SOL    HW240083   4.369   1.428  15.905  0.3281 -0.6735 -0.7116
 9542SOL     OW40084   4.138   1.346   0.696 -0.0565 -0.2741 -0.0284
 9542SOL    HW140085   4.049   1.367   0.723 -0.3601 -1.3766 -0.2058
 9542SOL    HW240086   4.173   1.303   0.774 -1.5834 -1.3033  0.0692
 9543SOL     OW40087   4.210   2.024   7.971  0.3332  0.2234  0.1326
 9543SOL    HW140088   4.149   2.016   8.044 -0.1395  0.1410 -0.2692
 9543SOL    HW240089   4.210   1.932   7.944  0.2355 -0.2698  1.7860
 9544SOL     OW40090   4.469   1.540  10.757  0.5921 -0.1741  0.0118
 9544SOL    HW140091   4.552   1.571  10.793  1.3498 -0.1393 -1.7638
 9544SOL    HW240092   4.447   1.465  10.812 -0.4861 -2.2564 -3.2475
 9545SOL     OW40093   0.563   1.687  10.242  0.1097  0.2348 -0.4435
 9545SOL    HW140094   0.560   1.639  10.160  0.2553 -0.8241  0.1718
 9545SOL    HW240095   0.524   1.622  10.300 -0.3505 -0.1817 -1.2317
 9546SOL     OW40096   2.658   4.370  13.226 -0.1518  0.1997 -0.1109
 9546SOL    HW140097   2.590   4.406  13.283 -3.4353  0.1158 -3.9710
 9546SOL    HW240098   2.637   4.277  13.237  0.2865  0.3848  2.1414
 9547SOL     OW40099   0.093   1.166   1.986 -0.0864  0.4509  0.5087
 9547SOL    HW140100   0.003   1.175   2.015  0.0690  0.8886  0.8460
 9547SOL    HW240101   0.122   1.252   2.015 -2.1716  1.4594 -0.3968
 9548SOL     OW40102   2.967   4.161   7.247 -0.2080 -0.1980  0.1269
 9548SOL    HW140103   2.996   4.144   7.337  0.3192 -0.4535 -0.0859
 9548SOL    HW240104   2.874   4.172   7.266 -0.3882 -0.9425 -0.2904
 9549SOL     OW40105   0.825   1.400   8.167  0.4874 -0.3920 -0.0182
 9549SOL    HW140106   0.776   1.320   8.152 -3.2202  1.8805 -0.0221
 9549SOL    HW240107   0.776   1.451   8.103  0.1878  1.6284  1.7946
 9550SOL     OW40108   2.380   1.560   8.234  0.1207  0.0834  0.0789
 9550SOL    HW140109   2.380   1.477   8.186  0.6588 -0.2753  0.7001
 9550SOL    HW240110   2.295   1.599   8.214  0.1701 -0.2404 -0.7578
 9551SOL     OW40111   3.057   4.366   1.081  0.3549  0.3328  0.1202
 9551SOL    HW140112   2.983   4.384   1.023 -0.5502  1.2780  1.5532
 9551SOL    HW240113   3.114   4.431   1.039  1.9941 -0.7614  0.6706
 9552SOL     OW40114   1.657   1.706   2.433  0.1267 -0.4138  0.4595
 9552SOL    HW140115   1.717   1.710   2.359  0.0284  0.4576  0.4166
 9552SOL    HW240116   1.717   1.754   2.490  0.2016  0.6734 -0.5166
 9553SOL     OW40117   0.257   0.747   7.838 -0.3003  0.4928  0.5904
 9553SOL    HW140118   0.230   0.773   7.926  0.1996  2.4465  0.1709
 9553SOL    HW240119   0.175   0.755   7.790 -1.0915  0.9474  2.0250
 9554SOL     OW40120   1.047   0.103   4.185  0.1943  0.1796  0.3763
 9554SOL    HW140121   1.106   0.045   4.136  0.0958  1.7460 -1.5912
 9554SOL    HW240122   0.978   0.120   4.120  0.4656  0.7428  0.2400
 9555SOL     OW40123   0.958   2.802   6.089  0.4767  0.2320 -0.0376
 9555SOL    HW140124   1.042   2.764   6.063  0.7871  1.4793 -0.8233
 9555SOL    HW240125   0.981   2.824   6.179 -0.2186  0.4683  0.0803
 9556SOL     OW40126   1.158   2.755  15.237  0.6408  0.0895 -0.1512
 9556SOL    HW140127   1.237   2.728  15.191  0.3594  0.3779 -0.8032
 9556SOL    HW240128   1.138   2.662  15.247  3.3613 -0.2952  1.7489
 9557SOL     OW40129   1.522   4.292   1.815  0.1730 -0.3642 -0.6804
 9557SOL    HW140130   1.617   4.277   1.825 -0.2593 -1.6974  1.5293
 9557SOL    HW240131   1.498   4.201   1.798 -0.4444 -0.3610  0.1602
 9558SOL     OW40132   1.833   1.479   9.068 -0.0166 -0.0168 -0.1919
 9558SOL    HW140133   1.927   1.458   9.061  0.2027  1.3341 -1.2312
 9558SOL    HW240134   1.836   1.540   9.142 -0.1771 -2.9248  2.2214
 9559SOL     OW40135   1.520   0.463   5.068 -0.5253 -0.2487 -0.1738
 9559SOL    HW140136   1.555   0.417   4.991  2.8129  1.8396  0.0806
 9559SOL    HW240137   1.437   0.493   5.032 -0.1596  0.3346 -0.5414
 9560SOL     OW40138   2.588   1.062   9.771  0.0470  0.2087  0.7961
 9560SOL    HW140139   2.639   1.071   9.852  1.1557  2.8993 -0.2030
 9560SOL    HW240140   2.517   1.001   9.793  0.4142  0.1348  1.7674
 9561SOL     OW40141   1.002   3.153   1.170 -0.5107  0.5129 -0.0367
 9561SOL    HW140142   1.074   3.091   1.179  2.4217  3.6932 -1.8598
 9561SOL    HW240143   0.985   3.137   1.077  3.4697 -0.9089 -0.5208
 9562SOL     OW40144   2.138   4.040  16.585  0.5815  0.2661 -0.4819
 9562SOL    HW140145   2.187   3.958  16.578 -0.7699 -0.4117 -2.2433
 9562SOL    HW240146   2.173   4.084  16.662  1.0533  1.1449 -1.1922
 9563SOL     OW40147   0.062   2.181   3.916  0.0556  0.1315  0.1806
 9563SOL    HW140148   0.022   2.188   4.002  2.1328 -0.3702  1.1823
 9563SOL    HW240149   0.146   2.152   3.952  1.3631  0.5018 -2.5785
 9564SOL     OW40150   4.167   3.109   7.964  0.0427 -0.1130 -0.6463
 9564SOL    HW140151   4.098   3.176   7.964  0.9730  0.8258  0.4763
 9564SOL    HW240152   4.188   3.106   8.057 -1.8542 -3.1571 -0.3039
 9565SOL     OW40153   2.929   2.677   1.299 -0.2594 -0.2304  0.4123
 9565SOL    HW140154   2.859   2.736   1.326 -0.9837 -1.2246  0.7405
 9565SOL    HW240155   2.937   2.611   1.369  0.3492 -0.6785 -0.0775
   4.72417   4.72417  17.69827
