Membrane in water
40155
    1TCq1    O1    1   1.479   1.371  10.723  0.1902 -0.0014  0.1113
    1TCq1    C1    2   1.476   1.429  10.841 -0.2975  0.0766  0.6804
    1TCq1    O2    3   1.554   1.402  10.931  1.1652  0.7261  0.5716
    1TCq1    C2    4   1.356   1.505  10.857  0.2457  0.5059  0.2123
    1TCq1    C3    5   1.239   1.475  10.784  0.0553  0.1182  0.3829
    1TCq1    C4    6   1.119   1.504  10.836  0.4791  0.0578 -0.0486
    1TCq1    C5    7   1.105   1.551  10.962  0.1745  0.1683  0.3684
    1TCq1    C6    8   1.224   1.569  11.040 -0.1603  0.2577 -0.1532
    1TCq1    C7    9   1.346   1.551  10.979 -0.0282  0.5707 -0.5882
    1TCq1    C8   10   1.218   1.644  11.161 -0.2641 -0.1602  0.0166
    1TCq1    O4   11   1.327   1.662  11.216  0.3485 -0.3284 -0.4701
    1TCq1    C9   12   1.001   1.483  10.759 -0.2193  0.0537 -0.5417
    1TCq1    O5   13   1.018   1.397  10.667 -0.7016 -0.1207  0.5644
    1TCq1    O6   14   0.888   1.526  10.804  0.2200 -0.5840 -0.0583
    1TCq1    H1   15   1.424   1.418  10.656  1.4947 -1.8570 -2.2502
    1TCq1    H2   16   1.241   1.415  10.693 -2.6589  1.4817 -0.5688
    1TCq1    H3   17   1.007   1.584  10.993 -0.4901 -1.7699  0.3080
    1TCq1    H4   18   1.437   1.567  11.036  1.8528 -0.6167 -3.2958
    2MPD2     C   19   0.978   1.912  11.529 -0.2434  0.1051  0.5279
    2MPD2    C1   20   1.108   1.890  11.505 -0.5684 -0.1580  0.1742
    2MPD2    C2   21   1.152   1.816  11.399  0.8314  0.5794  0.3190
    2MPD2    C3   22   1.058   1.757  11.308  0.4312  0.6713 -0.0095
    2MPD2    C4   23   0.930   1.798  11.332 -0.0464 -0.4292 -0.1669
    2MPD2    C5   24   0.886   1.870  11.437  0.5375  0.5427 -0.2664
    2MPD2     H   25   1.259   1.806  11.386  0.8118 -0.2345  0.7756
    2MPD2    H1   26   0.852   1.772  11.262  0.3044  0.2784 -0.8181
    2MPD2    H2   27   0.939   1.966  11.615  0.7722 -0.5960  1.4356
    2MPD2    H3   28   0.780   1.875  11.454  0.2602  2.1214 -2.3646
    2MPD2     N   29   1.090   1.679  11.195  0.3814  0.0161  0.1134
    2MPD2    H5   30   1.014   1.654  11.133 -1.2364 -0.1201  2.1472
    2MPD2    N1   31   1.206   1.938  11.587 -0.1284  0.8102  0.3823
    2MPD2    H7   32   1.304   1.925  11.563 -0.5092 -1.2172 -0.0143
    3TCq1    O1   33   0.797   2.968  11.426  0.5746  0.0899  0.5589
    3TCq1    C1   34   0.912   3.022  11.466 -0.2220 -0.1582 -0.0312
    3TCq1    O2   35   1.013   2.954  11.474 -0.2011  0.0946 -0.5977
    3TCq1    C2   36   0.912   3.155  11.406  0.2067 -0.2667  0.3607
    3TCq1    C3   37   1.025   3.200  11.346 -0.1629 -0.0935  0.0712
    3TCq1    C4   38   1.039   3.329  11.323 -0.1707  0.8595  0.2764
    3TCq1    C5   39   0.930   3.414  11.338 -0.6024  0.6100  0.1034
    3TCq1    C6   40   0.817   3.362  11.396 -0.2690  0.4655 -0.9461
    3TCq1    C7   41   0.805   3.231  11.433  0.0756 -0.5759  0.4227
    3TCq1    C8   42   0.720   3.447  11.456  0.2897  0.0194  0.0864
    3TCq1    O4   43   0.638   3.400  11.535 -0.5874 -0.3284  0.1125
    3TCq1    C9   44   1.164   3.384  11.276 -0.5489 -0.5241 -0.5994
    3TCq1    O5   45   1.181   3.505  11.306 -0.7927 -0.3903  0.2727
    3TCq1    O6   46   1.252   3.303  11.221  0.5503  0.4586 -0.7147
    3TCq1    H1   47   0.727   3.013  11.374 -0.0435 -1.3325  0.1528
    3TCq1    H2   48   1.114   3.138  11.340  1.5267  2.2214  1.5534
    3TCq1    H3   49   0.954   3.520  11.337 -0.9084  0.7249  3.7782
    3TCq1    H4   50   0.714   3.189  11.474 -0.5351 -1.0189 -1.3872
    4MPD2     C   51   0.538   3.911  11.544 -0.1617 -0.8535  0.2205
    4MPD2    C1   52   0.632   3.932  11.442  0.0939  0.4224 -0.0311
    4MPD2    C2   53   0.696   3.815  11.408  0.6233  0.5816 -0.5454
    4MPD2    C3   54   0.667   3.694  11.468 -0.2836 -0.5481  0.2098
    4MPD2    C4   55   0.576   3.682  11.566 -0.3048 -0.0873  0.2051
    4MPD2    C5   56   0.505   3.791  11.603 -0.1554 -0.5803 -0.1207
    4MPD2     H   57   0.770   3.817  11.328 -0.8568 -1.6631 -1.9749
    4MPD2    H1   58   0.554   3.590  11.620  0.7299 -0.1723  0.4901
    4MPD2    H2   59   0.467   3.988  11.572 -0.1109 -1.0252  0.8191
    4MPD2    H3   60   0.426   3.781  11.677  0.9027  0.8111  1.1890
    4MPD2     N   61   0.733   3.576  11.419 -0.6092  0.0903  0.2355
    4MPD2    H5   62   0.803   3.596  11.348  0.8065  1.1552  1.9465
    4MPD2    N1   63   0.654   4.059  11.384  0.2002  0.1826  0.2673
    4MPD2    H7   64   0.711   4.060  11.301 -2.2459 -0.8555 -1.4394
    5TCq1    O1   65   1.401   0.847  11.947  0.0747  0.2956 -0.1444
    5TCq1    C1   66   1.404   0.800  11.817  0.2727 -0.0566 -0.5330
    5TCq1    O2   67   1.332   0.710  11.771 -0.2596  0.3458 -0.1206
    5TCq1    C2   68   1.477   0.893  11.728 -0.0216  0.1342  0.0286
    5TCq1    C3   69   1.528   1.014  11.772  0.5352  0.1351  0.2977
    5TCq1    C4   70   1.573   1.098  11.677  0.1638  0.0942  0.8232
    5TCq1    C5   71   1.569   1.067  11.543 -0.2593  0.1609  0.2676
    5TCq1    C6   72   1.522   0.949  11.501 -0.0262 -0.1809 -0.2922
    5TCq1    C7   73   1.476   0.860  11.596 -0.0227 -0.3835  0.5236
    5TCq1    C8   74   1.561   0.888  11.371 -0.1736 -0.0892  0.0457
    5TCq1    O4   75   1.551   0.766  11.352 -0.4582 -0.7310  0.2483
    5TCq1    C9   76   1.619   1.232  11.719 -0.7808 -0.2513 -0.0554
    5TCq1    O5   77   1.636   1.315  11.627 -0.3276 -0.1150  0.1337
    5TCq1    O6   78   1.604   1.271  11.837  0.2201 -0.4884  0.5238
    5TCq1    H1   79   1.471   0.914  11.957  0.7066 -0.1118 -1.8881
    5TCq1    H2   80   1.530   1.045  11.876  0.8415 -1.1283  0.6661
    5TCq1    H3   81   1.599   1.143  11.472  1.8419  0.4973  1.4902
    5TCq1    H4   82   1.439   0.764  11.563 -0.9180  0.1664 -0.0837
    6MPD2     C   83   1.648   1.086  11.075 -0.4008  0.0706  0.0217
    6MPD2    C1   84   1.614   0.974  11.140 -0.0987 -0.5292  0.1923
    6MPD2    C2   85   1.599   0.851  11.072 -0.5313 -0.4964  0.5007
    6MPD2    C3   86   1.641   0.838  10.938  0.3348 -0.4247 -1.2792
    6MPD2    C4   87   1.668   0.956  10.866  0.6521  0.1207 -0.1230
    6MPD2    C5   88   1.664   1.080  10.937  0.7212  0.8745 -0.2935
    6MPD2     H   89   1.582   0.756  11.121  1.0056 -2.6056 -3.0979
    6MPD2    H1   90   1.693   0.961  10.761 -1.0917  0.6423 -0.5226
    6MPD2    H2   91   1.649   1.187  11.115 -2.3812  0.9908 -2.2247
    6MPD2    H3   92   1.681   1.173  10.884  0.2375  1.1049 -0.0446
    6MPD2     N   93   1.641   0.709  10.878 -0.0031 -0.2868 -0.2912
    6MPD2    H5   94   1.612   0.627  10.930  1.3778  0.4077  1.5346
    6MPD2    N1   95   1.586   0.992  11.278 -0.4430  0.2315  0.3333
    6MPD2    H7   96   1.581   1.089  11.308 -0.9701  0.6096 -0.9514
    7TCq1    O1   97   3.229   0.276  13.183 -0.2356  0.0687 -0.1451
    7TCq1    C1   98   3.345   0.215  13.205  0.1689 -0.4342 -0.2535
    7TCq1    O2   99   3.458   0.254  13.181  0.1001  0.2072  0.1597
    7TCq1    C2  100   3.305   0.077  13.207 -0.2759  0.1334 -0.0205
    7TCq1    C3  101   3.203   0.027  13.129 -0.3306  0.4000  0.3920
    7TCq1    C4  102   3.196   4.616  13.099 -0.0538 -1.3332  0.5907
    7TCq1    C5  103   3.293   4.532  13.147 -0.0474  0.1235  0.3635
    7TCq1    C6  104   3.392   4.586  13.226 -0.1361  0.1209 -0.5814
    7TCq1    C7  105   3.402   0.000  13.261  0.1438 -0.1762  0.2222
    7TCq1    C8  106   3.494   4.485  13.263 -0.3241 -0.1840 -0.2833
    7TCq1    O4  107   3.499   4.377  13.205 -0.0777 -0.4114 -0.3475
    7TCq1    C9  108   3.090   4.554  13.016 -0.1108 -0.6126  0.2765
    7TCq1    O5  109   2.981   4.616  13.003  0.1572 -0.4868  0.5329
    7TCq1    O6  110   3.095   4.437  12.980 -0.1679 -0.1065 -0.4505
    7TCq1    H1  111   3.147   0.232  13.215  0.8565 -1.9337 -0.1456
    7TCq1    H2  112   3.131   0.095  13.086 -0.6444 -0.1460  0.0688
    7TCq1    H3  113   3.289   4.428  13.118  1.2166 -0.1748  1.2551
    7TCq1    H4  114   3.491   0.041  13.307  0.8192 -0.0244 -1.2388
    8MPD2     C  115   3.915   4.412  13.570 -0.0210  0.2340 -0.1669
    8MPD2    C1  116   3.836   4.323  13.495 -0.5470 -0.0249 -0.3063
    8MPD2    C2  117   3.725   4.357  13.426 -0.3209 -0.9723  0.1357
    8MPD2    C3  118   3.679   4.486  13.434  0.0370 -0.9033  0.3920
    8MPD2    C4  119   3.756   4.578  13.511  0.1474  0.2193  0.6938
    8MPD2    C5  120   3.866   4.542  13.583 -0.1272 -0.0004  0.0987
    8MPD2     H  121   3.665   4.291  13.363 -2.1638  1.0716 -0.2433
    8MPD2    H1  122   3.725   4.682  13.506 -0.8071  0.0575  3.3729
    8MPD2    H2  123   4.013   4.389  13.611 -0.3251  0.3629  0.6275
    8MPD2    H3  124   3.923   4.617  13.636 -2.6811  1.3695  0.9222
    8MPD2     N  125   3.557   4.536  13.372 -0.3948 -0.0868 -0.1606
    8MPD2    H5  126   3.510   4.621  13.401 -0.2301  0.4510 -1.4999
    8MPD2    N1  127   3.880   4.193  13.498 -0.3219 -0.3811  0.4879
    8MPD2    H7  128   3.937   4.166  13.577 -0.7337  0.5435  1.1007
    9TCq1    O1  129   2.104   3.971  10.953  0.8059  0.0836 -0.2078
    9TCq1    C1  130   2.001   4.018  11.015 -0.2658  0.3915 -0.2835
    9TCq1    O2  131   1.939   4.121  10.979 -0.4077 -0.6897  0.1516
    9TCq1    C2  132   1.940   3.903  11.068  0.7233 -0.1878  0.4846
    9TCq1    C3  133   1.966   3.767  11.028 -0.3716 -0.0589 -0.1450
    9TCq1    C4  134   1.881   3.672  11.081 -0.0054  0.6113 -0.2967
    9TCq1    C5  135   1.769   3.696  11.154  0.5734  0.1808 -0.2205
    9TCq1    C6  136   1.738   3.823  11.175  0.0330  0.3526  0.1406
    9TCq1    C7  137   1.819   3.924  11.133 -0.2813  0.1430  0.1333
    9TCq1    C8  138   1.639   3.849  11.273 -0.6460  0.0838 -0.1225
    9TCq1    O4  139   1.589   3.960  11.267 -0.9765 -0.4471 -0.2262
    9TCq1    C9  140   1.912   3.534  11.051  0.5547 -0.4283  0.1642
    9TCq1    O5  141   2.011   3.511  10.974 -0.3107 -0.0894  0.6176
    9TCq1    O6  142   1.858   3.443  11.112  0.3283  0.4417  0.4182
    9TCq1    H1  143   2.138   3.897  11.009 -1.7007 -0.0054  1.1976
    9TCq1    H2  144   2.057   3.748  10.972 -0.9434 -1.7282 -0.5084
    9TCq1    H3  145   1.705   3.612  11.180  1.2469 -1.0282 -2.4024
    9TCq1    H4  146   1.801   4.023  11.173  0.6687 -0.0971  1.1455
   10MPD2     C  147   1.442   3.846  11.502  0.0244 -0.0252 -0.6945
   10MPD2    C1  148   1.545   3.760  11.488 -0.1241 -0.6055 -0.1643
   10MPD2    C2  149   1.560   3.662  11.585 -0.1761  0.5653  0.0048
   10MPD2    C3  150   1.485   3.664  11.701  0.3782 -0.2217 -0.6615
   10MPD2    C4  151   1.390   3.753  11.713  0.9140  0.0530 -0.5635
   10MPD2    C5  152   1.364   3.837  11.610 -0.2129 -0.0149 -0.0633
   10MPD2     H  153   1.638   3.590  11.561  1.5005  1.1325  3.6861
   10MPD2    H1  154   1.327   3.750  11.801  1.6528 -1.8377 -0.1196
   10MPD2    H2  155   1.417   3.918  11.426 -2.9858  0.8454  1.1003
   10MPD2    H3  156   1.288   3.913  11.624 -1.6913 -1.4938  0.0232
   10MPD2     N  157   1.493   3.565  11.800 -0.2564  0.6205 -0.0270
   10MPD2    H5  158   1.427   3.563  11.877  3.0314 -0.4419  2.7185
   10MPD2    N1  159   1.625   3.746  11.368 -0.2539 -0.8626  0.2930
   10MPD2    H7  160   1.682   3.662  11.362 -0.2738 -0.9291  1.0904
   11TCq1    O1  161   3.102   2.825  13.594 -0.1690 -0.1101 -0.7490
   11TCq1    C1  162   2.977   2.849  13.641 -0.7079 -0.3844 -0.4598
   11TCq1    O2  163   2.889   2.766  13.658  0.3776 -0.2378  0.3641
   11TCq1    C2  164   2.950   2.991  13.632 -0.1326  0.3255 -0.2639
   11TCq1    C3  165   3.036   3.074  13.571 -0.5636 -0.2396  0.1280
   11TCq1    C4  166   3.002   3.206  13.568  0.8424 -0.3108  0.5816
   11TCq1    C5  167   2.897   3.260  13.640 -0.2647  0.3048  0.4996
   11TCq1    C6  168   2.814   3.170  13.701 -0.7436  0.3580  0.6593
   11TCq1    C7  169   2.836   3.030  13.698  0.2534  0.3071 -0.0219
   11TCq1    C8  170   2.679   3.218  13.707 -0.1511 -0.3898  0.0084
   11TCq1    O4  171   2.666   3.338  13.727  0.5647  0.2882  0.6568
   11TCq1    C9  172   3.082   3.294  13.490 -0.2566 -0.3341  0.4498
   11TCq1    O5  173   3.021   3.382  13.430 -0.1274 -0.1558 -0.7596
   11TCq1    O6  174   3.206   3.260  13.488  0.5207  0.0192 -0.5514
   11TCq1    H1  175   3.168   2.897  13.600  1.0420 -1.1050 -2.0340
   11TCq1    H2  176   3.126   3.039  13.522 -0.3472 -0.2038  0.5035
   11TCq1    H3  177   2.871   3.365  13.638 -0.7113  0.2886  4.0051
   11TCq1    H4  178   2.774   2.955  13.745  1.0290  0.0616  0.5953
   12MPD2     C  179   2.384   3.245  13.746 -0.1736 -0.0574 -0.1407
   12MPD2    C1  180   2.452   3.118  13.725 -0.2368  0.1873  0.3193
   12MPD2    C2  181   2.380   3.004  13.724 -0.6004 -0.0058 -0.0872
   12MPD2    C3  182   2.246   3.004  13.723  0.1464  0.0940  0.2354
   12MPD2    C4  183   2.175   3.120  13.717 -0.0133 -0.2034  0.4218
   12MPD2    C5  184   2.246   3.239  13.729  0.7268  0.1021  0.2992
   12MPD2     H  185   2.426   2.906  13.721 -0.8239 -0.1201  0.1588
   12MPD2    H1  186   2.067   3.126  13.710 -0.1243  0.1399  2.5260
   12MPD2    H2  187   2.434   3.339  13.767  4.1074 -2.1006 -1.1557
   12MPD2    H3  188   2.190   3.332  13.733 -0.7648 -0.8206  0.7172
   12MPD2     N  189   2.174   2.882  13.722 -0.1244  0.0821 -0.0431
   12MPD2    H5  190   2.073   2.890  13.711 -0.2751 -0.8235  0.6673
   12MPD2    N1  191   2.590   3.113  13.698 -0.8360  0.0836  0.2066
   12MPD2    H7  192   2.633   3.027  13.665 -0.2151 -0.3501  2.1061
   13TCq1    O1  193   0.902   2.286  11.263  0.0510  0.1164 -0.1550
   13TCq1    C1  194   0.931   2.264  11.390 -0.5583 -0.2017  0.3416
   13TCq1    O2  195   0.861   2.291  11.489  0.6568  0.1945  0.1339
   13TCq1    C2  196   1.066   2.295  11.392  0.1465 -0.5874 -0.1987
   13TCq1    C3  197   1.161   2.209  11.341 -0.7552 -0.0914  0.2906
   13TCq1    C4  198   1.293   2.240  11.350  0.1695 -0.0927  0.0222
   13TCq1    C5  199   1.328   2.361  11.411 -0.0141 -0.2426 -0.1096
   13TCq1    C6  200   1.232   2.453  11.432  0.3281  0.4438  0.0820
   13TCq1    C7  201   1.102   2.425  11.413 -0.3450  0.9475 -0.4267
   13TCq1    C8  202   1.264   2.593  11.463 -0.2371 -0.2462  0.0991
   13TCq1    O4  203   1.168   2.670  11.452 -0.5065 -0.6265  0.5422
   13TCq1    C9  204   1.398   2.163  11.292 -0.5447  0.9483  0.3012
   13TCq1    O5  205   1.517   2.185  11.331 -0.5510  0.2655  0.4089
   13TCq1    O6  206   1.364   2.087  11.201  0.1182 -0.0381  0.0873
   13TCq1    H1  207   0.980   2.282  11.204 -0.9664 -2.4102 -1.3404
   13TCq1    H2  208   1.141   2.121  11.281 -1.4945  0.3973 -0.1953
   13TCq1    H3  209   1.432   2.388  11.399  0.1190 -0.8523 -0.3590
   13TCq1    H4  210   1.026   2.497  11.439 -1.6524 -0.2654 -0.8659
   14MPD2     C  211   1.564   2.794  11.552  0.0441 -1.0746 -0.1353
   14MPD2    C1  212   1.432   2.759  11.543  0.1606 -0.4217 -0.1649
   14MPD2    C2  213   1.344   2.868  11.556 -0.3673 -0.4479  0.8425
   14MPD2    C3  214   1.388   2.998  11.573 -0.1839  0.5085 -0.0096
   14MPD2    C4  215   1.517   3.026  11.582 -0.0465  0.4593 -0.2429
   14MPD2    C5  216   1.601   2.922  11.574 -0.0444 -0.3204 -0.3039
   14MPD2     H  217   1.238   2.854  11.541 -0.3026 -1.1783  1.0603
   14MPD2    H1  218   1.547   3.129  11.600  1.8950  0.0669 -1.2250
   14MPD2    H2  219   1.641   2.717  11.547 -0.0710 -1.1481 -0.7639
   14MPD2    H3  220   1.707   2.944  11.580 -0.2031  0.1198  0.8786
   14MPD2     N  221   1.286   3.096  11.593 -0.2635  0.3738  0.1271
   14MPD2    H5  222   1.195   3.054  11.603 -0.9687  1.6332 -0.9835
   14MPD2    N1  223   1.388   2.626  11.502 -0.5116  0.2819  0.3374
   14MPD2    H7  224   1.465   2.561  11.488  0.3150  0.9596  1.7618
   15TCq1    O1  225   3.561   2.833   1.819 -0.9854 -0.5642  0.4143
   15TCq1    C1  226   3.471   2.755   1.878  0.4165  0.2188  0.2364
   15TCq1    O2  227   3.402   2.784   1.974  0.2087  0.0413  0.3010
   15TCq1    C2  228   3.408   2.697   1.763 -0.7501 -0.0585  0.3283
   15TCq1    C3  229   3.271   2.691   1.763  0.4146 -0.0024 -0.0913
   15TCq1    C4  230   3.204   2.644   1.652 -0.0184  0.0253  0.7334
   15TCq1    C5  231   3.274   2.607   1.539 -0.3030 -0.0626 -0.8259
   15TCq1    C6  232   3.414   2.610   1.543 -0.1837  0.1862  0.0107
   15TCq1    C7  233   3.481   2.650   1.657 -0.3816 -0.0087 -0.0034
   15TCq1    C8  234   3.494   2.540   1.442  0.0976 -0.6461  0.0585
   15TCq1    O4  235   3.611   2.526   1.461 -0.1395  0.1068  0.0602
   15TCq1    C9  236   3.064   2.658   1.641  0.0317  0.7955  0.3653
   15TCq1    O5  237   3.008   2.699   1.744  0.1535 -0.3514  0.0613
   15TCq1    O6  238   3.017   2.602   1.537 -0.1390  0.0582  0.0857
   15TCq1    H1  239   3.591   2.796   1.733 -0.0562 -0.2969  0.6137
   15TCq1    H2  240   3.218   2.724   1.852 -0.4107 -2.4687  0.3518
   15TCq1    H3  241   3.221   2.582   1.449 -0.3265 -1.5179 -0.4045
   15TCq1    H4  242   3.586   2.627   1.670 -0.1626  1.0051  0.0186
   16MPD2     C  243   3.355   2.359   1.151 -0.2068 -0.1725  0.0620
   16MPD2    C1  244   3.463   2.403   1.231 -0.5852 -0.0008  0.6401
   16MPD2    C2  245   3.599   2.360   1.214  0.8289 -0.2321 -0.0777
   16MPD2    C3  246   3.624   2.274   1.105  0.3335  0.1670 -1.0668
   16MPD2    C4  247   3.518   2.220   1.037 -0.1874 -0.2685  0.1904
   16MPD2    C5  248   3.385   2.253   1.063  0.2448  0.5193  0.2114
   16MPD2     H  249   3.679   2.407   1.270  0.7422  1.2966 -1.2421
   16MPD2    H1  250   3.548   2.150   0.960 -1.5122  0.5963 -1.1157
   16MPD2    H2  251   3.251   2.385   1.167 -0.4054 -1.1820  0.4218
   16MPD2    H3  252   3.312   2.195   1.007 -0.1372  1.0974  0.1173
   16MPD2     N  253   3.762   2.241   1.087  0.8189 -0.0143 -0.2927
   16MPD2    H5  254   3.830   2.285   1.148  0.8999  1.1257 -1.2164
   16MPD2    N1  255   3.418   2.489   1.337 -0.0244  0.1105 -0.3262
   16MPD2    H7  256   3.322   2.521   1.334  0.0812  0.4393 -0.1507
   17TCq1    O1  257   1.204   1.982  11.046  0.0883 -0.0746 -0.8475
   17TCq1    C1  258   1.211   1.927  10.923  0.4617  0.7086  0.0316
   17TCq1    O2  259   1.127   1.854  10.869 -0.3785 -0.7260 -0.2035
   17TCq1    C2  260   1.350   1.944  10.878 -0.3567 -0.0296  0.2519
   17TCq1    C3  261   1.402   2.072  10.885  0.3315 -0.3640 -0.4668
   17TCq1    C4  262   1.520   2.100  10.822 -0.0338  0.1687 -0.0952
   17TCq1    C5  263   1.560   2.011  10.728  0.1115  0.0982 -0.1249
   17TCq1    C6  264   1.487   1.894  10.700 -0.3148  0.1388  0.9978
   17TCq1    C7  265   1.384   1.857  10.774  0.1844  0.6035  0.1027
   17TCq1    C8  266   1.548   1.784  10.624 -0.0460  0.3561  0.1532
   17TCq1    O4  267   1.524   1.668  10.656 -0.7343 -0.0839  0.2003
   17TCq1    C9  268   1.596   2.223  10.841  0.2413  0.1185  0.0591
   17TCq1    O5  269   1.694   2.247  10.764  0.2723  0.4543 -0.2227
   17TCq1    O6  270   1.546   2.306  10.923  0.1021  0.3101  0.7759
   17TCq1    H1  271   1.280   2.029  11.085  0.4084 -2.4782  1.4873
   17TCq1    H2  272   1.372   2.148  10.958 -0.1401 -0.0126 -1.0275
   17TCq1    H3  273   1.660   2.022  10.687 -0.5171  1.2070 -1.3237
   17TCq1    H4  274   1.324   1.769  10.755 -0.6989  0.8616  1.6964
   18MPD2     C  275   1.671   1.612  10.405  0.5687 -0.8261 -0.4123
   18MPD2    C1  276   1.696   1.750  10.426  0.1212  0.5891  0.1963
   18MPD2    C2  277   1.775   1.815  10.335 -0.5581  0.1988 -0.2507
   18MPD2    C3  278   1.846   1.739  10.243 -0.3331  0.1418 -0.2311
   18MPD2    C4  279   1.835   1.601  10.240 -0.5392  0.2190 -0.0608
   18MPD2    C5  280   1.736   1.542  10.317 -0.3212  0.3869  0.3428
   18MPD2     H  281   1.784   1.923  10.338  0.3789  0.1032  0.3605
   18MPD2    H1  282   1.896   1.536  10.178 -1.7359  0.8169 -1.8791
   18MPD2    H2  283   1.587   1.570  10.460  1.4980  0.2885  1.8445
   18MPD2    H3  284   1.704   1.439  10.312 -2.5443  1.1045 -0.4337
   18MPD2     N  285   1.948   1.799  10.163 -1.4151  0.0806 -0.4633
   18MPD2    H5  286   2.033   1.747  10.146 -1.6944 -0.6088  0.2381
   18MPD2    N1  287   1.627   1.833  10.522  0.4553  0.3082 -0.0128
   18MPD2    H7  288   1.649   1.932  10.521  2.0801 -0.0642 -0.6638
   19TMC2    C1  289   3.391   2.776  14.344 -0.4854  0.3082  0.6022
   19TMC2    C2  290   3.349   2.902  14.357 -0.2906 -0.3779  0.1491
   19TMC2    C3  291   3.216   2.930  14.332  0.1063  0.1579  0.0697
   19TMC2    C4  292   3.307   2.677  14.297  0.0993 -0.5682 -0.0043
   19TMC2    C5  293   3.177   2.702  14.275 -0.4832 -0.0351  0.4187
   19TMC2    C6  294   3.128   2.833  14.291  0.5065 -0.0218  0.0723
   19TMC2     C  295   3.509   2.723  14.404  0.1024 -0.1615  0.4591
   19TMC2     O  296   3.561   2.622  14.354  0.3683 -0.4362  0.1352
   19TMC2     H  297   3.414   2.974  14.405 -1.0567  0.5941 -0.2947
   19TMC2    H1  298   3.345   2.576  14.290  0.8036 -0.3315  0.4741
   19TMC2    H2  299   3.031   2.866  14.255 -0.1487 -0.5504  1.3540
   19TMC2    C7  300   3.088   2.588  14.253  0.5567 -0.7311 -0.1178
   19TMC2    C8  301   3.150   3.061  14.332  0.4503  0.4752 -0.0984
   19TMC2    O1  302   3.138   2.480  14.248  0.3425  0.3638 -0.3084
   19TMC2    O2  303   3.033   3.071  14.365  0.1881  0.0645  0.4908
   19TMC2    O5  304   3.241   3.157  14.355 -0.4919 -0.4620  0.3356
   19TMC2    H5  305   3.332   3.144  14.320 -0.6475  0.0675 -0.2680
   20MPD2     C  306   3.731   2.660  14.586 -0.4812 -0.2416  0.0992
   20MPD2    C1  307   3.640   2.763  14.608 -0.5819 -0.1701  0.2143
   20MPD2    C2  308   3.643   2.822  14.735 -0.1838 -0.2374 -0.3899
   20MPD2    C3  309   3.727   2.785  14.832  0.8360 -0.9557  0.4094
   20MPD2    C4  310   3.823   2.688  14.807 -0.2115 -0.1037  0.0097
   20MPD2    C5  311   3.828   2.630  14.683 -0.1796  0.4488 -0.1840
   20MPD2     H  312   3.576   2.906  14.748  1.8246  1.1840  0.9005
   20MPD2    H1  313   3.898   2.669  14.883  1.5795  0.1688 -1.6850
   20MPD2    H2  314   3.728   2.614  14.488 -0.2967  0.7896 -0.3928
   20MPD2    H3  315   3.895   2.549  14.658 -2.3719 -1.2247 -0.6146
   20MPD2     N  316   3.722   2.824  14.965  0.2514  0.3794  0.2496
   20MPD2    H5  317   3.788   2.781  15.028 -0.1366 -1.0589 -0.3248
   20MPD2    N1  318   3.532   2.788  14.525  0.6765 -0.3679  0.2429
   20MPD2    H7  319   3.461   2.850  14.562 -0.8532 -1.8063 -0.3158
   21MPD2     C  320   1.243   3.270  14.003  0.0818  0.0387 -0.4503
   21MPD2    C1  321   1.229   3.136  14.027 -0.2789  0.6513  0.4895
   21MPD2    C2  322   1.142   3.085  14.117 -0.3381  0.4321  0.1299
   21MPD2    C3  323   1.078   3.171  14.196 -0.9393 -0.0719  0.1201
   21MPD2    C4  324   1.097   3.304  14.184 -0.4977 -0.1272  0.3286
   21MPD2    C5  325   1.172   3.351  14.081  0.3121  0.4888  0.2485
   21MPD2     H  326   1.137   2.979  14.139 -0.4005  0.3818 -0.1352
   21MPD2    H1  327   1.047   3.369  14.256 -2.2832 -0.7025 -0.3883
   21MPD2    H2  328   1.302   3.299  13.917 -0.0173  0.5383 -0.3465
   21MPD2    H3  329   1.174   3.457  14.062 -2.5644  0.4754 -0.1788
   21MPD2     N  330   1.001   3.118  14.299 -0.9821 -0.3663  0.5725
   21MPD2    H5  331   1.012   3.018  14.315  0.6781 -0.0722  1.2542
   21MPD2    N1  332   1.310   3.057  13.944 -0.1148  0.1633 -0.1011
   21MPD2    H7  333   1.371   3.105  13.879 -0.5113  0.8181  0.0092
   22TCq2    C1  334   0.904   3.188  14.369 -0.2452  0.0864  0.0461
   22TCq2    O2  335   0.853   3.297  14.341  0.3433 -1.0311 -0.2118
   22TCq2    C2  336   0.851   3.095  14.469 -0.2410 -0.2035 -0.5724
   22TCq2    C3  337   0.943   3.016  14.534  0.1591 -0.6912 -0.5298
   22TCq2    C4  338   0.913   2.976  14.665 -0.4177 -0.0577  0.6195
   22TCq2    C5  339   0.782   2.986  14.713  0.5232 -0.7658  0.6230
   22TCq2    C6  340   0.693   3.060  14.642  0.1714  0.1058 -0.1859
   22TCq2    C7  341   0.732   3.129  14.525 -1.0846 -0.0193 -0.2205
   22TCq2    C8  342   0.563   3.079  14.703  1.1752  0.3564 -0.0437
   22TCq2    O4  343   0.529   3.014  14.801  0.1176  0.3156  0.7050
   22TCq2    C9  344   1.011   2.894  14.735  0.1825  0.2924  0.8029
   22TCq2    O5  345   0.978   2.842  14.842  0.1681  0.7343  0.3432
   22TCq2    O6  346   1.122   2.883  14.679  0.4152 -0.1544  0.3975
   22TCq2    H2  347   1.045   3.002  14.499  0.8016 -1.3223  1.5638
   22TCq2    H3  348   0.760   2.941  14.809  0.1808  0.7509  1.2639
   22TCq2    H4  349   0.665   3.195  14.472 -0.0786  0.4077 -0.9481
   23MPD2     C  350   2.322   3.970  14.556  0.1270 -0.4206 -0.7763
   23MPD2    C1  351   2.229   3.943  14.653 -0.3250  0.1928 -0.1066
   23MPD2    C2  352   2.097   3.934  14.617 -0.2888  0.4773  0.1365
   23MPD2    C3  353   2.054   3.947  14.483 -0.1312 -0.1038 -0.0390
   23MPD2    C4  354   2.154   3.991  14.395 -0.3174 -0.8452  0.7820
   23MPD2    C5  355   2.288   4.004  14.430 -0.2437 -0.2793  0.3226
   23MPD2     H  356   2.024   3.913  14.694 -3.6557  1.8532 -2.6789
   23MPD2    H1  357   2.125   4.021  14.295 -2.8996 -0.2862  1.6977
   23MPD2    H2  358   2.426   3.976  14.587 -0.2593 -2.0195  0.8191
   23MPD2    H3  359   2.367   4.036  14.363 -2.5433  0.4213 -2.0580
   23MPD2     N  360   1.923   3.923  14.436  0.8053  0.7256 -0.2806
   23MPD2    H5  361   1.902   3.953  14.341  2.0026 -0.4252 -0.9140
   23MPD2    N1  362   2.270   3.915  14.787 -0.3244 -0.7222 -0.0974
   23MPD2    H7  363   2.199   3.899  14.858 -1.1735 -4.4644 -1.7614
   24TCq2    C1  364   1.816   3.891  14.515  0.0002  0.1079  0.1322
   24TCq2    O2  365   1.809   3.896  14.636 -0.1057 -0.1657 -0.0523
   24TCq2    C2  366   1.691   3.879  14.443 -0.4978  0.4389  0.1849
   24TCq2    C3  367   1.697   3.902  14.308  0.1022  0.0215  0.3132
   24TCq2    C4  368   1.581   3.956  14.243 -0.0601  0.3806  0.0000
   24TCq2    C5  369   1.460   3.985  14.310  0.4488  0.0323  0.6293
   24TCq2    C6  370   1.459   3.944  14.440  0.1740  0.6369 -0.0365
   24TCq2    C7  371   1.571   3.890  14.505 -0.0493  0.2741 -0.3463
   24TCq2    C8  372   1.331   3.935  14.513 -0.3828 -0.5337  0.0897
   24TCq2    O4  373   1.341   3.868  14.613 -0.0798  0.0565 -0.1929
   24TCq2    C9  374   1.594   3.987  14.100  0.5493  0.1684  0.0954
   24TCq2    O5  375   1.711   3.976  14.053  0.2314  0.0935 -0.0644
   24TCq2    O6  376   1.490   4.038  14.048 -0.0590  0.2726 -0.1325
   24TCq2    H2  377   1.779   3.867  14.245 -1.4480 -1.1509 -1.0326
   24TCq2    H3  378   1.376   4.028  14.258  1.2467  0.0558 -0.6360
   24TCq2    H4  379   1.560   3.863  14.609 -0.7323  0.2038 -0.4306
   25TMC2    C1  380   1.308   1.455  11.507  0.6327  0.2141 -0.4080
   25TMC2    C2  381   1.426   1.501  11.547 -0.4607  0.2624 -0.6976
   25TMC2    C3  382   1.422   1.567  11.665 -0.0277 -0.0108  0.0034
   25TMC2    C4  383   1.193   1.463  11.580  0.0028  0.9022  0.2288
   25TMC2    C5  384   1.190   1.548  11.685 -0.8905  0.0025  0.5597
   25TMC2    C6  385   1.304   1.603  11.735  1.0217 -0.2863 -0.0074
   25TMC2     C  386   1.318   1.362  11.391 -0.3945 -0.3734  0.8236
   25TMC2     O  387   1.428   1.306  11.375  0.5928  0.6225  0.0328
   25TMC2     H  388   1.516   1.471  11.494  1.1767  1.4064  1.4196
   25TMC2    H1  389   1.112   1.395  11.553 -1.2915  2.0834  1.1626
   25TMC2    H2  390   1.307   1.669  11.821 -0.8788  1.2087 -1.0551
   25TMC2    C7  391   1.069   1.560  11.763 -0.1209 -0.3262  0.3972
   25TMC2    C8  392   1.536   1.635  11.712  0.5596 -0.0245  0.1176
   25TMC2    O1  393   1.085   1.581  11.883 -0.2682  0.2329 -0.2713
   25TMC2    O2  394   1.528   1.744  11.768  0.6373  0.4900  0.5919
   25TMC2    O5  395   1.650   1.569  11.680  0.2401 -0.2606  0.1253
   25TMC2    H5  396   1.632   1.474  11.664  1.0243 -1.2181  4.7644
   26MPD2     C  397   1.141   1.095  10.990 -0.5539 -0.5426  0.6786
   26MPD2    C1  398   1.035   1.174  11.035 -0.0868 -0.0900 -0.6121
   26MPD2    C2  399   1.056   1.257  11.150  0.2816  0.4812 -0.2983
   26MPD2    C3  400   1.188   1.264  11.207  0.1768  0.3526  0.3892
   26MPD2    C4  401   1.288   1.187  11.153  0.9215 -0.3613 -0.0828
   26MPD2    C5  402   1.266   1.104  11.048  0.4621 -0.2150 -0.2038
   26MPD2     H  403   0.979   1.327  11.181 -0.0757  0.3048 -0.7908
   26MPD2    H1  404   1.392   1.191  11.182  0.4995 -0.2743  1.4240
   26MPD2    H2  405   1.130   1.027  10.907  1.4139  0.9488 -0.7940
   26MPD2    H3  406   1.354   1.056  11.007 -1.3030 -2.8455 -1.0004
   26MPD2     N  407   1.204   1.353  11.317 -0.0090  0.3642  0.0384
   26MPD2    H5  408   1.119   1.398  11.349 -0.9018 -2.3167  1.4182
   26MPD2    N1  409   0.909   1.154  10.978 -0.1715 -0.2029  0.4382
   26MPD2    H7  410   0.893   1.092  10.898 -0.1838 -0.5813  0.7345
   27TMC2    C1  411   4.538   3.843  11.721  0.9489 -0.7985 -0.1289
   27TMC2    C2  412   4.561   3.888  11.597 -0.4753  0.3472  0.2648
   27TMC2    C3  413   4.567   4.029  11.577  1.1529 -0.6362  0.0585
   27TMC2    C4  414   4.520   3.930  11.827  0.3312  0.1393 -0.0842
   27TMC2    C5  415   4.516   4.062  11.798 -0.0998 -0.3498 -0.4287
   27TMC2    C6  416   4.526   4.111  11.675 -0.7718  0.2055  0.0028
   27TMC2     C  417   4.449   3.726  11.734  0.1031 -0.9940 -0.4430
   27TMC2     O  418   4.470   3.630  11.663 -0.5240  0.3120  0.1927
   27TMC2     H  419   4.571   3.815  11.517 -0.8746  0.3942  0.1732
   27TMC2    H1  420   4.511   3.886  11.925 -2.8997  0.3568 -0.3145
   27TMC2    H2  421   4.492   4.212  11.660  1.8675  0.8644 -1.5608
   27TMC2    C7  422   4.446   4.128  11.905 -0.1247  0.4541  0.0360
   27TMC2    C8  423   4.630   4.072  11.453  0.1918 -0.2702  0.0165
   27TMC2    O1  424   4.381   4.054  11.976  0.1874 -0.2845 -0.6810
   27TMC2    O2  425   4.637   3.997  11.356  0.0484 -0.0177  0.3865
   27TMC2    O5  426   0.007   4.158  11.487  0.2766  0.1746 -0.2700
   27TMC2    H5  427   0.007   4.189  11.580  0.5250  1.0767 -0.5705
   28MPD2     C  428   4.067   3.500  11.982  0.7844 -0.5123  0.0160
   28MPD2    C1  429   4.082   3.629  12.036  0.4927  0.1072  0.0726
   28MPD2    C2  430   4.178   3.711  11.978 -0.1083  0.8795 -0.3246
   28MPD2    C3  431   4.255   3.665  11.874  0.0719  0.1643 -0.0947
   28MPD2    C4  432   4.222   3.550  11.808  0.6586  0.3298  0.4312
   28MPD2    C5  433   4.138   3.463  11.868  0.2341  0.9881  0.5429
   28MPD2     H  434   4.211   3.806  12.018  0.7483 -0.0062  1.0821
   28MPD2    H1  435   4.267   3.516  11.716 -1.1581  0.5682 -0.5443
   28MPD2    H2  436   4.000   3.429  12.029 -0.2075  0.0180 -0.5954
   28MPD2    H3  437   4.121   3.365  11.824  2.0006  0.4952  0.9468
   28MPD2     N  438   4.348   3.754  11.822 -0.3852  0.4323 -0.0226
   28MPD2    H5  439   4.354   3.845  11.867  1.6000  0.1006  0.3659
   28MPD2    N1  440   4.008   3.664  12.152  0.1431 -0.3317  0.5158
   28MPD2    H7  441   3.943   3.593  12.186  0.6038 -0.4280  1.2043
   29MPD2     C  442   4.311   1.348  14.352  0.8350  0.2390  0.5154
   29MPD2    C1  443   4.403   1.269  14.426 -0.4099 -0.3978 -0.4429
   29MPD2    C2  444   4.443   1.311  14.554  0.0362 -0.0385 -0.0456
   29MPD2    C3  445   4.391   1.428  14.606  0.0454 -0.1853 -0.5851
   29MPD2    C4  446   4.306   1.505  14.526  0.0221  0.2040 -0.3728
   29MPD2    C5  447   4.266   1.462  14.406  0.3366  0.4595 -0.4595
   29MPD2     H  448   4.503   1.242  14.612 -1.0818 -0.1819  0.9134
   29MPD2    H1  449   4.283   1.605  14.561 -0.4310 -0.0667  0.0974
   29MPD2    H2  450   4.289   1.330  14.247 -0.4946 -1.2383  1.0564
   29MPD2    H3  451   4.211   1.529  14.340  0.0854  1.3380  0.6417
   29MPD2     N  452   4.401   1.484  14.736 -0.0887  0.1125 -1.0995
   29MPD2    H5  453   4.356   1.572  14.754 -0.5883 -0.4229  0.2671
   29MPD2    N1  454   4.461   1.146  14.378 -0.2127  0.0397  0.1553
   29MPD2    H7  455   4.530   1.111  14.444 -0.1609  1.6326  0.9385
   30TCq2    C1  456   4.460   1.422  14.843 -0.6051 -0.2179 -0.2358
   30TCq2    O2  457   4.528   1.322  14.838  0.0477 -0.2640 -0.1039
   30TCq2    C2  458   4.408   1.461  14.973 -0.0659 -0.3787  0.2344
   30TCq2    C3  459   4.363   1.360  15.050  0.0279  0.0205 -0.2144
   30TCq2    C4  460   4.278   1.381  15.155  0.0947  0.1035 -0.0833
   30TCq2    C5  461   4.239   1.504  15.192 -0.1394  0.0729 -0.1488
   30TCq2    C6  462   4.274   1.608  15.109  0.0640 -0.1802  0.0756
   30TCq2    C7  463   4.358   1.592  15.000 -0.1716 -0.1575 -0.4932
   30TCq2    C8  464   4.228   1.736  15.144 -0.2408  0.0212  0.8162
   30TCq2    O4  465   4.137   1.746  15.224 -0.3444 -0.6291 -0.2885
   30TCq2    C9  466   4.223   1.273  15.229  0.7077 -0.4600  0.3943
   30TCq2    O5  467   4.151   1.304  15.332  0.1725  0.0802 -0.0514
   30TCq2    O6  468   4.224   1.157  15.173 -0.4594 -0.1682  0.1975
   30TCq2    H2  469   4.392   1.259  15.024 -2.4872 -0.2393 -1.9922
   30TCq2    H3  470   4.169   1.527  15.272 -0.0448 -1.7363  0.4533
   30TCq2    H4  471   4.376   1.670  14.927 -0.0219  0.9877  0.7562
   31MPD2     C  472   2.455   0.396  14.365  0.9526  0.2815 -0.2867
   31MPD2    C1  473   2.326   0.434  14.401  0.3228 -0.1422 -0.5281
   31MPD2    C2  474   2.248   0.355  14.481  1.1499 -0.3574 -0.0239
   31MPD2    C3  475   2.290   0.238  14.529  0.4365  0.3887 -0.0197
   31MPD2    C4  476   2.420   0.196  14.485  0.9176  0.2369  0.2534
   31MPD2    C5  477   2.491   0.275  14.407  1.0169 -0.0513 -0.1714
   31MPD2     H  478   2.146   0.387  14.501  1.3826 -0.8213  1.8702
   31MPD2    H1  479   2.469   0.101  14.504  0.7236  0.1224  0.1826
   31MPD2    H2  480   2.523   0.464  14.314 -0.1404  0.8169 -1.0216
   31MPD2    H3  481   2.588   0.241  14.373  1.6766  1.1949  0.4684
   31MPD2     N  482   2.214   0.151  14.612  0.1168  0.2870 -0.4100
   31MPD2    H5  483   2.251   0.059  14.631  0.6471  0.4351 -0.7199
   31MPD2    N1  484   2.279   0.558  14.353  0.3314  0.3503  0.2362
   31MPD2    H7  485   2.349   0.613  14.306 -0.2909  2.2849  1.5603
   32TCq2    C1  486   2.107   0.195  14.683  0.0757 -0.5390 -0.3193
   32TCq2    O2  487   2.084   0.310  14.728 -0.1152 -0.1060 -0.2271
   32TCq2    C2  488   2.050   0.082  14.750 -0.1188  0.5993 -0.3954
   32TCq2    C3  489   2.034   4.680  14.681  0.1642  0.9336  0.2530
   32TCq2    C4  490   2.005   4.573  14.763 -0.0486  0.4454  0.1047
   32TCq2    C5  491   1.984   4.587  14.898  0.1368  0.0415 -0.4268
   32TCq2    C6  492   2.003   4.710  14.958 -0.9608 -0.0846  0.6753
   32TCq2    C7  493   2.027   0.103  14.883 -0.5516  0.3024 -0.0105
   32TCq2    C8  494   2.029   4.710  15.103 -0.0976 -0.5035 -0.3599
   32TCq2    O4  495   2.074   4.611  15.160 -0.5865 -0.4200  0.2753
   32TCq2    C9  496   2.027   4.444  14.708  0.1902 -0.8703 -0.0767
   32TCq2    O5  497   1.988   4.340  14.760  0.2655 -0.2699  0.1685
   32TCq2    O6  498   2.107   4.445  14.610 -0.2500 -0.2760 -0.4161
   32TCq2    H2  499   2.068   4.670  14.578 -2.0885  1.6485 -0.5672
   32TCq2    H3  500   1.966   4.498  14.958 -0.8502 -0.7616 -1.9199
   32TCq2    H4  501   2.043   0.201  14.924  0.9042  0.1672 -0.2392
   33MPD2     C  502   2.470   2.577  10.157 -0.4223 -0.6869  0.0131
   33MPD2    C1  503   2.344   2.544  10.139 -0.4777  0.2262  0.7494
   33MPD2    C2  504   2.252   2.647  10.123  0.4021  0.3810  0.2380
   33MPD2    C3  505   2.282   2.777  10.140  0.1812 -0.7261  0.2123
   33MPD2    C4  506   2.409   2.809  10.164  0.4534  0.3270  0.0172
   33MPD2    C5  507   2.501   2.709  10.167 -0.5945 -0.9360  0.7681
   33MPD2     H  508   2.149   2.628  10.097  0.2237 -0.0827  1.2947
   33MPD2    H1  509   2.442   2.912  10.164  4.7815 -1.0404 -0.1879
   33MPD2    H2  510   2.547   2.503  10.174  0.4437  0.2036  0.0260
   33MPD2    H3  511   2.608   2.727  10.170 -0.8902  0.8637  0.6510
   33MPD2     N  512   2.188   2.886  10.138  0.6243  0.7442  0.0199
   33MPD2    H5  513   2.227   2.979  10.151  1.3530  0.5780 -0.9505
   33MPD2    N1  514   2.313   2.410  10.124 -0.1666  0.4704  0.3543
   33MPD2    H7  515   2.392   2.346  10.124 -1.7205 -1.4620 -0.9547
   34TCq2    C1  516   2.047   2.877  10.139 -0.4442 -0.2247 -0.3746
   34TCq2    O2  517   1.975   2.779  10.135  0.3148  0.8502  0.4042
   34TCq2    C2  518   1.975   3.003  10.153 -0.2033  0.7519  0.0451
   34TCq2    C3  519   1.850   2.984  10.214  0.1563  0.4318  0.0343
   34TCq2    C4  520   1.794   3.094  10.277  0.5633 -0.5096 -0.4016
   34TCq2    C5  521   1.853   3.221  10.277  0.1940  0.6675  0.7875
   34TCq2    C6  522   1.967   3.227  10.207 -0.9463  0.1499 -0.0103
   34TCq2    C7  523   2.034   3.125  10.155  0.2710 -0.0920  0.1361
   34TCq2    C8  524   2.012   3.356  10.165 -0.4224 -0.1675 -0.2010
   34TCq2    O4  525   2.132   3.377  10.159 -0.2029 -0.6483  0.0048
   34TCq2    C9  526   1.667   3.085  10.343  0.3716 -0.6816 -0.0993
   34TCq2    O5  527   1.604   2.976  10.327  0.2323  0.4935 -0.2262
   34TCq2    O6  528   1.611   3.195  10.381 -0.0792  0.3823 -0.1293
   34TCq2    H2  529   1.791   2.894  10.221  0.4946  0.1763 -0.4291
   34TCq2    H3  530   1.801   3.303  10.324 -2.4246 -1.2982  1.3422
   34TCq2    H4  531   2.121   3.153  10.096 -1.0335  2.7540 -0.4516
   35MPD2     C  532   3.803   4.196  11.625 -0.2698 -0.0196  0.2582
   35MPD2    C1  533   3.794   4.063  11.658  0.3915 -0.1162  0.1190
   35MPD2    C2  534   3.765   3.975  11.557 -0.0230 -0.2298  0.7017
   35MPD2    C3  535   3.719   4.023  11.431 -0.2760 -0.7140 -0.3683
   35MPD2    C4  536   3.730   4.160  11.404  0.0762  0.0340 -1.0215
   35MPD2    C5  537   3.772   4.244  11.501 -0.3122  0.1318  0.7535
   35MPD2     H  538   3.761   3.868  11.574 -1.7420 -0.3092 -0.1475
   35MPD2    H1  539   3.706   4.204  11.307 -0.3034  1.3768 -0.3146
   35MPD2    H2  540   3.822   4.271  11.701  1.6209  1.5365 -1.7826
   35MPD2    H3  541   3.763   4.350  11.479 -1.2597  0.1068  1.0182
   35MPD2     N  542   3.669   3.935  11.337 -0.3199 -0.2371  0.1510
   35MPD2    H5  543   3.645   3.842  11.369  0.4515 -0.9546 -1.3573
   35MPD2    N1  544   3.814   4.030  11.794  1.0598  0.9951 -1.1802
   35MPD2    H7  545   3.796   4.107  11.858 -0.5562 -0.7427  0.4687
   36TCq2    C1  546   3.656   3.958  11.199  0.4602 -0.0445 -0.3252
   36TCq2    O2  547   3.700   4.052  11.138  0.2345  0.0761  0.1942
   36TCq2    C2  548   3.561   3.863  11.143 -0.1318  0.6787 -0.2155
   36TCq2    C3  549   3.533   3.886  11.011 -0.2445  0.2486  0.0888
   36TCq2    C4  550   3.433   3.820  10.946  0.3872  0.1004  0.0715
   36TCq2    C5  551   3.346   3.745  11.017 -0.4665  0.6297  0.2133
   36TCq2    C6  552   3.365   3.732  11.153  0.2559 -0.3405 -0.0126
   36TCq2    C7  553   3.474   3.783  11.219 -0.1176 -0.1979 -0.1111
   36TCq2    C8  554   3.265   3.655  11.221  0.1237 -0.2990 -0.8399
   36TCq2    O4  555   3.311   3.580  11.305  0.0962  0.1924  0.1804
   36TCq2    C9  556   3.392   3.859  10.816  0.1001  0.9117 -0.2016
   36TCq2    O5  557   3.463   3.940  10.756  0.3109 -0.6229  0.1860
   36TCq2    O6  558   3.271   3.837  10.794 -0.0096  0.5058  0.1477
   36TCq2    H2  559   3.579   3.971  10.964  2.2239 -0.9745  0.3250
   36TCq2    H3  560   3.259   3.703  10.968  2.1199 -2.8748 -1.3524
   36TCq2    H4  561   3.484   3.775  11.327  0.9401  1.0290 -0.1126
   37TMC2    C1  562   1.169   4.206  11.670 -0.9839 -0.1122  0.4498
   37TMC2    C2  563   1.234   4.246  11.554  0.4013 -0.0010 -0.7179
   37TMC2    C3  564   1.373   4.238  11.552  0.7580 -0.6794 -0.0851
   37TMC2    C4  565   1.242   4.174  11.785  0.5973 -0.5038 -0.3095
   37TMC2    C5  566   1.383   4.170  11.773  0.5169  0.1284  0.2027
   37TMC2    C6  567   1.452   4.200  11.658 -0.4600  0.1582 -0.0665
   37TMC2     C  568   1.028   4.220  11.677 -0.6981  0.6365  0.1983
   37TMC2     O  569   0.978   4.296  11.592 -0.3530 -0.4845 -0.1057
   37TMC2     H  570   1.181   4.285  11.469  1.2393 -0.1785 -1.3242
   37TMC2    H1  571   1.214   4.138  11.883  3.1174 -0.9446  0.2666
   37TMC2    H2  572   1.559   4.216  11.657 -0.5444  0.6901 -0.4572
   37TMC2    C7  573   1.450   4.127  11.891 -0.7021 -0.3270  0.0478
   37TMC2    C8  574   1.438   4.252  11.418  0.0961  0.2026 -0.4350
   37TMC2    O1  575   1.396   4.140  12.001 -0.1727  0.7143 -0.2677
   37TMC2    O2  576   1.392   4.330  11.338 -0.1260  0.2417  0.8019
   37TMC2    O5  577   1.576   4.247  11.433 -0.8114 -0.0929  0.1608
   37TMC2    H5  578   1.606   4.176  11.494 -1.6114 -0.3636  0.2390
   38MPD2     C  579   0.595   4.173  11.953  0.1516  0.4682  0.0643
   38MPD2    C1  580   0.693   4.111  12.025 -0.2395  0.2322 -0.1982
   38MPD2    C2  581   0.818   4.099  11.967 -0.1446 -0.0669  0.0940
   38MPD2    C3  582   0.853   4.153  11.841  0.0617 -0.0784 -0.1800
   38MPD2    C4  583   0.750   4.220  11.777  0.8014 -0.3693  0.1393
   38MPD2    C5  584   0.622   4.225  11.828 -0.1012 -0.6208  0.2992
   38MPD2     H  585   0.890   4.040  12.022  3.2839  2.9370 -1.2064
   38MPD2    H1  586   0.760   4.264  11.679  0.3319 -0.4848  0.0427
   38MPD2    H2  587   0.493   4.165  11.990 -1.3556 -0.1659 -4.2196
   38MPD2    H3  588   0.542   4.257  11.763  0.6781 -0.7059 -0.7101
   38MPD2     N  589   0.984   4.148  11.784 -0.4382  0.2591 -0.2597
   38MPD2    H5  590   1.045   4.081  11.829 -1.7364 -0.5345  0.3430
   38MPD2    N1  591   0.676   4.056  12.154 -0.0574  0.3626 -0.5769
   38MPD2    H7  592   0.759   4.016  12.198  0.5166  0.2479 -1.7802
   39MPD2     C  593   4.481   1.986   1.366 -0.4184  0.3287 -0.7621
   39MPD2    C1  594   4.376   2.079   1.370  0.1901 -0.3428  0.0457
   39MPD2    C2  595   4.245   2.035   1.340 -0.7519 -0.1202 -0.3724
   39MPD2    C3  596   4.224   1.910   1.279 -0.2049 -0.0991  0.2331
   39MPD2    C4  597   4.335   1.826   1.263  0.2518 -0.6126  1.2221
   39MPD2    C5  598   4.463   1.860   1.313 -0.2610  0.2786 -0.2449
   39MPD2     H  599   4.167   2.110   1.341 -1.7325 -1.1216 -2.4274
   39MPD2    H1  600   4.320   1.723   1.234  0.0715 -0.1209 -0.4405
   39MPD2    H2  601   4.580   2.003   1.405  0.4618  0.5439 -3.0894
   39MPD2    H3  602   4.556   1.803   1.315 -0.5746 -0.2447 -0.9393
   39MPD2     N  603   4.101   1.855   1.245 -0.4752 -0.0506  0.1169
   39MPD2    H5  604   4.099   1.759   1.213  2.1620 -0.6637  1.7629
   39MPD2    N1  605   4.416   2.201   1.409 -0.0547  0.4707  0.4585
   39MPD2    H7  606   4.514   2.212   1.431  0.1795 -1.7481  0.5405
   40TCq2    C1  607   4.343   2.314   1.415  0.0724 -0.3927 -0.2902
   40TCq2    O2  608   4.228   2.333   1.370  0.5787  0.0862 -0.9798
   40TCq2    C2  609   4.427   2.423   1.472 -0.1500  0.8903 -0.2443
   40TCq2    C3  610   4.509   2.395   1.578 -0.2504 -0.2519  0.2858
   40TCq2    C4  611   4.558   2.499   1.649  0.7175 -0.1469 -0.4000
   40TCq2    C5  612   4.536   2.637   1.620  0.3798  0.3479 -0.2752
   40TCq2    C6  613   4.465   2.658   1.500  0.0295 -0.2132 -0.3493
   40TCq2    C7  614   4.403   2.555   1.435 -0.4292 -0.1452 -0.2655
   40TCq2    C8  615   4.473   2.784   1.425  0.2372 -0.0326 -0.7031
   40TCq2    O4  616   4.408   2.797   1.321  0.0173 -0.1592 -0.2902
   40TCq2    C9  617   4.628   2.478   1.774  0.2327  0.7140 -0.2262
   40TCq2    O5  618   4.629   2.359   1.814  0.1925  0.1689 -0.1572
   40TCq2    O6  619   4.692   2.578   1.821  0.0141  0.5084 -0.1029
   40TCq2    H2  620   4.518   2.297   1.625  2.0709 -0.0350  0.2663
   40TCq2    H3  621   4.570   2.713   1.689  0.4956 -0.2144  0.2904
   40TCq2    H4  622   4.347   2.568   1.343 -0.5973  1.5438  0.0786
   41TMC2    C1  623   2.716   3.911  13.465  0.5662 -0.0926  0.0462
   41TMC2    C2  624   2.740   4.037  13.512 -0.5366  0.2756 -0.1712
   41TMC2    C3  625   2.743   4.143  13.425  0.3908  0.2136 -0.0852
   41TMC2    C4  626   2.690   3.893  13.334  0.3784  0.2125  0.8288
   41TMC2    C5  627   2.685   3.996  13.241 -0.3403  0.1316 -0.0347
   41TMC2    C6  628   2.723   4.124  13.289  0.2459  0.1664  0.2239
   41TMC2     C  629   2.725   3.793  13.548 -0.4029  0.2372  0.4078
   41TMC2     O  630   2.703   3.679  13.503 -0.0678 -0.6717  0.5040
   41TMC2     H  631   2.736   4.064  13.617  1.0122  0.4938 -0.1571
   41TMC2    H1  632   2.662   3.797  13.292  0.3388  0.6097 -0.0585
   41TMC2    H2  633   2.716   4.205  13.217  0.6424  0.5784  0.6434
   41TMC2    C7  634   2.686   3.963  13.103 -0.0535  0.2568 -0.1799
   41TMC2    C8  635   2.770   4.276  13.477 -0.2857  0.3474  0.6179
   41TMC2    O1  636   2.763   4.035  13.041 -0.2869  0.6925 -0.6697
   41TMC2    O2  637   2.801   4.300  13.591 -0.0087 -0.5794 -0.2182
   41TMC2    O5  638   2.815   4.354  13.377  0.0384  0.5359 -0.1408
   41TMC2    H5  639   2.818   4.311  13.289  1.0672 -0.8374  0.5702
   42MPD2     C  640   2.832   3.599  13.767  0.0106  0.0533  0.2055
   42MPD2    C1  641   2.822   3.737  13.771 -0.3182 -0.7918  0.1708
   42MPD2    C2  642   2.877   3.803  13.879  0.4367 -0.3913  0.0311
   42MPD2    C3  643   2.927   3.735  13.988 -0.0969  0.4270 -0.1038
   42MPD2    C4  644   2.924   3.601  13.987  0.6329  0.1057 -0.9320
   42MPD2    C5  645   2.883   3.537  13.877  0.1179  0.3236 -0.0431
   42MPD2     H  646   2.865   3.910  13.877 -2.5640 -0.7664 -2.0450
   42MPD2    H1  647   2.964   3.537  14.065  0.0585  2.0157  0.9245
   42MPD2    H2  648   2.796   3.543  13.681  0.4624  0.9389 -0.5599
   42MPD2    H3  649   2.893   3.429  13.885  0.5161  0.1038 -3.4854
   42MPD2     N  650   2.983   3.814  14.093  0.0284  0.2959 -0.2754
   42MPD2    H5  651   3.030   3.769  14.170 -2.7844 -1.4165  0.4591
   42MPD2    N1  652   2.783   3.822  13.663  0.6906  0.2885 -0.3455
   42MPD2    H7  653   2.802   3.920  13.681  1.6970 -0.1316  0.8673
   43MPD2     C  654   0.585   3.472   0.897  0.3068 -0.3254  0.0909
   43MPD2    C1  655   0.648   3.448   1.018 -0.0125 -0.5688  0.3694
   43MPD2    C2  656   0.583   3.496   1.131  0.2617  0.0473  0.1864
   43MPD2    C3  657   0.465   3.567   1.119  0.1442 -0.2167  0.1872
   43MPD2    C4  658   0.396   3.576   0.999 -0.6474  1.0982  0.0395
   43MPD2    C5  659   0.467   3.536   0.886  0.5272  0.1518  0.3716
   43MPD2     H  660   0.629   3.480   1.228  0.2865 -1.3446 -0.0583
   43MPD2    H1  661   0.293   3.607   0.986 -0.8932  0.6036  0.7804
   43MPD2    H2  662   0.624   3.447   0.799  2.9760 -1.4575  1.4200
   43MPD2    H3  663   0.418   3.563   0.793 -0.6285 -0.1016  0.9080
   43MPD2     N  664   0.389   3.607   1.233 -0.6279  0.1405  0.3193
   43MPD2    H5  665   0.291   3.630   1.215 -0.6483  1.0636  1.6649
   43MPD2    N1  666   0.769   3.374   1.032  0.5605  0.4270  0.3157
   43MPD2    H7  667   0.806   3.361   1.126 -1.4543 -0.6917  0.9518
   44TCq2    C1  668   0.027   3.448   1.513 -0.3774  0.2257 -0.7547
   44TCq2    O2  669   4.719   3.422   1.397  0.6116  0.5890 -0.3895
   44TCq2    C2  670   0.148   3.525   1.544  0.2488  0.1236 -0.2080
   44TCq2    C3  671   0.164   3.587   1.665 -0.2676  0.6594 -0.0402
   44TCq2    C4  672   0.279   3.667   1.679  0.2876 -0.6886  0.5796
   44TCq2    C5  673   0.375   3.680   1.579  0.4059  0.1589  0.0701
   44TCq2    C6  674   0.346   3.612   1.463 -0.3768  0.0261  0.5634
   44TCq2    C7  675   0.233   3.536   1.446 -0.2078  0.4111 -0.0251
   44TCq2    C8  676   0.441   3.646   1.353  0.6410 -0.0584 -0.0155
   44TCq2    O4  677   0.557   3.681   1.368 -0.4589  0.0168 -0.0919
   44TCq2    C9  678   0.294   3.735   1.812  0.5478 -0.4174  0.4424
   44TCq2    O5  679   0.191   3.739   1.881 -0.4375  0.3873 -0.2830
   44TCq2    O6  680   0.408   3.787   1.833 -0.0080 -0.4179 -0.0083
   44TCq2    H2  681   0.101   3.577   1.753  1.4899  0.6971  1.2435
   44TCq2    H3  682   0.467   3.736   1.593 -0.8708  1.9908  1.0758
   44TCq2    H4  683   0.210   3.498   1.347 -2.7513 -0.9540  1.0946
   45TMC2    C1  684   0.122   3.922   9.679 -0.2920 -0.7914 -0.4006
   45TMC2    C2  685   0.192   3.899   9.791  0.0227 -1.3647  0.3426
   45TMC2    C3  686   0.271   4.007   9.844  1.0018  0.5822  0.7192
   45TMC2    C4  687   0.117   4.044   9.618 -0.0456 -0.8774 -0.1897
   45TMC2    C5  688   0.186   4.155   9.679 -0.1812 -0.1475  0.1722
   45TMC2    C6  689   0.263   4.132   9.784 -0.0368 -0.5312  1.2970
   45TMC2     C  690   0.042   3.807   9.639  0.3048  0.2791 -0.1258
   45TMC2     O  691   0.068   3.703   9.697 -0.5061  0.0490  0.3636
   45TMC2     H  692   0.205   3.800   9.833  1.2609 -0.3233  2.4376
   45TMC2    H1  693   0.050   4.060   9.535 -0.8223  0.8576  0.7805
   45TMC2    H2  694   0.336   4.201   9.824  0.4783 -1.5065  2.0457
   45TMC2    C7  695   0.181   4.282   9.611  0.2107  0.3668  0.2725
   45TMC2    C8  696   0.381   3.981   9.927  0.6224  0.2740 -0.1531
   45TMC2    O1  697   0.119   4.284   9.507 -0.2884  0.2243  0.2954
   45TMC2    O2  698   0.489   4.037   9.918 -0.1273  0.1692  0.0267
   45TMC2    O5  699   0.325   3.931  10.042  0.3210  0.1821 -0.2704
   45TMC2    H5  700   0.229   3.914  10.038  0.2808 -0.5889  3.4669
   46MPD2     C  701   4.518   3.635   9.616 -0.7600  0.0972 -0.1279
   46MPD2    C1  702   4.536   3.755   9.549 -0.2177  0.5063 -0.3418
   46MPD2    C2  703   4.429   3.794   9.471 -0.6826 -0.4123 -0.2234
   46MPD2    C3  704   4.302   3.731   9.469  0.3058 -0.4855 -0.6025
   46MPD2    C4  705   4.289   3.618   9.542  0.3107  0.1802  0.2224
   46MPD2    C5  706   4.396   3.574   9.610 -0.2191  0.6986  0.6425
   46MPD2     H  707   4.431   3.884   9.411  2.9876 -0.2604  0.1257
   46MPD2    H1  708   4.192   3.574   9.564  0.4281 -0.0849  0.2119
   46MPD2    H2  709   4.598   3.586   9.671  0.9892  1.4979 -1.3990
   46MPD2    H3  710   4.382   3.478   9.658  2.0456  1.3132  2.5263
   46MPD2     N  711   4.193   3.784   9.395 -0.6457  0.2125  0.8178
   46MPD2    H5  712   4.205   3.876   9.354 -3.3095 -0.2392 -0.9647
   46MPD2    N1  713   4.650   3.835   9.567 -0.3739  0.3297 -0.0277
   46MPD2    H7  714   4.640   3.933   9.540 -0.4652  0.3975  0.2577
   47TMC2    C1  715   2.157   0.642   9.612  0.6237  0.1108  0.0431
   47TMC2    C2  716   2.186   0.539   9.695 -0.0368 -0.0800  0.0478
   47TMC2    C3  717   2.122   0.525   9.813  0.3468 -0.0233  0.1794
   47TMC2    C4  718   2.071   0.736   9.654  0.0647  0.6387  1.3171
   47TMC2    C5  719   2.012   0.722   9.779  0.4673 -0.8127 -0.0234
   47TMC2    C6  720   2.023   0.606   9.854  0.1522 -0.3103  0.0296
   47TMC2     C  721   2.260   0.673   9.516  0.6301  0.0688 -0.5810
   47TMC2     O  722   2.281   0.793   9.497 -0.2853 -0.5128 -0.2592
   47TMC2     H  723   2.275   0.476   9.696 -1.0348 -1.4641  1.4048
   47TMC2    H1  724   2.069   0.834   9.607 -2.5681  0.8055  1.7970
   47TMC2    H2  725   1.962   0.580   9.939  2.1405  0.5452  1.7099
   47TMC2    C7  726   1.886   0.791   9.799  0.0727 -0.3464  0.5017
   47TMC2    C8  727   2.172   0.421   9.906  0.0488 -0.1550  0.6567
   47TMC2    O1  728   1.889   0.915   9.793  0.0894  0.6319  0.4555
   47TMC2    O2  729   2.222   0.318   9.873  0.1428  0.5200  0.0331
   47TMC2    O5  730   2.164   0.476  10.025  0.4027  0.7767  0.0147
   47TMC2    H5  731   2.133   0.568  10.035  1.8686  1.1641  1.0429
   48MPD2     C  732   2.498   0.671   9.332 -0.1898 -0.4276  0.1216
   48MPD2    C1  733   2.442   0.562   9.392 -0.1471  0.6672  1.0222
   48MPD2    C2  734   2.498   0.441   9.362  0.5357  0.3634 -0.0059
   48MPD2    C3  735   2.602   0.426   9.269 -0.4435  0.2270  0.6564
   48MPD2    C4  736   2.646   0.544   9.212 -0.1633 -0.1204 -1.0384
   48MPD2    C5  737   2.594   0.671   9.242 -0.0120 -0.0376  0.4886
   48MPD2     H  738   2.463   0.349   9.408 -2.3040  1.1453 -0.6599
   48MPD2    H1  739   2.725   0.532   9.139  0.5963 -2.0469  0.0757
   48MPD2    H2  740   2.467   0.773   9.352 -0.2586 -0.3159 -0.5787
   48MPD2    H3  741   2.637   0.765   9.210  1.3684 -0.2822  1.6358
   48MPD2     N  742   2.654   0.293   9.257  0.0866 -0.6390  0.3392
   48MPD2    H5  743   2.598   0.218   9.297  1.2025 -1.0903  1.0420
   48MPD2    N1  744   2.336   0.565   9.485  0.4305 -0.1778  0.1707
   48MPD2    H7  745   2.296   0.473   9.502 -0.0436  0.5156  2.8165
   49MPD2     C  746   1.050   2.247   9.767 -0.2223 -0.7016  0.4096
   49MPD2    C1  747   0.931   2.248   9.842  0.1682 -0.0630 -0.7182
   49MPD2    C2  748   0.935   2.272   9.977  0.1677  0.2847  0.5577
   49MPD2    C3  749   1.053   2.304  10.043  0.1115 -0.3623 -0.6370
   49MPD2    C4  750   1.174   2.299   9.972 -0.4259 -0.0621 -0.5809
   49MPD2    C5  751   1.169   2.277   9.833 -0.2167 -0.2147  0.5455
   49MPD2     H  752   0.838   2.274  10.027  0.0222 -2.4559  0.3405
   49MPD2    H1  753   1.263   2.337  10.021  1.1584 -3.4075 -0.8212
   49MPD2    H2  754   1.059   2.238   9.659  2.5838 -1.5057  0.7209
   49MPD2    H3  755   1.259   2.280   9.773 -0.0810  1.0677  0.8008
   49MPD2     N  756   1.057   2.351  10.180 -0.1661  0.0630  0.9005
   49MPD2    H5  757   1.151   2.379  10.205 -0.4611  1.3333  0.5881
   49MPD2    N1  758   0.811   2.247   9.774 -0.3951 -0.3943 -0.8618
   49MPD2    H7  759   0.725   2.264   9.827  0.6823  0.4822  0.6081
   50TCq2    C1  760   0.786   2.234   9.643 -0.2705  0.6188  0.4715
   50TCq2    O2  761   0.863   2.213   9.547  0.6920  0.1782 -0.9272
   50TCq2    C2  762   0.652   2.178   9.628  0.6524  0.0016 -0.0389
   50TCq2    C3  763   0.605   2.186   9.498  0.2491  0.6117 -0.4724
   50TCq2    C4  764   0.491   2.117   9.463  0.4665  0.1186  0.6675
   50TCq2    C5  765   0.436   2.031   9.562  0.3373  0.0012 -0.5085
   50TCq2    C6  766   0.500   2.020   9.689  0.1481 -0.1823 -0.7847
   50TCq2    C7  767   0.605   2.089   9.724  0.2081 -0.3174 -0.3204
   50TCq2    C8  768   0.452   1.923   9.790 -0.2248 -0.0724  0.8457
   50TCq2    O4  769   0.400   1.821   9.749  0.2559  0.1264 -0.9895
   50TCq2    C9  770   0.431   2.121   9.331  0.1371  0.1172  0.7571
   50TCq2    O5  771   0.341   2.038   9.303 -0.1224  0.2033  0.0151
   50TCq2    O6  772   0.488   2.203   9.254 -0.0533  0.6893  0.0673
   50TCq2    H2  773   0.660   2.243   9.424  0.7387  1.5507  0.6150
   50TCq2    H3  774   0.348   1.971   9.544  0.6387 -1.1289  1.7318
   50TCq2    H4  775   0.656   2.076   9.819  0.5347  1.1520 -0.2898
   51MPD2     C  776   0.810   1.515   0.584 -0.8077 -0.0408  0.5084
   51MPD2    C1  777   0.790   1.386   0.632  1.0886  0.4853  0.6309
   51MPD2    C2  778   0.755   1.370   0.763 -0.4092 -0.0708  0.1316
   51MPD2    C3  779   0.760   1.483   0.845  0.4028 -0.5189  0.1614
   51MPD2    C4  780   0.784   1.610   0.793  0.5703  0.8415 -0.1157
   51MPD2    C5  781   0.799   1.628   0.658 -0.0062 -0.1150 -0.3386
   51MPD2     H  782   0.729   1.270   0.794  0.2776 -0.1214  0.5493
   51MPD2    H1  783   0.793   1.695   0.860 -0.9606  0.7966  0.1626
   51MPD2    H2  784   0.848   1.539   0.485  0.6278  1.2120  1.3675
   51MPD2    H3  785   0.807   1.728   0.616  0.2355 -0.6356 -1.5210
   51MPD2     N  786   0.749   1.475   0.989 -0.3043 -0.0916  0.1681
   51MPD2    H5  787   0.754   1.561   1.043  2.3452 -0.8473  1.1112
   51MPD2    N1  788   0.792   1.276   0.540  0.2426 -0.1857  0.2289
   51MPD2    H7  789   0.759   1.187   0.577 -3.4561  1.9848  2.1632
   52TCq2    C1  790   0.744   1.354   1.065  0.7920  0.4633  0.4059
   52TCq2    O2  791   0.720   1.240   1.027 -0.7655 -0.2711  0.1950
   52TCq2    C2  792   0.777   1.384   1.208 -0.3821  0.4383  0.1942
   52TCq2    C3  793   0.752   1.292   1.301  0.0259 -0.9193  0.0069
   52TCq2    C4  794   0.825   1.277   1.408  0.0969 -0.4272 -1.0214
   52TCq2    C5  795   0.933   1.357   1.427  0.9260 -0.0758  0.1887
   52TCq2    C6  796   0.962   1.452   1.335 -0.1619 -0.9564  0.7527
   52TCq2    C7  797   0.884   1.474   1.228  0.3030 -0.0493 -0.3588
   52TCq2    C8  798   1.091   1.514   1.332  0.1939 -0.3694 -0.4652
   52TCq2    O4  799   1.088   1.623   1.278  0.5015  0.5206 -0.2216
   52TCq2    C9  800   0.794   1.175   1.503  0.2696  0.0631  0.5051
   52TCq2    O5  801   0.677   1.126   1.505 -0.2957 -0.2465  0.1030
   52TCq2    O6  802   0.885   1.147   1.588 -0.6921  0.2396  0.6476
   52TCq2    H2  803   0.687   1.211   1.269  1.3838 -1.1192 -2.2853
   52TCq2    H3  804   0.985   1.351   1.521  0.7018 -1.8709  0.1980
   52TCq2    H4  805   0.899   1.560   1.164 -1.1298  1.1621  0.9175
   53TMC2    C1  806   1.824   4.091  12.522 -0.9257  0.0951  0.6199
   53TMC2    C2  807   1.895   4.051  12.630 -0.6919 -0.3692 -0.5400
   53TMC2    C3  808   1.843   4.070  12.754 -0.1583 -0.9439 -0.2486
   53TMC2    C4  809   1.693   4.136  12.537  0.1127 -0.4811  0.1603
   53TMC2    C5  810   1.648   4.154  12.664 -0.6882  0.2400  0.1225
   53TMC2    C6  811   1.727   4.137  12.774 -1.2678  0.8145  0.1392
   53TMC2     C  812   1.859   4.035  12.391 -0.1107 -0.2372 -0.4422
   53TMC2     O  813   1.967   3.979  12.384 -0.1378 -0.3526 -0.1047
   53TMC2     H  814   1.982   3.987  12.622 -0.1564  0.2585  0.3438
   53TMC2    H1  815   1.632   4.169  12.454  1.9897  0.1003 -1.0078
   53TMC2    H2  816   1.692   4.150  12.876  0.8060  1.0629  0.8078
   53TMC2    C7  817   1.514   4.197  12.690  0.4558 -0.5562  0.6093
   53TMC2    C8  818   1.926   4.066  12.867  0.5135  0.0769 -0.2251
   53TMC2    O1  819   1.457   4.254  12.597  0.1209 -0.1990 -0.2325
   53TMC2    O2  820   1.920   4.158  12.945  0.1196 -0.5197 -0.4260
   53TMC2    O5  821   1.889   3.943  12.906 -0.5374  0.6302  0.0072
   53TMC2    H5  822   1.889   3.891  12.822  0.9464 -0.9829  1.0158
   54MPD2     C  823   1.851   3.919  12.119 -0.1773  0.1144 -0.5389
   54MPD2    C1  824   1.762   4.017  12.165 -0.4196  0.7220  0.3759
   54MPD2    C2  825   1.658   4.066  12.083 -0.8475 -0.8438 -0.0115
   54MPD2    C3  826   1.656   4.018  11.953 -0.6436  0.0202  0.3707
   54MPD2    C4  827   1.745   3.928  11.905  0.4477 -0.4626  0.2449
   54MPD2    C5  828   1.841   3.874  11.988  0.2727  0.3800  0.5058
   54MPD2     H  829   1.585   4.136  12.120 -1.7490 -1.9513  0.3120
   54MPD2    H1  830   1.747   3.890  11.803  4.1393 -1.1538  0.5479
   54MPD2    H2  831   1.937   3.878  12.171 -1.0379 -0.0820  0.7150
   54MPD2    H3  832   1.922   3.816  11.945 -0.6864 -0.1846 -0.5302
   54MPD2     N  833   1.563   4.060  11.859  0.3469 -0.6042  0.1977
   54MPD2    H5  834   1.580   4.040  11.761  2.0220  0.0348  0.3506
   54MPD2    N1  835   1.766   4.067  12.294 -0.2672  0.5348 -0.2481
   54MPD2    H7  836   1.687   4.123  12.326  0.3759  1.5591 -0.4477
   55MPD2     C  837   2.876   1.777  17.245  0.0481  0.0071 -0.7903
   55MPD2    C1  838   2.853   1.714  17.363 -0.5258 -0.1867  0.1721
   55MPD2    C2  839   2.786   1.791  17.461  0.2193  0.0455 -0.1931
   55MPD2    C3  840   2.741   1.919  17.450  0.3185 -0.0025 -0.2759
   55MPD2    C4  841   2.774   1.977  17.331 -0.4079 -0.0255 -0.0728
   55MPD2    C5  842   2.835   1.908  17.232  0.3721  0.6312 -0.2634
   55MPD2     H  843   2.760   1.749  17.558 -0.7310  1.3069  0.1037
   55MPD2    H1  844   2.744   2.078  17.306  0.4163 -0.0893 -1.3375
   55MPD2    H2  845   2.918   1.724  17.160  0.5046  1.4893 -1.4933
   55MPD2    H3  846   2.849   1.950  17.133  2.0304  1.1789  0.2089
   55MPD2     N  847   2.682   1.980  17.563  0.0878 -0.1301 -0.6456
   55MPD2    H5  848   2.670   1.924  17.647 -0.3161 -0.7340 -1.0996
   55MPD2    N1  849   2.901   1.577  17.381  0.3092 -0.0100 -0.3220
   55MPD2    H7  850   2.947   1.535  17.300  2.6050  0.0040  0.9552
   56TCq2    C1  851   2.873   1.500  17.491 -0.2767 -0.2204 -0.1539
   56TCq2    O2  852   2.800   1.526  17.583 -0.1054 -0.1237  0.1437
   56TCq2    C2  853   2.898   1.354  17.483 -0.0838  0.3642  1.0415
   56TCq2    C3  854   2.989   1.302  17.401 -0.3768  0.7738  0.0637
   56TCq2    C4  855   3.002   1.169  17.401  0.0077  0.1175  0.1973
   56TCq2    C5  856   2.933   1.088  17.483 -0.3039 -0.1240  0.1203
   56TCq2    C6  857   2.848   1.142  17.572 -0.2892 -1.0553 -0.2417
   56TCq2    C7  858   2.829   1.279  17.572 -0.1976 -0.0730  0.6608
   56TCq2    C8  859   2.768   1.063  17.658  0.2057 -0.0802  0.4106
   56TCq2    O4  860   2.748   0.946  17.626 -0.0450 -0.3289  0.5518
   56TCq2    C9  861   3.101   1.111  17.321 -0.4481 -0.5214 -0.0318
   56TCq2    O5  862   3.167   1.179  17.240  0.1112 -0.6816 -0.1260
   56TCq2    O6  863   3.099   0.985  17.322 -0.1087  0.3543  0.6752
   56TCq2    H2  864   3.042   1.365  17.330 -0.2648  0.7189  0.0972
   56TCq2    H3  865   2.942   0.980  17.473  0.3329 -0.1144  0.6638
   56TCq2    H4  866   2.759   1.328  17.639 -0.1608 -0.5954  1.0868
   57TMC2    C1  867   1.502   3.194  13.490 -0.0202  0.3483  0.5073
   57TMC2    C2  868   1.621   3.223  13.553 -0.1501  0.0765  0.5538
   57TMC2    C3  869   1.731   3.240  13.475 -0.2537  0.2936  0.0423
   57TMC2    C4  870   1.498   3.185  13.350 -0.0739  0.6596 -0.2764
   57TMC2    C5  871   1.619   3.198  13.277 -0.5977  1.3432  0.0347
   57TMC2    C6  872   1.739   3.222  13.335 -0.8018 -0.3243 -0.2836
   57TMC2     C  873   1.390   3.137  13.572 -0.3653  0.7526  0.7855
   57TMC2     O  874   1.380   3.181  13.685 -0.5111 -0.3885 -0.5574
   57TMC2     H  875   1.636   3.244  13.658  1.6090 -0.0303  0.3281
   57TMC2    H1  876   1.400   3.175  13.306  0.6169 -2.0940 -1.1801
   57TMC2    H2  877   1.831   3.244  13.281 -1.5089 -0.0311 -1.3615
   57TMC2    C7  878   1.597   3.164  13.138 -0.2256 -0.4579  0.1833
   57TMC2    C8  879   1.856   3.237  13.545  0.0228  0.2227  0.1423
   57TMC2    O1  880   1.486   3.174  13.089 -1.1633 -0.4514 -0.7670
   57TMC2    O2  881   1.863   3.286  13.659  0.1662  0.3010 -0.2776
   57TMC2    O5  882   1.927   3.131  13.501  0.1253  0.5646 -0.2258
   57TMC2    H5  883   1.877   3.081  13.433  0.4955  0.4368 -0.4033
   58MPD2     C  884   1.004   2.822  13.641 -0.3366 -0.3535  0.8287
   58MPD2    C1  885   1.036   2.942  13.704 -0.4619  0.2835  0.2341
   58MPD2    C2  886   1.148   3.009  13.662  0.2220  0.4786  0.6061
   58MPD2    C3  887   1.221   2.961  13.560  0.1781 -0.0649  0.3854
   58MPD2    C4  888   1.192   2.842  13.503  0.3666 -0.2249 -0.3525
   58MPD2    C5  889   1.083   2.774  13.543  0.8248  0.7726  0.3221
   58MPD2     H  890   1.177   3.099  13.716  0.3513  1.0294 -0.3685
   58MPD2    H1  891   1.264   2.799  13.435  1.6620 -1.8510  2.0360
   58MPD2    H2  892   0.913   2.778  13.679 -2.1029  1.0859 -1.7456
   58MPD2    H3  893   1.069   2.676  13.497  0.5887  0.5824  0.8045
   58MPD2     N  894   1.333   3.025  13.516  0.1737  0.2116  0.4762
   58MPD2    H5  895   1.375   2.994  13.430  0.4234  0.4705  0.5018
   58MPD2    N1  896   0.959   3.009  13.799 -0.0497 -0.0189  0.5065
   58MPD2    H7  897   0.988   3.106  13.810 -2.4295  0.6968  0.6089
   59MPD2     C  898   3.825   3.031  13.160 -0.5208 -0.3476  0.0957
   59MPD2    C1  899   3.933   2.996  13.081 -0.3826 -0.1580 -0.0107
   59MPD2    C2  900   4.061   2.985  13.140  0.6005  0.2165 -0.4046
   59MPD2    C3  901   4.076   3.025  13.274  0.0104 -0.0195  0.4519
   59MPD2    C4  902   3.966   3.050  13.351 -0.5114 -0.1895  0.2344
   59MPD2    C5  903   3.843   3.048  13.288 -0.6388  0.2272  0.5751
   59MPD2     H  904   4.136   2.952  13.069  1.2962  0.2162  0.3397
   59MPD2    H1  905   3.981   3.074  13.456 -1.4843  1.2767  0.0228
   59MPD2    H2  906   3.725   3.037  13.118 -0.1155  1.6434 -0.5943
   59MPD2    H3  907   3.759   3.059  13.356 -3.4860  0.0653 -2.9708
   59MPD2     N  908   4.199   3.045  13.344 -0.1358 -0.4957  0.2534
   59MPD2    H5  909   4.190   3.101  13.428  0.0075 -0.8950  0.5311
   59MPD2    N1  910   3.926   2.975  12.938 -0.0922 -0.3131 -0.7289
   59MPD2    H7  911   4.013   2.947  12.895 -1.5915 -1.7267 -2.8351
   60TCq2    C1  912   3.815   2.972  12.863  0.4640  0.1716 -0.1905
   60TCq2    O2  913   3.695   2.970  12.892 -0.1554 -0.1037 -0.5927
   60TCq2    C2  914   3.849   2.976  12.722  0.0563 -0.0622 -1.0805
   60TCq2    C3  915   3.964   3.037  12.679 -0.0489  0.8729  0.3946
   60TCq2    C4  916   3.980   3.070  12.547 -0.2268  0.4883 -0.4563
   60TCq2    C5  917   3.870   3.065  12.462  0.2081  0.2694 -0.1430
   60TCq2    C6  918   3.749   3.016  12.510 -1.2064  0.3830  0.3414
   60TCq2    C7  919   3.736   2.970  12.638 -0.7002  0.2360  0.3742
   60TCq2    C8  920   3.622   3.043  12.456 -0.1675  0.3235 -0.0744
   60TCq2    O4  921   3.517   2.999  12.497  0.0210 -0.0075 -1.1562
   60TCq2    C9  922   4.109   3.102  12.493  1.0513 -0.0493  0.3367
   60TCq2    O5  923   4.106   3.157  12.377  0.1689 -0.2260 -0.3289
   60TCq2    O6  924   4.215   3.090  12.564  0.1608 -0.0065  0.0692
   60TCq2    H2  925   4.055   3.043  12.738  1.0262 -1.4035 -1.0563
   60TCq2    H3  926   3.887   3.085  12.357 -0.9832 -0.0989 -0.4143
   60TCq2    H4  927   3.636   2.934  12.663 -0.9591 -0.6324 -1.9032
   61MPD2     C  928   3.375   4.062  14.173  0.4580 -0.2021 -0.1801
   61MPD2    C1  929   3.450   4.123  14.271 -0.0884 -0.7329 -0.1966
   61MPD2    C2  930   3.533   4.227  14.233  0.4890 -0.1867  0.2842
   61MPD2    C3  931   3.538   4.269  14.103  0.1073  0.5704 -0.8512
   61MPD2    C4  932   3.463   4.213  14.009  0.2121  0.1418  0.2051
   61MPD2    C5  933   3.379   4.112  14.045  0.2604 -0.6751  0.8290
   61MPD2     H  934   3.589   4.277  14.311  2.0268 -1.9673  0.3122
   61MPD2    H1  935   3.471   4.239  13.904 -0.1776  3.6818  1.0515
   61MPD2    H2  936   3.314   3.973  14.183  0.2767  0.4505  4.5346
   61MPD2    H3  937   3.323   4.052  13.975  1.5903  1.8303 -2.3729
   61MPD2     N  938   3.627   4.368  14.056  0.1158  0.5442  0.1733
   61MPD2    H5  939   3.622   4.404  13.961 -1.6825 -0.8869 -0.2864
   61MPD2    N1  940   3.455   4.079  14.404  0.2108  0.0135  0.1019
   61MPD2    H7  941   3.521   4.127  14.463 -0.5527  1.4002 -0.1679
   62TCq2    C1  942   3.391   3.974  14.457 -0.0880  0.2899 -0.7662
   62TCq2    O2  943   3.323   3.888  14.401 -0.2290  0.2536  0.0330
   62TCq2    C2  944   3.388   3.970  14.602  0.3472  0.7852  0.5935
   62TCq2    C3  945   3.331   3.853  14.643  0.3123  0.4908 -0.2255
   62TCq2    C4  946   3.242   3.850  14.742  0.4325 -0.0430  0.4988
   62TCq2    C5  947   3.212   3.968  14.807  0.0307 -0.3054 -0.1870
   62TCq2    C6  948   3.270   4.084  14.767  0.4824 -0.6948 -0.5484
   62TCq2    C7  949   3.353   4.082  14.659 -0.7214  0.1432  0.3000
   62TCq2    C8  950   3.214   4.214  14.806  0.5297  0.3509 -0.0402
   62TCq2    O4  951   3.272   4.317  14.773 -0.1619  0.1373  0.4575
   62TCq2    C9  952   3.176   3.727  14.777  0.1247 -0.3750  0.1991
   62TCq2    O5  953   3.191   3.643  14.690 -0.0877 -0.2830 -0.3804
   62TCq2    O6  954   3.083   3.730  14.859 -0.0636  0.0759 -1.1157
   62TCq2    H2  955   3.354   3.758  14.595 -0.0128  0.5921 -0.5779
   62TCq2    H3  956   3.140   3.962  14.888  0.4589 -1.8124  0.0878
   62TCq2    H4  957   3.386   4.179  14.623 -2.5529  0.5333 -0.3692
   63TMC2    C1  958   3.286   4.664  10.803  0.1355  0.3239  0.0630
   63TMC2    C2  959   3.422   4.675  10.795 -0.4876 -0.9343 -0.5147
   63TMC2    C3  960   3.478   0.050  10.708  0.0644 -0.4734 -0.3704
   63TMC2    C4  961   3.208   0.013  10.708 -0.4542 -0.3699  0.1355
   63TMC2    C5  962   3.272   0.096  10.618 -0.3747  0.9115  0.7208
   63TMC2    C6  963   3.405   0.120  10.614  0.1777 -0.0602 -0.7180
   63TMC2     C  964   3.218   4.563  10.877  0.0775 -0.1664  0.0592
   63TMC2     O  965   3.227   4.565  10.999  0.0547  0.3356  0.1864
   63TMC2     H  966   3.474   4.611  10.865 -0.8337  0.3211  0.8786
   63TMC2    H1  967   3.099   0.015  10.702 -0.4055  2.6944  0.6936
   63TMC2    H2  968   3.452   0.174  10.532  1.5815 -0.1249  0.0373
   63TMC2    C7  969   3.210   0.115  10.494  0.4018  0.5039 -0.2645
   63TMC2    C8  970   3.622   0.045  10.678 -0.2356 -0.3405  0.9772
   63TMC2    O1  971   3.129   0.029  10.456 -0.7994  0.3399  0.7009
   63TMC2    O2  972   3.661   0.076  10.564 -0.8697  0.0512  0.4249
   63TMC2    O5  973   3.673   0.087  10.794  0.1982 -0.1042 -0.0458
   63TMC2    H5  974   3.630   0.057  10.876 -0.0216  0.3706  0.0138
   64MPD2     C  975   2.809   4.250  10.885 -0.1645  0.8450 -0.0250
   64MPD2    C1  976   2.819   4.297  10.756  0.7133 -0.2034  0.3740
   64MPD2    C2  977   2.932   4.375  10.727 -0.4609  0.2306  0.0575
   64MPD2    C3  978   3.018   4.424  10.829 -0.5468 -0.3161  0.1798
   64MPD2    C4  979   3.005   4.364  10.950 -0.6131  1.3874  0.0372
   64MPD2    C5  980   2.901   4.279  10.979  0.3009 -0.1951 -0.3951
   64MPD2     H  981   2.946   4.410  10.625  3.3399  2.0969  1.2414
   64MPD2    H1  982   3.058   4.416  11.029 -0.9167  1.7913 -0.0262
   64MPD2    H2  983   2.742   4.169  10.912 -1.5907  1.5042 -1.6085
   64MPD2    H3  984   2.887   4.255  11.084  0.8654 -1.7141 -0.6678
   64MPD2     N  985   3.114   4.517  10.798 -0.3822  0.3182  0.3373
   64MPD2    H5  986   3.119   4.535  10.698 -0.0935  2.0279  0.6461
   64MPD2    N1  987   2.738   4.256  10.641 -0.3276 -0.3208  0.2280
   64MPD2    H7  988   2.778   4.279  10.551 -1.2051 -0.8092 -0.2878
   65MPD2     C  989   4.385   4.273  15.796 -0.1137  0.2971 -0.2433
   65MPD2    C1  990   4.354   4.229  15.671  0.3283 -0.9632 -0.0305
   65MPD2    C2  991   4.266   4.121  15.650  0.5185  0.4890 -0.3424
   65MPD2    C3  992   4.209   4.055  15.758  0.0316 -0.0963 -0.7706
   65MPD2    C4  993   4.237   4.102  15.887  0.5249 -0.0962 -0.0572
   65MPD2    C5  994   4.326   4.207  15.899  0.7682 -0.0829 -0.5045
   65MPD2     H  995   4.244   4.082  15.551  0.2718  1.6922 -0.7611
   65MPD2    H1  996   4.198   4.074  15.984  0.6679  1.1360  0.3615
   65MPD2    H2  997   4.446   4.361  15.814  2.7243 -1.9893  1.2304
   65MPD2    H3  998   4.347   4.236  16.001  1.0505  0.0342 -0.5959
   65MPD2     N  999   4.123   3.947  15.745  0.0038 -0.0150 -0.2466
   65MPD2    H5 1000   4.072   3.922  15.829 -1.0196  1.5489 -0.4159
   65MPD2    N1 1001   4.406   4.305  15.560  0.1273  0.5574  0.7885
   65MPD2    H7 1002   4.450   4.392  15.587 -3.2415  3.5083 -3.3863
   66TCq2    C1 1003   4.384   4.277  15.424 -0.3813  0.4615 -0.3238
   66TCq2    O2 1004   4.339   4.173  15.375 -0.1166  0.0339 -0.2506
   66TCq2    C2 1005   4.391   4.390  15.331  0.7675  0.2730 -0.2260
   66TCq2    C3 1006   4.346   4.370  15.205  0.4553 -0.3702  0.6991
   66TCq2    C4 1007   4.329   4.471  15.118  0.6199  0.4935  0.4944
   66TCq2    C5 1008   4.352   4.596  15.155 -0.3123 -0.1945 -0.5056
   66TCq2    C6 1009   4.406   4.619  15.282  0.1013  0.0439  0.0513
   66TCq2    C7 1010   4.428   4.514  15.375 -0.1501  0.2701  0.2876
   66TCq2    C8 1011   4.408   0.039  15.318  0.0867  0.0231 -0.2581
   66TCq2    O4 1012   4.432   0.114  15.221  0.4710  0.0132 -0.0112
   66TCq2    C9 1013   4.278   4.451  14.982 -0.3720  0.0634  0.3855
   66TCq2    O5 1014   4.311   4.537  14.895  0.0562  0.2196  0.1411
   66TCq2    O6 1015   4.230   4.337  14.959  0.1314  0.1822  0.0326
   66TCq2    H2 1016   4.291   4.280  15.185  0.5070 -0.2300 -0.0587
   66TCq2    H3 1017   4.324   4.678  15.090  1.3273  1.1629  0.5018
   66TCq2    H4 1018   4.481   4.537  15.467  0.5024  0.5323 -0.1530
   67MPD2     C 1019   4.129   3.360  14.214  0.0100 -0.7257 -0.2004
   67MPD2    C1 1020   4.066   3.457  14.280 -0.1815 -0.4265  0.0959
   67MPD2    C2 1021   3.931   3.479  14.249  0.8316  0.3360 -0.6625
   67MPD2    C3 1022   3.864   3.401  14.160  0.7182  0.2654 -0.0309
   67MPD2    C4 1023   3.936   3.298  14.101  0.2836 -0.0958  0.0557
   67MPD2    C5 1024   4.069   3.280  14.120 -0.0725 -0.1944 -0.3531
   67MPD2     H 1025   3.882   3.564  14.296  2.1909  2.4828 -3.1276
   67MPD2    H1 1026   3.893   3.229  14.028 -0.2308 -0.9000  1.1045
   67MPD2    H2 1027   4.234   3.340  14.232  0.4497  1.2953 -0.4457
   67MPD2    H3 1028   4.127   3.208  14.063  0.3399 -0.3442  0.2502
   67MPD2     N 1029   3.726   3.429  14.131  0.3807 -0.7402  0.4664
   67MPD2    H5 1030   3.685   3.515  14.168 -0.0261 -1.7389  2.3508
   67MPD2    N1 1031   4.127   3.535  14.383 -0.0816  0.4433 -0.1687
   67MPD2    H7 1032   4.071   3.599  14.438 -1.5138 -0.3121 -0.7606
   68TCq2    C1 1033   4.253   3.519  14.441 -0.0396 -0.1157 -0.3889
   68TCq2    O2 1034   4.334   3.433  14.407  0.4975  0.0372 -0.5255
   68TCq2    C2 1035   4.282   3.632  14.529 -0.3198  0.0254  0.3958
   68TCq2    C3 1036   4.211   3.746  14.522 -0.5627 -0.5211 -1.2645
   68TCq2    C4 1037   4.237   3.838  14.625 -0.1759 -0.0765 -0.4198
   68TCq2    C5 1038   4.344   3.822  14.714 -0.6048  0.0192  0.8205
   68TCq2    C6 1039   4.420   3.708  14.706 -0.3433  0.4035  0.2394
   68TCq2    C7 1040   4.380   3.609  14.620 -0.2847 -0.4368  0.1253
   68TCq2    C8 1041   4.545   3.686  14.780  0.2251 -0.3430  0.7973
   68TCq2    O4 1042   4.614   3.591  14.743 -0.1954 -0.4650  0.2323
   68TCq2    C9 1043   4.159   3.959  14.642 -0.6142 -0.3259 -0.2152
   68TCq2    O5 1044   4.052   3.964  14.573 -0.5836 -0.3441  0.0918
   68TCq2    O6 1045   4.186   4.037  14.740  0.1876  0.3399  0.1555
   68TCq2    H2 1046   4.143   3.767  14.440 -0.8715 -0.9105 -1.1073
   68TCq2    H3 1047   4.364   3.892  14.794  0.5310 -0.6982  1.1786
   68TCq2    H4 1048   4.451   3.529  14.601  1.1554  0.4667  1.6414
   69TMC2    C1 1049   0.815   0.166  12.210  0.3537 -0.3506  0.2129
   69TMC2    C2 1050   0.716   0.265  12.217  0.1496  0.0181  0.5513
   69TMC2    C3 1051   0.697   0.340  12.106  0.4112  1.2151 -0.7840
   69TMC2    C4 1052   0.882   0.136  12.094 -0.1439  0.4874 -0.4053
   69TMC2    C5 1053   0.866   0.221  11.990  0.2719  0.2753 -0.2836
   69TMC2    C6 1054   0.780   0.327  11.995  0.7292 -0.3819 -0.1400
   69TMC2     C 1055   0.845   0.094  12.339 -0.0373 -0.1003  0.1120
   69TMC2     O 1056   0.778   0.131  12.433 -0.1150  0.8365 -0.0363
   69TMC2     H 1057   0.669   0.306  12.305 -1.1322 -0.8389  0.2744
   69TMC2    H1 1058   0.952   0.054  12.084 -1.4304 -0.7188  0.3995
   69TMC2    H2 1059   0.779   0.402  11.917  2.3707 -2.3551 -2.0532
   69TMC2    C7 1060   0.946   0.196  11.874 -0.5192 -0.7438  0.0118
   69TMC2    C8 1061   0.628   0.469  12.114  0.4517  1.0671  0.6413
   69TMC2    O1 1062   1.062   0.160  11.897 -0.4301  0.1183 -0.6327
   69TMC2    O2 1063   0.644   0.552  12.027 -0.2486 -0.2557 -0.2928
   69TMC2    O5 1064   0.541   0.480  12.216 -0.3314 -0.1645 -0.1658
   69TMC2    H5 1065   0.510   0.397  12.258 -0.5065 -0.0474 -0.0646
   70MPD2     C 1066   1.118   4.585  12.432 -0.5529 -0.2774 -1.1059
   70MPD2    C1 1067   0.997   4.648  12.455 -0.1051  0.1026  0.1791
   70MPD2    C2 1068   0.937   4.639  12.584  0.3642  0.2279  0.3673
   70MPD2    C3 1069   0.996   4.578  12.686  0.5178  0.6476 -0.9553
   70MPD2    C4 1070   1.125   4.531  12.662 -0.9065 -0.7071  1.1391
   70MPD2    C5 1071   1.187   4.533  12.536  0.2050  0.5700  0.1158
   70MPD2     H 1072   0.835   4.675  12.596 -0.1527 -1.1304  0.0274
   70MPD2    H1 1073   1.186   4.476  12.732 -1.4138 -1.3952  1.0319
   70MPD2    H2 1074   1.158   4.587  12.331 -0.7028 -0.2292 -1.1631
   70MPD2    H3 1075   1.291   4.506  12.524  0.0074  0.0999 -0.5388
   70MPD2     N 1076   0.938   4.548  12.815 -0.0196  0.1497  0.3276
   70MPD2    H5 1077   0.998   4.497  12.879 -1.9819  1.5601  3.2445
   70MPD2    N1 1078   0.948   4.715  12.340 -0.0060  0.3520 -0.2451
   70MPD2    H7 1079   1.000   4.714  12.253 -0.1333  4.1525 -0.3419
   71TMC2    C1 1080   3.763   1.778   1.601  0.3543  0.0144  0.1217
   71TMC2    C2 1081   3.848   1.884   1.583  0.1630  0.3798 -0.4808
   71TMC2    C3 1082   3.800   2.008   1.619  0.3558  0.4350 -0.4322
   71TMC2    C4 1083   3.638   1.794   1.654  0.5521  0.8896  0.4078
   71TMC2    C5 1084   3.603   1.915   1.697 -0.2970  0.4597 -0.2650
   71TMC2    C6 1085   3.681   2.025   1.684 -0.6428  0.5055 -0.8052
   71TMC2     C 1086   3.779   1.672   1.504  0.3087  0.7516 -0.0332
   71TMC2     O 1087   3.887   1.671   1.452  0.0369 -0.3117 -0.0446
   71TMC2     H 1088   3.947   1.860   1.547  0.4750  0.8110  0.0938
   71TMC2    H1 1089   3.577   1.711   1.687  0.5458  0.4688 -0.6730
   71TMC2    H2 1090   3.651   2.128   1.702  1.3663  0.7060  1.3465
   71TMC2    C7 1091   3.461   1.930   1.717  0.3046  0.2015 -0.6250
   71TMC2    C8 1092   3.900   2.112   1.656  0.2323 -0.5093 -0.8626
   71TMC2    O1 1093   3.428   2.035   1.771 -0.5219 -0.0806 -0.1560
   71TMC2    O2 1094   3.890   2.194   1.751 -0.1236  0.0538 -0.3472
   71TMC2    O5 1095   4.004   2.091   1.578 -0.0826  0.4058  0.2246
   71TMC2    H5 1096   3.976   2.058   1.490 -0.8284  1.3626  0.1080
   72MPD2     C 1097   3.597   1.305   1.192 -0.2148 -0.2715 -0.2698
   72MPD2    C1 1098   3.732   1.342   1.216 -0.6845 -0.3539 -0.3330
   72MPD2    C2 1099   3.752   1.434   1.319 -0.3669 -0.0049  0.1373
   72MPD2    C3 1100   3.648   1.507   1.382  1.1307 -0.2192  0.0818
   72MPD2    C4 1101   3.519   1.469   1.360  0.0540 -0.6817  0.2928
   72MPD2    C5 1102   3.499   1.372   1.262 -0.0405 -0.0951  0.4341
   72MPD2     H 1103   3.851   1.473   1.343 -0.1762 -0.9948  0.9206
   72MPD2    H1 1104   3.431   1.520   1.396 -0.7669 -0.5901 -1.8638
   72MPD2    H2 1105   3.559   1.224   1.131  0.4230 -0.0609 -0.9502
   72MPD2    H3 1106   3.403   1.346   1.220  0.8551  0.8753 -2.1536
   72MPD2     N 1107   3.659   1.614   1.465 -0.2900 -0.2467 -0.6173
   72MPD2    H5 1108   3.577   1.636   1.520  2.1779  1.2607  2.4314
   72MPD2    N1 1109   3.843   1.295   1.149 -0.3542 -0.4143  0.4807
   72MPD2    H7 1110   3.933   1.325   1.184  0.5349 -0.6253 -1.5920
   73TMC2    C1 1111   2.693   2.888  13.995  0.4854 -0.1468  0.6177
   73TMC2    C2 1112   2.621   2.920  14.114  0.5329  0.5345  0.4747
   73TMC2    C3 1113   2.534   2.822  14.156 -0.8909  0.0286  0.4726
   73TMC2    C4 1114   2.681   2.769  13.931  0.3661  0.5612 -0.1064
   73TMC2    C5 1115   2.604   2.670  13.986  0.4690  0.3854  0.3082
   73TMC2    C6 1116   2.539   2.700  14.103  0.7301 -0.7834 -0.5106
   73TMC2     C 1117   2.837   2.909  14.010  0.3738  0.3161 -0.4258
   73TMC2     O 1118   2.901   2.805  14.003 -0.5265  0.7943 -0.1052
   73TMC2     H 1119   2.638   3.006  14.178 -0.1218  0.6834  0.4408
   73TMC2    H1 1120   2.743   2.769  13.842  0.3209 -1.8124 -0.1307
   73TMC2    H2 1121   2.475   2.621  14.144  2.4801 -0.3999  2.9345
   73TMC2    C7 1122   2.655   2.533  13.978  0.0379 -0.3405  0.3768
   73TMC2    C8 1123   2.486   2.837  14.290 -0.4425 -0.6061 -0.8499
   73TMC2    O1 1124   2.588   2.435  13.991 -0.4305  0.2275  0.2482
   73TMC2    O2 1125   2.490   2.753  14.382  0.1392  0.0633  0.5839
   73TMC2    O5 1126   2.430   2.962  14.300 -0.2161  0.2732  0.1712
   73TMC2    H5 1127   2.416   3.016  14.219 -1.1868  0.0006  0.1619
   74MPD2     C 1128   3.275   3.154  13.975 -0.4886  0.0654 -0.0268
   74MPD2    C1 1129   3.246   3.022  13.964  0.3079 -0.1068 -0.5008
   74MPD2    C2 1130   3.114   2.986  13.967  0.2705  0.1362  0.4313
   74MPD2    C3 1131   3.005   3.081  13.987  0.5073 -0.2429 -0.4730
   74MPD2    C4 1132   3.041   3.209  14.000  0.4456 -0.6194  0.6218
   74MPD2    C5 1133   3.169   3.247  13.991 -0.2938  0.1331 -0.5587
   74MPD2     H 1134   3.086   2.884  13.947 -0.3782 -0.2769  3.4203
   74MPD2    H1 1135   2.971   3.291  14.014  0.4038 -0.4956 -0.3626
   74MPD2    H2 1136   3.376   3.191  13.961  0.1427 -1.9187 -0.6741
   74MPD2    H3 1137   3.171   3.355  14.000 -1.6606  0.0075  1.5388
   74MPD2     N 1138   2.871   3.039  14.025 -0.2750 -0.2106 -0.4454
   74MPD2    H5 1139   2.800   3.112  14.026  0.8314  0.8294  1.1787
   74MPD2    N1 1140   3.357   2.932  13.949 -0.7342  0.3057 -0.2922
   74MPD2    H7 1141   3.450   2.970  13.959 -0.2796 -1.0772  0.8551
   75TCq2    C1 1142   3.635   3.367  14.043  0.0463 -0.2974 -0.3275
   75TCq2    O2 1143   3.658   3.291  13.952  0.2946 -0.0728  0.1145
   75TCq2    C2 1144   3.520   3.449  14.038 -0.0591 -0.3971  0.0749
   75TCq2    C3 1145   3.462   3.494  14.156 -0.2844 -0.4438  0.5132
   75TCq2    C4 1146   3.341   3.555  14.141  0.1864 -0.1419  0.3962
   75TCq2    C5 1147   3.281   3.573  14.023 -0.2219  0.3051 -0.7554
   75TCq2    C6 1148   3.329   3.517  13.910 -0.1767 -0.3488 -0.0582
   75TCq2    C7 1149   3.447   3.453  13.919  0.2712  0.1657 -0.4400
   75TCq2    C8 1150   3.278   3.555  13.787  0.8137  0.4700 -0.0097
   75TCq2    O4 1151   3.316   3.494  13.686 -0.1744 -0.2736  0.0240
   75TCq2    C9 1152   3.267   3.610  14.256 -0.0848 -0.2239  0.5725
   75TCq2    O5 1153   3.319   3.574  14.366 -0.7657 -0.0084 -0.0888
   75TCq2    O6 1154   3.150   3.661  14.242  0.4703 -0.0666  0.1091
   75TCq2    H2 1155   3.506   3.477  14.254 -0.0099  1.1793  0.6706
   75TCq2    H3 1156   3.180   3.614  14.018 -1.0477 -1.4638  1.4426
   75TCq2    H4 1157   3.481   3.409  13.826  2.6450 -0.1654  0.5933
   76MPD2     C 1158   1.859   4.308  11.834  0.3002 -0.9447 -0.4287
   76MPD2    C1 1159   1.849   4.305  11.691 -0.4375 -0.4893  0.5233
   76MPD2    C2 1160   1.927   4.220  11.624  0.0106 -0.6312  0.1466
   76MPD2    C3 1161   2.004   4.132  11.699  0.3757  0.1951 -0.3504
   76MPD2    C4 1162   1.999   4.126  11.836  0.4452  0.6308  0.1462
   76MPD2    C5 1163   1.929   4.218  11.904 -0.3962 -0.6404  0.2490
   76MPD2     H 1164   1.931   4.216  11.516  0.1219 -0.0842  0.1303
   76MPD2    H1 1165   2.057   4.053  11.891 -0.5232 -0.1434  0.1323
   76MPD2    H2 1166   1.796   4.373  11.894  0.3988 -1.0259 -0.2358
   76MPD2    H3 1167   1.930   4.223  12.012 -0.5787  0.0182  0.2206
   76MPD2     N 1168   2.078   4.029  11.631 -0.0467  0.7512  0.2241
   76MPD2    H5 1169   2.114   3.958  11.694 -0.7405  0.4565  0.2889
   76MPD2    N1 1170   1.771   4.398  11.618 -0.8751  0.2017 -0.3466
   76MPD2    H7 1171   1.789   4.401  11.518 -1.5787  1.3240 -0.4369
   77TCq2    C1 1172   2.086   4.000  11.494  0.0916  0.0614 -0.2855
   77TCq2    O2 1173   2.028   4.057  11.400  0.1530 -0.1054 -0.7591
   77TCq2    C2 1174   2.174   3.886  11.457 -0.3396  0.1058 -0.6814
   77TCq2    C3 1175   2.193   3.867  11.323  0.4422  0.1012  0.9104
   77TCq2    C4 1176   2.279   3.762  11.286 -0.1356 -0.0349  0.3123
   77TCq2    C5 1177   2.349   3.688  11.376  0.7001 -0.0809 -0.2514
   77TCq2    C6 1178   2.337   3.720  11.506 -0.1944 -0.7650 -0.5647
   77TCq2    C7 1179   2.244   3.816  11.547  0.4953  0.3967 -0.3218
   77TCq2    C8 1180   2.423   3.644  11.601  0.3949 -0.0648  0.2179
   77TCq2    O4 1181   2.443   3.528  11.571 -0.3172  0.0451 -0.5740
   77TCq2    C9 1182   2.295   3.722  11.152 -0.1751  0.3455  0.3929
   77TCq2    O5 1183   2.255   3.806  11.071  0.1074 -0.1653 -0.3911
   77TCq2    O6 1184   2.345   3.607  11.118 -0.1170  0.1505  0.4223
   77TCq2    H2 1185   2.146   3.933  11.251 -1.8853  0.9463  3.2234
   77TCq2    H3 1186   2.412   3.608  11.338  0.5582  0.6057 -1.9322
   77TCq2    H4 1187   2.251   3.850  11.649 -1.3369 -0.9416  0.2365
   78MPD1     C 1188   2.947   1.117   1.527  0.0903 -0.8896  0.4893
   78MPD1    C1 1189   3.020   1.210   1.602 -0.2730  0.1935 -0.1320
   78MPD1    C2 1190   3.154   1.213   1.608 -0.6332 -0.0904  0.1829
   78MPD1    C3 1191   3.227   1.129   1.523  0.4802 -0.1061 -0.1697
   78MPD1    C4 1192   3.159   1.052   1.438 -0.1933  0.1560 -0.1074
   78MPD1    C5 1193   3.020   1.045   1.439 -0.6518  0.5681 -0.2515
   78MPD1     H 1194   3.199   1.280   1.680 -1.9370 -0.5133  1.4055
   78MPD1    H1 1195   3.204   0.989   1.363 -0.2090  1.8224 -1.5122
   78MPD1    H2 1196   2.839   1.107   1.524 -0.0163  0.2321  0.5334
   78MPD1    H3 1197   2.978   0.969   1.373  0.8993 -0.7425  0.2591
   78MPD1     N 1198   3.368   1.125   1.518 -0.7099 -0.5530  0.5032
   78MPD1    H5 1199   3.410   1.068   1.445  1.7240 -0.7140  2.0310
   78MPD1    N1 1200   2.938   1.287   1.686 -0.0337  0.2329 -0.4502
   78MPD1    H6 1201   2.842   1.288   1.654 -0.0631  3.0826 -0.3163
   78MPD1    H7 1202   2.970   1.377   1.722 -0.5357  1.4354 -3.0087
   79TCq2    C1 1203   3.449   1.184   1.608 -0.7683 -0.6403  0.2907
   79TCq2    O2 1204   3.423   1.254   1.706 -0.2598 -0.3986 -0.1509
   79TCq2    C2 1205   3.587   1.159   1.573  0.0129 -0.1546 -0.0465
   79TCq2    C3 1206   3.687   1.246   1.623 -0.5908 -0.3881 -0.3400
   79TCq2    C4 1207   3.815   1.225   1.586  0.7954  0.8294 -0.0653
   79TCq2    C5 1208   3.860   1.111   1.524 -0.1884 -0.3823 -0.1540
   79TCq2    C6 1209   3.763   1.020   1.488 -1.0875 -0.6771 -0.3139
   79TCq2    C7 1210   3.632   1.044   1.512  0.3475  0.4520  0.2274
   79TCq2    C8 1211   3.798   0.908   1.404 -0.5467 -0.1976 -0.5831
   79TCq2    O4 1212   3.918   0.881   1.409 -0.6159 -0.2605  0.4061
   79TCq2    C9 1213   3.909   1.328   1.635  0.2275  0.3768 -0.4483
   79TCq2    O5 1214   4.023   1.330   1.586  0.2339  0.1409  0.0048
   79TCq2    O6 1215   3.883   1.377   1.743  0.5912 -0.6847 -0.7565
   79TCq2    H2 1216   3.655   1.339   1.669 -0.2846 -0.7981  0.6974
   79TCq2    H3 1217   3.966   1.094   1.506  0.2040 -0.5625  2.3675
   79TCq2    H4 1218   3.564   0.963   1.494  0.6363  0.0748  0.8435
   80MPD2     C 1219   1.173   3.742  12.910 -0.3434  0.2041 -0.1043
   80MPD2    C1 1220   1.182   3.790  12.775 -0.2970 -0.1290 -0.3453
   80MPD2    C2 1221   1.066   3.810  12.706 -0.0917  0.3821  0.2101
   80MPD2    C3 1222   0.944   3.790  12.766  0.5681  0.4082 -0.6640
   80MPD2    C4 1223   0.939   3.754  12.901 -0.3894 -0.3533  0.1635
   80MPD2    C5 1224   1.050   3.729  12.969 -0.0448  0.0902  0.1255
   80MPD2     H 1225   1.077   3.865  12.613  0.3616  2.2988  1.4051
   80MPD2    H1 1226   0.843   3.745  12.952 -0.8105 -2.8182 -1.0545
   80MPD2    H2 1227   1.263   3.723  12.967 -0.2550 -0.8160 -0.5767
   80MPD2    H3 1228   1.034   3.694  13.070 -0.6963 -2.4278 -0.8639
   80MPD2     N 1229   0.818   3.819  12.702 -0.1240  0.0690 -0.1931
   80MPD2    H5 1230   0.735   3.799  12.757  1.0166 -0.3759  1.3679
   80MPD2    N1 1231   1.299   3.811  12.710  0.0998 -0.2873 -0.2481
   80MPD2    H7 1232   1.301   3.816  12.608 -0.3822  1.2082 -0.1762
   81TCq2    C1 1233   1.419   3.822  12.772 -0.2721 -0.7532  0.5639
   81TCq2    O2 1234   1.448   3.827  12.888 -0.0267  0.0616  0.1541
   81TCq2    C2 1235   1.533   3.845  12.670 -0.1554 -0.2179  0.1673
   81TCq2    C3 1236   1.647   3.784  12.702  0.3889 -0.1311  0.2095
   81TCq2    C4 1237   1.723   3.753  12.597  0.9881 -0.6474  0.4160
   81TCq2    C5 1238   1.682   3.762  12.466  0.0361 -0.1120 -0.0719
   81TCq2    C6 1239   1.564   3.820  12.442  0.0477  0.0134  0.5188
   81TCq2    C7 1240   1.489   3.871  12.543 -0.5209  0.3322 -0.1081
   81TCq2    C8 1241   1.502   3.796  12.314  0.1836 -0.2189 -0.2739
   81TCq2    O4 1242   1.417   3.876  12.270 -0.6046  0.1526  0.5602
   81TCq2    C9 1243   1.856   3.702  12.629  0.3912 -1.5324 -0.1722
   81TCq2    O5 1244   1.918   3.641  12.533  0.7389  0.2807 -0.0834
   81TCq2    O6 1245   1.916   3.764  12.724 -0.1594 -0.5452 -0.6091
   81TCq2    H2 1246   1.680   3.761  12.802 -0.9364  0.3483  0.7553
   81TCq2    H3 1247   1.737   3.720  12.383 -1.0608  0.7286 -1.2069
   81TCq2    H4 1248   1.406   3.936  12.517 -0.3317  0.2117 -0.9880
   82MPD2     C 1249   4.258   3.573  10.855 -0.5151  0.2199  0.0273
   82MPD2    C1 1250   4.191   3.452  10.846  0.0280 -0.8113 -0.1211
   82MPD2    C2 1251   4.243   3.337  10.898  0.1657 -0.2142 -0.8774
   82MPD2    C3 1252   4.374   3.340  10.952  0.2610 -0.0106  0.1038
   82MPD2    C4 1253   4.444   3.465  10.956  0.2893  0.2768 -0.0916
   82MPD2    C5 1254   4.387   3.575  10.906 -0.7019  0.1881 -0.7623
   82MPD2     H 1255   4.182   3.248  10.889  1.0348 -0.8190 -0.7390
   82MPD2    H1 1256   4.544   3.475  10.998  1.2605  0.5281 -2.4669
   82MPD2    H2 1257   4.217   3.657  10.799 -0.8643 -0.7048 -1.1159
   82MPD2    H3 1258   4.440   3.669  10.914 -1.6278  0.6865 -0.4346
   82MPD2     N 1259   4.428   3.220  11.001  0.3630  0.2620  0.1863
   82MPD2    H5 1260   4.371   3.138  10.984 -0.5572  0.7986  0.6621
   82MPD2    N1 1261   4.077   3.468  10.766  0.5071  0.0541 -0.2290
   82MPD2    H7 1262   4.062   3.561  10.726 -1.3884 -0.3776 -0.5176
   83TCq2    C1 1263   4.560   3.196  11.050 -0.2621  0.3696 -0.1665
   83TCq2    O2 1264   4.649   3.277  11.062  0.2798 -0.1908 -0.1070
   83TCq2    C2 1265   4.573   3.061  11.103 -0.6456 -0.4092 -0.0119
   83TCq2    C3 1266   4.693   3.037  11.163 -0.6792 -0.4391 -0.1835
   83TCq2    C4 1267   0.021   2.911  11.170 -0.4553  0.3949 -0.3880
   83TCq2    C5 1268   4.658   2.804  11.133  0.0793 -0.4826 -0.1878
   83TCq2    C6 1269   4.546   2.839  11.060  0.4586 -0.7036  0.0320
   83TCq2    C7 1270   4.503   2.966  11.047 -0.0582  0.5246  0.0471
   83TCq2    C8 1271   4.451   2.732  11.044 -0.4696 -0.4063 -0.2929
   83TCq2    O4 1272   4.479   2.632  11.112 -0.0694  0.2141 -0.0598
   83TCq2    C9 1273   0.138   2.881  11.252 -0.4613 -0.6641  0.6666
   83TCq2    O5 1274   0.187   2.767  11.238 -0.4155  0.1147 -0.0942
   83TCq2    O6 1275   0.193   2.968  11.328  0.5311  0.6573 -0.0198
   83TCq2    H2 1276   0.031   3.113  11.212 -2.8149 -1.0326  3.2587
   83TCq2    H3 1277   4.697   2.704  11.141 -0.8310 -0.8872 -0.7395
   83TCq2    H4 1278   4.414   2.985  10.987 -0.1950 -0.8438 -0.1794
   84TCq2    C1 1279   0.962   2.350  10.282 -0.3304 -0.4433 -0.4213
   84TCq2    O2 1280   0.847   2.305  10.275 -0.0161  0.1390 -0.0375
   84TCq2    C2 1281   1.020   2.404  10.402  0.2637  0.0458 -0.1790
   84TCq2    C3 1282   1.143   2.468  10.401 -0.8556  0.3600  0.5023
   84TCq2    C4 1283   1.187   2.537  10.512  0.4876 -0.1182 -0.0387
   84TCq2    C5 1284   1.110   2.549  10.622  0.3104  0.4616  0.2341
   84TCq2    C6 1285   0.990   2.475  10.624 -0.4493 -0.4134  0.0461
   84TCq2    C7 1286   0.941   2.407  10.516  0.0744  0.0208  0.1467
   84TCq2    C8 1287   0.902   2.497  10.733 -0.0191 -0.1070 -0.0725
   84TCq2    O4 1288   0.847   2.394  10.766 -0.2232 -0.1072 -0.3396
   84TCq2    C9 1289   1.322   2.599  10.507  0.1635 -0.2632 -0.4982
   84TCq2    O5 1290   1.367   2.656  10.605 -0.1117 -0.4065 -0.1415
   84TCq2    O6 1291   1.393   2.582  10.408 -0.2049  0.5478 -0.0628
   84TCq2    H2 1292   1.209   2.481  10.316 -0.7341  0.9834  0.6918
   84TCq2    H3 1293   1.139   2.615  10.703 -0.7193 -0.1721  1.1216
   84TCq2    H4 1294   0.835   2.386  10.526 -0.2299  2.4047  1.9142
   85MPD2     C 1295   2.168   0.397  16.299  0.1050 -0.6280  0.4827
   85MPD2    C1 1296   2.059   0.453  16.241  0.3298  1.6259 -0.3113
   85MPD2    C2 1297   2.085   0.542  16.138  0.1392  0.1412 -0.5149
   85MPD2    C3 1298   2.212   0.592  16.105 -0.3338  0.0998  0.8017
   85MPD2    C4 1299   2.317   0.539  16.176  0.3958 -0.3141 -0.3771
   85MPD2    C5 1300   2.292   0.448  16.278  0.3982  0.3485  0.3054
   85MPD2     H 1301   1.996   0.573  16.086 -0.6499  1.1059  1.3945
   85MPD2    H1 1302   2.418   0.579  16.173 -1.3053  3.9273 -1.7272
   85MPD2    H2 1303   2.165   0.311  16.365 -0.2641 -2.1539 -1.5147
   85MPD2    H3 1304   2.373   0.394  16.326  0.7919  0.1662 -0.5672
   85MPD2     N 1305   2.235   0.702  16.014 -0.3684 -0.1910  0.6466
   85MPD2    H5 1306   2.154   0.754  15.982  0.5521  1.1341  0.4694
   85MPD2    N1 1307   1.929   0.399  16.256  0.0519 -0.0700 -0.7384
   85MPD2    H7 1308   1.853   0.432  16.197  1.2277  2.2388 -0.9685
   86TCq2    C1 1309   2.353   0.722  15.948 -0.9991 -0.0056  0.0727
   86TCq2    O2 1310   2.453   0.652  15.938 -0.0769 -0.2680  0.6596
   86TCq2    C2 1311   2.343   0.839  15.865 -0.0101 -0.8734 -0.1669
   86TCq2    C3 1312   2.285   0.959  15.905 -0.0075  0.2872  0.2772
   86TCq2    C4 1313   2.323   1.071  15.840  0.4139  0.2201 -0.4486
   86TCq2    C5 1314   2.394   1.070  15.724 -0.6514  0.1044  0.3566
   86TCq2    C6 1315   2.444   0.948  15.687  1.1833  0.1952  0.4883
   86TCq2    C7 1316   2.424   0.830  15.755 -0.5622  0.0970  1.3918
   86TCq2    C8 1317   2.489   0.930  15.552 -0.8491  0.8395  0.3583
   86TCq2    O4 1318   2.554   0.832  15.517  0.2727  0.3511 -0.2348
   86TCq2    C9 1319   2.281   1.202  15.893  0.2263  0.3547  0.3135
   86TCq2    O5 1320   2.319   1.310  15.834 -0.3633 -0.3028 -0.2146
   86TCq2    O6 1321   2.210   1.198  15.997  1.1088  0.0296 -0.2382
   86TCq2    H2 1322   2.216   0.958  15.988  0.5532  0.1714  0.7502
   86TCq2    H3 1323   2.417   1.163  15.674 -0.2672 -0.1177  0.1262
   86TCq2    H4 1324   2.478   0.736  15.742 -3.6540 -1.8610  2.7400
   87MPD2     C 1325   3.072   3.784   0.917 -0.1431 -0.2083 -0.9696
   87MPD2    C1 1326   3.159   3.865   0.984 -0.3641  0.3205 -0.4839
   87MPD2    C2 1327   3.158   3.998   0.948 -0.4953  0.5011  0.2790
   87MPD2    C3 1328   3.076   4.056   0.855 -0.3558  0.3425 -0.1708
   87MPD2    C4 1329   2.992   3.968   0.795  0.4932  0.6769 -0.3143
   87MPD2    C5 1330   2.988   3.831   0.821  0.2658  0.4905 -0.7380
   87MPD2     H 1331   3.226   4.068   0.996 -1.0341  2.4000 -1.7134
   87MPD2    H1 1332   2.929   4.000   0.713 -0.3892 -1.5940 -0.5300
   87MPD2    H2 1333   3.071   3.676   0.931  1.6823  0.2691  2.9620
   87MPD2    H3 1334   2.923   3.763   0.767 -0.6911 -0.5561  1.7398
   87MPD2     N 1335   3.103   4.176   0.794 -0.0785 -0.6268  0.1182
   87MPD2    H5 1336   3.034   4.211   0.728  1.2487  1.3475 -0.2338
   87MPD2    N1 1337   3.238   3.805   1.079 -0.5905  0.0974  0.3244
   87MPD2    H7 1338   3.251   3.704   1.082 -0.0990  0.1474 -0.0944
   88TCq2    C1 1339   3.309   3.882   1.166  0.2739 -0.2517 -1.0211
   88TCq2    O2 1340   3.289   3.998   1.207  0.0676  0.7217 -0.0145
   88TCq2    C2 1341   3.403   3.796   1.248  0.2161  0.2562 -0.0210
   88TCq2    C3 1342   3.438   3.839   1.374  0.4444  0.5939 -0.0789
   88TCq2    C4 1343   3.561   3.794   1.418 -0.8728 -0.4526  0.3991
   88TCq2    C5 1344   3.635   3.696   1.356 -0.3349 -0.0923  0.2012
   88TCq2    C6 1345   3.584   3.642   1.239 -0.6141 -0.9266  0.4870
   88TCq2    C7 1346   3.470   3.695   1.181 -0.2138  0.5914  0.7998
   88TCq2    C8 1347   3.676   3.563   1.152  0.1937  0.2615 -0.3405
   88TCq2    O4 1348   3.655   3.561   1.033  0.0395 -0.5597  0.1904
   88TCq2    C9 1349   3.629   3.867   1.527  0.1268 -0.3493  0.4503
   88TCq2    O5 1350   3.574   3.971   1.572 -0.4595 -0.5560 -0.2864
   88TCq2    O6 1351   3.753   3.854   1.525 -0.0053 -0.2006 -0.0643
   88TCq2    H2 1352   3.383   3.917   1.426 -0.8403 -0.5947  0.3246
   88TCq2    H3 1353   3.732   3.666   1.394 -0.2268 -0.2670 -0.2152
   88TCq2    H4 1354   3.468   3.684   1.073 -1.0853  1.4191  0.7291
   89MPD2     C 1355   4.582   3.027   1.295 -0.4368 -0.5289  0.9936
   89MPD2    C1 1356   4.633   2.971   1.405  0.2211  0.2187 -0.4144
   89MPD2    C2 1357   0.041   3.006   1.444  0.4463  0.3340 -0.0488
   89MPD2    C3 1358   0.119   3.097   1.371 -0.1940 -0.5038 -0.0144
   89MPD2    C4 1359   0.071   3.144   1.249  0.2964  0.3184  0.9223
   89MPD2    C5 1360   4.657   3.113   1.222 -1.0692  0.4920 -0.8275
   89MPD2     H 1361   0.088   2.955   1.527 -2.6231 -1.2620  0.6843
   89MPD2    H1 1362   0.120   3.230   1.206 -0.2903  0.7775  1.1804
   89MPD2    H2 1363   4.484   3.003   1.255  0.6146  1.2795 -2.6632
   89MPD2    H3 1364   4.612   3.178   1.147 -0.5832  0.3823 -1.2057
   89MPD2     N 1365   0.243   3.141   1.425  0.6057  0.1163 -0.0713
   89MPD2    H5 1366   0.258   3.109   1.520  1.2957 -1.5124 -0.7384
   89MPD2    N1 1367   4.571   2.863   1.474 -0.3888 -0.0082  0.1015
   89MPD2    H7 1368   4.626   2.824   1.550  0.2606  1.2685  0.2822
   90TCq2    C1 1369   0.339   3.212   1.355  0.2930 -0.4879  0.0780
   90TCq2    O2 1370   0.356   3.219   1.236  0.5762 -0.1600 -0.1682
   90TCq2    C2 1371   0.439   3.272   1.450 -0.1699 -0.6945  0.2150
   90TCq2    C3 1372   0.413   3.305   1.576  0.0530 -0.3262 -0.2227
   90TCq2    C4 1373   0.515   3.341   1.656 -0.1885  0.1194  0.1807
   90TCq2    C5 1374   0.645   3.353   1.608 -0.1584 -0.0537  0.6749
   90TCq2    C6 1375   0.661   3.344   1.475  0.4873  0.5948  0.6186
   90TCq2    C7 1376   0.558   3.307   1.393 -0.0101 -0.1528 -0.5550
   90TCq2    C8 1377   0.798   3.313   1.427 -0.4436  0.8488 -0.1353
   90TCq2    O4 1378   0.830   3.352   1.314  0.4008  0.1708 -0.5016
   90TCq2    C9 1379   0.494   3.350   1.798 -0.2414 -0.3112 -0.2864
   90TCq2    O5 1380   0.580   3.395   1.878 -0.2086 -0.2088  0.2292
   90TCq2    O6 1381   0.384   3.304   1.832 -0.1563 -1.0604  0.4650
   90TCq2    H2 1382   0.317   3.286   1.624  0.4864  2.6542  1.7780
   90TCq2    H3 1383   0.724   3.361   1.682 -1.4370  0.2158  2.0327
   90TCq2    H4 1384   0.585   3.265   1.297  1.0123  2.1311 -1.2449
   91TMC2    C1 1385   1.990   1.755  16.425 -0.5854 -0.2074 -0.1804
   91TMC2    C2 1386   1.956   1.635  16.363 -0.9669  0.0242 -0.0079
   91TMC2    C3 1387   1.825   1.610  16.332  1.0616  0.1672 -0.1060
   91TMC2    C4 1388   1.903   1.853  16.441 -0.9028  0.5137  0.1125
   91TMC2    C5 1389   1.777   1.829  16.394 -0.5807  0.3656  0.0636
   91TMC2    C6 1390   1.734   1.714  16.332 -0.4399 -0.0438 -0.1146
   91TMC2     C 1391   2.133   1.781  16.454 -0.2569 -0.6373 -0.3415
   91TMC2     O 1392   2.170   1.898  16.457 -0.4038 -0.0135  0.1287
   91TMC2     H 1393   2.037   1.571  16.329  2.1894  4.2359 -0.3209
   91TMC2    H1 1394   1.932   1.954  16.467 -0.3603  0.4161 -0.0992
   91TMC2    H2 1395   1.635   1.688  16.297 -0.4294 -0.9183  0.5055
   91TMC2    C7 1396   1.692   1.944  16.383  0.9059  0.9630  0.7881
   91TMC2    C8 1397   1.792   1.487  16.256 -0.4774  0.3402 -0.3112
   91TMC2    O1 1398   1.690   2.023  16.477  0.4172  0.3978 -0.0449
   91TMC2    O2 1399   1.697   1.473  16.180  0.1236 -0.3257 -0.4441
   91TMC2    O5 1400   1.861   1.387  16.316 -0.5920 -0.0408  0.1260
   91TMC2    H5 1401   1.921   1.420  16.386  3.3159 -2.0500 -2.2358
   92MPD2     C 1402   2.407   1.554  16.550 -0.0736 -0.0717 -0.4812
   92MPD2    C1 1403   2.347   1.671  16.508 -0.0286 -0.8178  0.1307
   92MPD2    C2 1404   2.433   1.786  16.494  0.3299 -0.2794  0.2382
   92MPD2    C3 1405   2.568   1.775  16.539 -0.4136  0.1416  0.3238
   92MPD2    C4 1406   2.619   1.656  16.585 -0.2369  0.3017  0.2918
   92MPD2    C5 1407   2.538   1.544  16.590  0.1179  0.5062 -0.2847
   92MPD2     H 1408   2.401   1.880  16.450  0.7385 -0.1918  0.1277
   92MPD2    H1 1409   2.725   1.651  16.605  0.4022  1.3841 -2.8325
   92MPD2    H2 1410   2.341   1.468  16.548 -0.6800  0.4602 -3.3596
   92MPD2    H3 1411   2.580   1.447  16.611 -1.3467 -0.6251 -2.5698
   92MPD2     N 1412   2.645   1.887  16.516 -0.2010  0.0301 -0.7774
   92MPD2    H5 1413   2.604   1.976  16.491 -2.8123  0.0687  3.7361
   92MPD2    N1 1414   2.204   1.668  16.478 -0.5885  0.5254 -0.6714
   92MPD2    H7 1415   2.155   1.583  16.502  0.0150  0.2757 -0.3151
   93MPD2     C 1416   2.958   1.001  13.479  0.0199 -0.7057 -0.0303
   93MPD2    C1 1417   2.904   1.098  13.556 -0.2799 -0.7026 -0.3287
   93MPD2    C2 1418   2.766   1.127  13.546  0.0199  0.2666 -0.5213
   93MPD2    C3 1419   2.691   1.061  13.455 -0.1717  0.0377  0.0725
   93MPD2    C4 1420   2.750   0.960  13.382 -0.3435 -0.4401  0.3836
   93MPD2    C5 1421   2.880   0.932  13.397 -0.0065 -0.3775  0.0344
   93MPD2     H 1422   2.729   1.213  13.599 -0.7056 -0.1250 -0.3947
   93MPD2    H1 1423   2.698   0.917  13.297  0.1671  2.5157 -1.4266
   93MPD2    H2 1424   3.062   0.971  13.482  0.4085  0.5905 -0.6617
   93MPD2    H3 1425   2.929   0.869  13.324 -0.6332 -1.0807  0.2287
   93MPD2     N 1426   2.561   1.092  13.430  0.2208 -0.0438 -0.9671
   93MPD2    H5 1427   2.515   1.052  13.349  0.9535 -1.5156 -0.6607
   93MPD2    N1 1428   2.986   1.173  13.647 -0.8496 -0.3798 -0.3485
   93MPD2    H7 1429   2.952   1.261  13.682 -0.1535  0.6313 -2.2048
   94TCq2    C1 1430   3.118   1.145  13.681  0.4039 -0.0952  0.8808
   94TCq2    O2 1431   3.189   1.052  13.649 -0.0459 -0.0615  0.0227
   94TCq2    C2 1432   3.186   1.253  13.753 -0.2435 -0.0606  0.0191
   94TCq2    C3 1433   3.109   1.364  13.791  0.2871  0.4579  0.4172
   94TCq2    C4 1434   3.170   1.472  13.842 -0.9530 -0.2529  0.4703
   94TCq2    C5 1435   3.307   1.469  13.861  0.0036  0.5502  0.3037
   94TCq2    C6 1436   3.385   1.363  13.826  0.5663  0.2804  0.8999
   94TCq2    C7 1437   3.322   1.250  13.768 -0.3982  0.1550 -0.1240
   94TCq2    C8 1438   3.517   1.348  13.868  0.9074 -0.0687 -0.0227
   94TCq2    O4 1439   3.581   1.260  13.811  0.6529  0.0491  0.0841
   94TCq2    C9 1440   3.094   1.580  13.895  0.0381  0.0265 -0.3891
   94TCq2    O5 1441   3.165   1.651  13.968 -0.8162 -0.1839 -0.1078
   94TCq2    O6 1442   2.972   1.558  13.911  0.7384 -0.4118  0.1693
   94TCq2    H2 1443   3.001   1.367  13.783  0.1989  1.9088  2.1790
   94TCq2    H3 1444   3.352   1.555  13.909 -1.4471  1.1515  0.6018
   94TCq2    H4 1445   3.384   1.164  13.745  0.9448  0.5421  1.9821
   95TMC2    C1 1446   3.355   3.659  16.461 -0.2411 -0.1370  0.4765
   95TMC2    C2 1447   3.237   3.589  16.474 -0.2841 -1.1756  0.7083
   95TMC2    C3 1448   3.137   3.646  16.559  0.6848  0.1462  0.5429
   95TMC2    C4 1449   3.391   3.761  16.547  0.5452 -0.1718  0.6662
   95TMC2    C5 1450   3.291   3.807  16.632 -0.6699 -0.0668  0.0698
   95TMC2    C6 1451   3.167   3.749  16.649 -0.1027 -0.1601  0.2528
   95TMC2     C 1452   3.439   3.648  16.341 -0.4454  0.6127 -0.2883
   95TMC2     O 1453   3.521   3.734  16.318 -0.4276  0.4955 -0.2544
   95TMC2     H 1454   3.192   3.517  16.407  0.0650 -1.0344  0.3236
   95TMC2    H1 1455   3.495   3.789  16.541  0.8102 -1.3377 -0.2779
   95TMC2    H2 1456   3.102   3.799  16.720 -1.8779 -1.5483 -0.3913
   95TMC2    C7 1457   3.335   3.895  16.739 -0.0047  0.0403 -0.3117
   95TMC2    C8 1458   3.011   3.578  16.555 -0.4469  0.7526 -0.7047
   95TMC2    O1 1459   3.272   3.887  16.847  0.6244  0.5950 -0.0402
   95TMC2    O2 1460   2.985   3.469  16.504  0.0883  0.5338 -0.0589
   95TMC2    O5 1461   2.919   3.667  16.601  0.5255 -0.5486 -0.1611
   95TMC2    H5 1462   2.939   3.763  16.604 -1.2021 -0.3154  3.1584
   96MPD2     C 1463   3.556   3.364  15.928  0.1750 -0.0073  0.1650
   96MPD2    C1 1464   3.591   3.490  15.955  0.0645  0.6520 -0.0998
   96MPD2    C2 1465   3.551   3.546  16.072 -0.2719  0.3562  0.5192
   96MPD2    C3 1466   3.474   3.477  16.160  0.4494  0.6157  0.6172
   96MPD2    C4 1467   3.438   3.346  16.134 -0.1804  0.5384  0.0600
   96MPD2    C5 1468   3.490   3.286  16.018 -0.5021 -0.0129  0.2611
   96MPD2     H 1469   3.572   3.650  16.095  0.2753  0.0277  1.5205
   96MPD2    H1 1470   3.368   3.293  16.198  1.6941  0.9139  2.4142
   96MPD2    H2 1471   3.570   3.319  15.831  1.3475  0.7360 -0.0102
   96MPD2    H3 1472   3.470   3.190  15.972 -0.3961  0.5564 -0.9585
   96MPD2     N 1473   3.420   3.525  16.281  0.2812  0.4012 -0.6245
   96MPD2    H5 1474   3.360   3.461  16.331 -0.1544  3.1517  2.3878
   96MPD2    N1 1475   3.670   3.562  15.863 -0.1548  0.1740  0.1803
   96MPD2    H7 1476   3.677   3.521  15.770 -2.2226 -0.1506  0.1814
   97MPD2     C 1477   0.185   1.028   0.577  0.0039 -0.2151 -0.0561
   97MPD2    C1 1478   0.281   1.122   0.605  0.2357 -0.3001  0.1472
   97MPD2    C2 1479   0.355   1.178   0.501  1.0151  0.0119 -0.0318
   97MPD2    C3 1480   0.348   1.133   0.367 -0.6439 -0.4694 -0.0787
   97MPD2    C4 1481   0.254   1.026   0.349  0.2483 -0.5673  0.1282
   97MPD2    C5 1482   0.174   0.977   0.454 -0.2796  0.1906  0.7851
   97MPD2     H 1483   0.436   1.247   0.522  0.4758 -0.0633  2.2311
   97MPD2    H1 1484   0.238   0.983   0.251 -0.7471 -1.1037  0.5240
   97MPD2    H2 1485   0.138   0.977   0.660 -0.3031 -0.0055 -0.1026
   97MPD2    H3 1486   0.103   0.900   0.427  0.2696  0.7250 -2.2028
   97MPD2     N 1487   0.418   1.187   0.259 -0.6292  0.2151 -0.2275
   97MPD2    H5 1488   0.413   1.132   0.173  1.2806  0.0162 -0.2060
   97MPD2    N1 1489   0.292   1.159   0.744 -0.5566  0.3500  0.6425
   97MPD2    H7 1490   0.228   1.120   0.812  0.9528 -0.8540  1.3575
   98TCq2    C1 1491   0.517   1.284   0.258  0.6627 -0.9605 -0.0300
   98TCq2    O2 1492   0.562   1.364   0.346 -0.2367  0.1509 -0.3744
   98TCq2    C2 1493   0.565   1.311   0.121  1.0239 -0.8181 -0.2230
   98TCq2    C3 1494   0.554   1.209   0.030 -0.0775 -0.8142 -0.2666
   98TCq2    C4 1495   0.669   1.176  17.640  1.1777 -0.2117 -0.5134
   98TCq2    C5 1496   0.788   1.248  17.649 -0.1667 -0.6406 -0.3469
   98TCq2    C6 1497   0.792   1.361   0.046  0.8790 -1.2632 -0.1617
   98TCq2    C7 1498   0.678   1.384   0.126 -0.2163 -0.7464 -0.3671
   98TCq2    C8 1499   0.914   1.441   0.066 -0.2232 -0.4469  0.5813
   98TCq2    O4 1500   1.025   1.393   0.044 -0.2344 -0.0464 -0.0160
   98TCq2    C9 1501   0.659   1.054  17.559  0.4574  0.5411 -0.1532
   98TCq2    O5 1502   0.548   0.995  17.546 -0.0644 -0.1427  0.1726
   98TCq2    O6 1503   0.770   0.994  17.559 -0.0533 -0.0931  0.0678
   98TCq2    H2 1504   0.458   1.159   0.024  0.0901 -1.0376 -1.1875
   98TCq2    H3 1505   0.868   1.218  17.582 -0.0269 -0.6404 -0.1807
   98TCq2    H4 1506   0.688   1.463   0.199  1.1253  1.6159 -3.1007
   99MPD2     C 1507   4.325   3.199   1.673 -0.1737 -0.4803 -0.4525
   99MPD2    C1 1508   4.385   3.266   1.782 -0.7855 -0.4845  0.5236
   99MPD2    C2 1509   4.501   3.337   1.766  0.1251 -0.4165  0.3046
   99MPD2    C3 1510   4.558   3.345   1.639 -0.1627  0.1515  0.1314
   99MPD2    C4 1511   4.498   3.284   1.532  0.3790 -0.0587 -0.1006
   99MPD2    C5 1512   4.389   3.207   1.553 -0.2014 -0.1781  0.2566
   99MPD2     H 1513   4.554   3.388   1.846  0.6396 -1.4599  0.6274
   99MPD2    H1 1514   4.546   3.264   1.437  0.8921  0.2474  0.0930
   99MPD2    H2 1515   4.240   3.134   1.685  1.3444 -1.8616  2.8813
   99MPD2    H3 1516   4.351   3.146   1.473 -1.1140  0.8120 -0.0626
   99MPD2     N 1517   4.687   3.407   1.630  0.5316  0.1317 -0.0643
   99MPD2    H5 1518   0.023   3.425   1.712 -0.6533 -1.1738  1.0332
   99MPD2    N1 1519   4.323   3.251   1.903  0.3459  0.1293  1.0183
   99MPD2    H7 1520   4.235   3.201   1.899  0.4904 -0.1520  1.3814
  100TCq2    C1 1521   4.360   3.296   2.023  0.3762 -0.4922 -0.2567
  100TCq2    O2 1522   4.466   3.331   2.071 -0.3501 -0.1623 -0.9867
  100TCq2    C2 1523   4.255   3.275   2.126 -0.0362 -0.0300 -0.1569
  100TCq2    C3 1524   4.297   3.246   2.248  0.2522 -0.0366  0.0669
  100TCq2    C4 1525   4.211   3.209   2.343  0.3461  0.0316 -0.4387
  100TCq2    C5 1526   4.079   3.231   2.324  0.5174  0.2206  0.4270
  100TCq2    C6 1527   4.035   3.264   2.198 -0.3764  0.0098  0.1818
  100TCq2    C7 1528   4.123   3.277   2.094  0.1428 -0.0686 -0.0355
  100TCq2    C8 1529   3.899   3.318   2.190  0.5537 -0.0869 -0.1088
  100TCq2    O4 1530   3.856   3.351   2.296 -0.0580  0.3976  0.4538
  100TCq2    C9 1531   4.259   3.169   2.472 -0.3576 -0.0935  0.2294
  100TCq2    O5 1532   4.165   3.152   2.556 -0.0666  0.0148  0.1960
  100TCq2    O6 1533   4.376   3.130   2.481 -0.1608 -0.6803  0.3482
  100TCq2    H2 1534   4.403   3.234   2.267 -0.0090 -0.2364  1.4561
  100TCq2    H3 1535   4.011   3.216   2.406 -1.6017  0.8989 -1.2035
  100TCq2    H4 1536   4.096   3.327   2.002 -2.8249 -1.7221 -0.0500
  101MPD2     C 1537   0.068   3.791  13.024  0.1727 -0.2962  1.2548
  101MPD2    C1 1538   4.653   3.809  13.051  0.5015 -0.5887 -0.7425
  101MPD2    C2 1539   4.580   3.717  13.134 -0.0436  0.4757 -0.2303
  101MPD2    C3 1540   4.642   3.592  13.160 -0.3536  0.8631  0.2072
  101MPD2    C4 1541   0.054   3.584  13.141 -0.4828 -1.1252 -0.4106
  101MPD2    C5 1542   0.127   3.678  13.081  0.1759 -0.0776 -0.5658
  101MPD2     H 1543   4.477   3.740  13.160 -0.3728 -1.0546 -0.1898
  101MPD2    H1 1544   0.116   3.501  13.172 -0.0053 -1.0425 -1.1346
  101MPD2    H2 1545   0.133   3.858  12.969  0.0689 -2.4921 -1.5203
  101MPD2    H3 1546   0.226   3.649  13.051  0.9091  1.6047  0.2395
  101MPD2     N 1547   4.572   3.484  13.215  0.6841  0.6430  0.2613
  101MPD2    H5 1548   4.476   3.496  13.245  0.3092 -1.7016 -0.0070
  101MPD2    N1 1549   4.589   3.928  13.003 -0.3233 -0.4706 -0.8664
  101MPD2    H7 1550   4.633   3.983  12.930  0.7930 -0.9840 -0.5887
  102TCq2    C1 1551   4.488   4.336  12.715 -0.1323  0.0677  0.6017
  102TCq2    O2 1552   4.408   4.394  12.646 -0.2975  0.0590 -0.2511
  102TCq2    C2 1553   4.430   4.274  12.835 -0.2972  0.7333 -0.6624
  102TCq2    C3 1554   4.314   4.326  12.885  0.3511 -0.3826  0.0071
  102TCq2    C4 1555   4.258   4.273  13.000 -0.3513 -0.4410  0.1955
  102TCq2    C5 1556   4.309   4.156  13.047  0.2847 -0.6556  0.5915
  102TCq2    C6 1557   4.416   4.098  12.986  0.7650 -0.0118  0.1180
  102TCq2    C7 1558   4.484   4.159  12.882 -0.5569  0.4858 -0.5186
  102TCq2    C8 1559   4.471   3.982  13.054  0.1240  0.2523  0.4680
  102TCq2    O4 1560   4.417   3.953  13.161 -0.2246 -0.2108  0.2781
  102TCq2    C9 1561   4.138   4.323  13.061 -0.1946  0.3985  0.3214
  102TCq2    O5 1562   4.069   4.382  12.981 -0.4620  0.0421 -0.0475
  102TCq2    O6 1563   4.087   4.253  13.152 -0.5628 -0.7308 -0.7978
  102TCq2    H2 1564   4.263   4.402  12.827  1.4668 -0.4950 -1.1438
  102TCq2    H3 1565   4.249   4.105  13.121  2.8263 -1.4835  2.0574
  102TCq2    H4 1566   4.554   4.100  12.823  0.6164  1.6797 -0.3082
  103TMC2    C1 1567   2.809   4.023  12.202 -0.0275  0.1200 -0.0850
  103TMC2    C2 1568   2.887   4.134  12.195  0.1263  0.4904  0.3771
  103TMC2    C3 1569   2.902   4.207  12.313 -0.4742 -0.1535 -0.3216
  103TMC2    C4 1570   2.763   3.980  12.324 -0.2483  0.2871 -0.1423
  103TMC2    C5 1571   2.780   4.055  12.433  0.0512 -0.2525  0.6190
  103TMC2    C6 1572   2.853   4.167  12.435  0.2142 -0.4187  0.0319
  103TMC2     C 1573   2.747   3.965  12.086  0.1800  0.3791  0.4109
  103TMC2     O 1574   2.708   4.040  11.996  0.1487  0.1281  0.0999
  103TMC2     H 1575   2.928   4.163  12.098  0.9890 -1.9253 -0.0010
  103TMC2    H1 1576   2.701   3.891  12.326  0.3359 -0.0969  1.1645
  103TMC2    H2 1577   2.879   4.216  12.528  2.4545 -1.0777 -0.2375
  103TMC2    C7 1578   2.739   4.020  12.567 -0.0819  0.6858 -0.1120
  103TMC2    C8 1579   3.007   4.309  12.327  0.3053 -0.3559 -0.0806
  103TMC2    O1 1580   2.781   4.079  12.663  0.0107 -0.1045 -0.0290
  103TMC2    O2 1581   3.040   4.360  12.433 -0.1344 -0.1135  0.0303
  103TMC2    O5 1582   3.019   4.377  12.214  0.3254 -0.2488  0.4913
  103TMC2    H5 1583   2.973   4.338  12.136 -0.2556  0.2930  0.5643
  104MPD2     C 1584   2.691   3.608  12.044  0.1076  0.4625  0.2625
  104MPD2    C1 1585   2.696   3.740  12.002  0.0882 -0.3579 -0.7582
  104MPD2    C2 1586   2.630   3.782  11.878  0.2557  0.1864  0.3054
  104MPD2    C3 1587   2.555   3.686  11.804 -0.0330 -0.1256  0.2559
  104MPD2    C4 1588   2.556   3.558  11.856  0.1443  0.4167  0.0035
  104MPD2    C5 1589   2.617   3.518  11.971 -0.0946  0.4896 -0.6697
  104MPD2     H 1590   2.654   3.877  11.832 -1.9103  1.4061  1.7021
  104MPD2    H1 1591   2.489   3.482  11.817  2.0370 -0.8546 -0.8041
  104MPD2    H2 1592   2.735   3.580  12.139 -1.1896 -1.4368  0.3165
  104MPD2    H3 1593   2.601   3.415  12.003 -2.0191  0.8386 -0.4861
  104MPD2     N 1594   2.475   3.730  11.695  0.6622  0.4841 -0.2359
  104MPD2    H5 1595   2.482   3.830  11.677  0.7564  0.1206 -2.1990
  104MPD2    N1 1596   2.754   3.829  12.092 -0.0912  0.0158  0.4201
  104MPD2    H7 1597   2.792   3.797  12.181 -1.0947  0.5151  1.0277
  105MPD2     C 1598   0.211   3.275   0.258 -0.1455 -0.6943  0.4619
  105MPD2    C1 1599   0.130   3.376   0.209 -0.3406 -0.0075 -0.9796
  105MPD2    C2 1600   0.005   3.392   0.250 -0.8700  0.1155 -0.4886
  105MPD2    C3 1601   4.668   3.315   0.347 -0.7440 -0.0965  0.5375
  105MPD2    C4 1602   0.030   3.222   0.407  0.2021 -0.4510 -0.2854
  105MPD2    C5 1603   0.156   3.200   0.355 -0.0951 -1.0009 -0.0848
  105MPD2     H 1604   4.665   3.457   0.189 -0.7030  1.0446  0.3375
  105MPD2    H1 1605   4.718   3.150   0.482  0.7411 -1.3515 -0.9088
  105MPD2    H2 1606   0.317   3.274   0.237  0.1024  0.8380  1.6171
  105MPD2    H3 1607   0.206   3.107   0.379 -0.1605 -0.6903  1.2642
  105MPD2     N 1608   4.531   3.321   0.375 -0.4304 -0.2058 -0.5835
  105MPD2    H5 1609   4.492   3.405   0.334  0.5809  1.8017  2.6115
  105MPD2    N1 1610   0.159   3.455   0.099  0.0032  1.2167  0.4098
  105MPD2    H7 1611   0.100   3.532   0.073  0.5024  1.9070  1.3227
  106TCq2    C1 1612   4.456   3.242   0.462 -0.1331  0.6498 -0.3760
  106TCq2    O2 1613   4.499   3.155   0.536 -0.2874  0.7792  0.1503
  106TCq2    C2 1614   4.326   3.292   0.495  0.3449  0.6062  0.7734
  106TCq2    C3 1615   4.277   3.403   0.432 -0.0947  0.6474  0.0435
  106TCq2    C4 1616   4.200   3.484   0.509  0.3380 -0.6083 -0.8773
  106TCq2    C5 1617   4.161   3.449   0.632 -0.1466  0.3730 -0.0529
  106TCq2    C6 1618   4.192   3.329   0.683 -0.1864  0.1233  0.1147
  106TCq2    C7 1619   4.273   3.247   0.613 -0.2985 -0.1914  0.1919
  106TCq2    C8 1620   4.159   3.295   0.819 -0.1118 -0.0261  0.3004
  106TCq2    O4 1621   4.229   3.212   0.871  0.2467 -0.4233  0.1503
  106TCq2    C9 1622   4.172   3.612   0.451  0.6190 -0.5873  0.1895
  106TCq2    O5 1623   4.077   3.674   0.506  0.1585 -0.4132  0.5381
  106TCq2    O6 1624   4.252   3.660   0.364  0.4851 -0.4892  0.9370
  106TCq2    H2 1625   4.306   3.430   0.331 -0.8412  0.4544 -0.2213
  106TCq2    H3 1626   4.110   3.528   0.686 -1.5954 -0.4229 -0.2617
  106TCq2    H4 1627   4.311   3.156   0.658  0.1003  0.4888  1.2159
  107TMC2    C1 1628   0.485   2.368  11.601  0.5172  0.0514  0.3834
  107TMC2    C2 1629   0.490   2.237  11.558 -0.8138  0.1488  0.3765
  107TMC2    C3 1630   0.530   2.216  11.430 -0.0691  0.2458 -0.4773
  107TMC2    C4 1631   0.531   2.472  11.531  0.0085  0.0682 -0.5503
  107TMC2    C5 1632   0.581   2.444  11.405 -1.2747  0.1360 -0.2345
  107TMC2    C6 1633   0.577   2.315  11.355  0.4282  0.7209  0.9614
  107TMC2     C 1634   0.445   2.388  11.742 -0.4354 -0.0482 -0.3646
  107TMC2     O 1635   0.345   2.326  11.770 -0.3498  0.1056  0.4037
  107TMC2     H 1636   0.465   2.155  11.625 -2.5967  3.5073  3.8099
  107TMC2    H1 1637   0.517   2.573  11.568  0.7647 -0.5309  1.3754
  107TMC2    H2 1638   0.619   2.287  11.259  0.7705  1.7542  0.8085
  107TMC2    C7 1639   0.596   2.557  11.322  0.3232  0.3793 -0.3293
  107TMC2    C8 1640   0.564   2.079  11.389 -0.0949  0.6080  0.0780
  107TMC2    O1 1641   0.532   2.659  11.348  0.2633  0.3914 -0.1441
  107TMC2    O2 1642   0.642   2.055  11.295 -0.2289 -0.6281 -0.3373
  107TMC2    O5 1643   0.478   1.989  11.439 -0.1968  0.5052  0.3611
  107TMC2    H5 1644   0.405   2.035  11.486 -1.1010  0.3033 -0.8180
  108MPD2     C 1645   0.593   2.609  11.981 -0.4993  0.0140  0.6819
  108MPD2    C1 1646   0.492   2.531  11.925 -0.7825  1.0164 -0.4081
  108MPD2    C2 1647   0.378   2.494  11.998  0.1746  0.0273 -0.2262
  108MPD2    C3 1648   0.363   2.545  12.127 -0.1102  0.1190 -0.3775
  108MPD2    C4 1649   0.466   2.609  12.187  0.0548 -0.2123 -0.2006
  108MPD2    C5 1650   0.576   2.644  12.113 -0.3718  0.8645 -1.1461
  108MPD2     H 1651   0.295   2.441  11.954  1.1474 -0.6542 -1.2349
  108MPD2    H1 1652   0.461   2.640  12.290  0.7848  1.0514 -0.5379
  108MPD2    H2 1653   0.687   2.634  11.933  0.1935 -0.4523  1.8108
  108MPD2    H3 1654   0.661   2.683  12.169  0.8298  0.8796 -2.9838
  108MPD2     N 1655   0.248   2.526  12.201  0.2840 -0.6142 -0.4689
  108MPD2    H5 1656   0.252   2.559  12.297  2.7055 -2.6071  0.1452
  108MPD2    N1 1657   0.514   2.489  11.796  0.1643 -0.4258 -0.3757
  108MPD2    H7 1658   0.602   2.519  11.754  0.4320 -0.3453  0.2538
  109MPD2     C 1659   4.415   0.087   1.756 -0.3540 -0.1668 -0.1184
  109MPD2    C1 1660   4.465   0.165   1.652 -0.4915 -0.0017 -0.0188
  109MPD2    C2 1661   4.573   0.238   1.670 -0.4768 -0.1190 -0.3239
  109MPD2    C3 1662   4.642   0.250   1.785  0.1699  0.2027 -0.0795
  109MPD2    C4 1663   4.605   0.164   1.887 -0.4372  0.0064 -0.6565
  109MPD2    C5 1664   4.495   0.085   1.871 -0.3383 -0.5019 -0.2062
  109MPD2     H 1665   4.590   0.327   1.610  0.1634  0.3169  0.4958
  109MPD2    H1 1666   4.657   0.167   1.982 -0.9365 -1.2685 -0.3433
  109MPD2    H2 1667   4.326   0.026   1.743  0.6789 -1.9200  1.0394
  109MPD2    H3 1668   4.467   0.018   1.951 -2.5541 -1.7854 -2.0797
  109MPD2     N 1669   0.027   0.344   1.796 -0.7692  0.0088  0.0154
  109MPD2    H5 1670   0.028   0.404   1.715 -0.3316  2.2259  1.6590
  109MPD2    N1 1671   4.385   0.191   1.535  0.1501  0.7442  0.2634
  109MPD2    H7 1672   4.293   0.149   1.527  0.2028  0.8732 -1.0260
  110TCq2    C1 1673   0.110   0.365   1.909  0.4207  0.7238 -0.2316
  110TCq2    O2 1674   0.120   0.298   2.013 -0.1949  0.0412  0.2926
  110TCq2    C2 1675   0.199   0.480   1.891  0.3087  0.4703  0.1456
  110TCq2    C3 1676   0.311   0.477   1.956 -0.2176  0.6886  0.1881
  110TCq2    C4 1677   0.417   0.557   1.914 -0.6205 -0.2372  0.2692
  110TCq2    C5 1678   0.407   0.637   1.806 -0.5304 -1.1311 -0.0343
  110TCq2    C6 1679   0.291   0.643   1.745 -0.0304 -0.0168  0.8544
  110TCq2    C7 1680   0.180   0.559   1.782 -0.3351 -0.1722 -0.4689
  110TCq2    C8 1681   0.284   0.721   1.626  0.6385  0.3050 -0.3599
  110TCq2    O4 1682   0.375   0.797   1.601 -0.5605 -0.1595  0.4066
  110TCq2    C9 1683   0.541   0.540   1.981 -0.3595  0.1601 -0.0319
  110TCq2    O5 1684   0.637   0.606   1.933  0.2087  0.1192  0.1069
  110TCq2    O6 1685   0.536   0.477   2.091 -0.1871 -0.4174 -0.0024
  110TCq2    H2 1686   0.316   0.425   2.051 -0.5305  0.9544  0.3474
  110TCq2    H3 1687   0.494   0.686   1.764 -0.4664 -0.6117  0.6937
  110TCq2    H4 1688   0.079   0.589   1.754  0.0164  0.9998 -0.4827
  111TMC2    C1 1689   0.660   4.692  11.492 -0.2583 -0.0539 -0.3038
  111TMC2    C2 1690   0.731   4.634  11.393 -0.0687 -0.2398  0.2156
  111TMC2    C3 1691   0.853   4.573  11.417 -0.0624 -0.3358 -0.7410
  111TMC2    C4 1692   0.700   4.685  11.623 -0.0137 -0.0359  0.8834
  111TMC2    C5 1693   0.821   4.632  11.647 -0.0145 -0.6111  0.0174
  111TMC2    C6 1694   0.898   4.577  11.548  1.1149  0.5791 -0.5398
  111TMC2     C 1695   0.521   0.017  11.461  0.0196  0.8243 -0.0293
  111TMC2     O 1696   0.469   4.694  11.362  0.1853  0.1685 -0.1415
  111TMC2     H 1697   0.689   4.640  11.293 -0.6564 -1.5075  0.3877
  111TMC2    H1 1698   0.650   0.018  11.703  1.4765  2.6827  0.0004
  111TMC2    H2 1699   0.996   4.538  11.573 -0.3413 -2.4472  0.5460
  111TMC2    C7 1700   0.850   4.601  11.788  0.2524  0.2515 -0.1981
  111TMC2    C8 1701   0.935   4.533  11.309  0.0226  0.2289  0.1231
  111TMC2    O1 1702   0.749   4.608  11.863  0.4878  0.5430 -0.2023
  111TMC2    O2 1703   0.925   4.574  11.192 -0.3143 -0.1751  0.1131
  111TMC2    O5 1704   1.021   4.439  11.358  0.2376  0.6004  0.2170
  111TMC2    H5 1705   0.994   4.398  11.444  2.2085  4.2049  2.5702
  112MPD2     C 1706   0.071   0.224  11.590 -0.4856  0.1944  0.6251
  112MPD2    C1 1707   0.118   0.180  11.468 -0.1247 -0.0786  0.8318
  112MPD2    C2 1708   0.243   0.131  11.453  0.3510  0.8033 -0.1724
  112MPD2    C3 1709   0.326   0.123  11.563 -0.0384  0.2016 -0.7474
  112MPD2    C4 1710   0.278   0.171  11.685  0.3130  0.0950  0.5028
  112MPD2    C5 1711   0.148   0.214  11.701  0.5227 -0.4381 -0.5448
  112MPD2     H 1712   0.279   0.109  11.353 -0.3946  1.1811 -0.5247
  112MPD2    H1 1713   0.339   0.178  11.774 -1.1689  0.4798  1.4960
  112MPD2    H2 1714   4.691   0.262  11.600  0.0536  1.9814 -0.6275
  112MPD2    H3 1715   0.119   0.260  11.795  0.2163 -2.3248  0.2728
  112MPD2     N 1716   0.458   0.078  11.567  0.0205 -0.5564 -0.7063
  112MPD2    H5 1717   0.508   0.104  11.652 -2.1882  1.3205  0.0366
  112MPD2    N1 1718   0.046   0.201  11.350 -0.1096 -0.6789 -0.2786
  112MPD2    H7 1719   0.093   0.180  11.263  3.1904  0.7279  1.1669
  113MPD2     C 1720   2.935   3.124   1.104  0.0571  0.6593  0.5361
  113MPD2    C1 1721   2.880   3.245   1.064 -0.0422 -0.1671  0.1238
  113MPD2    C2 1722   2.760   3.243   0.991 -0.2697 -0.2198  0.2157
  113MPD2    C3 1723   2.729   3.124   0.928  0.1387  0.1702 -0.2555
  113MPD2    C4 1724   2.790   3.001   0.956  0.6728 -1.3153  0.3076
  113MPD2    C5 1725   2.886   3.002   1.051  0.0622 -0.0155 -0.0429
  113MPD2     H 1726   2.714   3.338   0.970  1.1332  0.4814  0.2848
  113MPD2    H1 1727   2.764   2.909   0.906 -2.7865 -0.6842  0.9758
  113MPD2    H2 1728   3.007   3.121   1.185 -1.9041  2.9671  2.3794
  113MPD2    H3 1729   2.935   2.909   1.077  0.4683 -0.1148 -1.1794
  113MPD2     N 1730   2.625   3.120   0.835  0.9119 -0.5711  0.5479
  113MPD2    H5 1731   2.597   3.027   0.805 -1.0576  1.0250 -2.6129
  113MPD2    N1 1732   2.928   3.378   1.100  0.0325  0.0389  0.3500
  113MPD2    H7 1733   2.885   3.462   1.063  1.0708  0.9950  1.3302
  114TCq2    C1 1734   2.543   3.220   0.788  0.2886 -0.3775 -0.4210
  114TCq2    O2 1735   2.557   3.339   0.788  0.2831  0.0653 -0.0289
  114TCq2    C2 1736   2.438   3.164   0.708  0.5599 -0.2776 -1.3990
  114TCq2    C3 1737   2.334   3.245   0.688  0.1349 -0.3541  0.0286
  114TCq2    C4 1738   2.218   3.211   0.628  0.8198 -0.7916 -0.6931
  114TCq2    C5 1739   2.213   3.081   0.591  0.2469 -0.1794  0.8807
  114TCq2    C6 1740   2.319   3.000   0.603 -0.6122  0.0254 -1.3154
  114TCq2    C7 1741   2.431   3.041   0.667 -0.0580  0.0246 -0.1571
  114TCq2    C8 1742   2.325   2.876   0.536 -0.1319  0.1038  0.4128
  114TCq2    O4 1743   2.257   2.851   0.435 -0.0017 -0.2907  0.3270
  114TCq2    C9 1744   2.111   3.303   0.614 -0.0123 -0.2055  0.0428
  114TCq2    O5 1745   2.138   3.422   0.648 -0.5635  0.1587  0.0122
  114TCq2    O6 1746   2.023   3.274   0.526 -0.0868  0.2930  0.0653
  114TCq2    H2 1747   2.344   3.348   0.720  1.1836 -0.3122 -0.4264
  114TCq2    H3 1748   2.119   3.035   0.562  0.2247 -1.1438  2.5195
  114TCq2    H4 1749   2.526   2.990   0.661 -0.7373 -1.2823  0.0294
  115TMC2    C1 1750   4.037   1.343  17.533  0.5258 -0.3437 -0.4936
  115TMC2    C2 1751   3.975   1.356  17.405 -0.1510  0.6635  0.0223
  115TMC2    C3 1752   3.964   1.482  17.352 -0.0347  0.6998 -0.5068
  115TMC2    C4 1753   4.086   1.452  17.597  0.7251  0.0402  0.1179
  115TMC2    C5 1754   4.078   1.576  17.544  0.7532  0.5021 -0.7237
  115TMC2    C6 1755   4.014   1.591  17.416 -0.1787  0.0667 -0.3131
  115TMC2     C 1756   4.048   1.202  17.573 -0.3317  0.0515 -0.1569
  115TMC2     O 1757   3.981   1.122  17.508 -0.2756 -0.1882 -0.1063
  115TMC2     H 1758   3.955   1.265  17.349  0.0748 -0.0199  1.0585
  115TMC2    H1 1759   4.127   1.446   0.012 -0.1766  0.8602  0.5267
  115TMC2    H2 1760   4.029   1.690  17.374 -0.9691  0.1888 -0.3200
  115TMC2    C7 1761   4.137   1.686  17.616 -0.3061 -0.3002  1.0186
  115TMC2    C8 1762   3.900   1.488  17.226  0.1266  0.5611 -0.4842
  115TMC2    O1 1763   4.139   1.684   0.053 -0.3824  0.1757  0.5411
  115TMC2    O2 1764   3.927   1.570  17.144  0.6223  0.0041  0.4101
  115TMC2    O5 1765   3.776   1.435  17.241  0.0104 -0.2808  0.3724
  115TMC2    H5 1766   3.779   1.378  17.321 -0.0051  0.2960  0.7785
  116MPD2     C 1767   4.267   0.846   0.183 -0.5936  0.2730  0.3757
  116MPD2    C1 1768   4.202   0.838   0.061 -0.0787  0.3427 -0.1740
  116MPD2    C2 1769   4.156   0.954   0.003  0.2934 -0.7497 -0.0481
  116MPD2    C3 1770   4.167   1.080   0.065  0.1824  0.6471 -0.6038
  116MPD2    C4 1771   4.233   1.087   0.188 -0.3295  0.0431 -0.7162
  116MPD2    C5 1772   4.281   0.971   0.242  0.0264 -0.4087 -0.2115
  116MPD2     H 1773   4.086   0.952  17.607  0.4431 -1.5954 -0.1595
  116MPD2    H1 1774   4.239   1.179   0.245  1.7028 -0.1366 -0.6495
  116MPD2    H2 1775   4.298   0.758   0.237 -0.7528  0.4944  0.8297
  116MPD2    H3 1776   4.322   0.964   0.342  3.2555  0.6787 -1.4652
  116MPD2     N 1777   4.124   1.203   0.002  0.4819  0.1722  0.0842
  116MPD2    H5 1778   4.165   1.290   0.032  0.1242 -0.0803  1.2814
  116MPD2    N1 1779   4.185   0.706   0.003  0.4688 -0.2822  0.3565
  116MPD2    H7 1780   4.212   0.631   0.066  1.5159  1.3330  1.8328
  117TMC2    C1 1781   2.696   1.833  13.999  0.3875  0.0603  0.4532
  117TMC2    C2 1782   2.768   1.721  14.041  0.6838 -0.0341  0.6943
  117TMC2    C3 1783   2.876   1.733  14.122 -0.0722 -0.5459  0.0624
  117TMC2    C4 1784   2.726   1.960  14.052 -0.4500  0.1572 -0.3330
  117TMC2    C5 1785   2.826   1.958  14.150 -0.0003 -0.6475  0.2613
  117TMC2    C6 1786   2.911   1.859  14.168  0.0554  0.4909  0.0035
  117TMC2     C 1787   2.617   1.811  13.875  0.2198 -0.4727  0.4342
  117TMC2     O 1788   2.602   1.699  13.834  0.0756 -0.5572  0.0944
  117TMC2     H 1789   2.735   1.627  13.996 -0.4385  0.1176  1.2095
  117TMC2    H1 1790   2.686   2.054  14.017 -1.2027  0.0940  0.3537
  117TMC2    H2 1791   2.986   1.867  14.246  1.9570 -3.2008 -1.4330
  117TMC2    C7 1792   2.862   2.095  14.210  0.7290  0.2475 -0.0215
  117TMC2    C8 1793   2.892   1.624  14.213  0.1957  0.7985  0.1002
  117TMC2    O1 1794   2.980   2.120  14.239 -0.7777  0.1181  0.0782
  117TMC2    O2 1795   2.839   1.630  14.323 -0.2436  0.3024 -0.1994
  117TMC2    O5 1796   2.888   1.516  14.137 -0.0969  0.2326  0.1659
  117TMC2    H5 1797   2.911   1.538  14.044  0.9554 -1.3502  0.0589
  118MPD2     C 1798   2.633   2.353  14.324 -0.8736 -0.1450  0.2246
  118MPD2    C1 1799   2.750   2.310  14.270  0.7436  0.0800 -0.0032
  118MPD2    C2 1800   2.853   2.399  14.247  0.3203 -0.1790  0.6925
  118MPD2    C3 1801   2.849   2.530  14.293 -0.1767  0.2774 -0.0634
  118MPD2    C4 1802   2.730   2.567  14.359 -0.4908  0.5476  0.0538
  118MPD2    C5 1803   2.629   2.477  14.372 -0.5917  0.6414 -0.1841
  118MPD2     H 1804   2.940   2.356  14.198 -0.7534  0.7568 -2.0137
  118MPD2    H1 1805   2.711   2.667  14.394 -0.5184  0.3687  0.5424
  118MPD2    H2 1806   2.551   2.283  14.334 -0.5823 -0.7613 -1.7590
  118MPD2    H3 1807   2.538   2.511  14.420  0.4806  1.7200  1.0679
  118MPD2     N 1808   2.956   2.619  14.290  0.5239 -0.2126  0.4674
  118MPD2    H5 1809   2.937   2.714  14.320 -0.0450 -1.0416  2.6934
  118MPD2    N1 1810   2.749   2.180  14.217 -0.5191  0.0617  0.3168
  118MPD2    H7 1811   2.654   2.145  14.208 -1.0002  1.8349 -1.6334
  119MPD2     C 1812   1.070   3.420  13.734 -0.6671 -0.0989  0.0747
  119MPD2    C1 1813   0.942   3.418  13.779  0.7935  0.0896 -0.3175
  119MPD2    C2 1814   0.838   3.356  13.710 -0.0415  0.8002 -0.6689
  119MPD2    C3 1815   0.866   3.299  13.589 -0.4518 -0.1757  0.1234
  119MPD2    C4 1816   0.999   3.303  13.542  0.3163 -0.5534 -0.4903
  119MPD2    C5 1817   1.097   3.371  13.608  0.3706 -0.0252  0.3976
  119MPD2     H 1818   0.739   3.366  13.753  1.1563  1.3879  1.9218
  119MPD2    H1 1819   1.025   3.264  13.444 -1.4273  2.2009 -2.0573
  119MPD2    H2 1820   1.144   3.468  13.797  0.1922  0.0176 -1.0167
  119MPD2    H3 1821   1.194   3.377  13.562  0.2623  0.0686  0.1827
  119MPD2     N 1822   0.770   3.218  13.516  0.7141 -0.7232 -0.3918
  119MPD2    H5 1823   0.801   3.171  13.432  1.7544  1.7146 -1.3491
  119MPD2    N1 1824   0.923   3.463  13.915  0.3649 -0.0291 -0.3666
  119MPD2    H7 1825   0.986   3.534  13.952 -0.8557  1.0116 -0.2859
  120TCq2    C1 1826   0.640   3.196  13.556 -1.2416  0.9585  0.1438
  120TCq2    O2 1827   0.589   3.223  13.662  0.2208  0.7646  0.0012
  120TCq2    C2 1828   0.575   3.098  13.472  0.0765 -0.6694 -0.7923
  120TCq2    C3 1829   0.594   3.097  13.339 -0.4749 -0.2217 -0.4032
  120TCq2    C4 1830   0.520   3.018  13.256  0.7596 -0.0957 -0.2817
  120TCq2    C5 1831   0.422   2.943  13.312  0.0461  0.0089 -0.2692
  120TCq2    C6 1832   0.401   2.947  13.445 -0.2128  0.8161  0.2224
  120TCq2    C7 1833   0.479   3.024  13.529  0.2077 -0.3171  0.8348
  120TCq2    C8 1834   0.266   2.903  13.494  0.0080  0.4154 -0.6401
  120TCq2    O4 1835   0.171   2.880  13.421  0.0632 -0.2734 -0.0241
  120TCq2    C9 1836   0.532   3.033  13.111 -0.5491  0.4642  0.3021
  120TCq2    O5 1837   0.619   3.112  13.067 -0.0750  0.1387  0.4136
  120TCq2    O6 1838   0.443   2.988  13.032  0.0890 -0.0479 -0.1706
  120TCq2    H2 1839   0.664   3.162  13.289 -0.6680 -1.8907 -2.8638
  120TCq2    H3 1840   0.359   2.881  13.249 -0.7517  2.9963 -2.3935
  120TCq2    H4 1841   0.457   3.024  13.635 -2.8267  2.4321  0.1971
  121TMC2    C1 1842   2.233   0.409  14.022 -0.5624 -0.8470 -0.5859
  121TMC2    C2 1843   2.311   0.296  14.037 -0.2174  0.5808 -0.2759
  121TMC2    C3 1844   2.255   0.190  14.109  0.3957  0.2248  0.5644
  121TMC2    C4 1845   2.109   0.426  14.075 -0.4845 -0.3336  0.0245
  121TMC2    C5 1846   2.063   0.321  14.143  0.1173 -0.0915 -0.0053
  121TMC2    C6 1847   2.127   0.196  14.161  0.2253 -0.3185 -0.0085
  121TMC2     C 1848   2.290   0.521  13.949 -0.1577 -0.5804  0.0053
  121TMC2     O 1849   2.275   0.632  14.000  0.5470  0.0716  0.0293
  121TMC2     H 1850   2.405   0.292  13.983 -0.0325 -1.7044  0.2025
  121TMC2    H1 1851   2.064   0.524  14.065 -0.0359  0.0403  1.6180
  121TMC2    H2 1852   2.084   0.117  14.222  0.8798  0.7558  1.8476
  121TMC2    C7 1853   1.930   0.321  14.194 -0.3826 -0.4139  0.1898
  121TMC2    C8 1854   2.333   0.071  14.137  0.5544 -0.6593 -0.8892
  121TMC2    O1 1855   1.898   0.248  14.282 -0.4838  0.2995  0.8414
  121TMC2    O2 1856   2.454   0.064  14.133  0.6002  0.3574  0.6155
  121TMC2    O5 1857   2.252   4.683  14.119  0.2828 -0.1818 -0.0611
  121TMC2    H5 1858   2.160   4.690  14.086  0.2563 -0.2716 -0.0044
  122MPD2     C 1859   2.390   0.713  13.733  0.4934 -0.6786 -0.2267
  122MPD2    C1 1860   2.372   0.578  13.714 -0.0953  1.0659  0.4934
  122MPD2    C2 1861   2.395   0.522  13.594 -0.1747  0.1807 -0.0285
  122MPD2    C3 1862   2.424   0.604  13.490 -0.0480 -0.0755  0.0055
  122MPD2    C4 1863   2.445   0.739  13.504  0.3979  0.5083  0.0830
  122MPD2    C5 1864   2.426   0.794  13.629 -0.1112  0.1246 -0.5756
  122MPD2     H 1865   2.395   0.415  13.576  0.0324  0.0858  0.5289
  122MPD2    H1 1866   2.467   0.807  13.423 -1.4986 -0.8576 -1.6065
  122MPD2    H2 1867   2.362   0.759  13.828 -0.5146 -0.7653 -0.4842
  122MPD2    H3 1868   2.431   0.902  13.634  0.9233 -0.0085  0.9693
  122MPD2     N 1869   2.422   0.554  13.355  0.0566 -0.4769 -0.2122
  122MPD2    H5 1870   2.427   0.618  13.277 -3.9931  0.4322  0.2547
  122MPD2    N1 1871   2.323   0.489  13.820  0.3279 -0.3943 -0.6311
  122MPD2    H7 1872   2.309   0.391  13.796  1.7150 -0.6221 -0.5091
  123MPD2     C 1873   0.365   2.780  10.600 -0.0533 -0.2774 -0.4916
  123MPD2    C1 1874   0.367   2.814  10.463 -0.5963  0.1740 -0.5067
  123MPD2    C2 1875   0.488   2.814  10.396  0.1812 -0.2563  0.9593
  123MPD2    C3 1876   0.606   2.799  10.470 -1.0695 -0.6368  0.1891
  123MPD2    C4 1877   0.599   2.788  10.608  0.1159 -0.6072 -0.0228
  123MPD2    C5 1878   0.478   2.772  10.674  0.1274  0.8783 -0.6492
  123MPD2     H 1879   0.494   2.823  10.288  1.8341  0.2123  1.0782
  123MPD2    H1 1880   0.686   2.779  10.672  1.4828  0.3118 -1.7550
  123MPD2    H2 1881   0.271   2.776  10.654  0.6573 -0.4635  0.7254
  123MPD2    H3 1882   0.478   2.737  10.777  2.0977 -2.9051 -1.9318
  123MPD2     N 1883   0.720   2.799  10.393 -0.4309  0.2459  0.1772
  123MPD2    H5 1884   0.704   2.816  10.294  0.6469  1.3041  0.1910
  123MPD2    N1 1885   0.246   2.822  10.385 -0.8423  0.8905  0.0197
  123MPD2    H7 1886   0.160   2.795  10.432 -1.3176 -0.5058 -1.6625
  124TCq2    C1 1887   0.846   2.782  10.431 -0.0340  0.5505 -0.1363
  124TCq2    O2 1888   0.899   2.777  10.541  0.1718 -0.1194 -0.7847
  124TCq2    C2 1889   0.937   2.750  10.328  0.6313 -0.8237 -0.4591
  124TCq2    C3 1890   1.059   2.809  10.329  0.2122  0.1530  0.0234
  124TCq2    C4 1891   1.136   2.805  10.214 -0.0077  0.0083 -0.0067
  124TCq2    C5 1892   1.085   2.748  10.100  0.5694  0.1022  0.6660
  124TCq2    C6 1893   0.962   2.679  10.107 -0.3001 -0.4730  0.3848
  124TCq2    C7 1894   0.893   2.684  10.223  0.0001 -0.2482  0.6078
  124TCq2    C8 1895   0.882   2.645   9.986  0.2883  0.1867 -0.0064
  124TCq2    O4 1896   0.765   2.637  10.011 -0.0786 -0.1530  0.9303
  124TCq2    C9 1897   1.259   2.884  10.220 -0.4064 -0.0950 -0.4202
  124TCq2    O5 1898   1.310   2.898  10.336 -0.0399 -0.2328  0.1012
  124TCq2    O6 1899   1.309   2.905  10.103  0.7407 -0.1319  0.2171
  124TCq2    H2 1900   1.083   2.875  10.412  1.1459  0.3833 -0.4247
  124TCq2    H3 1901   1.142   2.747  10.008  0.9967  2.2317  0.9105
  124TCq2    H4 1902   0.796   2.635  10.231 -0.0019  0.0439  2.3176
  125TMC2    C1 1903   1.315   1.424   9.733 -1.0846 -0.0710 -0.0783
  125TMC2    C2 1904   1.182   1.471   9.744  0.2967  0.7323  0.0770
  125TMC2    C3 1905   1.089   1.380   9.787  0.1080 -0.5346  0.2365
  125TMC2    C4 1906   1.351   1.296   9.758 -1.2224  1.2731  0.2214
  125TMC2    C5 1907   1.251   1.206   9.788 -0.0862  0.5075 -0.7543
  125TMC2    C6 1908   1.125   1.251   9.801  0.4269  0.7432  0.5809
  125TMC2     C 1909   1.411   1.527   9.704 -0.3951  0.3963 -1.2194
  125TMC2     O 1910   1.373   1.645   9.710 -0.2117 -0.7737  0.4516
  125TMC2     H 1911   1.149   1.572   9.723 -1.3680  0.1436 -0.1166
  125TMC2    H1 1912   1.452   1.258   9.759 -0.9659  1.9668  1.2536
  125TMC2    H2 1913   1.045   1.179   9.818  1.4055 -0.9480 -2.1129
  125TMC2    C7 1914   1.277   1.063   9.808 -0.0376 -0.6924 -0.1499
  125TMC2    C8 1915   0.951   1.419   9.809  0.1485  0.0405 -0.3026
  125TMC2    O1 1916   1.190   1.000   9.865  0.9335 -0.5530  0.0870
  125TMC2    O2 1917   0.934   1.521   9.867  0.8418 -0.2412  0.0594
  125TMC2    O5 1918   0.884   1.390   9.689 -0.3311  0.0106 -0.2213
  125TMC2    H5 1919   0.925   1.313   9.644 -1.9542 -1.2697  0.4991
  126MPD1     C 1920   1.854   1.655   9.478  0.4364 -0.5199 -0.0511
  126MPD1    C1 1921   1.863   1.519   9.490 -0.6654 -0.2903  0.1931
  126MPD1    C2 1922   1.742   1.475   9.535  0.5977 -0.1654 -0.8684
  126MPD1    C3 1923   1.632   1.545   9.586 -0.0244 -0.5583  0.2885
  126MPD1    C4 1924   1.642   1.680   9.589  0.0696 -0.5000  0.3577
  126MPD1    C5 1925   1.749   1.734   9.523  0.0742  0.2027 -0.4082
  126MPD1     H 1926   1.723   1.369   9.533  1.0005 -0.2610  0.0118
  126MPD1    H1 1927   1.575   1.744   9.645  1.3981  3.2061 -2.3123
  126MPD1    H2 1928   1.933   1.709   9.427  1.0886  0.4714  1.9848
  126MPD1    H3 1929   1.745   1.833   9.477 -0.9186  0.2140 -0.3038
  126MPD1     N 1930   1.526   1.472   9.649 -0.2617 -0.0508 -0.6807
  126MPD1    H5 1931   1.524   1.371   9.645  0.4041 -0.1806  2.0334
  126MPD1    N1 1932   1.956   1.439   9.425  0.2440  0.0098  0.1836
  126MPD1    H6 1933   2.043   1.492   9.425 -0.1298  0.6586  2.7111
  126MPD1    H7 1934   1.965   1.352   9.479  0.6693  1.0977  1.8551
  127MPD2     C 1935   2.327   4.144   9.310  0.4845 -0.1830 -0.0152
  127MPD2    C1 1936   2.426   4.147   9.401  0.1103 -0.2967 -0.2752
  127MPD2    C2 1937   2.520   4.250   9.389  0.2302  0.2277  0.0038
  127MPD2    C3 1938   2.533   4.330   9.280  0.4847 -0.0327  0.2362
  127MPD2    C4 1939   2.442   4.310   9.175 -0.5585 -0.4437 -0.0514
  127MPD2    C5 1940   2.342   4.221   9.193 -0.4677  0.5142 -0.0771
  127MPD2     H 1941   2.599   4.272   9.460  0.4689  1.0635 -0.5215
  127MPD2    H1 1942   2.444   4.369   9.084  0.7374 -1.8828 -0.9534
  127MPD2    H2 1943   2.256   4.063   9.323  1.9357 -1.9869 -3.1194
  127MPD2    H3 1944   2.257   4.212   9.128  0.9613  1.6850 -2.1030
  127MPD2     N 1945   2.636   4.430   9.272  0.1968  0.0283 -0.0159
  127MPD2    H5 1946   2.713   4.422   9.337  0.2371 -2.1892 -0.3484
  127MPD2    N1 1947   2.419   4.083   9.524  0.0639 -0.4675  0.3681
  127MPD2    H7 1948   2.322   4.064   9.548  0.6413 -0.9553  2.3053
  128TCq2    C1 1949   2.530   4.072   9.611  0.5562  0.1657 -0.1872
  128TCq2    O2 1950   2.647   4.085   9.588 -0.2775  1.0030  0.6201
  128TCq2    C2 1951   2.488   4.044   9.752 -0.6047  0.2341 -0.5353
  128TCq2    C3 1952   2.582   4.011   9.852 -0.4454  0.5430  0.1261
  128TCq2    C4 1953   2.531   3.962   9.967 -0.2904  0.2035  0.1384
  128TCq2    C5 1954   2.395   3.946   9.990 -0.4088  0.3914  0.9781
  128TCq2    C6 1955   2.308   3.993   9.897 -0.0807 -0.1217  0.0489
  128TCq2    C7 1956   2.356   4.034   9.777  0.4672  0.2614 -0.7656
  128TCq2    C8 1957   2.167   3.947   9.896 -0.3366  0.1931 -0.0328
  128TCq2    O4 1958   2.091   3.972   9.801  0.3224 -0.1199  0.0103
  128TCq2    C9 1959   2.616   3.902  10.063  0.5125  0.3578 -0.1692
  128TCq2    O5 1960   2.566   3.818  10.139 -0.3297  0.2457  0.4069
  128TCq2    O6 1961   2.745   3.915  10.043 -0.3059 -0.1925  0.2486
  128TCq2    H2 1962   2.688   4.005   9.832 -0.3369 -1.8339  1.3647
  128TCq2    H3 1963   2.364   3.934  10.093 -2.4757  2.2016  0.5827
  128TCq2    H4 1964   2.281   4.059   9.702  0.7539  0.4605 -0.9869
  129MPD2     C 1965   0.283   0.628   0.605 -0.3816  0.5671 -0.6302
  129MPD2    C1 1966   0.372   0.697   0.680 -0.2371  0.2126 -0.3269
  129MPD2    C2 1967   0.486   0.757   0.625 -0.1158 -0.2505  0.2277
  129MPD2    C3 1968   0.498   0.761   0.485  0.2747  0.6566 -0.5989
  129MPD2    C4 1969   0.396   0.702   0.409  0.1563 -0.1553 -0.1185
  129MPD2    C5 1970   0.296   0.627   0.467 -0.1643 -0.3388  0.1669
  129MPD2     H 1971   0.558   0.815   0.681 -2.4606 -0.6001  3.6331
  129MPD2    H1 1972   0.401   0.702   0.301  1.2863  0.4287 -0.0698
  129MPD2    H2 1973   0.188   0.587   0.636  0.8528 -1.5823  0.3346
  129MPD2    H3 1974   0.215   0.577   0.414  0.8247 -0.6663 -1.0456
  129MPD2     N 1975   0.609   0.833   0.433 -0.0392 -0.8583 -0.6152
  129MPD2    H5 1976   0.657   0.888   0.504  0.0245 -1.4040 -0.2282
  129MPD2    N1 1977   0.363   0.697   0.821 -0.2501 -0.1713  0.6268
  129MPD2    H7 1978   0.440   0.743   0.868 -0.1688 -0.4245  0.7456
  130TCq2    C1 1979   0.280   0.628   0.898 -0.6892 -0.3176  0.4247
  130TCq2    O2 1980   0.186   0.554   0.871 -0.2337  0.0274 -0.5766
  130TCq2    C2 1981   0.338   0.620   1.035 -0.4080 -0.0206  0.2922
  130TCq2    C3 1982   0.440   0.708   1.078  1.1528  0.6444  0.5077
  130TCq2    C4 1983   0.494   0.705   1.201  0.0466  0.4727 -0.3289
  130TCq2    C5 1984   0.463   0.600   1.292  0.6044  0.4783  0.0180
  130TCq2    C6 1985   0.372   0.505   1.244  0.3648  0.4004  0.8255
  130TCq2    C7 1986   0.300   0.518   1.121  0.4836  0.1620 -0.4325
  130TCq2    C8 1987   0.340   0.396   1.327 -0.1512  0.3566  0.1961
  130TCq2    O4 1988   0.247   0.322   1.290  0.0301 -0.6419  0.2401
  130TCq2    C9 1989   0.601   0.797   1.236  0.4116 -0.2969  0.1025
  130TCq2    O5 1990   0.652   0.852   1.139  0.0852  0.0837  0.1538
  130TCq2    O6 1991   0.641   0.813   1.357 -0.0949  0.0660 -0.7154
  130TCq2    H2 1992   0.482   0.790   1.021  0.7655  0.2293 -0.3730
  130TCq2    H3 1993   0.509   0.609   1.390  1.8378 -0.4084 -0.4869
  130TCq2    H4 1994   0.222   0.445   1.104  0.5882 -0.8230  3.2324
  131MPD2     C 1995   0.037   3.382   9.609  0.4722  0.0619  0.3939
  131MPD2    C1 1996   0.144   3.353   9.688 -0.2684  0.1409 -0.0556
  131MPD2    C2 1997   0.134   3.248   9.773  0.0128 -0.0342 -0.4371
  131MPD2    C3 1998   0.022   3.170   9.777  0.1086  0.6659 -0.1590
  131MPD2    C4 1999   4.637   3.190   9.691 -0.1727 -0.4883  0.1549
  131MPD2    C5 2000   4.652   3.300   9.611 -0.1591  0.1861 -0.5260
  131MPD2     H 2001   0.215   3.217   9.838  0.4649  0.4174 -0.7824
  131MPD2    H1 2002   4.553   3.124   9.669  0.2179 -0.5054 -1.2417
  131MPD2    H2 2003   0.034   3.470   9.545  1.4490  0.4270  0.8514
  131MPD2    H3 2004   4.576   3.307   9.534  0.2964 -0.3581 -1.0250
  131MPD2     N 2005   0.029   3.068   9.874  0.0845 -0.1271  0.2921
  131MPD2    H5 2006   0.115   3.068   9.928  0.0126 -1.7538  0.4056
  131MPD2    N1 2007   0.248   3.445   9.673 -0.3318  0.8085 -0.4063
  131MPD2    H7 2008   0.238   3.539   9.636 -2.0619  0.0959 -1.7592
  132TCq2    C1 2009   0.479   3.882   9.554 -0.7258  0.8067 -0.7831
  132TCq2    O2 2010   0.396   3.845   9.474 -0.0803  0.1627 -0.3687
  132TCq2    C2 2011   0.513   3.780   9.651  0.0117  0.2084  0.0619
  132TCq2    C3 2012   0.640   3.766   9.697  0.5744 -0.0628  0.1356
  132TCq2    C4 2013   0.688   3.640   9.720 -0.7555  0.1963 -0.1257
  132TCq2    C5 2014   0.599   3.530   9.720 -0.4326  0.0346  0.4162
  132TCq2    C6 2015   0.467   3.550   9.692  0.3696 -1.1417 -0.0540
  132TCq2    C7 2016   0.421   3.677   9.657  0.1344  0.5446  0.0466
  132TCq2    C8 2017   0.379   3.432   9.720  0.0233  0.4755 -0.8808
  132TCq2    O4 2018   0.432   3.329   9.756 -0.2798  0.2998  0.2488
  132TCq2    C9 2019   0.831   3.622   9.749  0.5469  0.7426 -0.4177
  132TCq2    O5 2020   0.877   3.504   9.747 -0.2312 -0.4403  0.2467
  132TCq2    O6 2021   0.895   3.719   9.706 -0.0117 -0.3569  0.4494
  132TCq2    H2 2022   0.710   3.847   9.679 -0.0587  0.0146 -1.9838
  132TCq2    H3 2023   0.642   3.436   9.752  0.8138  0.4190 -0.1205
  132TCq2    H4 2024   0.319   3.698   9.627 -0.2796 -0.5183  0.7365
  133MPD2     C 2025   3.920   4.441   8.698  0.4586  0.0420 -0.0950
  133MPD2    C1 2026   4.018   4.419   8.789 -0.1369 -0.0382 -0.3366
  133MPD2    C2 2027   4.026   4.303   8.865 -0.3184  0.6377 -0.5084
  133MPD2    C3 2028   3.918   4.219   8.866  0.0642 -0.2274  0.3289
  133MPD2    C4 2029   3.816   4.242   8.777  0.2071 -0.4189 -0.2042
  133MPD2    C5 2030   3.822   4.348   8.690  0.7198 -0.0421 -0.2874
  133MPD2     H 2031   4.115   4.286   8.925 -1.6663 -0.2644  1.2493
  133MPD2    H1 2032   3.726   4.181   8.779  0.1341 -0.2414  1.7368
  133MPD2    H2 2033   3.922   4.525   8.629 -1.5497 -1.1201 -1.5507
  133MPD2    H3 2034   3.725   4.364   8.644 -0.0415 -2.4415  0.5013
  133MPD2     N 2035   3.904   4.103   8.949 -0.3712 -0.0796  0.0474
  133MPD2    H5 2036   3.816   4.051   8.951 -1.0103  0.9365 -1.3584
  133MPD2    N1 2037   4.126   4.513   8.793 -0.1881  0.2188 -0.3685
  133MPD2    H7 2038   4.115   4.596   8.735  0.9102 -0.2076 -1.1859
  134TCq2    C1 2039   4.256   4.494   8.851 -0.6985  0.6924 -0.2468
  134TCq2    O2 2040   4.310   4.392   8.887  0.2390  0.0135 -0.1066
  134TCq2    C2 2041   4.326   4.622   8.855  0.3852 -0.2552  0.2978
  134TCq2    C3 2042   4.462   4.610   8.875  1.2407  0.0847 -0.5026
  134TCq2    C4 2043   4.543   4.714   8.872 -0.0471 -0.1070  0.1605
  134TCq2    C5 2044   4.488   0.119   8.859  0.2968  0.2047 -0.1540
  134TCq2    C6 2045   4.350   0.135   8.835  0.1253 -0.2571  0.0401
  134TCq2    C7 2046   4.275   0.020   8.823  0.2547  0.0038  0.4630
  134TCq2    C8 2047   4.284   0.267   8.845 -0.0707  0.0198  0.3576
  134TCq2    O4 2048   4.182   0.283   8.778  0.1774 -0.3195  0.0216
  134TCq2    C9 2049   4.682   4.696   8.879 -0.4353  0.0373  0.2254
  134TCq2    O5 2050   0.039   0.057   8.828 -0.3850  0.0159  0.0538
  134TCq2    O6 2051   4.716   4.607   8.959 -0.1655 -1.0247 -0.2673
  134TCq2    H2 2052   4.519   4.519   8.894  0.2476 -0.5174 -0.4212
  134TCq2    H3 2053   4.553   0.205   8.870  1.6794 -1.0050  1.2841
  134TCq2    H4 2054   4.167   0.025   8.818  0.1998 -1.9048 -0.3337
  135MPD2     C 2055   2.228   1.325   9.834 -0.4606 -0.2184 -0.8061
  135MPD2    C1 2056   2.148   1.215   9.799  0.2897  0.4759  0.8487
  135MPD2    C2 2057   2.135   1.179   9.666  0.5558  0.6108  0.2870
  135MPD2    C3 2058   2.217   1.238   9.577 -0.3442  0.1859  0.3991
  135MPD2    C4 2059   2.311   1.328   9.618  0.0568 -0.3923  0.1050
  135MPD2    C5 2060   2.308   1.385   9.744 -0.0077  0.1557 -0.2369
  135MPD2     H 2061   2.062   1.105   9.634  1.0014  0.4911 -0.4511
  135MPD2    H1 2062   2.383   1.367   9.548  0.5847 -0.7420  0.4489
  135MPD2    H2 2063   2.231   1.362   9.936  0.2439 -0.0948 -0.8711
  135MPD2    H3 2064   2.387   1.457   9.760 -0.6140  0.7732 -0.0106
  135MPD2     N 2065   2.232   1.182   9.447  0.0198 -0.4136  0.1301
  135MPD2    H5 2066   2.294   1.231   9.383  0.8417 -3.2362 -1.2103
  135MPD2    N1 2067   2.077   1.143   9.892  0.1849  0.3138  0.1577
  135MPD2    H7 2068   2.035   1.053   9.871  0.2267  0.6244 -1.2382
  136TCq2    C1 2069   2.039   1.198  10.010  0.3078 -0.2940  0.5788
  136TCq2    O2 2070   2.051   1.310  10.056  0.4179  0.0949  0.1197
  136TCq2    C2 2071   1.986   1.102  10.101 -0.0846  0.3022  0.5920
  136TCq2    C3 2072   2.015   0.972  10.089 -0.5471 -0.1953 -0.2773
  136TCq2    C4 2073   1.966   0.881  10.183 -0.3524  0.1528 -0.1726
  136TCq2    C5 2074   1.893   0.921  10.294  0.0008 -0.2378 -0.7007
  136TCq2    C6 2075   1.858   1.051  10.295 -0.6279 -0.1889 -0.3053
  136TCq2    C7 2076   1.907   1.149  10.206  0.4256 -0.1796 -0.1108
  136TCq2    C8 2077   1.750   1.088  10.383 -0.4950 -0.1678 -0.2027
  136TCq2    O4 2078   1.751   1.191  10.450 -0.4288  0.3658  0.4614
  136TCq2    C9 2079   2.019   0.746  10.180 -0.1688 -0.2837  0.2498
  136TCq2    O5 2080   1.979   0.672  10.275  0.7873  0.8934  0.1653
  136TCq2    O6 2081   2.104   0.717  10.092 -0.3431  0.3258 -0.2345
  136TCq2    H2 2082   2.088   0.939  10.016 -0.7289 -0.5709 -0.2847
  136TCq2    H3 2083   1.871   0.856  10.378  0.7661 -0.4028 -0.6268
  136TCq2    H4 2084   1.871   1.251  10.211  1.1473  0.1699 -2.1649
  137MPD2     C 2085   1.632   4.183   9.726  1.1934 -0.9183  0.6445
  137MPD2    C1 2086   1.666   4.305   9.776  0.0260 -0.8949 -0.1950
  137MPD2    C2 2087   1.688   4.328   9.909  0.0569 -0.0223  0.1190
  137MPD2    C3 2088   1.672   4.211   9.991  0.5882 -0.0871  0.6004
  137MPD2    C4 2089   1.643   4.090   9.939  0.2425  0.0918 -0.6931
  137MPD2    C5 2090   1.631   4.069   9.808 -0.5632 -0.2096 -1.0519
  137MPD2     H 2091   1.709   4.426   9.949 -0.1263  0.4649 -0.9730
  137MPD2    H1 2092   1.634   4.001  10.000  0.7225  2.0535  2.2460
  137MPD2    H2 2093   1.616   4.165   9.620  0.9249  0.9107  0.3867
  137MPD2    H3 2094   1.595   3.976   9.766 -0.6754 -0.0469 -1.3185
  137MPD2     N 2095   1.684   4.231  10.133 -0.5399 -0.6529  0.0194
  137MPD2    H5 2096   1.693   4.328  10.162  3.0580 -1.2920  1.0968
  137MPD2    N1 2097   1.679   4.407   9.678  0.5042 -0.1979 -0.5847
  137MPD2    H7 2098   1.669   4.384   9.580 -2.0586 -0.0379 -0.3644
  138TCq2    C1 2099   1.728   4.534   9.700 -0.9546  0.5403 -0.2666
  138TCq2    O2 2100   1.781   4.577   9.797  0.2874 -0.1511 -0.0769
  138TCq2    C2 2101   1.749   4.606   9.579  0.1881 -0.4214  0.4014
  138TCq2    C3 2102   1.841   4.700   9.572  0.0620 -0.2201 -0.4572
  138TCq2    C4 2103   1.859   0.035   9.447  0.1233 -0.6374  0.4681
  138TCq2    C5 2104   1.782   0.016   9.338  0.0273  0.3242 -0.2091
  138TCq2    C6 2105   1.680   4.653   9.350  0.6062 -0.1804 -0.7456
  138TCq2    C7 2106   1.659   4.589   9.476 -0.4874 -0.8568 -0.4429
  138TCq2    C8 2107   1.578   4.671   9.250 -0.4074  0.1840 -0.0012
  138TCq2    O4 2108   1.603   4.695   9.132  0.3202  0.2294 -0.2711
  138TCq2    C9 2109   1.950   0.146   9.436  0.1463 -0.7909  0.6640
  138TCq2    O5 2110   1.952   0.214   9.327  0.0438 -0.3611 -0.3998
  138TCq2    O6 2111   1.999   0.182   9.546 -0.2983  0.4239  0.1609
  138TCq2    H2 2112   1.896   0.013   9.659  0.4719  1.8519 -1.5189
  138TCq2    H3 2113   1.802   0.069   9.245  1.4083 -2.4626 -1.4950
  138TCq2    H4 2114   1.576   4.520   9.480 -0.4345 -1.0036 -1.6542
  139TMC2    C1 2115   2.497   3.179  13.374 -0.1651 -0.8631 -0.4188
  139TMC2    C2 2116   2.609   3.253  13.357 -0.1658  0.1774  0.0517
  139TMC2    C3 2117   2.591   3.388  13.350  0.1330 -0.2401  0.4605
  139TMC2    C4 2118   2.374   3.235  13.387 -0.2693  0.4196 -0.4319
  139TMC2    C5 2119   2.366   3.369  13.367  0.2466 -0.2353 -0.4087
  139TMC2    C6 2120   2.471   3.450  13.333 -0.8144  0.0510  0.0610
  139TMC2     C 2121   2.518   3.034  13.395  1.0812  0.7667  0.1473
  139TMC2     O 2122   2.620   2.995  13.447  0.7676 -0.6162 -0.4696
  139TMC2     H 2123   2.701   3.195  13.353  0.7239  1.6244 -0.2515
  139TMC2    H1 2124   2.288   3.176  13.418 -1.3712  1.9641 -0.5151
  139TMC2    H2 2125   2.447   3.555  13.322  2.7244  0.7525 -0.9041
  139TMC2    C7 2126   2.229   3.430  13.394 -0.8008 -0.4557  1.0735
  139TMC2    C8 2127   2.704   3.457  13.301 -0.0085  0.6951 -0.0804
  139TMC2    O1 2128   2.126   3.363  13.382  0.1558 -0.4545 -0.1121
  139TMC2    O2 2129   2.677   3.541  13.212 -0.0879  0.6080  0.1976
  139TMC2    O5 2130   2.804   3.373  13.283 -0.4051  0.1972 -0.1591
  139TMC2    H5 2131   2.878   3.375  13.347 -0.9415  0.4662  0.4508
  140MPD2     C 2132   2.249   2.787  13.350  0.2373  0.1792  0.8982
  140MPD2    C1 2133   2.367   2.832  13.396 -0.4380  1.0522 -0.1521
  140MPD2    C2 2134   2.454   2.749  13.466 -0.6721 -0.3399  0.2949
  140MPD2    C3 2135   2.417   2.618  13.490  0.1830  0.7054 -0.4298
  140MPD2    C4 2136   2.297   2.568  13.439  0.0021 -1.0259 -0.0012
  140MPD2    C5 2137   2.220   2.657  13.366  0.2013  0.4982 -0.3961
  140MPD2     H 2138   2.550   2.778  13.506 -1.4629  2.3367  0.2470
  140MPD2    H1 2139   2.262   2.467  13.450 -1.0221 -0.6599  0.1014
  140MPD2    H2 2140   2.179   2.846  13.292 -0.7013 -2.2616 -0.4744
  140MPD2    H3 2141   2.125   2.623  13.327  0.6020  0.5379 -1.4009
  140MPD2     N 2142   2.508   2.537  13.562  0.1052  0.2225 -0.0876
  140MPD2    H5 2143   2.587   2.584  13.606  0.0756  1.1196 -0.9989
  140MPD2    N1 2144   2.403   2.965  13.371 -0.6032  0.2890 -0.1105
  140MPD2    H7 2145   2.340   3.025  13.319 -0.4409 -1.0247 -1.8091
  141TCq2    C1 2146   2.984   3.955  14.098  0.2641  0.3470 -0.2525
  141TCq2    O2 2147   2.958   4.044  14.019 -0.2329  0.6679  0.1571
  141TCq2    C2 2148   3.012   3.998  14.236  0.7438  0.2333 -0.4579
  141TCq2    C3 2149   2.982   3.917  14.349  0.5599  0.3126 -0.6055
  141TCq2    C4 2150   2.978   3.977  14.474 -0.0054  0.0930  0.2376
  141TCq2    C5 2151   2.993   4.110  14.493  0.1322  0.1100 -0.0417
  141TCq2    C6 2152   3.016   4.190  14.380 -0.4766 -0.2730  0.2305
  141TCq2    C7 2153   3.023   4.137  14.252  0.0243  0.7379  0.3033
  141TCq2    C8 2154   3.036   4.332  14.407 -0.1805 -0.2977 -1.0057
  141TCq2    O4 2155   2.988   4.379  14.509 -0.3158 -1.0329 -0.4055
  141TCq2    C9 2156   2.949   3.902  14.588 -0.3303 -0.4493  0.0899
  141TCq2    O5 2157   2.976   3.781  14.571  0.2503 -0.0992  0.4273
  141TCq2    O6 2158   2.881   3.946  14.684 -0.4444 -0.2844  0.5881
  141TCq2    H2 2159   2.965   3.810  14.341  1.9689  0.0950 -0.8164
  141TCq2    H3 2160   2.997   4.156  14.591  0.2572 -0.2000  0.1008
  141TCq2    H4 2161   3.032   4.207  14.170  0.8697  0.1958 -0.0637
  142MPD2     C 2162   4.692   1.743   9.974 -0.0537 -0.4243 -0.3692
  142MPD2    C1 2163   4.667   1.775   9.845 -0.2218 -0.8624 -0.0449
  142MPD2    C2 2164   4.720   1.887   9.786 -0.0014 -0.6193  0.1102
  142MPD2    C3 2165   0.073   1.976   9.858  0.0175 -0.1801  0.4236
  142MPD2    C4 2166   0.097   1.948   9.989  0.1457 -0.1848  0.4950
  142MPD2    C5 2167   0.041   1.835  10.050  0.2133 -0.7828  1.1573
  142MPD2     H 2168   4.702   1.902   9.680 -2.3217 -1.3552  0.4053
  142MPD2    H1 2169   0.141   2.021  10.056  1.5070 -1.1686  0.6809
  142MPD2    H2 2170   4.655   1.653  10.020 -0.3646 -0.7638 -1.2921
  142MPD2    H3 2171   0.054   1.814  10.156  0.2144 -0.0592  1.3028
  142MPD2     N 2172   0.114   2.103   9.804  0.2015 -0.4857 -0.1763
  142MPD2    H5 2173   0.139   2.170   9.876  3.7327 -1.2214 -0.7246
  142MPD2    N1 2174   4.601   1.674   9.774  0.7518 -0.2098 -0.3427
  142MPD2    H7 2175   4.592   1.581   9.815  0.8641 -0.2560 -0.4223
  143TCq2    C1 2176   0.099   2.132   9.674  0.7635 -0.4312 -0.4069
  143TCq2    O2 2177   0.092   2.053   9.580  0.6481  0.2509  0.5757
  143TCq2    C2 2178   0.159   2.260   9.633  0.1970 -0.1940  0.1192
  143TCq2    C3 2179   0.128   2.292   9.500 -0.6312 -0.0821 -0.6300
  143TCq2    C4 2180   0.200   2.383   9.434  0.0289  0.2313  0.1787
  143TCq2    C5 2181   0.307   2.443   9.491 -0.2818  0.1092 -0.6622
  143TCq2    C6 2182   0.333   2.407   9.619 -0.5586  0.3460  0.0647
  143TCq2    C7 2183   0.265   2.321   9.697 -0.3888 -0.6651 -0.3444
  143TCq2    C8 2184   0.463   2.453   9.670 -0.3345  0.5051  0.3735
  143TCq2    O4 2185   0.474   2.464   9.790 -0.8064 -0.0514  0.4914
  143TCq2    C9 2186   0.166   2.421   9.299  0.7248  0.2575  0.2716
  143TCq2    O5 2187   0.253   2.485   9.231 -0.0230 -0.1698  0.3175
  143TCq2    O6 2188   0.078   2.361   9.239  0.3162  0.6450  0.3161
  143TCq2    H2 2189   0.044   2.247   9.446 -2.6338  0.3756  2.0912
  143TCq2    H3 2190   0.365   2.511   9.430  0.7759  0.8673  1.1776
  143TCq2    H4 2191   0.294   2.300   9.800 -1.4305  0.8024  0.2567
  144MPD2     C 2192   2.897   2.467   0.630  0.6723  0.4075 -0.2300
  144MPD2    C1 2193   2.972   2.383   0.539  0.6155 -0.0865  0.4683
  144MPD2    C2 2194   3.098   2.343   0.577 -0.0805 -0.2157  0.2334
  144MPD2    C3 2195   3.156   2.385   0.697  0.6984 -0.0442 -0.5188
  144MPD2    C4 2196   3.080   2.463   0.782  0.4498  0.4573 -0.8167
  144MPD2    C5 2197   2.954   2.497   0.752 -0.1160 -0.0337  0.4212
  144MPD2     H 2198   3.164   2.301   0.502  0.0070 -0.1172  0.2549
  144MPD2    H1 2199   3.114   2.499   0.878  0.1120 -1.8706  0.1771
  144MPD2    H2 2200   2.800   2.510   0.610  0.2469 -0.4178  0.0381
  144MPD2    H3 2201   2.910   2.573   0.815 -0.2959  2.3945 -2.6547
  144MPD2     N 2202   3.294   2.383   0.726 -0.1723 -0.1134  0.0135
  144MPD2    H5 2203   3.328   2.444   0.799 -0.3603  2.7150 -2.2789
  144MPD2    N1 2204   2.935   2.348   0.410 -0.0706  0.3875  0.8619
  144MPD2    H7 2205   3.002   2.303   0.349 -1.2607 -0.3736  0.1168
  145TCq2    C1 2206   3.382   2.289   0.671 -0.4447 -0.3499  0.6299
  145TCq2    O2 2207   3.346   2.195   0.599  0.5728  0.0392 -0.1137
  145TCq2    C2 2208   3.525   2.302   0.700 -0.0742  0.6943 -0.0377
  145TCq2    C3 2209   3.612   2.206   0.654 -0.5797 -0.2049 -0.2709
  145TCq2    C4 2210   3.748   2.225   0.675  0.5009 -1.0550  0.4530
  145TCq2    C5 2211   3.798   2.336   0.741  0.4956  0.1508  0.3846
  145TCq2    C6 2212   3.706   2.427   0.791  0.1348  0.3845  0.3652
  145TCq2    C7 2213   3.570   2.411   0.764 -0.1769 -1.6103  0.0641
  145TCq2    C8 2214   3.769   2.538   0.865 -0.6073 -0.7632  0.0837
  145TCq2    O4 2215   3.887   2.557   0.859 -0.4932 -0.1755 -0.1850
  145TCq2    C9 2216   3.844   2.128   0.634  0.7469  0.1565 -0.6360
  145TCq2    O5 2217   3.957   2.166   0.598 -0.4843  0.3012  0.4018
  145TCq2    O6 2218   3.792   2.027   0.585  0.1379 -0.0545 -0.3817
  145TCq2    H2 2219   3.584   2.106   0.622  2.1225 -0.6630 -1.1390
  145TCq2    H3 2220   3.904   2.349   0.759  0.7132  0.0069 -0.7600
  145TCq2    H4 2221   3.502   2.492   0.791  0.4599 -0.7884 -0.7961
  146TMC2    C1 2222   4.585   0.247  12.179 -0.0059  0.8196 -0.0624
  146TMC2    C2 2223   4.559   0.242  12.047  0.3480  0.1961 -0.6843
  146TMC2    C3 2224   4.591   0.129  11.975 -0.3397 -0.5844 -0.3559
  146TMC2    C4 2225   4.657   0.157  12.248  0.5465  0.2637  0.2423
  146TMC2    C5 2226   4.706   0.050  12.177  0.7985 -0.4274  0.6889
  146TMC2    C6 2227   4.670   0.039  12.038  0.5096 -0.2791  0.4429
  146TMC2     C 2228   4.558   0.382  12.233  0.3472 -0.2028  0.3401
  146TMC2     O 2229   4.543   0.481  12.157  0.6892 -0.3965 -0.5668
  146TMC2     H 2230   4.494   0.318  12.006  1.0883  0.3243 -1.6178
  146TMC2    H1 2231   4.687   0.179  12.350 -0.6577 -0.6714  0.7945
  146TMC2    H2 2232   4.703   4.679  11.975  1.6335 -0.1042  0.8221
  146TMC2    C7 2233   0.118   4.708  12.206  0.4064 -0.0947  1.3270
  146TMC2    C8 2234   4.561   0.119  11.835  0.7572  0.7293 -0.2317
  146TMC2    O1 2235   0.181   4.662  12.114 -0.0820 -0.1523  0.4347
  146TMC2    O2 2236   4.500   0.208  11.777  0.2999 -0.3317 -0.2540
  146TMC2    O5 2237   4.554   4.710  11.803  0.0502 -0.2784  0.0593
  146TMC2    H5 2238   4.500   4.695  11.723 -0.5705 -0.1879  0.4630
  147MPD2     C 2239   0.521   4.665  12.499  0.1165  0.2293  0.0676
  147MPD2    C1 2240   0.411   4.674  12.578  0.1795  0.1793  0.2778
  147MPD2    C2 2241   0.283   4.678  12.528  0.0133 -0.8321 -0.1336
  147MPD2    C3 2242   0.274   4.680  12.390 -0.4629  0.2121 -0.2933
  147MPD2    C4 2243   0.387   4.664  12.307 -0.0253 -0.2897  0.7794
  147MPD2    C5 2244   0.508   4.650  12.366 -0.2322  0.9493  0.6672
  147MPD2     H 2245   0.192   4.690  12.586 -0.0264 -4.5237  0.6021
  147MPD2    H1 2246   0.381   4.667  12.199 -2.0201 -0.5010  0.8823
  147MPD2    H2 2247   0.620   4.680  12.540 -0.1732  1.9211  0.1674
  147MPD2    H3 2248   0.598   4.655  12.306  0.7707 -1.8309  1.9852
  147MPD2     N 2249   0.149   4.716  12.335  0.4698  0.2637  0.1783
  147MPD2    H5 2250   0.074   0.016  12.401 -0.4989  0.8195 -1.1090
  147MPD2    N1 2251   0.427   4.678  12.720 -0.6232  0.0801  0.0029
  147MPD2    H7 2252   0.522   4.701  12.749  0.1523 -3.0117 -0.1124
  148MPD2     C 2253   0.807   3.167  10.916 -0.5767 -0.3575 -0.2100
  148MPD2    C1 2254   0.736   3.171  10.796 -1.3170 -0.0509 -1.0572
  148MPD2    C2 2255   0.611   3.234  10.797  0.0475 -0.4866  0.0156
  148MPD2    C3 2256   0.567   3.292  10.912  0.4960  0.0058 -0.1094
  148MPD2    C4 2257   0.637   3.280  11.031  0.3298 -0.0010  0.2992
  148MPD2    C5 2258   0.758   3.220  11.027  1.0891  0.0613  0.0418
  148MPD2     H 2259   0.552   3.241  10.707 -0.3738 -0.0481  0.3284
  148MPD2    H1 2260   0.595   3.321  11.122  1.2734  2.5987 -0.4540
  148MPD2    H2 2261   0.904   3.118  10.919 -0.1511  0.2773 -3.2333
  148MPD2    H3 2262   0.817   3.201  11.116  0.7246  0.2915  0.3327
  148MPD2     N 2263   0.443   3.363  10.921  0.2930  0.0125  0.0374
  148MPD2    H5 2264   0.430   3.415  11.007  1.2863  1.6652 -0.8117
  148MPD2    N1 2265   0.782   3.133  10.671  0.1074 -0.0577  0.2881
  148MPD2    H7 2266   0.723   3.158  10.592 -0.1063 -2.0584 -0.1805
  149TCq2    C1 2267   0.908   3.097  10.637 -0.2366 -0.6927 -0.1588
  149TCq2    O2 2268   1.015   3.085  10.698 -0.7590 -0.2225 -0.6214
  149TCq2    C2 2269   0.930   3.105  10.491  0.6238 -0.8305  0.8384
  149TCq2    C3 2270   1.051   3.140  10.433 -0.5678  0.5639  0.1406
  149TCq2    C4 2271   1.059   3.179  10.302 -0.3381  0.5577  0.0744
  149TCq2    C5 2272   0.947   3.209  10.232 -0.3943 -0.1729 -0.8183
  149TCq2    C6 2273   0.830   3.163  10.284  0.1501  0.1429 -0.1319
  149TCq2    C7 2274   0.814   3.115  10.413 -0.1338  0.1616 -0.5291
  149TCq2    C8 2275   0.701   3.209  10.222 -0.3260  0.1952  0.1158
  149TCq2    O4 2276   0.603   3.141  10.229 -0.0577 -0.4085  0.0660
  149TCq2    C9 2277   1.181   3.244  10.263 -0.6789 -0.1471  0.5313
  149TCq2    O5 2278   1.178   3.308  10.155  0.5038 -0.2296  0.1046
  149TCq2    O6 2279   1.281   3.233  10.333 -0.5616 -0.0079  0.0839
  149TCq2    H2 2280   1.142   3.134  10.492  0.8689  4.5348 -1.6933
  149TCq2    H3 2281   0.947   3.247  10.131 -2.4686  0.3337 -0.6063
  149TCq2    H4 2282   0.717   3.082  10.447  0.7988 -1.8478  0.2168
  150MPD2     C 2283   2.019   2.947  12.182  0.5662 -0.4540 -0.5414
  150MPD2    C1 2284   1.983   3.076  12.192  0.6393  0.2659 -0.7690
  150MPD2    C2 2285   2.082   3.165  12.234  1.0806 -0.7954  0.0091
  150MPD2    C3 2286   2.211   3.128  12.268 -0.0588  0.5902 -0.4045
  150MPD2    C4 2287   2.247   2.993  12.264 -0.2515 -0.6894  0.0283
  150MPD2    C5 2288   2.148   2.903  12.217 -0.5024  0.1558 -1.2614
  150MPD2     H 2289   2.051   3.267  12.254  1.2665 -0.6712 -0.3340
  150MPD2    H1 2290   2.342   2.953  12.295  0.3149  0.5856 -0.0567
  150MPD2    H2 2291   1.945   2.881  12.140 -1.7246  1.2646  0.8097
  150MPD2    H3 2292   2.176   2.800  12.203 -0.9298  0.1794 -2.3056
  150MPD2     N 2293   2.292   3.238  12.314 -0.6584 -0.0843 -0.1309
  150MPD2    H5 2294   2.259   3.334  12.314 -0.3361  0.0250  1.0319
  150MPD2    N1 2295   1.854   3.108  12.144 -0.4885 -0.1531  0.1390
  150MPD2    H7 2296   1.796   3.035  12.103 -1.5457  0.7146  0.1091
  151TCq2    C1 2297   2.421   3.220  12.349  0.2302  0.7078 -0.1794
  151TCq2    O2 2298   2.495   3.122  12.340 -0.0908 -0.0224 -0.6671
  151TCq2    C2 2299   2.473   3.347  12.401  0.2985 -0.1337 -0.1454
  151TCq2    C3 2300   2.424   3.466  12.358 -0.2998 -0.9531  0.2256
  151TCq2    C4 2301   2.488   3.588  12.365 -0.3637 -1.0786 -0.5379
  151TCq2    C5 2302   2.619   3.583  12.401 -0.0584 -0.6991 -0.5397
  151TCq2    C6 2303   2.671   3.468  12.444  0.0242 -0.2955 -0.0135
  151TCq2    C7 2304   2.605   3.346  12.435  0.0205 -0.0221  0.4368
  151TCq2    C8 2305   2.816   3.468  12.440  0.2228 -0.0877  0.3057
  151TCq2    O4 2306   2.867   3.578  12.428  0.1176 -0.2111 -0.3462
  151TCq2    C9 2307   2.418   3.718  12.335 -0.9010 -0.1621 -0.2323
  151TCq2    O5 2308   2.289   3.709  12.325 -0.4133 -0.3686  0.1342
  151TCq2    O6 2309   2.492   3.819  12.337  0.1872  0.3006 -0.3547
  151TCq2    H2 2310   2.325   3.468  12.315  0.2167 -2.0984 -1.0440
  151TCq2    H3 2311   2.677   3.673  12.411 -0.4235 -0.5385  0.1168
  151TCq2    H4 2312   2.661   3.254  12.433 -0.5720 -0.3248 -1.9446
  152MPD2     C 2313   1.606   2.610  12.566 -0.4095 -0.5808  0.2231
  152MPD2    C1 2314   1.647   2.728  12.506 -0.1814  0.0162  0.3353
  152MPD2    C2 2315   1.550   2.797  12.438 -0.0049 -0.0374 -0.0031
  152MPD2    C3 2316   1.415   2.761  12.449  0.4423 -0.3688  0.1888
  152MPD2    C4 2317   1.378   2.649  12.518 -0.4936  0.2957  0.5974
  152MPD2    C5 2318   1.478   2.583  12.576 -0.0821  0.3088 -0.1777
  152MPD2     H 2319   1.577   2.886  12.383  1.2560  0.2755  1.1141
  152MPD2    H1 2320   1.277   2.625  12.548 -1.1041  0.5418 -1.2565
  152MPD2    H2 2321   1.672   2.541  12.617  0.1069 -2.8622 -3.4770
  152MPD2    H3 2322   1.453   2.494  12.633 -2.2127  1.4044  0.6229
  152MPD2     N 2323   1.323   2.847  12.393  0.3962 -0.5323  0.2014
  152MPD2    H5 2324   1.361   2.935  12.357  0.0941 -1.1354 -1.5994
  152MPD2    N1 2325   1.786   2.762  12.512  0.1368 -0.1303 -0.1694
  152MPD2    H7 2326   1.839   2.690  12.560 -0.6014  1.2497  2.7575
  153TCq2    C1 2327   1.843   2.880  12.488  0.1162  0.3012  0.1785
  153TCq2    O2 2328   1.789   2.971  12.428  0.1210  0.0708 -0.9056
  153TCq2    C2 2329   1.978   2.895  12.523  1.0141 -0.4658  0.2657
  153TCq2    C3 2330   2.041   2.780  12.557 -0.1330  0.2221 -0.0592
  153TCq2    C4 2331   2.167   2.789  12.611  0.1467  0.3977 -0.8447
  153TCq2    C5 2332   2.226   2.912  12.643 -0.1569 -0.1668  0.0059
  153TCq2    C6 2333   2.154   3.026  12.614  0.2431  0.2539  0.2880
  153TCq2    C7 2334   2.035   3.016  12.550 -0.8802 -0.0763 -0.4482
  153TCq2    C8 2335   2.194   3.157  12.664  0.1702  0.6610  0.4122
  153TCq2    O4 2336   2.109   3.242  12.680 -0.1969 -0.7817 -0.2158
  153TCq2    C9 2337   2.236   2.665  12.637  0.1117  0.1630 -0.4981
  153TCq2    O5 2338   2.179   2.552  12.614 -0.1837  0.1116  0.0000
  153TCq2    O6 2339   2.360   2.680  12.659 -0.7136  0.2254 -0.4843
  153TCq2    H2 2340   2.004   2.693  12.504 -2.3430  0.2079  1.5070
  153TCq2    H3 2341   2.327   2.911  12.682 -0.9964  0.5779  2.1669
  153TCq2    H4 2342   1.993   3.103  12.501  2.0172 -0.3282 -3.3941
  154MPD2     C 2343   2.599   3.024   0.306 -0.2194 -0.9798 -0.5767
  154MPD2    C1 2344   2.678   3.089   0.395 -0.6316  0.1918  0.6177
  154MPD2    C2 2345   2.642   3.218   0.433  0.3264  1.2013 -0.0479
  154MPD2    C3 2346   2.530   3.279   0.380 -0.0008 -0.2713 -0.0505
  154MPD2    C4 2347   2.443   3.204   0.301 -0.0422 -0.0813  0.7337
  154MPD2    C5 2348   2.473   3.074   0.274 -0.0080  0.4198 -0.4446
  154MPD2     H 2349   2.689   3.280   0.509  1.5016 -2.1346  1.9657
  154MPD2    H1 2350   2.349   3.245   0.266  0.2847  0.1343  0.1064
  154MPD2    H2 2351   2.623   2.925   0.268 -1.4378 -0.9476 -1.4166
  154MPD2    H3 2352   2.405   3.013   0.216  1.8925 -0.9871 -1.1789
  154MPD2     N 2353   2.513   3.417   0.410 -0.3207  0.2287 -0.0063
  154MPD2    H5 2354   2.574   3.455   0.482  1.0000 -0.4835 -0.7504
  154MPD2    N1 2355   2.780   3.009   0.455 -0.1472  0.4528 -0.2977
  154MPD2    H7 2356   2.776   2.913   0.421  0.7263  0.7432 -1.2074
  155TCq2    C1 2357   2.876   3.056   0.548 -0.9439 -0.7612 -0.8011
  155TCq2    O2 2358   2.874   3.158   0.615 -0.2139 -0.0017  0.1715
  155TCq2    C2 2359   2.962   2.947   0.583  0.1725  0.4036 -0.4086
  155TCq2    C3 2360   3.055   2.968   0.688  0.3555 -0.1162 -0.0362
  155TCq2    C4 2361   3.159   2.878   0.714  0.6927 -0.0008 -1.1094
  155TCq2    C5 2362   3.173   2.778   0.625 -0.1785  0.0309 -0.4293
  155TCq2    C6 2363   3.092   2.768   0.518  0.0854 -0.1669  0.0841
  155TCq2    C7 2364   2.984   2.846   0.496 -0.2811 -0.7965 -0.2754
  155TCq2    C8 2365   3.125   2.672   0.411  0.4675 -0.5455 -0.2457
  155TCq2    O4 2366   3.055   2.673   0.310 -0.0020 -0.1031  0.5183
  155TCq2    C9 2367   3.247   2.911   0.817  0.7626  0.9852 -0.7720
  155TCq2    O5 2368   3.235   3.028   0.866  0.3572 -0.3695  0.1511
  155TCq2    O6 2369   3.356   2.850   0.813  0.3832  0.2667 -0.1299
  155TCq2    H2 2370   3.032   3.058   0.743 -0.9803 -1.0143  0.8889
  155TCq2    H3 2371   3.243   2.701   0.655 -0.0712  0.4477  0.3828
  155TCq2    H4 2372   2.919   2.824   0.412 -0.3645  2.4151 -1.0564
  156MPD2     C 2373   1.764   0.481  12.228  0.1858 -0.5516  0.6587
  156MPD2    C1 2374   1.719   0.573  12.135 -0.0325 -0.1938  0.4185
  156MPD2    C2 2375   1.610   0.649  12.157 -0.2243 -0.6275  0.1201
  156MPD2    C3 2376   1.543   0.634  12.278  0.1366  0.3050  0.1809
  156MPD2    C4 2377   1.593   0.551  12.383 -0.0470  0.5154  0.1071
  156MPD2    C5 2378   1.703   0.474  12.351 -0.1168 -0.0978 -0.9211
  156MPD2     H 2379   1.576   0.715  12.078  2.1229 -0.6610 -0.9000
  156MPD2    H1 2380   1.542   0.527  12.475 -0.2359  1.9749  0.3859
  156MPD2    H2 2381   1.854   0.422  12.212  0.1836  0.3602 -2.7590
  156MPD2    H3 2382   1.728   0.392  12.418 -3.8552 -0.5083 -0.0135
  156MPD2     N 2383   1.423   0.710  12.304 -0.1041 -0.0763 -0.1577
  156MPD2    H5 2384   1.375   0.755  12.227  0.8519  1.0729 -0.0808
  156MPD2    N1 2385   1.801   0.596  12.025 -0.2187  0.0501 -0.4438
  156MPD2    H7 2386   1.894   0.556  12.034 -0.9626 -1.2238  1.4954
  157TCq2    C1 2387   1.776   0.674  11.911 -0.2215  0.0004  0.1975
  157TCq2    O2 2388   1.671   0.727  11.877  0.1166 -0.3764  0.9535
  157TCq2    C2 2389   1.896   0.705  11.832  0.6177 -0.2311 -0.4690
  157TCq2    C3 2390   2.006   0.641  11.846  0.1517  0.1650  0.3627
  157TCq2    C4 2391   2.117   0.690  11.773 -0.6555  0.4321 -0.1046
  157TCq2    C5 2392   2.108   0.802  11.697 -0.1665  0.1677  0.2377
  157TCq2    C6 2393   1.989   0.866  11.688  0.2717 -0.0999 -0.3298
  157TCq2    C7 2394   1.882   0.810  11.748 -0.0173 -0.2321  0.2847
  157TCq2    C8 2395   1.966   0.952  11.572  0.5725 -0.6566 -0.0903
  157TCq2    O4 2396   1.862   1.013  11.571  0.1170  0.6588 -0.6118
  157TCq2    C9 2397   2.246   0.620  11.784  0.5607  0.2848 -0.3495
  157TCq2    O5 2398   2.237   0.506  11.837 -0.4534  0.2602  0.7567
  157TCq2    O6 2399   2.344   0.673  11.726 -0.2141 -0.1732  0.0435
  157TCq2    H2 2400   2.008   0.549  11.903  0.6001  0.2272  0.4506
  157TCq2    H3 2401   2.201   0.847  11.663  1.1340 -1.3841  1.7261
  157TCq2    H4 2402   1.782   0.848  11.728 -1.1667 -2.6883  1.3223
  158TMC2    C1 2403   2.212   4.532  13.697 -0.1457 -0.4573  0.4131
  158TMC2    C2 2404   2.243   4.655  13.739 -0.9868 -0.2942  0.6255
  158TMC2    C3 2405   2.140   0.024  13.721  0.4635 -0.5911 -0.2613
  158TMC2    C4 2406   2.096   4.499  13.636 -0.1316  0.1268  0.8212
  158TMC2    C5 2407   2.008   4.596  13.611  0.3670 -1.0175 -0.0899
  158TMC2    C6 2408   2.032   0.004  13.645 -0.2430 -0.3441 -0.2979
  158TMC2     C 2409   2.324   4.446  13.702 -0.3978 -0.7194 -0.3170
  158TMC2     O 2410   2.434   4.496  13.701  0.0154  0.0002 -0.4234
  158TMC2     H 2411   2.331   4.690  13.790 -1.5635 -0.5667  1.8162
  158TMC2    H1 2412   2.079   4.397  13.602  1.5527 -0.2245  1.0302
  158TMC2    H2 2413   1.963   0.079  13.608 -1.2343 -0.7222  0.7570
  158TMC2    C7 2414   1.865   4.576  13.608  0.0888  0.1868  0.2813
  158TMC2    C8 2415   2.150   0.157  13.774 -0.1070  0.0806  0.1758
  158TMC2    O1 2416   1.792   4.672  13.618  0.3466 -0.3115 -0.4441
  158TMC2    O2 2417   2.165   0.252  13.700  0.1646 -0.6611 -0.8734
  158TMC2    O5 2418   2.056   0.156  13.867  0.2530  0.0998  0.2374
  158TMC2    H5 2419   2.050   0.066  13.906 -1.3629  0.3759  0.6020
  159MPD2     C 2420   2.546   4.028  13.911 -0.3902  0.5499 -0.1186
  159MPD2    C1 2421   2.412   4.007  13.911 -0.1506 -0.5966 -0.2940
  159MPD2    C2 2422   2.328   4.104  13.854  0.6052 -0.5946  0.4023
  159MPD2    C3 2423   2.382   4.218  13.792  0.5217  0.0667  0.5119
  159MPD2    C4 2424   2.519   4.227  13.777  0.8181  0.2098 -0.2032
  159MPD2    C5 2425   2.596   4.128  13.833  0.5176 -0.3977 -0.2805
  159MPD2     H 2426   2.220   4.103  13.860  0.6407  1.0193  1.2175
  159MPD2    H1 2427   2.578   4.310  13.740 -1.1460  1.1960 -1.1192
  159MPD2    H2 2428   2.613   3.960  13.964 -0.0853 -1.7645 -3.4791
  159MPD2    H3 2429   2.701   4.157  13.833  0.7219 -1.1245 -3.1179
  159MPD2     N 2430   2.289   4.323  13.753 -0.0108 -0.4970  0.6736
  159MPD2    H5 2431   2.191   4.301  13.769 -0.2916 -0.9751 -1.7161
  159MPD2    N1 2432   2.371   3.893  13.983  0.2142  0.0363  0.7419
  159MPD2    H7 2433   2.436   3.820  14.011  0.7970  1.0359  1.9699
  160TMC2    C1 2434   1.913   3.134   1.982 -0.6132  0.3627 -0.4939
  160TMC2    C2 2435   1.931   3.051   2.090  0.0725  0.3279  0.1413
  160TMC2    C3 2436   1.957   2.921   2.073 -0.6351 -0.0925 -0.3644
  160TMC2    C4 2437   1.944   3.095   1.856  0.6991  0.7312 -0.0874
  160TMC2    C5 2438   1.994   2.962   1.843 -0.3829 -0.4543  0.4020
  160TMC2    C6 2439   2.001   2.871   1.950 -0.2184 -0.3633 -0.2904
  160TMC2     C 2440   1.886   3.278   2.014 -0.0260 -0.1244  0.2510
  160TMC2     O 2441   1.937   3.322   2.116  0.0615 -0.1666  0.0774
  160TMC2     H 2442   1.900   3.076   2.191  0.0222  1.8157 -0.2451
  160TMC2    H1 2443   1.938   3.164   1.773 -1.5221 -0.3644 -0.8294
  160TMC2    H2 2444   2.021   2.766   1.933  0.6592 -0.3688  0.7806
  160TMC2    C7 2445   2.042   2.912   1.715 -0.2724 -0.3492  0.5340
  160TMC2    C8 2446   1.960   2.832   2.195 -0.7287 -0.4244 -0.4967
  160TMC2    O1 2447   2.105   2.807   1.723 -0.7962 -0.4753 -0.1124
  160TMC2    O2 2448   1.994   2.885   2.304  0.3395 -0.0700 -0.4203
  160TMC2    O5 2449   1.976   2.705   2.169 -0.1963  0.3666  0.5557
  160TMC2    H5 2450   1.932   2.680   2.085  0.2711  1.9127 -0.1344
  161MPD2     C 2451   1.772   3.558   2.042 -0.6151 -0.0523  0.3715
  161MPD2    C1 2452   1.735   3.460   1.947  0.2517  0.6556  0.4449
  161MPD2    C2 2453   1.640   3.490   1.859 -0.7585 -0.0171  0.9273
  161MPD2    C3 2454   1.581   3.610   1.865  0.3350 -0.2062  0.1288
  161MPD2    C4 2455   1.600   3.694   1.968  0.3089  0.5350 -0.0848
  161MPD2    C5 2456   1.701   3.675   2.054 -0.1281  0.4630  0.0500
  161MPD2     H 2457   1.616   3.415   1.784 -0.9001 -0.4557  1.4147
  161MPD2    H1 2458   1.539   3.782   1.988 -1.0068 -0.1963 -0.8996
  161MPD2    H2 2459   1.854   3.549   2.112 -0.2030  2.5057  0.2443
  161MPD2    H3 2460   1.723   3.760   2.117 -0.1323  0.5340 -0.0460
  161MPD2     N 2461   1.486   3.650   1.771 -0.2898  0.6621  0.1871
  161MPD2    H5 2462   1.453   3.746   1.777  0.5756  0.8322  2.0869
  161MPD2    N1 2463   1.789   3.327   1.930 -0.1255 -0.1906  0.6132
  161MPD2    H7 2464   1.739   3.268   1.864  0.7705 -1.4148  1.0370
  162TMC2    C1 2465   4.139   0.006   0.723  0.4308  0.9461  0.4632
  162TMC2    C2 2466   4.034   4.705   0.642  0.3932  0.3596  0.1072
  162TMC2    C3 2467   3.913   4.675   0.710 -0.1672  0.1076  0.0161
  162TMC2    C4 2468   4.137   0.006   0.859 -0.5267  0.9627  0.7478
  162TMC2    C5 2469   4.017   4.699   0.920 -0.9012  0.1525  0.4968
  162TMC2    C6 2470   3.907   4.671   0.847 -0.3957  0.2180 -0.5450
  162TMC2     C 2471   4.274   0.008   0.664  0.5424 -0.3317 -0.0197
  162TMC2     O 2472   4.278   0.032   0.545  0.4251  0.0585  0.3893
  162TMC2     H 2473   4.031   4.693   0.534 -0.1069  1.3529  0.0110
  162TMC2    H1 2474   4.213   0.056   0.917 -1.3690  1.4750  1.4043
  162TMC2    H2 2475   3.817   4.633   0.895 -1.1798 -0.2861 -2.4120
  162TMC2    C7 2476   3.997   4.700   1.062  0.9018  0.2548 -0.6102
  162TMC2    C8 2477   3.794   4.667   0.623  0.2154  0.7594  0.8001
  162TMC2    O1 2478   3.887   4.674   1.105  0.4741 -0.8707  0.5492
  162TMC2    O2 2479   3.780   0.009   0.513 -0.7029  0.6426 -0.4271
  162TMC2    O5 2480   3.740   4.547   0.658  0.2315 -0.5120 -0.0573
  162TMC2    H5 2481   3.790   4.501   0.729 -1.5773 -2.9623 -0.3841
  163MPD2     C 2482   0.076   4.679   0.664  0.0294 -0.3006 -0.3020
  163MPD2    C1 2483   4.703   4.694   0.561  0.4439 -0.9478 -1.0953
  163MPD2    C2 2484   4.569   4.702   0.585  0.0495  0.3467  0.6966
  163MPD2    C3 2485   4.523   4.703   0.716 -0.2610  0.2374 -0.3901
  163MPD2    C4 2486   4.618   4.683   0.816  0.0564 -0.0714 -0.5540
  163MPD2    C5 2487   0.035   4.671   0.791 -0.8881  0.2591  0.0117
  163MPD2     H 2488   4.502   4.706   0.500 -0.4716 -2.8776  0.9484
  163MPD2    H1 2489   4.578   4.655   0.912  1.1986 -2.6952 -0.8591
  163MPD2    H2 2490   0.178   4.677   0.628  0.6792 -0.3374  1.5323
  163MPD2    H3 2491   0.110   4.659   0.869  1.2905 -0.6968 -2.2408
  163MPD2     N 2492   4.383   4.704   0.752  0.0033 -0.0901  0.4908
  163MPD2    H5 2493   4.369   4.669   0.846  0.7294  2.5103  1.5890
  163MPD2    N1 2494   0.034   4.687   0.426  0.1645  0.1459  0.0493
  163MPD2    H7 2495   0.132   4.663   0.417 -0.1328 -1.0966  0.1836
  164TCq2    C1 2496   0.603   4.180  11.428 -0.0967  0.0625  0.0452
  164TCq2    O2 2497   0.512   4.203  11.508 -0.2047  0.0811 -0.2032
  164TCq2    C2 2498   0.619   4.283  11.327  0.1449 -0.4696  0.1892
  164TCq2    C3 2499   0.720   4.277  11.231  0.0971  0.4705  0.0750
  164TCq2    C4 2500   0.705   4.348  11.115 -0.4295 -0.2911  0.1339
  164TCq2    C5 2501   0.587   4.404  11.089 -0.1158  0.1394  0.0372
  164TCq2    C6 2502   0.497   4.426  11.193 -1.1017 -0.0392 -0.4993
  164TCq2    C7 2503   0.516   4.371  11.316  0.0427 -0.1527 -0.2020
  164TCq2    C8 2504   0.361   4.456  11.154  0.1934  0.2062 -0.0249
  164TCq2    O4 2505   0.322   4.408  11.045 -0.3177  0.3013  0.2475
  164TCq2    C9 2506   0.792   4.320  11.003 -0.1768 -0.4612 -0.0555
  164TCq2    O5 2507   0.760   4.362  10.887  0.0473 -0.3172 -0.2354
  164TCq2    O6 2508   0.885   4.235  11.031  0.1572  0.1039 -0.2688
  164TCq2    H2 2509   0.814   4.231  11.258 -1.5575 -3.4098 -0.7852
  164TCq2    H3 2510   0.561   4.444  10.992 -1.1522 -0.8589 -0.0953
  164TCq2    H4 2511   0.439   4.367  11.392  1.0390  0.2620  0.8340
  165MPD2     C 2512   1.420   1.383   1.466 -0.5504  0.2444 -0.4624
  165MPD2    C1 2513   1.337   1.465   1.396 -1.0566  0.3036 -0.6494
  165MPD2    C2 2514   1.384   1.580   1.335  0.3143  0.0491  0.4322
  165MPD2    C3 2515   1.519   1.594   1.329  0.3445 -0.3106  0.0425
  165MPD2    C4 2516   1.607   1.496   1.383  0.4383 -0.4858 -0.2705
  165MPD2    C5 2517   1.555   1.393   1.456 -0.2143  1.2577 -0.2990
  165MPD2     H 2518   1.319   1.647   1.279 -0.6734  0.2997  1.9017
  165MPD2    H1 2519   1.714   1.514   1.386  0.0924  1.7508 -1.6486
  165MPD2    H2 2520   1.389   1.292   1.516 -1.1054  0.2510 -0.7951
  165MPD2    H3 2521   1.615   1.324   1.514  0.4830  1.1998 -1.1011
  165MPD2     N 2522   1.586   1.701   1.258 -0.0880  0.1198  0.3850
  165MPD2    H5 2523   1.687   1.698   1.261 -0.0983  0.4035  1.2232
  165MPD2    N1 2524   1.197   1.434   1.386 -0.1623 -0.3134  0.6188
  165MPD2    H7 2525   1.160   1.353   1.436 -0.2855  0.6177  2.0256
  166TCq2    C1 2526   1.519   1.813   1.201 -0.2086 -0.4270  0.5957
  166TCq2    O2 2527   1.399   1.846   1.206 -0.3316  0.0852  0.2324
  166TCq2    C2 2528   1.603   1.903   1.128  0.4049  0.0397  0.0383
  166TCq2    C3 2529   1.560   2.035   1.106  0.0007  0.8479  0.4844
  166TCq2    C4 2530   1.639   2.121   1.037 -0.2212 -0.5143  0.6367
  166TCq2    C5 2531   1.763   2.086   0.992  0.3663 -0.0048 -0.2426
  166TCq2    C6 2532   1.812   1.958   1.017  0.5918  0.1681 -0.8023
  166TCq2    C7 2533   1.726   1.864   1.078  0.2015 -0.2605  0.4571
  166TCq2    C8 2534   1.955   1.949   1.016 -0.1897  0.3694 -0.4934
  166TCq2    O4 2535   2.011   2.047   0.980 -0.1631 -0.2571  0.2747
  166TCq2    C9 2536   1.594   2.252   1.011 -0.5061  0.9864 -0.0998
  166TCq2    O5 2537   1.477   2.280   1.058  0.2141  0.6332  0.0221
  166TCq2    O6 2538   1.650   2.324   0.929  0.0174  0.6728  0.1092
  166TCq2    H2 2539   1.460   2.070   1.131 -0.1767 -0.4494  1.6260
  166TCq2    H3 2540   1.822   2.160   0.940 -2.1486  1.5323 -0.9258
  166TCq2    H4 2541   1.760   1.762   1.089 -1.2392 -0.7762  0.1459
  167TMC2    C1 2542   4.122   4.355  12.560  0.3166  0.1101 -0.5112
  167TMC2    C2 2543   4.019   4.416  12.629 -0.5811  0.0278  0.0084
  167TMC2    C3 2544   3.952   4.333  12.710  0.4106 -0.6945 -0.1200
  167TMC2    C4 2545   4.170   4.227  12.578  0.5783 -0.3187 -0.7848
  167TMC2    C5 2546   4.101   4.151  12.673 -0.4933 -0.3696  0.6595
  167TMC2    C6 2547   3.983   4.202  12.734 -0.1926 -0.2751  0.2633
  167TMC2     C 2548   4.176   4.424  12.444  0.6319 -0.6284 -0.6332
  167TMC2     O 2549   4.141   4.540  12.433 -0.1774 -0.1735  0.0937
  167TMC2     H 2550   3.982   4.514  12.605 -1.1215  0.5326  2.9116
  167TMC2    H1 2551   4.267   4.194  12.543  0.2163 -1.7264 -0.4876
  167TMC2    H2 2552   3.936   4.148  12.815  4.0266 -0.1161  2.8151
  167TMC2    C7 2553   4.146   4.025  12.734  0.4714 -0.0319  0.2829
  167TMC2    C8 2554   3.822   4.375  12.746  0.1393  0.3290 -0.0900
  167TMC2    O1 2555   4.108   4.001  12.846 -0.2413  0.0492 -0.1029
  167TMC2    O2 2556   3.745   4.439  12.672 -0.4639 -0.2364  0.3270
  167TMC2    O5 2557   3.831   4.377  12.878  0.0532  0.1629 -0.0738
  167TMC2    H5 2558   3.918   4.370  12.921 -0.6484 -0.6966  1.2135
  168MPD2     C 2559   4.320   4.522  12.210  0.8576 -0.4199  0.4121
  168MPD2    C1 2560   4.302   4.388  12.230 -0.6259 -0.5305 -0.1672
  168MPD2    C2 2561   4.349   4.290  12.141 -0.5538 -0.0073  0.1313
  168MPD2    C3 2562   4.424   4.338  12.033  0.0270  0.2250  0.3128
  168MPD2    C4 2563   4.449   4.470  12.014 -0.2635 -0.4143 -0.3752
  168MPD2    C5 2564   4.398   4.560  12.103  0.2666  0.1388  0.1763
  168MPD2     H 2565   4.327   4.185  12.160 -2.3034  0.4753  0.7141
  168MPD2    H1 2566   4.508   4.504  11.930 -0.8775  0.4651 -0.4491
  168MPD2    H2 2567   4.288   4.595  12.282  0.3474  0.0350 -0.2817
  168MPD2    H3 2568   4.415   4.665  12.083 -2.3815  0.2853 -1.4012
  168MPD2     N 2569   4.472   4.262  11.923  0.4048 -0.2982 -0.0529
  168MPD2    H5 2570   4.532   4.314  11.860 -0.4137  0.0119 -0.5776
  168MPD2    N1 2571   4.235   4.344  12.346  0.0406  0.0324  0.6029
  168MPD2    H7 2572   4.240   4.245  12.365  0.9589  0.3068  1.7781
  169MPD1     C 2573   1.311   4.060   9.409  0.0590  0.0804 -0.4054
  169MPD1    C1 2574   1.302   3.995   9.526 -0.0818 -0.4850 -0.0978
  169MPD1    C2 2575   1.420   3.931   9.579 -0.1876  0.7408 -0.2439
  169MPD1    C3 2576   1.536   3.926   9.511  0.0624  0.1201  0.1265
  169MPD1    C4 2577   1.541   3.983   9.386  0.5359  0.0832 -0.5554
  169MPD1    C5 2578   1.427   4.049   9.339 -0.8922 -0.3159  0.9107
  169MPD1     H 2579   1.411   3.885   9.677 -1.9804  2.1156  0.2424
  169MPD1    H1 2580   1.630   3.984   9.323  1.5502 -1.7896  0.8694
  169MPD1    H2 2581   1.223   4.094   9.355 -0.2398 -0.4121 -0.2317
  169MPD1    H3 2582   1.427   4.074   9.233 -2.1309  0.7847  1.1746
  169MPD1     N 2583   1.643   3.843   9.555 -0.3494 -0.0718 -0.2833
  169MPD1    H5 2584   1.619   3.804   9.646  1.6456 -0.0990  0.2141
  169MPD1    N1 2585   1.187   3.994   9.605  0.2656 -0.0832 -0.0013
  169MPD1    H6 2586   1.195   3.923   9.678  0.8955  1.1421  1.1434
  169MPD1    H7 2587   1.095   4.011   9.565  0.3507  1.1059  0.2794
  170MPD1     C 2588   0.201   1.453  13.153 -0.1802  0.2313  0.5885
  170MPD1    C1 2589   0.307   1.529  13.112 -0.3051  0.8057 -0.3558
  170MPD1    C2 2590   0.401   1.547  13.212  0.5396 -0.2084 -0.0985
  170MPD1    C3 2591   0.381   1.540  13.345 -0.4722  0.2560 -0.8973
  170MPD1    C4 2592   0.258   1.489  13.381  0.7203  0.0239  0.7481
  170MPD1    C5 2593   0.173   1.439  13.290  0.3427  0.5410 -0.4420
  170MPD1     H 2594   0.495   1.584  13.172  0.2328  0.4397 -0.2262
  170MPD1    H1 2595   0.220   1.498  13.482  0.2616  0.8246  0.5098
  170MPD1    H2 2596   0.140   1.401  13.080 -0.3363  0.9347  0.2164
  170MPD1    H3 2597   0.077   1.398  13.320 -0.0274  2.1406  0.5716
  170MPD1     N 2598   0.483   1.577  13.431 -0.0200 -0.1909  0.1168
  170MPD1    H5 2599   0.562   1.631  13.397 -0.1735 -0.2178 -0.2799
  170MPD1    N1 2600   0.347   1.537  12.977 -0.7224 -0.3819 -0.2873
  170MPD1    H6 2601   0.423   1.603  12.966 -0.5036 -0.8322 -1.4414
  170MPD1    H7 2602   0.265   1.564  12.923 -0.7389  0.9641  0.4097
  171MPD1     C 2603   4.166   2.548  15.388  0.3103 -0.3796  0.2343
  171MPD1    C1 2604   4.263   2.637  15.445  0.4334 -0.5785  0.4281
  171MPD1    C2 2605   4.356   2.582  15.531  0.2885 -0.0316 -0.1506
  171MPD1    C3 2606   4.363   2.443  15.550  0.6213 -0.6622 -0.0199
  171MPD1    C4 2607   4.280   2.361  15.482 -0.3935  0.3257 -0.0440
  171MPD1    C5 2608   4.178   2.418  15.415  0.2078  0.1150 -0.3648
  171MPD1     H 2609   4.404   2.649  15.603  0.2266 -0.2014  0.0489
  171MPD1    H1 2610   4.286   2.255  15.506  1.6649  1.1977  3.2734
  171MPD1    H2 2611   4.072   2.590  15.356  0.4324  0.7796  1.3998
  171MPD1    H3 2612   4.094   2.358  15.384  0.6385 -1.1281  0.8423
  171MPD1     N 2613   4.457   2.378  15.634  0.8337 -0.3861 -0.0342
  171MPD1    H5 2614   4.462   2.277  15.638 -1.5079 -0.5286 -0.4022
  171MPD1    N1 2615   4.228   2.772  15.456 -0.0108 -0.5321 -0.2792
  171MPD1    H6 2616   4.306   2.836  15.466  1.8732 -2.9251  0.2114
  171MPD1    H7 2617   4.191   2.799  15.365 -0.4473 -2.1753 -0.5888
  172MPD1     C 2618   3.027   2.582  17.180  0.1634  0.3397  0.6532
  172MPD1    C1 2619   2.963   2.617  17.296 -0.3701 -0.0522  0.3144
  172MPD1    C2 2620   3.041   2.629  17.407  0.7308  0.2665  0.5861
  172MPD1    C3 2621   3.173   2.587  17.418  0.6345  0.0986  0.2466
  172MPD1    C4 2622   3.227   2.546  17.299  0.4080  0.0546 -0.0230
  172MPD1    C5 2623   3.158   2.557  17.178  0.8086  0.3190 -0.3633
  172MPD1     H 2624   2.989   2.676  17.490 -1.2413 -2.5084  0.9268
  172MPD1    H1 2625   3.330   2.512  17.300  0.2458 -0.4750 -3.1810
  172MPD1    H2 2626   2.974   2.587  17.086 -1.3302  0.8619  1.5200
  172MPD1    H3 2627   3.204   2.526  17.085 -1.3563 -1.2871 -0.8948
  172MPD1     N 2628   3.255   2.603  17.535  0.2076  0.5390 -0.5242
  172MPD1    H5 2629   3.353   2.580  17.520  0.2740  0.5621 -0.1122
  172MPD1    N1 2630   2.825   2.648  17.294 -0.0337  0.3029  0.2164
  172MPD1    H6 2631   2.788   2.596  17.215  0.7905  0.0002  0.0352
  172MPD1    H7 2632   2.773   2.627  17.379  0.3473  4.2263  1.4158
  173MPD1     C 2633   4.636   2.081  15.260  0.3307  0.2147 -0.1302
  173MPD1    C1 2634   4.697   2.005  15.156 -0.0400  0.0917 -0.1912
  173MPD1    C2 2635   4.678   1.868  15.156  0.2921 -0.1390 -0.6039
  173MPD1    C3 2636   4.616   1.805  15.262  0.0137 -0.3554 -0.0526
  173MPD1    C4 2637   4.563   1.879  15.365  0.7808  0.2707  0.8768
  173MPD1    C5 2638   4.576   2.013  15.360  0.6362 -0.7678  0.6728
  173MPD1     H 2639   4.720   1.805  15.078  0.2992  1.3995 -1.8361
  173MPD1    H1 2640   4.531   1.838  15.460 -0.1550 -1.8040 -0.3494
  173MPD1    H2 2641   4.632   2.189  15.255  1.2371  0.1301 -2.8347
  173MPD1    H3 2642   4.540   2.067  15.447  2.1553  1.3067  0.0064
  173MPD1     N 2643   4.628   1.661  15.259  0.2124 -0.0894  1.0412
  173MPD1    H5 2644   4.664   1.618  15.175 -2.0301 -1.7701  0.9457
  173MPD1    N1 2645   0.016   2.074  15.041  0.0690  0.4996  0.2264
  173MPD1    H6 2646   0.062   2.007  14.980 -1.9180 -0.1609 -0.5738
  173MPD1    H7 2647   0.079   2.153  15.052 -1.1759  1.5977 -0.5376
  174MPD1     C 2648   0.166   0.836  14.771  0.0999 -0.6921 -0.9567
  174MPD1    C1 2649   0.245   0.947  14.794 -0.3882  0.1277 -0.3220
  174MPD1    C2 2650   0.188   1.046  14.880  0.4021  0.4347 -0.5877
  174MPD1    C3 2651   0.071   1.018  14.949 -0.5524  0.4566  0.5064
  174MPD1    C4 2652   0.002   0.904  14.925  0.2393  0.3869  0.5101
  174MPD1    C5 2653   0.050   0.814  14.835  0.3590  0.6223  0.3395
  174MPD1     H 2654   0.242   1.136  14.909  3.2364 -1.0087 -1.3878
  174MPD1    H1 2655   4.629   0.884  14.977 -0.6639 -0.7969 -1.5708
  174MPD1    H2 2656   0.201   0.761  14.700  0.1063 -0.1820 -1.4925
  174MPD1    H3 2657   4.720   0.718  14.826  1.7363 -0.2344  1.7712
  174MPD1     N 2658   0.018   1.108  15.038 -0.0269 -0.0710  0.2788
  174MPD1    H5 2659   4.646   1.081  15.068 -0.6003 -0.1648 -1.6129
  174MPD1    N1 2660   0.349   0.974  14.711  0.0658  0.3255 -0.0644
  174MPD1    H6 2661   0.386   0.886  14.677  0.1377  0.3362 -0.0132
  174MPD1    H7 2662   0.422   1.028  14.756 -1.0602  2.2164 -0.5119
  175MPD1     C 2663   3.729   2.849  15.790  0.0778 -0.0564 -0.0732
  175MPD1    C1 2664   3.590   2.843  15.781 -0.4879  0.7341  0.1113
  175MPD1    C2 2665   3.518   2.864  15.894  1.1167  0.5028  0.0142
  175MPD1    C3 2666   3.580   2.881  16.021  0.0755 -0.3287  0.4784
  175MPD1    C4 2667   3.719   2.875  16.022  0.5855 -0.2923 -0.3060
  175MPD1    C5 2668   3.786   2.863  15.909 -0.2658  0.2406 -0.1314
  175MPD1     H 2669   3.410   2.865  15.898  1.1276 -0.7223  0.7565
  175MPD1    H1 2670   3.768   2.896  16.116 -0.3249 -0.1414  0.1417
  175MPD1    H2 2671   3.791   2.825  15.705 -1.8149  1.0510 -1.7909
  175MPD1    H3 2672   3.895   2.864  15.913 -0.4229  3.2252  3.5545
  175MPD1     N 2673   3.513   2.894  16.143 -0.1222 -0.1028  0.2355
  175MPD1    H5 2674   3.566   2.902  16.229  0.2620 -2.0527  0.1867
  175MPD1    N1 2675   3.522   2.858  15.656  0.0601 -0.1310 -0.1786
  175MPD1    H6 2676   3.569   2.810  15.580  1.5298 -0.2449  0.8114
  175MPD1    H7 2677   3.427   2.822  15.660 -0.4376  1.2269  0.5605
  176MPD1     C 2678   1.001   4.404  16.693  0.3232 -1.0113 -0.0546
  176MPD1    C1 2679   0.946   4.519  16.642  0.2526 -0.3846 -0.3112
  176MPD1    C2 2680   0.870   4.598  16.721  0.1335  0.4520  0.2098
  176MPD1    C3 2681   0.844   4.571  16.855  0.1652  0.0106 -0.2243
  176MPD1    C4 2682   0.893   4.451  16.906  0.1141  0.7160  0.4420
  176MPD1    C5 2683   0.982   4.378  16.822 -0.2628  0.1066  0.2426
  176MPD1     H 2684   0.812   4.675  16.670 -0.6833  0.1735  0.7040
  176MPD1    H1 2685   0.884   4.411  17.006 -1.9884  1.0342  0.3780
  176MPD1    H2 2686   1.059   4.334  16.636 -1.8344 -2.2207 -0.7737
  176MPD1    H3 2687   1.032   4.291  16.863  1.8116  2.0783  1.8720
  176MPD1     N 2688   0.763   4.653  16.942 -0.2884  0.1939  0.4624
  176MPD1    H5 2689   0.747   0.022  16.897  1.4617  1.3672  2.1952
  176MPD1    N1 2690   0.954   4.541  16.499  0.4829 -0.5328  1.0111
  176MPD1    H6 2691   0.958   4.637  16.468  0.5901 -0.8617  0.0178
  176MPD1    H7 2692   1.043   4.505  16.463 -0.4060 -0.6763 -1.0113
  177MPD1     C 2693   3.478   4.714   9.641 -0.5186 -0.2502  0.0008
  177MPD1    C1 2694   3.450   0.105   9.568  0.5533  0.5278  0.0281
  177MPD1    C2 2695   3.339   0.104   9.490 -0.7144 -0.3450 -0.6174
  177MPD1    C3 2696   3.260   4.716   9.476  0.1875 -0.0933  0.0880
  177MPD1    C4 2697   3.296   4.596   9.533  0.1016 -0.1243 -0.2031
  177MPD1    C5 2698   3.399   4.604   9.627 -0.7190  0.1542  0.7669
  177MPD1     H 2699   3.309   0.195   9.440 -0.6420 -0.0635 -0.1541
  177MPD1    H1 2700   3.242   4.502   9.523 -1.8628  0.8212  1.6070
  177MPD1    H2 2701   3.546   4.703   9.725 -0.7670 -4.9260 -0.4228
  177MPD1    H3 2702   3.423   4.517   9.687 -0.0214 -2.2585 -3.0050
  177MPD1     N 2703   3.144   0.015   9.385  0.5207 -0.3549 -0.2181
  177MPD1    H5 2704   3.126   0.105   9.342  2.4762 -0.7146 -1.7850
  177MPD1    N1 2705   3.515   0.227   9.597 -0.0622  0.6955 -0.3428
  177MPD1    H6 2706   3.613   0.205   9.608 -0.0217  0.1734 -1.7423
  177MPD1    H7 2707   3.504   0.309   9.537  0.1760 -0.1406 -1.5392
  178MPD1     C 2708   1.320   1.312  17.540  1.0127  0.4150 -0.2768
  178MPD1    C1 2709   1.449   1.325  17.573 -0.6800  0.0179  0.2215
  178MPD1    C2 2710   1.533   1.227  17.529 -0.4841  0.4404 -0.3885
  178MPD1    C3 2711   1.489   1.118  17.448 -0.1958 -0.2294 -0.6245
  178MPD1    C4 2712   1.357   1.119  17.413  0.6256 -0.2251 -0.1936
  178MPD1    C5 2713   1.273   1.221  17.445  0.2215  0.1630  0.8529
  178MPD1     H 2714   1.635   1.222  17.567 -1.8654  1.7347  3.4601
  178MPD1    H1 2715   1.319   1.054  17.335  2.0683 -0.4117 -0.7356
  178MPD1    H2 2716   1.248   1.392  17.557  0.8937  0.3758 -0.5961
  178MPD1    H3 2717   1.171   1.224  17.409  1.1793 -0.1719 -1.9461
  178MPD1     N 2718   1.572   1.022  17.389 -0.6333 -0.5482 -0.1017
  178MPD1    H5 2719   1.525   0.956  17.328 -1.1719  0.6335 -0.9650
  178MPD1    N1 2720   1.494   1.445  17.632  0.2311 -0.0221 -0.3815
  178MPD1    H6 2721   1.430   1.492   0.010 -0.9981 -0.4578 -1.3088
  178MPD1    H7 2722   1.585   1.441  17.678 -0.5789 -1.8538  1.0304
  179MPD1     C 2723   0.841   4.414  15.825  0.1796  0.8794 -0.2762
  179MPD1    C1 2724   0.711   4.376  15.836  0.3764  0.6385  0.1172
  179MPD1    C2 2725   0.690   4.243  15.834  0.7780 -0.5212 -0.3437
  179MPD1    C3 2726   0.800   4.149  15.822  0.7771  0.3137  0.2305
  179MPD1    C4 2727   0.929   4.191  15.813 -0.4348 -0.1450 -0.1600
  179MPD1    C5 2728   0.952   4.325  15.823 -0.3328 -0.2046 -0.0797
  179MPD1     H 2729   0.587   4.212  15.825  1.2172 -2.2197  0.3814
  179MPD1    H1 2730   1.013   4.125  15.793 -1.7933 -2.0961  0.5825
  179MPD1    H2 2731   0.879   4.515  15.831  1.9752  0.3308 -2.1914
  179MPD1    H3 2732   1.057   4.353  15.814 -1.0425  2.3950 -0.2826
  179MPD1     N 2733   0.788   4.008  15.811  0.2093  0.3782 -0.1496
  179MPD1    H5 2734   0.875   3.957  15.801 -0.9235 -1.4512 -0.5607
  179MPD1    N1 2735   0.609   4.469  15.854  0.0331  0.3186 -0.0363
  179MPD1    H6 2736   0.628   4.565  15.826  1.5486  0.2663  0.7919
  179MPD1    H7 2737   0.518   4.450  15.812 -0.2923  0.0775  0.7728
  180MPD1     C 2738   1.573   0.362  15.103  0.3287  0.6440  0.1468
  180MPD1    C1 2739   1.573   0.459  15.002 -0.4051 -0.7123 -0.5063
  180MPD1    C2 2740   1.467   0.459  14.908  0.1038 -0.3729 -0.1175
  180MPD1    C3 2741   1.363   0.375  14.917 -0.2666 -1.1096  0.5226
  180MPD1    C4 2742   1.358   0.276  15.020 -0.3548  0.2732  0.0811
  180MPD1    C5 2743   1.468   0.270  15.105 -0.1414 -0.4412 -0.3037
  180MPD1     H 2744   1.465   0.531  14.826  1.9039  1.4976  1.4808
  180MPD1    H1 2745   1.279   0.202  15.029  0.3448 -0.5465 -0.4324
  180MPD1    H2 2746   1.652   0.354  15.178 -0.7647 -0.8347  1.1261
  180MPD1    H3 2747   1.476   0.183  15.169 -1.0850 -0.8138 -0.6900
  180MPD1     N 2748   1.250   0.387  14.826 -0.2137  0.8198 -0.2443
  180MPD1    H5 2749   1.269   0.432  14.737 -0.3693  0.7903 -0.2916
  180MPD1    N1 2750   1.683   0.549  14.991  0.3728  0.0815  0.2267
  180MPD1    H6 2751   1.641   0.642  14.982  2.0416  0.6999 -1.2422
  180MPD1    H7 2752   1.757   0.559  15.060  0.3169  1.3676  0.1085
  181MPD1     C 2753   1.757   2.352   9.560 -0.0225 -0.0386  0.5570
  181MPD1    C1 2754   1.813   2.479   9.566  0.2050 -0.0858 -0.9723
  181MPD1    C2 2755   1.939   2.506   9.520 -0.1820  0.1367  0.3764
  181MPD1    C3 2756   1.995   2.413   9.436  0.2661  0.1486 -0.0153
  181MPD1    C4 2757   1.938   2.291   9.421  0.0723 -0.4261  0.6612
  181MPD1    C5 2758   1.825   2.255   9.489  0.0306 -0.2124 -0.1639
  181MPD1     H 2759   1.982   2.605   9.525 -0.6995  0.4089 -0.5094
  181MPD1    H1 2760   1.993   2.214   9.368 -1.9568 -0.6505 -1.1037
  181MPD1    H2 2761   1.670   2.324   9.617 -0.6998 -3.0801 -1.9922
  181MPD1    H3 2762   1.794   2.152   9.487  0.9350 -0.4840 -0.1704
  181MPD1     N 2763   2.116   2.429   9.374 -0.0542 -0.1508  0.3677
  181MPD1    H5 2764   2.144   2.347   9.322  0.6362  0.1772  0.2180
  181MPD1    N1 2765   1.757   2.570   9.656  0.0859  0.3319 -0.1212
  181MPD1    H6 2766   1.661   2.550   9.681 -0.6985 -1.8378 -4.7213
  181MPD1    H7 2767   1.750   2.667   9.625 -0.4877  0.8620  1.6852
  182MPD1     C 2768   3.138   1.655   1.070  0.0787 -0.0472  0.9237
  182MPD1    C1 2769   3.001   1.657   1.046 -0.9238  0.1912  0.0220
  182MPD1    C2 2770   2.948   1.553   0.970 -0.1283  0.7988  0.0235
  182MPD1    C3 2771   3.031   1.466   0.902  0.2633  0.5006  0.0056
  182MPD1    C4 2772   3.167   1.475   0.916 -0.2409 -0.2050  0.3054
  182MPD1    C5 2773   3.219   1.574   0.998 -0.0909  1.1146  0.1667
  182MPD1     H 2774   2.840   1.559   0.966  0.0035 -0.1697 -4.4184
  182MPD1    H1 2775   3.231   1.417   0.850 -0.0379  1.4215 -0.9194
  182MPD1    H2 2776   3.188   1.713   1.147 -2.1764  0.8028  1.7353
  182MPD1    H3 2777   3.324   1.591   1.017  0.7286 -1.0880 -2.4768
  182MPD1     N 2778   2.977   1.376   0.802 -0.7692  0.2161 -0.1234
  182MPD1    H5 2779   3.040   1.306   0.767 -0.6270  0.2238  0.1174
  182MPD1    N1 2780   2.909   1.731   1.133  0.2563 -0.8221 -0.2663
  182MPD1    H6 2781   2.817   1.741   1.091 -0.4322  2.1850  1.9040
  182MPD1    H7 2782   2.943   1.824   1.159  2.7512 -1.7286 -0.2703
  183MPD1     C 2783   4.388   1.215   9.922  0.0074  0.0848 -0.1101
  183MPD1    C1 2784   4.389   1.352   9.912  0.4678  0.4095 -0.5521
  183MPD1    C2 2785   4.286   1.415   9.845 -1.0650  0.2724  0.7315
  183MPD1    C3 2786   4.173   1.345   9.801 -0.1049  0.1938 -0.1114
  183MPD1    C4 2787   4.171   1.211   9.816  0.1402  0.0923  0.0957
  183MPD1    C5 2788   4.276   1.146   9.884  0.0465 -0.2279 -0.2429
  183MPD1     H 2789   4.292   1.523   9.834 -0.6807  0.4709  2.8644
  183MPD1    H1 2790   4.094   1.150   9.770 -1.3948  0.4764  2.2031
  183MPD1    H2 2791   4.473   1.159   9.958 -1.6794 -3.3405 -1.3793
  183MPD1    H3 2792   4.280   1.038   9.877  1.7399 -0.2570  1.0902
  183MPD1     N 2793   4.067   1.426   9.735  0.4773  0.0237 -0.7276
  183MPD1    H5 2794   4.077   1.526   9.729  0.3942 -0.0009 -1.2019
  183MPD1    N1 2795   4.508   1.422   9.934 -0.2489 -0.1044  0.8103
  183MPD1    H6 2796   4.489   1.511   9.979  0.5378  0.3033  0.3449
  183MPD1    H7 2797   4.581   1.371   9.983  1.8382  2.3352  0.2412
  184MPD1     C 2798   2.311   4.223  10.208 -1.1264 -0.3418  0.6775
  184MPD1    C1 2799   2.206   4.223  10.117 -0.0101 -0.2168  0.0415
  184MPD1    C2 2800   2.231   4.277   9.990 -0.1545  0.2182  0.0401
  184MPD1    C3 2801   2.363   4.312   9.952  0.6192 -0.0727  0.3503
  184MPD1    C4 2802   2.463   4.296  10.041  0.2028  0.0972  0.4927
  184MPD1    C5 2803   2.440   4.248  10.169  0.4224  0.3105 -0.1964
  184MPD1     H 2804   2.156   4.283   9.911  0.4278  3.0033 -0.3133
  184MPD1    H1 2805   2.565   4.327  10.020 -0.0856  0.8338  0.1538
  184MPD1    H2 2806   2.291   4.208  10.313  0.1292 -0.6917  0.8604
  184MPD1    H3 2807   2.528   4.237  10.230 -0.6208 -2.2598  0.8637
  184MPD1     N 2808   2.393   4.366   9.826  0.3336  0.2993  0.0373
  184MPD1    H5 2809   2.491   4.385   9.807  0.7970  0.3671  2.5338
  184MPD1    N1 2810   2.079   4.187  10.148 -0.0324 -0.1661 -0.6235
  184MPD1    H6 2811   2.076   4.120  10.225  1.0137 -1.6601 -1.8750
  184MPD1    H7 2812   2.035   4.137  10.072  3.9348 -1.5971 -1.9896
  185MPD1     C 2813   2.004   4.684   8.845 -0.0611 -0.1311  0.1673
  185MPD1    C1 2814   1.928   4.647   8.949  0.1361  0.4253  0.0415
  185MPD1    C2 2815   2.000   4.608   9.059  0.1422  0.6792 -0.2973
  185MPD1    C3 2816   2.134   4.630   9.076  0.1142 -0.3084  0.4022
  185MPD1    C4 2817   2.214   4.675   8.971  0.5007  0.1701  0.5024
  185MPD1    C5 2818   2.145   4.694   8.853  0.3502 -0.1140 -0.2321
  185MPD1     H 2819   1.944   4.580   9.148  0.8701 -0.5918 -0.2429
  185MPD1    H1 2820   2.322   4.680   8.970  0.4722  0.7799  2.3319
  185MPD1    H2 2821   1.967   4.713   8.747 -1.3068 -1.9618  0.0944
  185MPD1    H3 2822   2.202   4.713   8.762  0.1008  0.4681 -0.2682
  185MPD1     N 2823   2.211   4.612   9.187 -0.9608  0.3416  0.5619
  185MPD1    H5 2824   2.312   4.620   9.177 -0.7563 -0.2185  2.1448
  185MPD1    N1 2825   1.796   4.618   8.936 -0.4186  0.4962  0.1958
  185MPD1    H6 2826   1.748   4.682   8.872 -0.3155 -1.5422 -1.9105
  185MPD1    H7 2827   1.743   4.609   9.023  0.9688  0.8766  1.0853
  186MPD1     C 2828   1.353   3.363  16.292  0.0307  0.0298 -0.0832
  186MPD1    C1 2829   1.325   3.466  16.203 -0.5078 -0.1243 -0.6147
  186MPD1    C2 2830   1.368   3.595  16.242 -0.0806  1.1766 -0.2818
  186MPD1    C3 2831   1.408   3.626  16.369 -0.1773  0.0906  0.2371
  186MPD1    C4 2832   1.419   3.523  16.451  0.1809 -0.2566 -0.1098
  186MPD1    C5 2833   1.408   3.390  16.407 -0.5935 -0.0325 -0.4910
  186MPD1     H 2834   1.351   3.675  16.171 -2.0055  0.7688 -0.2966
  186MPD1    H1 2835   1.439   3.546  16.555  0.7537 -0.5160 -0.1667
  186MPD1    H2 2836   1.319   3.263  16.270  1.4465 -1.6504  5.4619
  186MPD1    H3 2837   1.434   3.303  16.465 -1.1781  1.6880  2.3274
  186MPD1     N 2838   1.434   3.756  16.425  0.5766  0.2649 -0.8357
  186MPD1    H5 2839   1.463   3.755  16.522 -3.5647  0.1477  0.3969
  186MPD1    N1 2840   1.283   3.449  16.069  0.3483 -0.3026  0.3739
  186MPD1    H6 2841   1.243   3.537  16.037  1.8984  0.2495 -0.0441
  186MPD1    H7 2842   1.223   3.368  16.056  1.6528 -0.7435 -2.8803
  187MPD1     C 2843   4.215   1.694   0.455  0.4164  0.4046  0.6864
  187MPD1    C1 2844   4.248   1.824   0.460  0.5648 -0.4050 -0.2240
  187MPD1    C2 2845   4.348   1.874   0.381 -0.1738  0.5479  0.2602
  187MPD1    C3 2846   4.421   1.783   0.298  0.0870  0.1889 -0.1119
  187MPD1    C4 2847   4.382   1.654   0.298  0.3241  0.2402 -0.2793
  187MPD1    C5 2848   4.279   1.609   0.377  0.0157  0.1273  0.1506
  187MPD1     H 2849   4.361   1.982   0.382  1.4818  0.3388  3.3139
  187MPD1    H1 2850   4.424   1.574   0.239 -2.2259 -0.6153 -0.9683
  187MPD1    H2 2851   4.127   1.660   0.509  0.4127 -1.6317 -0.5766
  187MPD1    H3 2852   4.253   1.504   0.366  0.0978  0.0906  0.3075
  187MPD1     N 2853   4.534   1.827   0.222  0.2882  0.0653 -0.0070
  187MPD1    H5 2854   4.579   1.755   0.165 -1.1981 -0.6709 -0.2406
  187MPD1    N1 2855   4.175   1.915   0.546 -0.3465  0.1594 -0.1339
  187MPD1    H6 2856   4.143   1.851   0.619  2.6195  0.7904  1.7534
  187MPD1    H7 2857   4.223   1.994   0.588 -1.0064  1.6287 -2.1923
  188MPD1     C 2858   3.780   1.020   8.869 -0.6147 -0.1439 -0.0261
  188MPD1    C1 2859   3.901   1.024   8.937  0.0236 -0.1386 -0.3423
  188MPD1    C2 2860   3.931   0.915   9.018 -0.1500 -0.1835  0.4248
  188MPD1    C3 2861   3.861   0.799   9.007 -0.0468  0.1563  0.1816
  188MPD1    C4 2862   3.759   0.787   8.909  0.2968  0.2467  0.0064
  188MPD1    C5 2863   3.718   0.906   8.858  0.2706  0.5816 -0.0396
  188MPD1     H 2864   4.008   0.921   9.094  0.3697  1.1520 -0.2135
  188MPD1    H1 2865   3.694   0.701   8.902  1.1599 -0.4491  0.5091
  188MPD1    H2 2866   3.741   1.099   8.806  2.3300  0.1323 -1.5306
  188MPD1    H3 2867   3.638   0.901   8.784  2.8265 -0.1520 -2.7551
  188MPD1     N 2868   3.890   0.685   9.079  0.0237 -0.0132 -0.2263
  188MPD1    H5 2869   3.846   0.600   9.045 -2.5425  1.2263 -0.0118
  188MPD1    N1 2870   3.976   1.147   8.940 -0.3325 -0.2918  0.3459
  188MPD1    H6 2871   3.954   1.206   8.861 -0.1647  0.1808  0.6554
  188MPD1    H7 2872   4.077   1.129   8.936 -0.0236  1.7123 -0.4406
  189MPD1     C 2873   2.081   1.079   0.325 -0.5665  0.0063  0.5958
  189MPD1    C1 2874   1.953   1.074   0.379  0.7648 -0.9238 -1.1088
  189MPD1    C2 2875   1.893   1.194   0.401  0.6540 -0.1574  0.3348
  189MPD1    C3 2876   1.945   1.313   0.359 -0.1758 -0.5010 -0.0718
  189MPD1    C4 2877   2.075   1.308   0.297  0.3808 -0.4373 -0.3146
  189MPD1    C5 2878   2.143   1.193   0.286  0.1104 -0.0685  0.3511
  189MPD1     H 2879   1.806   1.206   0.464 -0.7826 -2.8116 -1.1652
  189MPD1    H1 2880   2.115   1.393   0.241 -0.1580 -0.2843 -0.4690
  189MPD1    H2 2881   2.151   0.996   0.323  0.2314  0.6336  3.0203
  189MPD1    H3 2882   2.240   1.180   0.239 -0.8274 -3.0773 -0.7636
  189MPD1     N 2883   1.856   1.425   0.363  0.4612  0.1874 -0.8621
  189MPD1    H5 2884   1.765   1.412   0.406 -0.0529  0.7242 -1.7924
  189MPD1    N1 2885   1.903   0.958   0.437  0.2157 -0.3379  0.4499
  189MPD1    H6 2886   1.944   0.874   0.396 -0.6302 -0.8178  0.5820
  189MPD1    H7 2887   1.801   0.950   0.444  0.3540 -2.6682 -0.2157
  190MPD1     C 2888   1.027   1.086  15.489 -0.2105  0.2914  0.3665
  190MPD1    C1 2889   1.144   1.069  15.418 -0.1296 -0.8124 -0.1151
  190MPD1    C2 2890   1.229   0.970  15.469  0.4958 -0.1641  0.9857
  190MPD1    C3 2891   1.220   0.921  15.595  0.1126 -0.6546  0.0689
  190MPD1    C4 2892   1.108   0.950  15.673  0.3839  0.5025 -0.3040
  190MPD1    C5 2893   1.011   1.031  15.618  0.0142 -0.8574 -0.4079
  190MPD1     H 2894   1.320   0.959  15.412 -1.3086 -1.0279 -1.7033
  190MPD1    H1 2895   1.086   0.928  15.777 -1.6461 -0.6414 -0.9770
  190MPD1    H2 2896   0.952   1.152  15.446 -0.9239 -0.9783 -0.3274
  190MPD1    H3 2897   0.923   1.051  15.678  0.5446 -2.7902  1.0408
  190MPD1     N 2898   1.328   0.841  15.645 -0.1499 -0.3723 -0.1681
  190MPD1    H5 2899   1.412   0.820  15.591 -0.7614 -2.3083 -0.3874
  190MPD1    N1 2900   1.148   1.122  15.289 -0.0398 -0.6331 -0.1696
  190MPD1    H6 2901   1.243   1.153  15.269  0.4348 -2.6194 -0.9915
  190MPD1    H7 2902   1.085   1.200  15.270 -0.4122 -1.2182 -1.3617
  191MPD1     C 2903   4.457   1.696  13.236 -0.2655 -0.2136  0.0021
  191MPD1    C1 2904   4.350   1.764  13.195  0.4739  0.7497 -0.5949
  191MPD1    C2 2905   4.355   1.820  13.073  0.0029  0.3505 -0.2312
  191MPD1    C3 2906   4.460   1.821  12.990 -0.1739  0.6078 -0.1247
  191MPD1    C4 2907   4.573   1.761  13.031 -0.0789 -0.6037  0.2081
  191MPD1    C5 2908   4.567   1.693  13.150 -0.2263 -0.3033 -0.5441
  191MPD1     H 2909   4.269   1.875  13.036  0.1469  1.0686  0.4868
  191MPD1    H1 2910   4.663   1.766  12.971  0.4746 -1.6119  0.9533
  191MPD1    H2 2911   4.471   1.645  13.331 -2.5958 -0.1577  0.3684
  191MPD1    H3 2912   4.654   1.637  13.182  0.9110  1.2091 -0.9796
  191MPD1     N 2913   4.446   1.902  12.868 -0.3238 -0.4731  0.6529
  191MPD1    H5 2914   4.358   1.952  12.859  0.1513  0.0109 -1.4443
  191MPD1    N1 2915   4.229   1.755  13.267 -0.0354  0.1836  0.2897
  191MPD1    H6 2916   4.230   1.715  13.361 -2.1870 -3.1108 -1.0546
  191MPD1    H7 2917   4.174   1.840  13.261 -1.0319 -0.3352  1.7554
  192MPD1     C 2918   3.901   2.653  12.553  0.6600 -0.3637 -0.0236
  192MPD1    C1 2919   3.929   2.596  12.680  0.2699 -0.4877  0.0446
  192MPD1    C2 2920   4.025   2.501  12.689  0.2074  0.0794 -1.1445
  192MPD1    C3 2921   4.100   2.471  12.577  0.1483 -0.0268  0.6225
  192MPD1    C4 2922   4.073   2.535  12.458  0.3638  0.6943  0.7026
  192MPD1    C5 2923   3.963   2.613  12.439 -0.1590 -1.3943  1.1745
  192MPD1     H 2924   4.041   2.459  12.788  3.0804 -0.9176 -2.0359
  192MPD1    H1 2925   4.144   2.525  12.377  1.2089  1.7450  1.3104
  192MPD1    H2 2926   3.827   2.732  12.540  0.3724 -0.8083 -1.0477
  192MPD1    H3 2927   3.936   2.657  12.344  0.6305 -2.6947  0.3527
  192MPD1     N 2928   4.201   2.375  12.569 -0.3030 -0.4947 -0.6010
  192MPD1    H5 2929   4.236   2.369  12.474  2.5548  1.2627  0.3668
  192MPD1    N1 2930   3.865   2.638  12.798 -0.3293 -0.7716 -0.5726
  192MPD1    H6 2931   3.768   2.656  12.772 -0.9604  0.3995  2.6199
  192MPD1    H7 2932   3.861   2.575  12.878  0.5237  0.4231  0.3900
  193MPD1     C 2933   4.213   3.063  16.704 -0.1008  0.4190 -0.8518
  193MPD1    C1 2934   4.321   3.036  16.619 -1.0131 -0.6603 -0.0752
  193MPD1    C2 2935   4.446   3.008  16.671 -0.6907 -0.4017  0.4088
  193MPD1    C3 2936   4.469   3.017  16.809 -0.0322 -0.4321 -0.6193
  193MPD1    C4 2937   4.363   3.047  16.889 -0.4504 -0.4996  0.3046
  193MPD1    C5 2938   4.241   3.069  16.834 -0.0627  0.5629 -0.1167
  193MPD1     H 2939   4.522   2.969  16.604 -0.9360  0.0886 -0.1556
  193MPD1    H1 2940   4.377   3.062  16.995 -0.2899  1.5613 -0.0111
  193MPD1    H2 2941   4.111   3.078  16.669 -0.5710  1.2785  0.8836
  193MPD1    H3 2942   4.156   3.082  16.901  1.8112  0.5436  2.2433
  193MPD1     N 2943   4.590   2.983  16.873  0.2361  0.4393  0.6487
  193MPD1    H5 2944   4.597   2.982  16.974 -0.4461  0.8413  0.7012
  193MPD1    N1 2945   4.295   3.000  16.486  0.0163 -0.9402  0.1694
  193MPD1    H6 2946   4.205   3.026  16.448 -0.2148  1.3103  2.2903
  193MPD1    H7 2947   4.370   3.010  16.418  1.1225 -0.7709  1.3955
  194MPD1     C 2948   2.424   0.540  17.152  0.1601  0.4619 -0.4157
  194MPD1    C1 2949   2.470   0.517  17.024  0.5176 -0.5464 -0.2407
  194MPD1    C2 2950   2.570   0.416  17.003  0.6842 -0.0495 -0.3122
  194MPD1    C3 2951   2.599   0.330  17.102  0.3501  0.2637 -0.1065
  194MPD1    C4 2952   2.540   0.358  17.223 -0.1155 -0.4804  0.3327
  194MPD1    C5 2953   2.455   0.458  17.249  0.4112 -0.2407  0.3785
  194MPD1     H 2954   2.616   0.412  16.904  0.8356  0.1293 -0.2483
  194MPD1    H1 2955   2.569   0.305  17.313  0.4510 -1.7675 -0.6047
  194MPD1    H2 2956   2.353   0.619  17.175 -1.9593 -1.2483 -1.1074
  194MPD1    H3 2957   2.411   0.474  17.346 -2.2168  0.5806 -0.9373
  194MPD1     N 2958   2.668   0.208  17.084 -0.1883 -0.8724  0.0105
  194MPD1    H5 2959   2.675   0.149  17.166 -1.6707 -0.3963  0.4771
  194MPD1    N1 2960   2.457   0.611  16.921 -0.3101  0.0160  0.3317
  194MPD1    H6 2961   2.371   0.666  16.927  0.6763  1.6693 -0.7697
  194MPD1    H7 2962   2.431   0.561  16.836 -0.4058  1.4970 -0.5192
  195MPD1     C 2963   4.323   1.436  17.230  0.1845 -1.2847  0.6375
  195MPD1    C1 2964   4.413   1.451  17.332  0.0864 -0.0284 -0.2146
  195MPD1    C2 2965   4.440   1.341  17.416 -0.7799  0.3715  0.7359
  195MPD1    C3 2966   4.390   1.215  17.385  0.3374 -0.0097 -0.3376
  195MPD1    C4 2967   4.292   1.204  17.290  0.1627  0.0847  0.2800
  195MPD1    C5 2968   4.256   1.313  17.213 -0.6600  0.4667 -0.4586
  195MPD1     H 2969   4.512   1.363  17.494  0.9791  0.0257 -0.7635
  195MPD1    H1 2970   4.235   1.114  17.270  0.0743  0.4995 -1.2927
  195MPD1    H2 2971   4.299   1.517  17.161 -0.7651 -2.0837  0.0259
  195MPD1    H3 2972   4.189   1.292  17.131  0.1211 -1.9418 -0.4680
  195MPD1     N 2973   4.425   1.093  17.450 -1.1518 -0.0115 -0.1103
  195MPD1    H5 2974   4.379   1.008  17.419 -0.3780 -0.1720 -0.8172
  195MPD1    N1 2975   4.472   1.580  17.344  0.1156 -0.1655 -0.0330
  195MPD1    H6 2976   4.425   1.649  17.286 -0.0363  0.3457  0.6985
  195MPD1    H7 2977   4.568   1.585  17.310 -0.1462  0.4295 -0.6931
  196MPD1     C 2978   3.800   0.708   0.330  0.0385  0.4585  1.0549
  196MPD1    C1 2979   3.896   0.804   0.295  0.2736  0.1242  0.5313
  196MPD1    C2 2980   3.952   0.881   0.403  0.0264  0.7937 -0.3787
  196MPD1    C3 2981   3.915   0.857   0.532 -0.8595  0.7227  0.2193
  196MPD1    C4 2982   3.822   0.751   0.558 -0.2406 -0.0819 -0.1015
  196MPD1    C5 2983   3.771   0.678   0.460  0.4250  0.2252  0.6313
  196MPD1     H 2984   3.997   0.977   0.379  0.2721  0.3128 -1.8459
  196MPD1    H1 2985   3.793   0.740   0.662 -1.0918  1.8004 -0.1358
  196MPD1    H2 2986   3.755   0.644   0.255  1.9280 -2.5357  2.4595
  196MPD1    H3 2987   3.699   0.601   0.486 -0.8382  1.9186  2.1340
  196MPD1     N 2988   3.964   0.927   0.642 -0.4303 -0.0441  0.6007
  196MPD1    H5 2989   3.917   0.901   0.728 -1.1633 -0.6054  0.0313
  196MPD1    N1 2990   3.909   0.851   0.165 -0.2934 -0.5691 -0.3026
  196MPD1    H6 2991   3.909   0.773   0.099  0.1512  1.4880 -2.7422
  196MPD1    H7 2992   4.005   0.880   0.148  0.1161 -0.7868  1.7067
  197MPD1     C 2993   3.543   3.488   0.498  0.1752  0.5462  0.6768
  197MPD1    C1 2994   3.569   3.372   0.421  0.1891 -0.2838 -0.3124
  197MPD1    C2 2995   3.592   3.394   0.284  0.0501 -0.7739  0.1429
  197MPD1    C3 2996   3.572   3.519   0.228 -0.6344 -0.0534 -0.0528
  197MPD1    C4 2997   3.524   3.622   0.305  0.8089  0.4802  0.2546
  197MPD1    C5 2998   3.508   3.605   0.437 -0.8853  0.2469 -0.2751
  197MPD1     H 2999   3.623   3.313   0.219 -1.0080 -0.6350 -0.5411
  197MPD1    H1 3000   3.508   3.720   0.263 -1.9249 -1.2023 -2.6435
  197MPD1    H2 3001   3.537   3.480   0.606  1.5083 -1.9218  0.5536
  197MPD1    H3 3002   3.494   3.696   0.495  0.8460 -0.2767  0.9689
  197MPD1     N 3003   3.589   3.549   0.093  0.3007 -0.0059  0.2494
  197MPD1    H5 3004   3.567   3.646   0.071 -0.6323 -0.2563  0.0763
  197MPD1    N1 3005   3.598   3.246   0.486 -0.0710  0.1639  0.2687
  197MPD1    H6 3006   3.585   3.161   0.432 -1.7124  0.7334 -0.2301
  197MPD1    H7 3007   3.566   3.239   0.582 -0.4998  0.9636  0.1895
  198MPD1     C 3008   0.342   1.742  15.942 -0.2202  1.1333  0.2857
  198MPD1    C1 3009   0.375   1.875  15.968 -0.4635  0.1452 -0.2686
  198MPD1    C2 3010   0.499   1.924  15.919  0.1054 -0.2124  0.7711
  198MPD1    C3 3011   0.583   1.848  15.841 -0.7240 -0.2905 -0.3315
  198MPD1    C4 3012   0.546   1.717  15.811 -0.2465  0.0595  0.0021
  198MPD1    C5 3013   0.426   1.671  15.861  0.2294 -0.3877 -0.0326
  198MPD1     H 3014   0.529   2.024  15.945  0.5231  0.5161 -2.6134
  198MPD1    H1 3015   0.603   1.653  15.745 -3.3578 -3.7975  1.0618
  198MPD1    H2 3016   0.255   1.695  15.986  1.2859 -0.6961  1.2966
  198MPD1    H3 3017   0.396   1.572  15.832 -0.9413 -0.0646  0.0838
  198MPD1     N 3018   0.705   1.909  15.790  0.4831  0.1882 -0.2108
  198MPD1    H5 3019   0.731   2.002  15.820  0.4954 -0.4832  1.9053
  198MPD1    N1 3020   0.299   1.948  16.057 -0.1654 -0.0696  0.2517
  198MPD1    H6 3021   0.203   1.927  16.031 -0.2431  1.1379 -0.4169
  198MPD1    H7 3022   0.333   2.044  16.057 -0.6115  0.0858  0.2566
  199MPD1     C 3023   3.018   3.093  10.089 -0.5884  0.0513 -0.5615
  199MPD1    C1 3024   3.034   2.961  10.076 -0.1193  0.4564  0.2024
  199MPD1    C2 3025   2.924   2.890  10.025  0.2545  0.3589  0.4617
  199MPD1    C3 3026   2.806   2.955   9.989  0.0965  0.8837 -0.0129
  199MPD1    C4 3027   2.792   3.091  10.016  0.6063  0.7329 -0.3444
  199MPD1    C5 3028   2.898   3.163  10.070  0.5705  0.4636 -0.2307
  199MPD1     H 3029   2.934   2.785  10.002 -2.6217 -0.0237  0.9990
  199MPD1    H1 3030   2.692   3.133  10.011 -0.0744 -0.7863  0.5527
  199MPD1    H2 3031   3.102   3.145  10.134 -0.9920  0.0847  0.1632
  199MPD1    H3 3032   2.892   3.268  10.099  1.5984 -0.2622  2.6713
  199MPD1     N 3033   2.698   2.904   9.917  0.0039  0.2774  0.0542
  199MPD1    H5 3034   2.630   2.971   9.883  0.8500  1.2041  0.1755
  199MPD1    N1 3035   3.156   2.901  10.118  0.3830  0.0969  0.0913
  199MPD1    H6 3036   3.189   2.826  10.058  0.2581  0.4193 -0.3773
  199MPD1    H7 3037   3.233   2.968  10.110  0.6328 -0.4580 -2.0236
  200MPD1     C 3038   1.900   2.360  15.052 -0.0899 -0.9682  0.4078
  200MPD1    C1 3039   2.028   2.345  14.998  0.0250  0.0076 -0.2855
  200MPD1    C2 3040   2.041   2.320  14.863  1.0112 -0.1070  0.2842
  200MPD1    C3 3041   1.925   2.311  14.782 -0.2997 -0.6293 -0.4559
  200MPD1    C4 3042   1.805   2.346  14.831  0.4609 -0.6734 -0.2005
  200MPD1    C5 3043   1.789   2.366  14.967 -0.0832  0.2563 -0.0912
  200MPD1     H 3044   2.137   2.311  14.813  1.3628  2.2214  0.5435
  200MPD1    H1 3045   1.713   2.358  14.774  0.0945  0.0251  0.5288
  200MPD1    H2 3046   1.891   2.355  15.160 -0.3699  0.7994  0.4538
  200MPD1    H3 3047   1.693   2.356  15.017 -0.3640  0.2931 -0.6231
  200MPD1     N 3048   1.947   2.266  14.646 -0.1135 -0.3835  0.4981
  200MPD1    H5 3049   2.041   2.233  14.629 -0.7786 -1.1604 -1.7114
  200MPD1    N1 3050   2.132   2.317  15.088 -0.7009  0.1678 -0.1317
  200MPD1    H6 3051   2.224   2.330  15.047  0.7062 -3.1538  2.0238
  200MPD1    H7 3052   2.122   2.382  15.166 -2.2000 -0.4926  0.2150
  201MPD1     C 3053   3.377   1.874  13.018 -0.3110 -1.4286  0.5720
  201MPD1    C1 3054   3.316   1.769  12.955  0.4514 -0.0082  0.0637
  201MPD1    C2 3055   3.390   1.652  12.963 -0.1282 -0.2490 -0.6010
  201MPD1    C3 3056   3.489   1.620  13.052 -0.2721 -0.1354 -0.1630
  201MPD1    C4 3057   3.540   1.724  13.125 -0.0934 -0.0158  0.0581
  201MPD1    C5 3058   3.481   1.849  13.103  0.4507 -0.4594 -0.4801
  201MPD1     H 3059   3.355   1.566  12.908  0.3626 -0.2079 -0.9755
  201MPD1    H1 3060   3.618   1.715  13.199 -0.1779 -0.2513  0.1196
  201MPD1    H2 3061   3.352   1.976  12.994 -0.2643 -1.5562 -0.0164
  201MPD1    H3 3062   3.520   1.937  13.154  2.3668 -1.0772 -0.8923
  201MPD1     N 3063   3.529   1.485  13.058  0.3520  0.5104 -0.0294
  201MPD1    H5 3064   3.479   1.418  13.000  0.2702 -0.9219  1.6911
  201MPD1    N1 3065   3.210   1.781  12.867 -0.0157  0.0947  0.2547
  201MPD1    H6 3066   3.159   1.696  12.842 -0.9137  0.5402  0.5487
  201MPD1    H7 3067   3.155   1.867  12.866 -0.4742 -0.1883  1.7076
  202MPD1     C 3068   3.532   4.679   8.721  0.8542  0.1018 -0.0461
  202MPD1    C1 3069   3.411   0.008   8.751  0.5062  0.0587 -0.3638
  202MPD1    C2 3070   3.415   0.142   8.788 -0.0990 -0.7184 -0.3317
  202MPD1    C3 3071   3.526   0.210   8.824  0.5601 -0.0002  0.0161
  202MPD1    C4 3072   3.641   0.155   8.791  0.5042  0.3502 -0.1960
  202MPD1    C5 3073   3.645   0.028   8.743  0.7311  0.1260  0.1580
  202MPD1     H 3074   3.320   0.185   8.817  0.0390 -1.3657  1.0803
  202MPD1    H1 3075   3.733   0.210   8.807  0.7624 -0.5270  1.2113
  202MPD1    H2 3076   3.543   4.576   8.691  0.4771 -0.2281  0.9428
  202MPD1    H3 3077   3.741   4.700   8.730  0.3526 -0.3522 -0.8487
  202MPD1     N 3078   3.535   0.340   8.881  0.3907 -0.3727 -0.0592
  202MPD1    H5 3079   3.632   0.364   8.901  0.2556 -0.1922  0.3939
  202MPD1    N1 3080   3.302   4.670   8.683 -0.0963 -0.5495 -0.3042
  202MPD1    H6 3081   3.217   4.692   8.735  2.2542  1.9388  2.4679
  202MPD1    H7 3082   3.312   4.569   8.690  2.3590 -0.3620 -0.9672
  203MPD1     C 3083   1.319   1.260  12.430 -0.0180 -0.4606 -0.2100
  203MPD1    C1 3084   1.421   1.240  12.517 -0.4833  0.3509  0.0641
  203MPD1    C2 3085   1.501   1.130  12.492  0.9448 -0.6768 -0.3766
  203MPD1    C3 3086   1.517   1.073  12.361 -0.0395 -1.0100 -0.4230
  203MPD1    C4 3087   1.425   1.115  12.267 -0.5849  0.4448  0.0387
  203MPD1    C5 3088   1.322   1.198  12.307 -0.2995 -0.4707 -0.4343
  203MPD1     H 3089   1.569   1.088  12.565  0.5574  1.9422  1.4963
  203MPD1    H1 3090   1.438   1.101  12.160 -1.3335 -1.0929  0.1475
  203MPD1    H2 3091   1.229   1.318  12.450 -0.2635 -2.1522  3.5199
  203MPD1    H3 3092   1.245   1.223  12.235  0.1968 -0.2559 -0.8924
  203MPD1     N 3093   1.623   0.993  12.332  0.1621  0.3146 -0.1738
  203MPD1    H5 3094   1.686   0.981  12.411 -1.9943  0.0003  1.4977
  203MPD1    N1 3095   1.424   1.291  12.643 -0.8008 -0.2176 -0.5624
  203MPD1    H6 3096   1.387   1.386  12.641  1.0065  0.5258  2.2038
  203MPD1    H7 3097   1.521   1.296  12.672 -1.4458  0.4957  1.5051
  204MPD1     C 3098   2.180   2.245  17.512  0.3250 -0.3934  0.4619
  204MPD1    C1 3099   2.274   2.334  17.469  0.2528 -0.5708 -0.1665
  204MPD1    C2 3100   2.332   2.298  17.350 -0.3253  0.1490 -0.3179
  204MPD1    C3 3101   2.324   2.181  17.286  0.1620  0.1277  0.1846
  204MPD1    C4 3102   2.244   2.089  17.349 -0.2815 -0.3848  0.6108
  204MPD1    C5 3103   2.166   2.124  17.458 -0.4861 -0.1154  0.0154
  204MPD1     H 3104   2.405   2.365  17.307 -1.6473  1.4912 -0.4974
  204MPD1    H1 3105   2.231   1.988  17.313  0.5899 -0.7929  1.4440
  204MPD1    H2 3106   2.115   2.276  17.594  0.8214 -0.4637  0.8840
  204MPD1    H3 3107   2.079   2.071  17.494  0.0385  0.8224  2.6056
  204MPD1     N 3108   2.404   2.167  17.174 -0.0241  0.6094  0.9770
  204MPD1    H5 3109   2.471   2.240  17.153 -0.2981  0.8987  1.1162
  204MPD1    N1 3110   2.283   2.470  17.516  0.5948 -0.1289  0.3093
  204MPD1    H6 3111   2.376   2.510  17.501  0.7946 -0.9560 -0.6280
  204MPD1    H7 3112   2.259   2.487  17.614  1.9154 -0.3399  0.6660
  205MPD1     C 3113   3.668   1.080  16.497  0.0713  0.6880  0.0428
  205MPD1    C1 3114   3.597   1.198  16.493  0.4971  0.8551 -0.3013
  205MPD1    C2 3115   3.462   1.187  16.472  0.2460  0.4999  0.0941
  205MPD1    C3 3116   3.393   1.070  16.497 -0.1020  0.9990  0.1496
  205MPD1    C4 3117   3.471   0.956  16.525 -0.2839  0.1322 -0.5966
  205MPD1    C5 3118   3.603   0.957  16.514  0.6183  0.1628  0.8228
  205MPD1     H 3119   3.409   1.278  16.446 -0.0647  0.5788  0.9983
  205MPD1    H1 3120   3.411   0.871  16.555 -0.8494  0.6652 -0.2160
  205MPD1    H2 3121   3.776   1.074  16.502 -0.0127 -0.3900  0.5420
  205MPD1    H3 3122   3.660   0.866  16.528  0.3000 -0.2649 -0.6825
  205MPD1     N 3123   3.254   1.059  16.499 -0.5118 -0.3936 -0.0808
  205MPD1    H5 3124   3.218   0.970  16.532 -0.6775 -0.2975 -0.0071
  205MPD1    N1 3125   3.661   1.317  16.457  0.4873  0.3012 -0.2527
  205MPD1    H6 3126   3.748   1.326  16.509 -0.7707  0.1145  1.8786
  205MPD1    H7 3127   3.598   1.395  16.471 -0.8413 -0.1414 -3.6804
  206MPD1     C 3128   2.831   0.292  16.395  0.1817  1.0052 -0.1015
  206MPD1    C1 3129   2.877   0.168  16.355 -0.6819 -0.5520 -0.1523
  206MPD1    C2 3130   2.813   0.093  16.259 -0.0635  0.1699  0.2071
  206MPD1    C3 3131   2.711   0.155  16.190 -0.1690  0.3623 -0.1926
  206MPD1    C4 3132   2.674   0.288  16.222  0.0562 -0.6918  0.0098
  206MPD1    C5 3133   2.728   0.349  16.332 -0.0227 -0.2153  0.3510
  206MPD1     H 3134   2.864   0.005  16.222 -0.1429  0.8476 -1.4724
  206MPD1    H1 3135   2.586   0.338  16.183  0.2595 -0.5278 -0.2412
  206MPD1    H2 3136   2.865   0.347  16.481 -1.8991  0.0827  1.3136
  206MPD1    H3 3137   2.700   0.452  16.351  0.6582  0.3162 -1.5097
  206MPD1     N 3138   2.645   0.112  16.066 -0.3781 -0.1986 -0.1358
  206MPD1    H5 3139   2.586   0.177  16.015  1.9283  0.3407 -2.1316
  206MPD1    N1 3140   2.975   0.103  16.435 -0.0763 -0.3650  0.1988
  206MPD1    H6 3141   3.046   0.165  16.472 -0.6849  0.1487  0.4933
  206MPD1    H7 3142   3.024   0.033  16.379  0.8706 -1.1252  1.9612
  207MPD1     C 3143   3.802   1.723   9.183 -0.5922  0.3956 -0.1658
  207MPD1    C1 3144   3.840   1.592   9.172  0.5043 -0.4562 -0.0731
  207MPD1    C2 3145   3.965   1.554   9.222  0.0927 -0.2172  0.5025
  207MPD1    C3 3146   4.046   1.645   9.293 -0.7188  0.5817  0.3187
  207MPD1    C4 3147   3.998   1.773   9.311 -0.2663 -0.0809 -0.1035
  207MPD1    C5 3148   3.881   1.809   9.255  0.3203  0.0226  0.6130
  207MPD1     H 3149   3.996   1.450   9.219 -1.1040 -0.5365 -1.3880
  207MPD1    H1 3150   4.059   1.852   9.354 -0.0395  0.7771 -1.9932
  207MPD1    H2 3151   3.712   1.764   9.138  0.6301  2.2189 -0.9815
  207MPD1    H3 3152   3.852   1.914   9.263  0.7966  0.1774  0.2945
  207MPD1     N 3153   4.172   1.618   9.349 -0.3764  0.4551  0.6610
  207MPD1    H5 3154   4.204   1.686   9.416 -1.7574  2.1782 -0.4418
  207MPD1    N1 3155   3.768   1.504   9.085  0.0935  0.5837  0.3576
  207MPD1    H6 3156   3.669   1.527   9.089  0.0682  0.4336  0.6418
  207MPD1    H7 3157   3.781   1.407   9.114  0.7678  0.5543 -0.0473
  208MPD1     C 3158   3.772   1.641   0.137  0.8455 -0.1416  0.2166
  208MPD1    C1 3159   3.807   1.535   0.209 -0.5139 -0.5915 -0.0300
  208MPD1    C2 3160   3.788   1.408   0.161 -0.8204  0.4418  0.3033
  208MPD1    C3 3161   3.731   1.389   0.034  0.3967  0.3119  0.5376
  208MPD1    C4 3162   3.684   1.501  17.656  0.5109  0.8127 -0.3921
  208MPD1    C5 3163   3.713   1.628   0.009  0.8540 -0.3191 -0.3154
  208MPD1     H 3164   3.808   1.320   0.223  0.9983 -1.4670 -3.0091
  208MPD1    H1 3165   3.617   1.488  17.573 -0.7400  1.6421  0.4804
  208MPD1    H2 3166   3.797   1.736   0.182  0.5920  0.2807 -0.5255
  208MPD1    H3 3167   3.670   1.714  17.645  0.8909 -0.8363 -1.2494
  208MPD1     N 3168   3.684   1.257  17.684 -0.1796  0.0603 -0.2669
  208MPD1    H5 3169   3.691   1.189   0.073  0.4009  1.1057  0.6312
  208MPD1    N1 3170   3.831   1.553   0.345  0.3790 -0.0694  0.0681
  208MPD1    H6 3171   3.853   1.646   0.380  0.9286  0.1429 -0.8425
  208MPD1    H7 3172   3.891   1.487   0.394  1.6070  0.4967 -0.6773
  209MPD1     C 3173   4.395   0.285  10.278 -0.0257  0.4717 -0.2490
  209MPD1    C1 3174   4.364   0.395  10.207 -0.2152  0.0007 -0.1247
  209MPD1    C2 3175   4.438   0.513  10.234  0.5540  0.4800  0.4530
  209MPD1    C3 3176   4.537   0.520  10.328  0.3124  0.7951  0.3047
  209MPD1    C4 3177   4.572   0.400  10.395  0.5745 -0.0262 -0.1103
  209MPD1    C5 3178   4.498   0.288  10.363  0.2392 -0.0020 -0.9740
  209MPD1     H 3179   4.429   0.600  10.170 -2.5722 -0.6959 -0.6814
  209MPD1    H1 3180   4.657   0.396  10.462  0.7277 -0.8996 -0.3595
  209MPD1    H2 3181   4.348   0.187  10.266 -0.1517  0.4326  0.5284
  209MPD1    H3 3182   4.523   0.194  10.411  0.9037  0.3903 -0.5390
  209MPD1     N 3183   4.604   0.645  10.344  0.1515 -0.5152 -0.1671
  209MPD1    H5 3184   4.572   0.717  10.280  0.8661  1.0864  1.2689
  209MPD1    N1 3185   4.281   0.400  10.101 -0.3468 -0.6136  0.2470
  209MPD1    H6 3186   4.253   0.494  10.074 -0.2319 -1.1132 -1.6259
  209MPD1    H7 3187   4.200   0.339  10.100 -0.5959 -0.2716 -0.4067
  210MPD1     C 3188   0.118   1.292  11.068  0.5564  0.5482 -0.8074
  210MPD1    C1 3189   0.198   1.335  10.966  0.2498 -0.1661 -0.9139
  210MPD1    C2 3190   0.182   1.273  10.842 -0.7306 -0.2555  0.4817
  210MPD1    C3 3191   0.117   1.154  10.834  0.1290  0.9099 -0.4437
  210MPD1    C4 3192   0.062   1.103  10.947  0.1611 -0.0706 -0.3180
  210MPD1    C5 3193   0.058   1.171  11.056 -0.4611 -0.0116 -0.5501
  210MPD1     H 3194   0.220   1.321  10.753 -2.5265  0.5373  0.1538
  210MPD1    H1 3195   0.026   1.001  10.949  0.7113 -0.2649 -0.2325
  210MPD1    H2 3196   0.100   1.356  11.154  1.4952  2.8295 -2.3300
  210MPD1    H3 3197   0.013   1.124  11.142  2.3240 -0.6335  0.5676
  210MPD1     N 3198   0.110   1.079  10.712  0.5506 -0.1457 -0.2337
  210MPD1    H5 3199   0.049   0.998  10.717  0.2570  0.0377 -0.7504
  210MPD1    N1 3200   0.259   1.463  10.989  0.1837 -0.4602 -0.1614
  210MPD1    H6 3201   0.340   1.475  10.928  1.6085 -0.9134  1.6520
  210MPD1    H7 3202   0.288   1.466  11.086  0.7815  2.5946 -0.4314
  211MPD1     C 3203   3.572   2.137  16.842  0.0374  0.0845 -0.1100
  211MPD1    C1 3204   3.465   2.077  16.903 -0.8667  0.4793  0.1933
  211MPD1    C2 3205   3.343   2.076  16.839  0.2819  0.3659 -0.2347
  211MPD1    C3 3206   3.331   2.117  16.707  0.0301 -0.3022 -0.0408
  211MPD1    C4 3207   3.442   2.173  16.645  0.7636  0.4371 -0.5188
  211MPD1    C5 3208   3.564   2.179  16.713 -0.4672 -0.2807  0.1760
  211MPD1     H 3209   3.263   2.018  16.883 -0.3644  0.7351 -0.9356
  211MPD1    H1 3210   3.439   2.219  16.547  3.0125 -0.6093 -1.0851
  211MPD1    H2 3211   3.667   2.143  16.893  0.3150  1.9450 -0.8512
  211MPD1    H3 3212   3.644   2.220  16.653  1.8512 -1.1147  2.7129
  211MPD1     N 3213   3.213   2.111  16.643 -0.2575  0.7261  0.0976
  211MPD1    H5 3214   3.134   2.077  16.697  0.8080  0.0760  1.2313
  211MPD1    N1 3215   3.475   2.044  17.038  0.1763 -0.8605 -0.6308
  211MPD1    H6 3216   3.564   2.005  17.070  0.8229 -0.9912 -2.6074
  211MPD1    H7 3217   3.395   1.987  17.062  0.6923 -1.5952 -0.6498
  212MPD1     C 3218   2.443   0.118  16.431  0.1185  0.4288 -0.1873
  212MPD1    C1 3219   2.481   0.150  16.560 -0.4531  0.5829 -0.1483
  212MPD1    C2 3220   2.423   0.082  16.668  0.6421 -1.1742  0.7682
  212MPD1    C3 3221   2.341   4.696  16.645 -0.4151 -0.3840 -0.6060
  212MPD1    C4 3222   2.317   4.662  16.513 -0.8428 -0.1318  0.1461
  212MPD1    C5 3223   2.364   0.008  16.405 -0.4138  0.6738 -0.4166
  212MPD1     H 3224   2.448   0.113  16.769  2.5126 -0.9511  0.2389
  212MPD1    H1 3225   2.241   4.590  16.486 -1.1809  0.3271 -0.1212
  212MPD1    H2 3226   2.485   0.173  16.348  0.6499  1.4884  0.7748
  212MPD1    H3 3227   2.341   4.697  16.304 -0.6860 -0.4927  0.0052
  212MPD1     N 3228   2.287   4.623  16.752 -0.1029 -0.1110  0.2094
  212MPD1    H5 3229   2.227   4.544  16.732  3.2130 -2.8470  1.0063
  212MPD1    N1 3230   2.557   0.264  16.585  0.0291 -0.2311  0.2939
  212MPD1    H6 3231   2.593   0.248  16.679  1.3201 -0.1188 -0.1778
  212MPD1    H7 3232   2.632   0.270  16.517 -0.9232 -0.4465 -0.7787
  213MPD1     C 3233   4.569   0.823  15.822 -0.3768  0.0384 -0.2434
  213MPD1    C1 3234   4.649   0.704  15.822 -0.2301  0.0505 -0.0804
  213MPD1    C2 3235   4.707   0.691  15.698  0.0032 -0.1353 -0.0327
  213MPD1    C3 3236   0.012   0.794  15.605  0.1712 -0.9088 -0.1137
  213MPD1    C4 3237   4.679   0.915  15.633 -0.7372  0.4067 -0.8278
  213MPD1    C5 3238   4.599   0.933  15.744  0.0909 -0.1870  0.3030
  213MPD1     H 3239   0.030   0.593  15.679  0.4353 -0.0578  0.5478
  213MPD1    H1 3240   4.692   1.004  15.572  1.4791  0.8894  0.3693
  213MPD1    H2 3241   4.503   0.842  15.906 -0.6562  1.1880 -0.7234
  213MPD1    H3 3242   4.542   1.025  15.748  1.8299  0.8226  2.1738
  213MPD1     N 3243   0.091   0.766  15.492  0.6537  0.3059 -0.6515
  213MPD1    H5 3244   0.110   0.669  15.470 -0.2292  0.5730 -2.6186
  213MPD1    N1 3245   4.616   0.591  15.893  0.1335 -0.3235 -0.6307
  213MPD1    H6 3246   4.689   0.521  15.886  1.0170  0.5500 -0.1156
  213MPD1    H7 3247   4.622   0.624  15.989  1.1766  0.4783 -0.9759
  214MPD1     C 3248   0.059   0.232  14.664 -0.4546  0.2556  0.1049
  214MPD1    C1 3249   4.690   0.315  14.735  0.4329 -0.0041 -0.3918
  214MPD1    C2 3250   0.024   0.393  14.833  0.3588  0.4429 -0.1477
  214MPD1    C3 3251   0.159   0.402  14.859  0.3359 -0.2627 -0.3615
  214MPD1    C4 3252   0.249   0.326  14.774  0.0576  0.3822 -0.0739
  214MPD1    C5 3253   0.193   0.240  14.680  0.1843 -0.1552 -0.5107
  214MPD1     H 3254   4.675   0.460  14.882  0.6197  0.1194  0.6669
  214MPD1    H1 3255   0.357   0.335  14.774  0.2043 -1.2725  1.5131
  214MPD1    H2 3256   0.015   0.172  14.585  1.4269  0.0619 -0.7807
  214MPD1    H3 3257   0.265   0.198  14.611  0.0695  1.3881 -1.5873
  214MPD1     N 3258   0.213   0.491  14.952 -0.2362  0.2249  0.1221
  214MPD1    H5 3259   0.314   0.497  14.951 -0.2857  0.7178 -1.5310
  214MPD1    N1 3260   4.553   0.303  14.716 -0.3090  0.2130 -0.3459
  214MPD1    H6 3261   4.503   0.369  14.775  0.2267 -0.8702  1.3337
  214MPD1    H7 3262   4.522   0.213  14.752  1.5652 -1.4841 -2.9378
  215MPD1     C 3263   3.745   1.774  10.800  0.1133  0.2443  0.7372
  215MPD1    C1 3264   3.860   1.786  10.722 -0.3858  1.1895  0.4744
  215MPD1    C2 3265   3.982   1.789  10.784 -0.0757 -0.1625  0.8270
  215MPD1    C3 3266   3.989   1.777  10.926  0.0488  0.4097  0.5243
  215MPD1    C4 3267   3.875   1.755  10.998 -0.0724  0.0636 -0.1112
  215MPD1    C5 3268   3.750   1.751  10.933  0.4184 -0.4415 -0.0968
  215MPD1     H 3269   4.064   1.811  10.716 -2.0540  2.4789 -0.6539
  215MPD1    H1 3270   3.866   1.743  11.106 -0.8306 -0.8953 -0.2831
  215MPD1    H2 3271   3.642   1.773  10.764  0.6737 -0.3174 -0.8870
  215MPD1    H3 3272   3.664   1.735  10.998  0.5456  2.3749  0.7560
  215MPD1     N 3273   4.117   1.781  10.992  0.1531 -0.2598  0.6640
  215MPD1    H5 3274   4.192   1.803  10.928  0.2412 -0.0958  0.8214
  215MPD1    N1 3275   3.844   1.794  10.581 -0.6666 -0.5494 -0.2086
  215MPD1    H6 3276   3.797   1.708  10.555 -1.8999 -0.5012  1.8503
  215MPD1    H7 3277   3.933   1.789  10.532 -1.0452  0.3823 -0.9969
  216MPD1     C 3278   2.736   2.471  17.026 -0.2300  0.2161  0.5876
  216MPD1    C1 3279   2.657   2.462  17.136 -0.0570 -0.2584 -0.1219
  216MPD1    C2 3280   2.567   2.565  17.156  0.3765 -0.7977  0.2999
  216MPD1    C3 3281   2.563   2.677  17.082 -0.4050  0.4064 -1.2265
  216MPD1    C4 3282   2.646   2.691  16.967  0.0925  0.5704 -0.4701
  216MPD1    C5 3283   2.736   2.585  16.948 -0.2852 -0.1579 -0.3474
  216MPD1     H 3284   2.494   2.575  17.236 -0.9549 -2.7139 -0.6840
  216MPD1    H1 3285   2.649   2.781  16.907 -0.1164  0.3255 -0.8436
  216MPD1    H2 3286   2.807   2.397  16.991  0.7997  1.1404  0.7374
  216MPD1    H3 3287   2.802   2.586  16.862  1.0056 -1.2986  0.6416
  216MPD1     N 3288   2.464   2.773  17.113  0.1482 -0.1595  0.5818
  216MPD1    H5 3289   2.401   2.743  17.187  0.9160 -0.4698  1.1110
  216MPD1    N1 3290   2.649   2.333  17.189  0.2297  0.3372 -0.1019
  216MPD1    H6 3291   2.742   2.292  17.185 -0.7962 -1.9671 -0.1334
  216MPD1    H7 3292   2.628   2.323  17.289 -2.1651 -1.5000 -0.8031
  217MPD1     C 3293   1.584   0.565   9.008 -0.0715 -0.1690  0.1212
  217MPD1    C1 3294   1.711   0.528   8.968 -0.0951 -0.2283 -0.3703
  217MPD1    C2 3295   1.813   0.622   8.965  0.7832  0.2607 -0.2900
  217MPD1    C3 3296   1.787   0.757   8.992  0.2258  0.1459 -0.0922
  217MPD1    C4 3297   1.655   0.792   9.007  0.0526 -0.2639  0.0952
  217MPD1    C5 3298   1.555   0.696   9.015  0.3330  0.8188  0.0336
  217MPD1     H 3299   1.911   0.582   8.943  1.4137  2.3925 -1.3893
  217MPD1    H1 3300   1.625   0.894   9.026 -0.0250 -0.0852 -0.9601
  217MPD1    H2 3301   1.497   0.500   9.010  0.0395 -0.3004  0.6954
  217MPD1    H3 3302   1.453   0.721   9.041  0.2835  2.1761 -1.4532
  217MPD1     N 3303   1.888   0.862   9.011  0.2720 -0.5337 -0.7935
  217MPD1    H5 3304   1.854   0.953   9.040 -1.0303 -2.1501  2.7946
  217MPD1    N1 3305   1.739   0.392   8.952 -0.0320  0.2988 -0.2946
  217MPD1    H6 3306   1.665   0.349   8.898 -0.7760  0.3455  0.6919
  217MPD1    H7 3307   1.826   0.368   8.905  0.4506  1.1446  0.1524
  218MPD1     C 3308   3.667   1.108  12.704 -0.3590 -0.2625  0.2596
  218MPD1    C1 3309   3.767   1.035  12.753  0.6073 -0.5019  0.5605
  218MPD1    C2 3310   3.886   1.100  12.769  0.2302 -0.1180  0.0485
  218MPD1    C3 3311   3.899   1.233  12.749 -0.0317 -0.1677 -0.5318
  218MPD1    C4 3312   3.790   1.310  12.721  0.8049 -0.0148 -0.4661
  218MPD1    C5 3313   3.672   1.243  12.701 -0.1564 -0.0386 -0.2060
  218MPD1     H 3314   3.975   1.041  12.787 -1.8937 -2.4176  3.0591
  218MPD1    H1 3315   3.784   1.418  12.728 -0.5577 -0.3262  3.3447
  218MPD1    H2 3316   3.568   1.067  12.689  0.0372 -0.6458 -1.2748
  218MPD1    H3 3317   3.579   1.298  12.688 -0.8254 -0.8913  1.0370
  218MPD1     N 3318   4.030   1.296  12.766 -0.3878 -0.4255  0.3488
  218MPD1    H5 3319   4.105   1.230  12.782 -0.0224  0.1045  0.8229
  218MPD1    N1 3320   3.760   0.893  12.761  0.4176 -0.2193 -0.0093
  218MPD1    H6 3321   3.667   0.853  12.775  0.9521 -1.0097  1.3665
  218MPD1    H7 3322   3.808   0.846  12.838  0.8327  0.8467  0.3715
  219MPD1     C 3323   0.108   1.761  12.217 -0.5811 -0.0341 -0.2024
  219MPD1    C1 3324   4.713   1.692  12.187 -0.4738 -0.2316 -0.1091
  219MPD1    C2 3325   4.623   1.664  12.290 -0.2141 -0.7776 -0.1197
  219MPD1    C3 3326   4.655   1.686  12.420  0.2040 -0.0640  0.4184
  219MPD1    C4 3327   0.049   1.756  12.447 -0.6593 -0.4475  0.0957
  219MPD1    C5 3328   0.138   1.793  12.345  0.4252 -0.0363  0.2013
  219MPD1     H 3329   4.535   1.607  12.265  0.3164 -1.2893 -0.7960
  219MPD1    H1 3330   0.070   1.787  12.549  0.2326  3.2333 -1.2068
  219MPD1    H2 3331   0.192   1.787  12.154  0.9101 -0.2553  1.6987
  219MPD1    H3 3332   0.229   1.845  12.372 -0.5630  1.0406  1.4864
  219MPD1     N 3333   4.570   1.651  12.531  1.0678 -0.3531 -0.1554
  219MPD1    H5 3334   4.607   1.662  12.625 -0.0836 -4.3983  0.7931
  219MPD1    N1 3335   4.671   1.672  12.052 -0.0183  0.3414  0.4768
  219MPD1    H6 3336   0.026   1.643  11.990  1.6565 -2.4316  3.7966
  219MPD1    H7 3337   4.605   1.595  12.041  0.3288  0.0551  0.4090
  220MPD1     C 3338   4.665   2.603   9.618 -0.0568 -0.0243 -0.1726
  220MPD1    C1 3339   0.023   2.594   9.727  0.2339  0.1452  0.4057
  220MPD1    C2 3340   4.706   2.499   9.820 -0.2601 -0.4199  0.1415
  220MPD1    C3 3341   4.609   2.404   9.790  0.3197 -0.2452  0.0141
  220MPD1    C4 3342   4.541   2.418   9.670  0.1810  0.2006 -0.2516
  220MPD1    C5 3343   4.562   2.519   9.586  0.2217 -0.5821  0.2235
  220MPD1     H 3344   0.040   2.484   9.913  1.2136  0.3035 -0.6139
  220MPD1    H1 3345   4.463   2.345   9.654 -1.9092  1.6265  3.4605
  220MPD1    H2 3346   4.688   2.684   9.550 -1.1648  0.5866  0.1701
  220MPD1    H3 3347   4.504   2.537   9.496  1.3367  0.6043 -0.2563
  220MPD1     N 3348   4.593   2.296   9.881 -0.6839 -0.8416 -0.4955
  220MPD1    H5 3349   4.665   2.285   9.952 -0.4415  1.3188 -0.3891
  220MPD1    N1 3350   0.106   2.701   9.767  0.0131  0.6500 -0.1116
  220MPD1    H6 3351   0.135   2.758   9.687 -0.0367  0.5388 -0.2093
  220MPD1    H7 3352   0.184   2.683   9.829 -1.4057  0.2477  1.5724
  221MPD1     C 3353   3.666   0.299  16.614  0.6925 -0.2609 -0.6329
  221MPD1    C1 3354   3.668   0.277  16.479  0.0591  0.4896  0.3195
  221MPD1    C2 3355   3.554   0.268  16.410 -0.3463 -0.1927 -0.3063
  221MPD1    C3 3356   3.428   0.292  16.472 -0.2703 -0.2609 -0.1064
  221MPD1    C4 3357   3.427   0.321  16.607 -0.2243 -0.3097 -0.6007
  221MPD1    C5 3358   3.547   0.326  16.676  0.2626  0.1392  0.8500
  221MPD1     H 3359   3.563   0.257  16.303  0.1593  3.8632 -0.6850
  221MPD1    H1 3360   3.339   0.340  16.668 -0.1303 -0.1509 -0.5137
  221MPD1    H2 3361   3.757   0.313  16.670 -0.5008  2.4337  0.6237
  221MPD1    H3 3362   3.565   0.343  16.782  1.7111 -1.4153  0.8613
  221MPD1     N 3363   3.304   0.303  16.406  0.0609 -0.2441 -0.0572
  221MPD1    H5 3364   3.220   0.332  16.456 -0.1644 -2.2824  0.7485
  221MPD1    N1 3365   3.795   0.283  16.416 -0.6088 -0.0692 -0.3869
  221MPD1    H6 3366   3.868   0.237  16.471 -1.5148  0.5363  1.3158
  221MPD1    H7 3367   3.790   0.233  16.328  0.8152  1.6844 -1.4576
  222MPD1     C 3368   1.805   4.264   0.743  0.0860  0.6239 -0.2301
  222MPD1    C1 3369   1.731   4.177   0.664 -0.9979 -0.6872 -1.2941
  222MPD1    C2 3370   1.765   4.173   0.530 -0.2463  0.7185 -0.0781
  222MPD1    C3 3371   1.864   4.262   0.476  1.1314 -0.6119 -0.2287
  222MPD1    C4 3372   1.916   4.350   0.561  0.3707  0.4341 -0.8762
  222MPD1    C5 3373   1.896   4.348   0.697  0.8131 -0.6717 -0.8952
  222MPD1     H 3374   1.721   4.095   0.468 -0.1577  0.8823 -0.3457
  222MPD1    H1 3375   2.001   4.409   0.528 -0.2698  2.0953  0.4582
  222MPD1    H2 3376   1.792   4.258   0.850 -3.7746  2.9316 -0.5756
  222MPD1    H3 3377   1.954   4.411   0.764 -1.2144  0.0482  0.1803
  222MPD1     N 3378   1.904   4.274   0.343  0.2620 -0.4789 -0.0632
  222MPD1    H5 3379   1.966   4.352   0.322  1.3204 -1.2851  0.1300
  222MPD1    N1 3380   1.638   4.089   0.728  0.4606 -0.2263  0.1880
  222MPD1    H6 3381   1.590   4.129   0.808 -1.1576 -1.1676 -0.3288
  222MPD1    H7 3382   1.563   4.047   0.674  0.0209  0.5917  0.1670
  223MPD1     C 3383   2.006   3.686  17.231  0.2569  0.1590 -0.1241
  223MPD1    C1 3384   1.926   3.670  17.338 -0.7664  0.3785  0.8366
  223MPD1    C2 3385   1.902   3.780  17.414 -0.1416  0.0609 -0.0040
  223MPD1    C3 3386   1.968   3.899  17.385 -1.0262 -0.1720  0.6846
  223MPD1    C4 3387   2.067   3.905  17.290  0.3927 -0.5720  0.3470
  223MPD1    C5 3388   2.074   3.800  17.206  0.3496  0.3003  0.3736
  223MPD1     H 3389   1.836   3.768  17.499 -0.8538  0.6624 -0.4679
  223MPD1    H1 3390   2.125   3.994  17.272  0.7843 -1.7122 -4.1216
  223MPD1    H2 3391   2.015   3.600  17.166  1.1473  0.8276 -0.8836
  223MPD1    H3 3392   2.135   3.796  17.117 -0.2152 -0.9791  0.0458
  223MPD1     N 3393   1.935   4.010  17.468  0.0707  0.4317  0.5279
  223MPD1    H5 3394   1.861   4.006  17.537 -1.0647  0.2070 -0.7064
  223MPD1    N1 3395   1.895   3.542  17.387 -0.5464  0.2993 -0.1524
  223MPD1    H6 3396   1.805   3.542  17.435 -0.4504  2.5604  0.0168
  223MPD1    H7 3397   1.886   3.472  17.314  0.3795 -0.4706  0.4683
  224MPD1     C 3398   3.687   2.131   9.083 -0.2124  0.1648 -0.4746
  224MPD1    C1 3399   3.691   2.130   9.219  0.8560 -0.1561  0.0373
  224MPD1    C2 3400   3.605   2.046   9.286 -0.8017 -0.1245 -0.2148
  224MPD1    C3 3401   3.505   1.976   9.222  0.6434  0.4215  0.4803
  224MPD1    C4 3402   3.494   1.991   9.090  0.2093 -0.8117 -0.3681
  224MPD1    C5 3403   3.583   2.066   9.017 -0.1465 -0.5296  0.6496
  224MPD1     H 3404   3.600   2.039   9.394  3.1592 -0.3674 -0.0528
  224MPD1    H1 3405   3.416   1.949   9.028 -2.2778  1.0267  1.4993
  224MPD1    H2 3406   3.754   2.197   9.029 -0.0367  0.0837 -0.3576
  224MPD1    H3 3407   3.568   2.074   8.910 -3.0576  0.4019  1.1290
  224MPD1     N 3408   3.405   1.899   9.287  0.5663 -0.3599  0.1456
  224MPD1    H5 3409   3.337   1.863   9.222  1.1381  0.8067 -1.0918
  224MPD1    N1 3410   3.786   2.206   9.283 -0.8911  0.1301  0.1687
  224MPD1    H6 3411   3.783   2.212   9.385 -2.4912 -2.1440  0.2606
  224MPD1    H7 3412   3.876   2.174   9.249 -0.6986  0.6049  0.2284
  225MPD1     C 3413   3.829   1.896  13.037  0.0526 -0.4913 -0.1365
  225MPD1    C1 3414   3.838   1.786  12.955  0.2362  0.0153 -0.2123
  225MPD1    C2 3415   3.810   1.806  12.824 -0.0696  0.5021  0.1046
  225MPD1    C3 3416   3.762   1.928  12.779 -0.6028  0.1024 -0.0207
  225MPD1    C4 3417   3.760   2.033  12.859 -0.5905 -0.0562 -0.2182
  225MPD1    C5 3418   3.794   2.016  12.988 -0.3634 -0.9893 -0.2817
  225MPD1     H 3419   3.838   1.734  12.748  0.6081  0.0485  0.7812
  225MPD1    H1 3420   3.733   2.133  12.829 -2.5455 -0.1833  1.1125
  225MPD1    H2 3421   3.872   1.882  13.136  0.5249 -0.5492 -0.3525
  225MPD1    H3 3422   3.802   2.099  13.058 -0.1491  0.3244 -1.8496
  225MPD1     N 3423   3.744   1.956  12.639 -0.6676 -0.0310 -0.6020
  225MPD1    H5 3424   3.703   2.046  12.617 -2.7527 -0.6768  0.6351
  225MPD1    N1 3425   3.892   1.660  12.982 -0.1567 -0.0223 -0.6386
  225MPD1    H6 3426   3.884   1.590  12.908  1.9138 -0.9452  0.0003
  225MPD1    H7 3427   3.841   1.609  13.053  0.2570  1.5958  0.8175
  226MPD1     C 3428   2.771   2.536   9.011 -0.5125 -0.3335  0.2917
  226MPD1    C1 3429   2.795   2.661   9.061  0.2031 -0.4336  0.0133
  226MPD1    C2 3430   2.900   2.689   9.138 -0.6156  0.2052 -0.6862
  226MPD1    C3 3431   2.990   2.595   9.180  0.1819 -0.0536  0.3045
  226MPD1    C4 3432   2.979   2.466   9.123  0.0496 -0.3982  0.6281
  226MPD1    C5 3433   2.862   2.434   9.047 -0.5924 -0.3053 -0.0861
  226MPD1     H 3434   2.911   2.787   9.181  2.7508 -0.5850  0.3168
  226MPD1    H1 3435   3.039   2.387   9.166 -0.7941 -0.6967  1.2688
  226MPD1    H2 3436   2.680   2.515   8.957  0.5433 -2.8790 -0.5020
  226MPD1    H3 3437   2.844   2.330   9.025  3.4346 -0.7679 -0.9868
  226MPD1     N 3438   3.081   2.623   9.283 -0.2142  0.7701 -0.2792
  226MPD1    H5 3439   3.061   2.708   9.335 -2.4512  0.8682 -1.3059
  226MPD1    N1 3440   2.715   2.773   9.015 -0.8435  0.0384  0.2795
  226MPD1    H6 3441   2.619   2.742   9.003 -1.1180  1.0976 -0.2406
  226MPD1    H7 3442   2.724   2.859   9.068  0.6313 -0.1624  0.3536
  227MPD1     C 3443   3.275   3.269   9.971  0.0469 -0.1873  0.0880
  227MPD1    C1 3444   3.354   3.169  10.025  0.0285 -0.2543  0.6996
  227MPD1    C2 3445   3.388   3.062   9.945  0.3212 -0.1679  0.7034
  227MPD1    C3 3446   3.341   3.054   9.817  0.4971 -0.0645 -0.5498
  227MPD1    C4 3447   3.259   3.154   9.765  0.0572  0.8302  0.4476
  227MPD1    C5 3448   3.235   3.266   9.837  0.0319 -0.0870 -0.0579
  227MPD1     H 3449   3.446   2.975   9.973 -0.4579 -1.2851 -1.1318
  227MPD1    H1 3450   3.218   3.166   9.665 -1.7845  3.4854  1.5091
  227MPD1    H2 3451   3.252   3.365  10.014  0.7248  1.1141 -2.4080
  227MPD1    H3 3452   3.181   3.344   9.784 -0.1453  0.6087  1.1420
  227MPD1     N 3453   3.366   2.936   9.739 -0.2213 -1.0888 -0.2429
  227MPD1    H5 3454   3.417   2.856   9.774  1.9833  0.1769 -0.5788
  227MPD1    N1 3455   3.413   3.186  10.150 -0.2319  0.2593  0.1924
  227MPD1    H6 3456   3.358   3.244  10.213 -0.1740  0.7136 -0.1764
  227MPD1    H7 3457   3.439   3.102  10.201  0.1771 -0.8870 -1.9110
  228MPD1     C 3458   1.149   0.299  13.013 -0.6249  0.2784  0.6208
  228MPD1    C1 3459   1.118   0.191  12.935 -0.0180  0.4929  0.2716
  228MPD1    C2 3460   0.982   0.159  12.929 -0.0233  0.4211 -0.5594
  228MPD1    C3 3461   0.886   0.226  13.005  0.1680 -0.4520 -0.5185
  228MPD1    C4 3462   0.924   0.328  13.087  0.0576  0.0743  0.6218
  228MPD1    C5 3463   1.055   0.374  13.086 -0.2962  0.3477  0.7719
  228MPD1     H 3464   0.944   0.078  12.868  3.1013 -2.9093  1.8140
  228MPD1    H1 3465   0.851   0.389  13.139 -1.2393  0.2039 -1.3651
  228MPD1    H2 3466   1.251   0.334  13.023 -0.0510 -1.2283 -0.0489
  228MPD1    H3 3467   1.089   0.459  13.144  1.8999 -1.0859  1.5939
  228MPD1     N 3468   0.754   0.174  13.008 -0.3376  0.6659  0.5438
  228MPD1    H5 3469   0.734   0.093  12.950 -0.1600  0.0076  1.3978
  228MPD1    N1 3470   1.213   0.134  12.846 -0.2710 -0.1245  0.4480
  228MPD1    H6 3471   1.189   0.038  12.823 -1.5355  0.2988 -0.0097
  228MPD1    H7 3472   1.311   0.151  12.869  0.1527 -0.8303 -0.8170
  229MPD1     C 3473   0.247   3.858  14.573  0.3764  0.0104 -0.6819
  229MPD1    C1 3474   0.337   3.817  14.478 -0.3699 -0.3488  0.1629
  229MPD1    C2 3475   0.430   3.720  14.515 -0.0392  0.3021  0.0468
  229MPD1    C3 3476   0.435   3.665  14.641  0.5735 -0.3487 -0.3325
  229MPD1    C4 3477   0.347   3.711  14.733  0.4150 -0.3162 -0.8080
  229MPD1    C5 3478   0.248   3.799  14.699 -0.0253 -0.0115 -0.1919
  229MPD1     H 3479   0.492   3.680  14.436  0.2870  1.7009 -0.4079
  229MPD1    H1 3480   0.329   3.666  14.831 -1.1392  0.2012 -0.8459
  229MPD1    H2 3481   0.185   3.944  14.549  0.8764  0.7134  0.5193
  229MPD1    H3 3482   0.189   3.842  14.780  0.1223  1.0554 -0.6455
  229MPD1     N 3483   0.540   3.586  14.694  0.1561 -0.3117 -0.0735
  229MPD1    H5 3484   0.541   3.570  14.794 -0.0699 -1.1928 -0.2077
  229MPD1    N1 3485   0.348   3.880  14.354 -0.3381 -0.1997 -0.2168
  229MPD1    H6 3486   0.258   3.897  14.312  0.3139  1.5096 -0.9191
  229MPD1    H7 3487   0.396   3.821  14.287 -1.4182 -2.1326  0.7201
  230MPD1     C 3488   0.759   2.936  15.399  0.2140  0.3194 -0.8691
  230MPD1    C1 3489   0.886   2.983  15.378 -0.2255 -0.3334  0.2456
  230MPD1    C2 3490   0.906   3.069  15.271  0.1778  0.0087 -1.3722
  230MPD1    C3 3491   0.804   3.116  15.191  0.6042  0.3618 -0.3559
  230MPD1    C4 3492   0.674   3.068  15.225 -0.5989  0.1182 -0.4937
  230MPD1    C5 3493   0.653   2.978  15.325 -0.1409 -0.4570 -0.3553
  230MPD1     H 3494   1.008   3.096  15.244 -0.9216  3.9372 -1.5639
  230MPD1    H1 3495   0.584   3.095  15.171 -1.9525 -1.3055  1.0445
  230MPD1    H2 3496   0.746   2.859  15.473  1.1922 -0.9469 -2.0167
  230MPD1    H3 3497   0.560   2.927  15.348  0.8690 -1.0775  2.3699
  230MPD1     N 3498   0.820   3.193  15.074 -0.7177 -0.2061  0.4099
  230MPD1    H5 3499   0.915   3.211  15.043 -0.4889 -0.2011  1.1175
  230MPD1    N1 3500   0.992   2.938  15.455 -0.2477  0.5946  0.0733
  230MPD1    H6 3501   0.969   2.891  15.542 -0.3330  1.8775  0.7324
  230MPD1    H7 3502   1.079   2.990  15.462  1.0176 -1.1076 -3.0668
  231MPD1     C 3503   4.047   4.350  15.484 -0.2504 -0.3780  0.3022
  231MPD1    C1 3504   4.064   4.466  15.562 -0.5528  0.3052  0.1827
  231MPD1    C2 3505   4.053   4.586  15.497 -0.3133 -0.1666  0.2090
  231MPD1    C3 3506   4.051   4.596  15.353 -0.4048 -0.9180  0.7411
  231MPD1    C4 3507   4.024   4.481  15.282  0.9581  0.1228 -0.6013
  231MPD1    C5 3508   4.031   4.360  15.342 -0.1790 -0.0025  0.3316
  231MPD1     H 3509   4.062   4.674  15.560 -2.0632 -0.5530  0.9840
  231MPD1    H1 3510   4.008   4.484  15.175 -0.0981 -1.2362 -0.4796
  231MPD1    H2 3511   4.036   4.258  15.541 -0.3603 -2.0992 -2.5485
  231MPD1    H3 3512   4.020   4.267  15.286  1.0663  0.0839 -0.0423
  231MPD1     N 3513   4.049   0.005  15.297  0.4884  0.5757  0.0067
  231MPD1    H5 3514   4.050   0.078  15.368 -1.1322 -0.6285  1.2754
  231MPD1    N1 3515   4.064   4.448  15.704 -0.7798  0.4984 -0.9027
  231MPD1    H6 3516   4.080   4.521  15.773 -2.5702  2.7311 -2.8438
  231MPD1    H7 3517   4.117   4.363  15.720 -1.7746 -0.0506 -0.5953
  232MPD1     C 3518   1.198   4.605   0.421 -0.1413  0.5041 -0.1799
  232MPD1    C1 3519   1.077   4.600   0.370  0.2140  0.2023  0.1476
  232MPD1    C2 3520   1.018   4.476   0.341  0.0992  0.3755 -0.6427
  232MPD1    C3 3521   1.082   4.356   0.374 -0.3349  0.0524 -0.1897
  232MPD1    C4 3522   1.204   4.365   0.432  0.0995 -0.5238 -0.3415
  232MPD1    C5 3523   1.265   4.492   0.451  0.1891 -0.3015 -0.7143
  232MPD1     H 3524   0.922   4.468   0.290 -0.2957 -0.4476  0.2243
  232MPD1    H1 3525   1.265   4.279   0.456 -1.2647 -1.4953 -0.3797
  232MPD1    H2 3526   1.243   4.700   0.446  1.4955 -0.3999  0.2919
  232MPD1    H3 3527   1.366   4.498   0.490 -0.4923 -1.2630  1.1716
  232MPD1     N 3528   1.008   4.231   0.345  0.1717  0.3156 -0.1480
  232MPD1    H5 3529   0.918   4.244   0.300 -0.3118 -0.9129  0.4726
  232MPD1    N1 3530   1.002   0.002   0.361 -0.2639 -0.0399  0.2717
  232MPD1    H6 3531   1.059   0.085   0.347 -0.2136 -0.0681  0.3100
  232MPD1    H7 3532   0.933   0.004   0.286 -0.4977 -0.7311  0.4656
  233MPD1     C 3533   1.207   1.062   1.181  0.4704 -0.1527  0.5000
  233MPD1    C1 3534   1.249   0.951   1.239 -0.7787  0.0832 -0.3154
  233MPD1    C2 3535   1.382   0.929   1.272 -0.6002 -0.5120 -0.0645
  233MPD1    C3 3536   1.474   1.025   1.237  0.6097 -0.3246 -0.0861
  233MPD1    C4 3537   1.429   1.141   1.178 -0.1086 -0.7527  0.4038
  233MPD1    C5 3538   1.294   1.161   1.149  0.6031  0.0762  0.0254
  233MPD1     H 3539   1.405   0.845   1.337  1.0102  0.4663  0.6128
  233MPD1    H1 3540   1.484   1.229   1.144 -0.3239 -1.1774 -1.0525
  233MPD1    H2 3541   1.104   1.076   1.152  0.3612 -1.7918  0.1332
  233MPD1    H3 3542   1.270   1.252   1.095  1.4673  0.8585  0.9506
  233MPD1     N 3543   1.610   1.007   1.241 -0.3803  0.2546 -0.3370
  233MPD1    H5 3544   1.660   1.094   1.226  0.2240 -0.1864 -0.8609
  233MPD1    N1 3545   1.151   0.854   1.278  0.2494 -0.0252  0.2608
  233MPD1    H6 3546   1.179   0.788   1.350 -0.5603 -0.7187 -0.0691
  233MPD1    H7 3547   1.055   0.886   1.292 -0.4692 -2.0131 -0.1871
  234MPD1     C 3548   3.261   4.677   9.039 -0.5651 -0.1958  0.2707
  234MPD1    C1 3549   3.143   0.013   9.001 -0.5343 -0.2857  0.1932
  234MPD1    C2 3550   3.121   0.149   9.026  0.2544  0.1415  0.6282
  234MPD1    C3 3551   3.207   0.216   9.107  0.0911 -0.1762 -0.1251
  234MPD1    C4 3552   3.328   0.160   9.144  0.0204  0.0941  0.2442
  234MPD1    C5 3553   3.350   0.028   9.112  0.2390 -0.0145  0.7611
  234MPD1     H 3554   3.027   0.199   9.005 -0.0592 -1.0925 -0.9239
  234MPD1    H1 3555   3.406   0.207   9.203  2.1026 -1.3576 -1.3743
  234MPD1    H2 3556   3.292   4.581   9.000 -0.5071 -0.0347 -0.0814
  234MPD1    H3 3557   3.442   4.697   9.138  0.4005  1.1114  2.4647
  234MPD1     N 3558   3.161   0.346   9.152  0.0482 -1.1011  0.2212
  234MPD1    H5 3559   3.065   0.376   9.135  0.6152  0.7347  0.2934
  234MPD1    N1 3560   3.058   4.659   8.922  0.4474  0.0865  0.2678
  234MPD1    H6 3561   3.050   4.564   8.958 -0.6471 -0.3588 -1.1432
  234MPD1    H7 3562   2.964   4.700   8.921  0.7020  0.6060 -1.6642
  235MPD1     C 3563   4.191   2.280  10.063  0.1442 -0.7961  0.2266
  235MPD1    C1 3564   4.208   2.360   9.954 -0.2933 -0.0881  0.0603
  235MPD1    C2 3565   4.292   2.462   9.976 -0.7958  0.7833 -0.4114
  235MPD1    C3 3566   4.368   2.479  10.094 -0.5274  0.0219 -0.0166
  235MPD1    C4 3567   4.341   2.392  10.201  0.6949  0.3891 -0.0053
  235MPD1    C5 3568   4.266   2.289  10.182 -0.4589  0.2951  0.6844
  235MPD1     H 3569   4.302   2.543   9.905  1.1925  2.4680  1.8179
  235MPD1    H1 3570   4.386   2.399  10.299 -0.8216 -0.1889  0.7281
  235MPD1    H2 3571   4.131   2.191  10.058  1.2036 -1.5945  1.5945
  235MPD1    H3 3572   4.241   2.223  10.264  0.4609 -1.1294 -0.1664
  235MPD1     N 3573   4.455   2.590  10.103 -0.2292 -0.1227 -0.0862
  235MPD1    H5 3574   4.445   2.656  10.027  0.2142 -0.7490 -0.6895
  235MPD1    N1 3575   4.130   2.357   9.840 -0.8714 -0.3252 -0.2240
  235MPD1    H6 3576   4.106   2.264   9.807  0.1939 -0.8011  0.3316
  235MPD1    H7 3577   4.182   2.413   9.772 -0.8774  0.2529  0.2494
  236MPD1     C 3578   0.372   4.122  10.364 -0.9559 -0.3873 -0.9226
  236MPD1    C1 3579   0.443   4.102  10.480  0.4501 -0.4598  0.4225
  236MPD1    C2 3580   0.398   4.009  10.575 -0.5822  0.1578  0.2542
  236MPD1    C3 3581   0.279   3.935  10.560 -0.8418  0.3630 -0.4267
  236MPD1    C4 3582   0.205   3.964  10.444 -0.1961 -0.4866 -0.2689
  236MPD1    C5 3583   0.247   4.061  10.353  0.3441  0.6141  0.2106
  236MPD1     H 3584   0.452   3.990  10.668  0.4459 -0.6909 -0.5188
  236MPD1    H1 3585   0.114   3.909  10.422 -1.2662  0.5663  1.5720
  236MPD1    H2 3586   0.403   4.193  10.288  3.1366 -0.6075  0.5078
  236MPD1    H3 3587   0.194   4.076  10.260 -1.3952  0.4315  1.1788
  236MPD1     N 3588   0.230   3.832  10.649 -0.0732  0.3636 -0.1040
  236MPD1    H5 3589   0.146   3.780  10.625  0.3339  0.1655 -1.0785
  236MPD1    N1 3590   0.536   4.198  10.520  0.4978 -0.2737 -0.0790
  236MPD1    H6 3591   0.608   4.168  10.585  0.3372  0.4773  0.4353
  236MPD1    H7 3592   0.595   4.223  10.440  0.4196  2.1013  0.6067
  237MPD1     C 3593   4.389   2.833  16.065 -0.3819 -0.7786  0.5709
  237MPD1    C1 3594   4.442   2.723  16.141  0.0385 -0.2195 -0.0663
  237MPD1    C2 3595   4.408   2.602  16.085 -0.0644 -0.0684 -0.7128
  237MPD1    C3 3596   4.325   2.588  15.973  0.2976  0.1377 -0.0776
  237MPD1    C4 3597   4.286   2.692  15.897  0.1917  0.0806 -0.2402
  237MPD1    C5 3598   4.307   2.818  15.951 -0.3274  0.8554 -0.8201
  237MPD1     H 3599   4.442   2.516  16.141  1.2948  0.8816 -0.0764
  237MPD1    H1 3600   4.227   2.674  15.807  0.6895  0.8188 -0.7171
  237MPD1    H2 3601   4.388   2.934  16.104 -2.1105 -0.8851  0.8244
  237MPD1    H3 3602   4.272   2.909  15.905 -2.8196 -1.0038 -2.6212
  237MPD1     N 3603   4.262   2.467  15.936  0.2517 -0.4706  0.2688
  237MPD1    H5 3604   4.204   2.465  15.853  0.8482  0.3353 -0.1724
  237MPD1    N1 3605   4.482   2.733  16.275  0.4027  0.3917 -0.5083
  237MPD1    H6 3606   4.552   2.664  16.299 -0.6840 -0.5177  0.0480
  237MPD1    H7 3607   4.518   2.826  16.298 -1.2120  0.7624  0.5916
  238MPD1     C 3608   1.727   0.830  15.391 -0.0689  0.2888  0.0804
  238MPD1    C1 3609   1.665   0.707  15.398 -0.4477  0.5096 -0.0702
  238MPD1    C2 3610   1.550   0.682  15.326 -0.4434 -0.1764  0.1048
  238MPD1    C3 3611   1.483   0.787  15.270 -0.1743 -0.2117 -0.6802
  238MPD1    C4 3612   1.538   0.911  15.274  0.1459 -0.2531 -0.1651
  238MPD1    C5 3613   1.659   0.934  15.333 -0.2938  0.0109  0.3687
  238MPD1     H 3614   1.511   0.581  15.335  4.6749 -2.3004 -1.4676
  238MPD1    H1 3615   1.480   0.989  15.225  0.1590 -1.2501 -1.7894
  238MPD1    H2 3616   1.822   0.850  15.439  0.5907 -1.5036 -0.4682
  238MPD1    H3 3617   1.698   1.035  15.326 -0.7749  0.0572 -1.4666
  238MPD1     N 3618   1.370   0.770  15.194  0.9515 -0.3340  0.0399
  238MPD1    H5 3619   1.345   0.850  15.136 -1.9404  1.5299  3.8607
  238MPD1    N1 3620   1.744   0.605  15.444 -0.1223  0.3425  0.5509
  238MPD1    H6 3621   1.799   0.635  15.523  2.7414  1.1215 -1.7395
  238MPD1    H7 3622   1.694   0.526  15.485  0.0710 -1.3025 -2.3435
  239MPD1     C 3623   1.341   1.415  14.930  0.4640  0.4895 -1.0818
  239MPD1    C1 3624   1.452   1.466  14.867 -0.0496 -0.0244 -0.9297
  239MPD1    C2 3625   1.438   1.545  14.758  0.2623 -0.9796  0.4345
  239MPD1    C3 3626   1.310   1.552  14.699  0.3321 -0.5497 -0.1050
  239MPD1    C4 3627   1.200   1.498  14.759 -0.8645  0.1830  0.3433
  239MPD1    C5 3628   1.220   1.428  14.875  0.0250  0.5099 -0.0892
  239MPD1     H 3629   1.525   1.593  14.713 -1.0807 -0.1483 -1.2610
  239MPD1    H1 3630   1.101   1.500  14.715 -0.6084  2.8930 -0.1033
  239MPD1    H2 3631   1.343   1.365  15.026  1.1024  2.1512 -0.2291
  239MPD1    H3 3632   1.137   1.389  14.932  1.8638 -1.1510  1.4762
  239MPD1     N 3633   1.282   1.618  14.572  0.2072 -0.1279 -0.0329
  239MPD1    H5 3634   1.186   1.632  14.543 -0.2345 -3.2090 -0.0887
  239MPD1    N1 3635   1.576   1.461  14.934 -0.0972  0.1934  0.0409
  239MPD1    H6 3636   1.654   1.469  14.868 -0.3085 -0.8760 -0.3403
  239MPD1    H7 3637   1.580   1.389  15.006 -0.9887  0.5517  0.4493
  240MPD1     C 3638   1.316   1.037  13.791 -0.2545 -0.4958  0.1119
  240MPD1    C1 3639   1.372   1.006  13.913 -0.3116  0.4431  0.1346
  240MPD1    C2 3640   1.293   1.032  14.028 -0.1356  0.2016 -0.5824
  240MPD1    C3 3641   1.154   1.068  14.017  0.7607  0.8403  0.3927
  240MPD1    C4 3642   1.111   1.106  13.900 -0.1896 -0.3936 -0.2847
  240MPD1    C5 3643   1.188   1.089  13.790  0.1948 -0.9656  0.3370
  240MPD1     H 3644   1.338   1.013  14.124  0.7000  0.5812 -0.8982
  240MPD1    H1 3645   1.016   1.158  13.891 -0.3355 -0.4249  1.0423
  240MPD1    H2 3646   1.364   1.033  13.694 -1.7589  1.2640 -0.6968
  240MPD1    H3 3647   1.152   1.123  13.694 -0.7815 -1.3820  0.5524
  240MPD1     N 3648   1.078   1.081  14.132  0.3634 -0.2175 -0.7549
  240MPD1    H5 3649   1.130   1.054  14.215 -1.2451 -0.7563  0.0757
  240MPD1    N1 3650   1.511   0.999  13.920  0.3207  0.1758 -0.8283
  240MPD1    H6 3651   1.554   0.959  13.836  0.9205 -0.0208 -0.4212
  240MPD1    H7 3652   1.553   0.954  14.000 -0.5867  2.1490  0.7465
  241MPD1     C 3653   1.452   1.085  14.882 -0.1625 -0.0622 -0.3619
  241MPD1    C1 3654   1.328   1.066  14.931  1.0333  0.2805 -0.0908
  241MPD1    C2 3655   1.224   1.072  14.840 -0.0582  0.3179  0.4332
  241MPD1    C3 3656   1.249   1.113  14.712  0.0743  0.3298  0.0716
  241MPD1    C4 3657   1.370   1.160  14.674  0.1647  0.5123  0.0361
  241MPD1    C5 3658   1.477   1.145  14.759  0.1115  0.0990  0.2576
  241MPD1     H 3659   1.127   1.040  14.876  0.3396 -2.3173 -0.8287
  241MPD1    H1 3660   1.396   1.191  14.573 -0.2598 -0.2894 -0.3122
  241MPD1    H2 3661   1.542   1.062  14.938  0.4777  1.7055 -0.6653
  241MPD1    H3 3662   1.578   1.150  14.721  0.0728  0.0832  0.1536
  241MPD1     N 3663   1.143   1.114  14.608 -0.1804 -0.3918 -0.6547
  241MPD1    H5 3664   1.165   1.153  14.517  2.1182  0.4099  0.2457
  241MPD1    N1 3665   1.311   1.023  15.063 -0.4291  0.4040 -0.3278
  241MPD1    H6 3666   1.374   1.084  15.115  2.2222 -2.5603 -0.0540
  241MPD1    H7 3667   1.219   1.051  15.096 -1.4180 -3.4205  0.1382
  242MPD1     C 3668   0.540   0.168  15.517 -0.3312 -0.3474 -0.6702
  242MPD1    C1 3669   0.410   0.138  15.496  0.1877 -0.1262  0.1252
  242MPD1    C2 3670   0.383   0.026  15.421 -0.7175 -0.2151  0.0858
  242MPD1    C3 3671   0.485   4.681  15.356  0.1686  0.0480  0.5128
  242MPD1    C4 3672   0.613   0.002  15.364  0.6901  0.4163 -0.2652
  242MPD1    C5 3673   0.633   0.116  15.439 -0.2158  0.4889  0.4439
  242MPD1     H 3674   0.278   0.002  15.415 -0.7846  0.3602 -1.0397
  242MPD1    H1 3675   0.694   4.681  15.306 -0.3338 -1.5376 -0.2840
  242MPD1    H2 3676   0.568   0.255  15.575  1.5368 -1.6782  0.4319
  242MPD1    H3 3677   0.731   0.163  15.433  0.1594 -0.2034  1.1483
  242MPD1     N 3678   0.459   4.567  15.278  0.3447  0.4370  0.3116
  242MPD1    H5 3679   0.535   4.509  15.246  0.0856 -0.3196  1.0676
  242MPD1    N1 3680   0.303   0.190  15.568 -0.4824 -0.1120 -0.0646
  242MPD1    H6 3681   0.211   0.193  15.525 -0.3058  0.3572 -0.4167
  242MPD1    H7 3682   0.313   0.286  15.600 -0.5467  0.3924 -1.5402
  243MPD1     C 3683   1.769   2.644   0.055 -0.7739 -0.7294  0.1780
  243MPD1    C1 3684   1.889   2.672  17.682 -0.0647 -0.1516  0.0537
  243MPD1    C2 3685   1.926   2.598  17.570  0.4637  1.1283 -0.5296
  243MPD1    C3 3686   1.847   2.490  17.520  0.5177  0.0561 -0.6722
  243MPD1    C4 3687   1.734   2.458  17.590 -0.1820  0.0822 -0.4731
  243MPD1    C5 3688   1.694   2.534   0.014 -0.5559  0.0921  0.1259
  243MPD1     H 3689   2.023   2.621  17.529  0.2745  1.4034 -0.8229
  243MPD1    H1 3690   1.679   2.372  17.554  0.8962 -0.5069 -0.7302
  243MPD1    H2 3691   1.736   2.702   0.141 -0.1873 -1.4847  0.9133
  243MPD1    H3 3692   1.615   2.499   0.080 -0.9893 -0.6976 -0.8151
  243MPD1     N 3693   1.898   2.409  17.411  0.1182 -0.7559 -0.2429
  243MPD1    H5 3694   1.992   2.428  17.378 -0.2093  0.0886 -0.6867
  243MPD1    N1 3695   1.967   2.783   0.039 -0.6307 -0.4717  0.2315
  243MPD1    H6 3696   1.948   2.799   0.137  4.4881  0.2476  1.1280
  243MPD1    H7 3697   2.065   2.758   0.026 -0.4421  0.3788  0.0355
  244MPD1     C 3698   2.197   1.479  16.953  0.4488  0.3668  0.4996
  244MPD1    C1 3699   2.075   1.496  17.020  0.2925  0.1348 -0.4937
  244MPD1    C2 3700   2.036   1.621  17.062 -0.5032  0.5567 -0.4265
  244MPD1    C3 3701   2.109   1.731  17.020  0.1126  0.5475 -0.3868
  244MPD1    C4 3702   2.212   1.713  16.939 -0.3913  0.1278 -0.9204
  244MPD1    C5 3703   2.252   1.592  16.899 -0.4240  0.1529 -0.4702
  244MPD1     H 3704   1.948   1.644  17.121 -0.3613  2.2227 -0.8580
  244MPD1    H1 3705   2.263   1.795  16.890  2.2619 -3.5252 -4.2573
  244MPD1    H2 3706   2.227   1.381  16.916  1.1885  1.2638 -1.2769
  244MPD1    H3 3707   2.345   1.576  16.845  0.3462  0.5019  0.7698
  244MPD1     N 3708   2.072   1.862  17.037  0.1771  0.0174 -0.2862
  244MPD1    H5 3709   2.139   1.933  17.010  0.1588 -0.0118 -0.4078
  244MPD1    N1 3710   2.002   1.379  17.052  0.2926 -0.5396 -0.1113
  244MPD1    H6 3711   1.902   1.394  17.052  0.8227  2.9276 -2.3035
  244MPD1    H7 3712   2.019   1.291  17.004 -1.5265 -0.3333 -1.0915
  245MPD1     C 3713   3.986   3.447  12.823 -0.1500  0.0656  0.7876
  245MPD1    C1 3714   4.002   3.583  12.811  0.6388 -0.6126  0.6652
  245MPD1    C2 3715   3.974   3.656  12.924  0.3233  0.0617 -0.6790
  245MPD1    C3 3716   3.941   3.590  13.041 -0.1388 -0.2331 -0.3646
  245MPD1    C4 3717   3.921   3.451  13.046 -0.7438 -0.5946 -0.0058
  245MPD1    C5 3718   3.959   3.380  12.939 -0.0024  0.5975 -0.3350
  245MPD1     H 3719   3.978   3.764  12.911 -0.1280  0.1873  0.2326
  245MPD1    H1 3720   3.869   3.403  13.128  1.4100 -0.0943  1.6617
  245MPD1    H2 3721   3.996   3.390  12.731  1.1512  2.5143 -0.5733
  245MPD1    H3 3722   3.935   3.275  12.942 -0.6149  0.7481  0.0986
  245MPD1     N 3723   3.927   3.674  13.153  0.3465  0.1430 -0.2051
  245MPD1    H5 3724   3.963   3.768  13.145  1.8671 -0.4816 -0.8399
  245MPD1    N1 3725   4.017   3.636  12.684  0.0616  0.8402  0.1621
  245MPD1    H6 3726   4.094   3.703  12.684  0.4971  0.3436  0.5721
  245MPD1    H7 3727   4.050   3.560  12.625  0.5484  1.2362 -0.0732
  246MPD1     C 3728   4.250   0.761   9.009 -0.3239  0.3011  0.0605
  246MPD1    C1 3729   4.341   0.693   9.087  1.3228  0.5626 -0.1362
  246MPD1    C2 3730   4.375   0.566   9.052  0.9169 -0.1869 -0.8280
  246MPD1    C3 3731   4.317   0.496   8.945  0.4204 -0.6993  0.2122
  246MPD1    C4 3732   4.225   0.570   8.879 -0.3003 -0.3072 -0.5302
  246MPD1    C5 3733   4.194   0.699   8.903 -0.2255 -0.3847 -0.3736
  246MPD1     H 3734   4.464   0.519   9.092 -1.4628 -2.5173  1.7313
  246MPD1    H1 3735   4.157   0.522   8.811 -1.2859  1.4545 -0.7803
  246MPD1    H2 3736   4.221   0.862   9.035  1.8269  1.6271 -2.6131
  246MPD1    H3 3737   4.110   0.745   8.853 -0.7823 -1.8054 -0.7421
  246MPD1     N 3738   4.348   0.356   8.929  0.1958 -0.4759 -0.2514
  246MPD1    H5 3739   4.413   0.314   8.994  1.2098 -1.4218 -1.8605
  246MPD1    N1 3740   4.416   0.761   9.186 -0.6368 -0.7294 -0.0959
  246MPD1    H6 3741   4.456   0.707   9.262 -1.4735 -1.3266 -0.0924
  246MPD1    H7 3742   4.363   0.830   9.238 -0.9423 -0.8161 -0.2957
  247MPD1     C 3743   3.680   4.191  16.975  0.3568 -0.4630  0.6113
  247MPD1    C1 3744   3.559   4.152  17.012  0.4421  0.2007  0.1374
  247MPD1    C2 3745   3.478   4.082  16.930  0.6783  0.5387 -0.3271
  247MPD1    C3 3746   3.531   4.038  16.812 -0.6563 -0.0892 -0.3164
  247MPD1    C4 3747   3.647   4.080  16.773  0.5849  0.6256 -0.5098
  247MPD1    C5 3748   3.721   4.170  16.847  0.3940 -0.7496  0.5082
  247MPD1     H 3749   3.374   4.067  16.955  1.1742 -1.8932  0.3035
  247MPD1    H1 3750   3.681   4.054  16.673  3.7333  0.6288  0.5664
  247MPD1    H2 3751   3.745   4.238  17.048 -0.6226 -1.5819  2.1787
  247MPD1    H3 3752   3.817   4.200  16.807 -0.2934 -2.8198 -2.7024
  247MPD1     N 3753   3.456   3.959  16.722  0.0744  0.0069  0.1291
  247MPD1    H5 3754   3.497   3.952  16.630  1.3128  2.9049  0.4710
  247MPD1    N1 3755   3.515   4.207  17.132 -0.5340 -0.2949 -0.1941
  247MPD1    H6 3756   3.431   4.161  17.165 -0.8806 -1.1027 -2.1762
  247MPD1    H7 3757   3.587   4.223  17.203  0.3197  1.0481 -1.3557
  248MPD1     C 3758   3.409   2.303   0.187  0.1053 -0.8975  0.1132
  248MPD1    C1 3759   3.480   2.357   0.290 -0.0686  0.4473  0.3648
  248MPD1    C2 3760   3.416   2.448   0.371  0.0314 -0.3291  0.0084
  248MPD1    C3 3761   3.297   2.504   0.339  0.1825 -0.3463 -0.6663
  248MPD1    C4 3762   3.227   2.453   0.225  0.3871 -0.2729 -0.0510
  248MPD1    C5 3763   3.287   2.359   0.151 -0.3222 -0.0649  0.1882
  248MPD1     H 3764   3.463   2.488   0.460 -1.4494 -0.9414  1.0754
  248MPD1    H1 3765   3.130   2.490   0.193 -0.3251 -1.4428  0.7688
  248MPD1    H2 3766   3.445   2.229   0.116  1.6129  0.8081 -0.9144
  248MPD1    H3 3767   3.231   2.302   0.078 -0.5034  0.9768 -0.4791
  248MPD1     N 3768   3.248   2.610   0.424 -0.4206 -1.0614 -0.3377
  248MPD1    H5 3769   3.306   2.635   0.503 -0.3300  1.4540 -1.2047
  248MPD1    N1 3770   3.600   2.310   0.316  0.1029 -0.1368 -0.2430
  248MPD1    H6 3771   3.653   2.365   0.383 -0.0771  1.1076 -1.1227
  248MPD1    H7 3772   3.660   2.306   0.234 -0.6309  0.7541 -0.8275
  249MPD1     C 3773   0.364   1.728  10.247  0.2629  0.1024  0.2617
  249MPD1    C1 3774   0.447   1.828  10.261  0.8726  0.3453  0.0665
  249MPD1    C2 3775   0.469   1.911  10.155  0.0624  0.0237  0.2510
  249MPD1    C3 3776   0.432   1.874  10.029  0.1202 -0.9377 -0.2738
  249MPD1    C4 3777   0.358   1.758  10.009  0.2795  0.2824 -0.3617
  249MPD1    C5 3778   0.325   1.688  10.118 -0.1438  0.3305  0.5532
  249MPD1     H 3779   0.519   2.007  10.164  0.4015  0.1259 -2.5731
  249MPD1    H1 3780   0.313   1.725   9.916 -3.8873 -0.7647  2.0243
  249MPD1    H2 3781   0.336   1.674  10.336 -2.3932  0.5252 -0.3216
  249MPD1    H3 3782   0.272   1.594  10.111 -0.6496  0.8298 -2.3217
  249MPD1     N 3783   0.459   1.962   9.920 -0.6940  0.2952  0.4494
  249MPD1    H5 3784   0.508   2.051   9.933 -1.5062  1.1904 -2.6468
  249MPD1    N1 3785   0.491   1.859  10.391  0.3015 -0.2601  0.1041
  249MPD1    H6 3786   0.571   1.922  10.386  0.3717 -0.1716  2.3545
  249MPD1    H7 3787   0.507   1.775  10.445  2.3195 -1.5362 -2.4970
  250MPD2     C 3788   2.109   1.920  13.206  0.7846  0.0923  0.5204
  250MPD2    C1 3789   2.042   2.000  13.119  0.3145  0.0365 -0.1585
  250MPD2    C2 3790   1.929   1.953  13.051 -0.1410 -0.5325  0.6668
  250MPD2    C3 3791   1.880   1.827  13.083 -0.0288  0.1008  0.3087
  250MPD2    C4 3792   1.950   1.752  13.180  0.3127  0.4789 -0.0164
  250MPD2    C5 3793   2.061   1.802  13.245  0.0621  0.1560  0.5984
  250MPD2     H 3794   1.874   2.015  12.981 -0.6210 -0.4426  1.1227
  250MPD2    H1 3795   1.938   1.647  13.203  0.2912  0.6145  0.6040
  250MPD2    H2 3796   2.204   1.950  13.250  1.3198 -1.9611  0.7296
  250MPD2    H3 3797   2.128   1.750  13.313 -1.6242 -0.5634  1.7047
  250MPD2     N 3798   1.771   1.762  13.018  0.2003 -0.5922 -0.7916
  250MPD2    H5 3799   1.743   1.670  13.051 -2.6904 -0.1719 -1.9990
  250MPD2    N1 3800   2.106   2.123  13.096  0.1219 -0.2524  0.1263
  250MPD2    H7 3801   2.174   2.162  13.160  0.2062  0.3472 -0.3305
  251TMC3    C1 3802   2.139   2.342  13.014 -0.1222  0.1527 -0.6224
  251TMC3    C2 3803   2.077   2.456  12.967  0.0592  0.5247 -0.7327
  251TMC3    C3 3804   2.135   2.578  12.979  0.8642 -0.2061 -0.0123
  251TMC3    C4 3805   2.266   2.354  13.074 -0.2648 -0.9410 -0.2593
  251TMC3    C5 3806   2.322   2.479  13.080  0.1951  0.6988 -0.5154
  251TMC3    C6 3807   2.255   2.590  13.043  0.0715  0.0969 -0.4575
  251TMC3     C 3808   2.065   2.220  13.004  0.9209  0.0303 -0.6151
  251TMC3     O 3809   1.983   2.214  12.913  0.1491  0.1549  0.2872
  251TMC3     H 3810   1.988   2.449  12.906  0.0837  3.0528 -1.0456
  251TMC3    H1 3811   2.317   2.264  13.104 -0.6027 -1.1493 -0.3087
  251TMC3    H2 3812   2.299   2.689  13.052 -0.8912  0.5722 -0.9853
  251TMC3    C7 3813   2.458   2.491  13.137 -0.6206  0.6445  0.2531
  251TMC3    C8 3814   2.055   2.695  12.991 -0.1565 -0.4700  0.2280
  251TMC3    O1 3815   2.502   2.394  13.196 -0.3933 -0.2691  0.3793
  251TMC3    O2 3816   2.080   2.775  13.082  0.1080  0.1042 -0.1337
  252TMC3    C1 3817   1.859   3.740   9.564 -0.0209  0.2034  0.3392
  252TMC3    C2 3818   1.992   3.769   9.556 -0.1673  0.7079 -0.4518
  252TMC3    C3 3819   2.085   3.680   9.610  0.2182  0.6079 -0.6017
  252TMC3    C4 3820   1.808   3.633   9.629  0.3981  0.1907 -0.2807
  252TMC3    C5 3821   1.894   3.548   9.683  0.2527 -0.7647  0.0416
  252TMC3    C6 3822   2.033   3.573   9.683 -0.3127  0.3243  0.1734
  252TMC3     C 3823   1.771   3.840   9.506 -0.3048  0.4622  0.5813
  252TMC3     O 3824   1.822   3.928   9.439  0.4313  0.2350 -0.1179
  252TMC3     H 3825   2.029   3.857   9.505 -0.9698  0.4792 -1.4404
  252TMC3    H1 3826   1.704   3.603   9.634  0.6427 -0.5812  0.1721
  252TMC3    H2 3827   2.101   3.496   9.716 -0.3284  0.5120  0.6478
  252TMC3    C7 3828   1.832   3.422   9.739  0.1809  0.2865  0.4347
  252TMC3    C8 3829   2.230   3.712   9.612 -0.1438 -0.1050  0.7450
  252TMC3    O1 3830   1.711   3.422   9.754 -0.6326  0.3740 -0.2442
  252TMC3    O2 3831   2.269   3.783   9.516  0.0146  0.2350 -0.5353
  253MPD2     C 3832   2.726   1.921  15.729 -0.8993  0.7718 -0.6555
  253MPD2    C1 3833   2.782   2.026  15.659  0.1768  0.1178  0.5032
  253MPD2    C2 3834   2.916   2.031  15.621  0.2201  0.5229  0.1939
  253MPD2    C3 3835   2.999   1.940  15.668  0.2874 -0.2112  0.2170
  253MPD2    C4 3836   2.952   1.839  15.745 -0.5340 -0.1292 -0.1724
  253MPD2    C5 3837   2.819   1.829  15.777  0.3103  0.0229 -0.1147
  253MPD2     H 3838   2.952   2.113  15.559  0.8548 -1.3362 -1.8719
  253MPD2    H1 3839   3.016   1.756  15.773  0.2113  0.0265 -1.4521
  253MPD2    H2 3840   2.622   1.899  15.753 -0.7319  1.2317  0.5000
  253MPD2    H3 3841   2.783   1.738  15.825 -1.9197  0.2546 -1.3737
  253MPD2     N 3842   3.142   1.958  15.655 -0.3296  0.0146  0.3420
  253MPD2    H5 3843   3.202   1.892  15.704 -0.7459  0.0037  0.8343
  253MPD2    N1 3844   2.693   2.126  15.605 -0.0284  0.1967 -0.7990
  253MPD2    H7 3845   2.730   2.197  15.543 -3.1082  0.9513 -1.7878
  254TMC3    C1 3846   3.357   2.067  15.631 -0.3102  0.6138  0.1195
  254TMC3    C2 3847   3.433   2.149  15.558 -0.2096  0.0232  0.1226
  254TMC3    C3 3848   3.561   2.172  15.601 -0.0979 -0.4049 -0.0848
  254TMC3    C4 3849   3.406   1.999  15.743  0.4382  0.4563  0.0226
  254TMC3    C5 3850   3.536   2.018  15.777 -0.6827 -0.0262  0.7268
  254TMC3    C6 3851   3.615   2.097  15.701  0.0634 -0.1722  0.8367
  254TMC3     C 3852   3.213   2.069  15.597  0.3404  0.6984  0.0715
  254TMC3     O 3853   3.169   2.168  15.542 -0.4283  0.8203  0.5948
  254TMC3     H 3854   3.385   2.186  15.468 -0.3380 -0.1811  0.1075
  254TMC3    H1 3855   3.334   1.951  15.809  0.7642 -0.8525 -0.5804
  254TMC3    H2 3856   3.721   2.103  15.723  0.3246 -1.7044 -0.0030
  254TMC3    C7 3857   3.566   2.000  15.921 -0.5350 -0.4592 -0.3794
  254TMC3    C8 3858   3.570   2.308  15.652 -0.3243  0.0637 -0.2888
  254TMC3    O1 3859   3.501   1.916  15.983  0.1355 -0.4058 -0.0545
  254TMC3    O2 3860   3.633   2.322  15.757  0.3131 -0.0056 -0.4375
  255MPD2     C 3861   1.082   4.603  10.738 -0.4321 -0.2566  0.3603
  255MPD2    C1 3862   1.172   4.678  10.664  0.0327 -0.6358  0.0779
  255MPD2    C2 3863   1.290   4.616  10.629  0.8992 -0.4200 -0.3961
  255MPD2    C3 3864   1.316   4.484  10.664  0.3669  0.1246  0.0052
  255MPD2    C4 3865   1.227   4.416  10.742  0.4363  1.1160  0.7910
  255MPD2    C5 3866   1.109   4.477  10.776  0.4419  0.6452 -0.1877
  255MPD2     H 3867   1.367   4.665  10.570  1.5091 -1.8601 -0.8023
  255MPD2    H1 3868   1.241   4.316  10.781  0.8741  0.4612 -1.0451
  255MPD2    H2 3869   0.982   4.635  10.762  0.0650 -0.2336  2.3825
  255MPD2    H3 3870   1.036   4.420  10.831  1.8112  1.7417  2.7486
  255MPD2     N 3871   1.429   4.422  10.603 -0.0398  0.0322 -0.3925
  255MPD2    H5 3872   1.474   4.472  10.527  1.9215 -2.3653 -0.8146
  255MPD2    N1 3873   1.138   0.094  10.637  0.6736  0.0336  0.0047
  255MPD2    H7 3874   1.047   0.123  10.672  0.3327  1.0548 -1.7525
  256TMC3    C1 3875   1.147   0.308  10.535 -0.1991 -1.0398  0.0910
  256TMC3    C2 3876   1.216   0.426  10.534 -0.5403 -0.4815 -0.5962
  256TMC3    C3 3877   1.147   0.539  10.493 -0.1121 -0.1699  0.2577
  256TMC3    C4 3878   1.017   0.300  10.495  0.9196  0.4665 -0.2069
  256TMC3    C5 3879   0.953   0.416  10.452  0.1505  0.1821 -1.3061
  256TMC3    C6 3880   1.015   0.534  10.453 -0.0775 -0.3881  0.4286
  256TMC3     C 3881   1.215   0.185  10.570  0.3224  0.0122  0.1339
  256TMC3     O 3882   1.331   0.181  10.543  0.0119  0.5089  0.1612
  256TMC3     H 3883   1.318   0.438  10.570 -1.0310 -0.0833  0.6639
  256TMC3    H1 3884   0.972   0.201  10.487  1.5581  0.2394 -0.8913
  256TMC3    H2 3885   0.968   0.628  10.426  1.1208 -0.3877 -1.6432
  256TMC3    C7 3886   0.850   0.389  10.357  0.3248 -0.3151 -0.4149
  256TMC3    C8 3887   1.180   0.660  10.554  0.0897 -0.0352 -0.2225
  256TMC3    O1 3888   0.832   0.275  10.327  0.0942  0.0770 -0.4495
  256TMC3    O2 3889   1.101   0.721  10.629 -0.4002 -0.3597 -0.2772
  257MPD2     C 3890   1.020   2.180  13.209  0.5381  0.0560 -0.6697
  257MPD2    C1 3891   0.926   2.103  13.150 -0.2398 -0.6596 -0.0808
  257MPD2    C2 3892   0.873   1.996  13.230  0.2254  0.9534 -0.1809
  257MPD2    C3 3893   0.918   1.969  13.358  0.1789  0.1871 -0.5578
  257MPD2    C4 3894   1.009   2.057  13.413 -0.5942 -0.5065 -0.5703
  257MPD2    C5 3895   1.063   2.157  13.339  0.0946  0.1838 -0.4454
  257MPD2     H 3896   0.801   1.927  13.186  0.4467  0.8770 -0.4272
  257MPD2    H1 3897   1.049   2.034  13.512  1.0522  2.2606 -0.6060
  257MPD2    H2 3898   1.070   2.262  13.159  0.7727 -0.4584 -1.2787
  257MPD2    H3 3899   1.141   2.223  13.376  0.7084 -1.0434  0.4625
  257MPD2     N 3900   0.858   1.859  13.427 -0.1640  0.6369 -0.3356
  257MPD2    H5 3901   0.783   1.811  13.378  1.0708 -0.8999 -0.7112
  257MPD2    N1 3902   0.881   2.141  13.016 -0.3133 -0.3441  0.0100
  257MPD2    H7 3903   0.925   2.217  12.967  0.0298 -0.6979 -0.2349
  258TMC3    C1 3904   0.814   1.716  13.614 -0.2469  0.0456 -0.2549
  258TMC3    C2 3905   0.689   1.682  13.556  0.3361 -0.2104  0.6025
  258TMC3    C3 3906   0.598   1.614  13.633 -0.1159  0.0291 -0.7288
  258TMC3    C4 3907   0.842   1.668  13.741  0.3524  0.0553  0.5674
  258TMC3    C5 3908   0.753   1.604  13.809 -0.1084 -0.5105  0.6173
  258TMC3    C6 3909   0.625   1.578  13.765 -0.2620  0.6373 -0.2367
  258TMC3     C 3910   0.899   1.820  13.558 -0.2240 -0.3146  0.1377
  258TMC3     O 3911   0.992   1.857  13.632 -0.4220 -0.3455 -0.1992
  258TMC3     H 3912   0.651   1.750  13.481 -1.2310 -0.7674  0.8871
  258TMC3    H1 3913   0.931   1.703  13.792  0.3105 -0.8658  1.2878
  258TMC3    H2 3914   0.565   1.513  13.827  0.0180  0.2255 -0.3975
  258TMC3    C7 3915   0.778   1.573  13.946  0.0373 -0.3026  0.3492
  258TMC3    C8 3916   0.490   1.540  13.563  0.1716 -0.7899  0.4417
  258TMC3    O1 3917   0.687   1.586  14.028  0.2756  0.5618 -0.4753
  258TMC3    O2 3918   0.411   1.481  13.631 -0.1893  0.1139  0.2648
  259MPD2     C 3919   4.093   3.704   1.077 -0.3502  0.0742  0.1624
  259MPD2    C1 3920   4.181   3.631   1.147  0.0705 -0.0808 -0.2965
  259MPD2    C2 3921   4.309   3.601   1.099  0.2944  0.1502  0.2428
  259MPD2    C3 3922   4.332   3.620   0.965 -0.6447 -0.3008  0.3357
  259MPD2    C4 3923   4.238   3.680   0.892 -0.1963  0.7126 -0.9031
  259MPD2    C5 3924   4.123   3.726   0.945 -0.5528 -0.1476 -0.2426
  259MPD2     H 3925   4.383   3.544   1.154  1.0600 -1.2444 -2.2304
  259MPD2    H1 3926   4.249   3.704   0.786  0.5709  1.3304 -0.6823
  259MPD2    H2 3927   3.994   3.736   1.107 -0.0519  0.4829  0.7069
  259MPD2    H3 3928   4.057   3.776   0.875  0.8665 -0.3165 -1.6812
  259MPD2     N 3929   4.454   3.570   0.915  0.2333 -0.0924  0.6176
  259MPD2    H5 3930   4.517   3.524   0.979  0.6299 -0.3170  0.0638
  259MPD2    N1 3931   4.143   3.608   1.274  0.1124  0.5760 -0.0138
  259MPD2    H7 3932   4.049   3.639   1.298  0.9870  2.3112  1.2194
  260TMC3    C1 3933   4.613   3.499   0.756 -0.1365 -0.4746 -0.3601
  260TMC3    C2 3934   4.692   3.549   0.655 -0.4390  0.0617 -0.1862
  260TMC3    C3 3935   0.096   3.490   0.645  0.6293 -0.3374  0.3535
  260TMC3    C4 3936   4.645   3.400   0.841 -0.9469 -0.0062  0.0692
  260TMC3    C5 3937   0.040   3.330   0.816  0.4911 -0.2204  0.3496
  260TMC3    C6 3938   0.131   3.378   0.715  0.1071  0.4460 -0.6100
  260TMC3     C 3939   4.499   3.583   0.789 -0.3354  0.1904  0.2184
  260TMC3     O 3940   4.449   3.641   0.691  0.0031 -0.3516  0.6357
  260TMC3     H 3941   4.667   3.640   0.602  0.0209  1.0255  1.2337
  260TMC3    H1 3942   4.571   3.356   0.907 -0.4772 -1.7282 -0.5346
  260TMC3    H2 3943   0.234   3.348   0.724  0.2890  1.3305  0.2699
  260TMC3    C7 3944   0.025   3.185   0.828  0.0671  0.3918  0.5671
  260TMC3    C8 3945   0.195   3.568   0.565  0.9427  0.1039 -0.7117
  260TMC3    O1 3946   4.663   3.141   0.905 -1.0348  0.3495 -0.8025
  260TMC3    O2 3947   0.309   3.524   0.588 -0.0015 -0.0023  0.0936
  261MPD2     C 3948   1.432   1.579  12.330  0.2238 -0.0121  0.0242
  261MPD2    C1 3949   1.437   1.712  12.369  0.2544 -0.0074  0.0580
  261MPD2    C2 3950   1.465   1.804  12.265  0.0486 -0.3105 -1.0881
  261MPD2    C3 3951   1.478   1.768  12.131 -0.4896 -0.3602 -0.1950
  261MPD2    C4 3952   1.471   1.634  12.104  0.2262 -0.0498 -0.2191
  261MPD2    C5 3953   1.453   1.540  12.200  0.2756 -0.5806  0.0324
  261MPD2     H 3954   1.475   1.906  12.300 -2.9072 -0.0738 -0.9072
  261MPD2    H1 3955   1.493   1.597  12.004 -2.8874  0.6076 -1.1347
  261MPD2    H2 3956   1.430   1.505  12.409  2.6304 -1.3069 -1.1549
  261MPD2    H3 3957   1.437   1.438  12.168  2.5048 -0.7094 -0.6277
  261MPD2     N 3958   1.507   1.859  12.023 -0.7910 -0.1318  0.6701
  261MPD2    H5 3959   1.526   1.817  11.933  0.0983 -1.1380  1.3245
  261MPD2    N1 3960   1.437   1.755  12.503  0.1852 -0.0575  1.1042
  261MPD2    H7 3961   1.464   1.852  12.517 -0.4023  0.1854  0.5781
  262TMC3    C1 3962   1.487   2.056  11.899 -0.2799 -0.2515  0.6247
  262TMC3    C2 3963   1.507   2.190  11.905  0.2759 -1.0484 -0.4454
  262TMC3    C3 3964   1.426   2.267  11.836  0.3447 -0.6727  0.3434
  262TMC3    C4 3965   1.385   2.003  11.813  0.4123 -0.1737 -0.3576
  262TMC3    C5 3966   1.305   2.082  11.744 -0.8622  0.6763  0.0828
  262TMC3    C6 3967   1.319   2.216  11.762  0.0916 -0.5490  0.0530
  262TMC3     C 3968   1.506   1.996  12.027  0.6738  0.1909 -0.2314
  262TMC3     O 3969   1.516   2.066  12.126 -0.3594  0.3948  0.1278
  262TMC3     H 3970   1.599   2.235  11.940 -1.3514  0.3170  2.1413
  262TMC3    H1 3971   1.360   1.898  11.818  2.1310 -0.5298  0.7641
  262TMC3    H2 3972   1.251   2.279  11.705  1.9245 -0.7067 -2.3026
  262TMC3    C7 3973   1.184   2.038  11.689 -0.0671  0.4803 -0.2062
  262TMC3    C8 3974   1.429   2.414  11.860 -0.0305  0.7714  0.4297
  262TMC3    O1 3975   1.077   2.067  11.745 -0.0275 -0.7833 -0.0525
  262TMC3    O2 3976   1.539   2.468  11.884 -1.4080  0.0840  0.1883
  263MPD2     C 3977   2.468   0.830  10.877  0.4364 -0.1767 -0.0884
  263MPD2    C1 3978   2.498   0.954  10.924  0.5882  0.2613  0.2625
  263MPD2    C2 3979   2.519   1.063  10.843 -0.1683  0.0803  0.4488
  263MPD2    C3 3980   2.519   1.050  10.701 -0.5191  0.2060  0.1644
  263MPD2    C4 3981   2.499   0.922  10.655  0.3104 -0.2469  0.7787
  263MPD2    C5 3982   2.477   0.816  10.744  0.0165  0.2158 -0.3662
  263MPD2     H 3983   2.548   1.159  10.884 -1.1805  0.4269  0.3556
  263MPD2    H1 3984   2.492   0.904  10.548 -0.1498 -0.3062  0.8205
  263MPD2    H2 3985   2.449   0.742  10.937 -0.6207 -0.6966 -1.2012
  263MPD2    H3 3986   2.461   0.714  10.711 -2.2388 -0.6786  3.4720
  263MPD2     N 3987   2.549   1.168  10.627  0.3528 -0.1026 -0.3744
  263MPD2    H5 3988   2.558   1.258  10.673  0.2125 -0.3077  0.0454
  263MPD2    N1 3989   2.506   0.952  11.064 -0.4198 -0.5888 -0.2584
  263MPD2    H7 3990   2.513   0.861  11.107  2.1339  0.3310  1.3059
  264TMC3    C1 3991   2.616   1.296  10.442 -0.2785 -0.2088  0.4326
  264TMC3    C2 3992   2.574   1.407  10.498  0.3208  0.1450 -0.3288
  264TMC3    C3 3993   2.608   1.522  10.430  0.2081  0.3554  0.5418
  264TMC3    C4 3994   2.697   1.298  10.329  0.7399 -0.0659 -0.6734
  264TMC3    C5 3995   2.732   1.413  10.268  0.3743 -0.1818  0.4791
  264TMC3    C6 3996   2.692   1.528  10.327  0.7753  0.3947 -0.8382
  264TMC3     C 3997   2.571   1.168  10.491  0.4307  0.0273 -0.3777
  264TMC3     O 3998   2.568   1.072  10.424 -0.3356 -0.1750  0.3936
  264TMC3     H 3999   2.487   1.411  10.563  0.9641 -1.2056  0.6095
  264TMC3    H1 4000   2.724   1.200  10.292  1.8268 -0.2423  0.5556
  264TMC3    H2 4001   2.712   1.625  10.284  0.6054  1.2442  0.9863
  264TMC3    C7 4002   2.837   1.401  10.162  0.2674  0.2064  1.2138
  264TMC3    C8 4003   2.588   1.651  10.495 -0.6939 -0.4107 -0.2583
  264TMC3    O1 4004   2.907   1.299  10.158 -0.4439 -0.1964  0.1062
  264TMC3    O2 4005   2.641   1.750  10.447 -0.5273 -0.7316 -0.7868
  265MPD2     C 4006   0.110   1.803  15.577  0.3724  0.5181  0.2732
  265MPD2    C1 4007   0.144   1.926  15.530 -0.0137 -0.3595  0.0293
  265MPD2    C2 4008   0.210   1.932  15.410 -0.2183  0.1866 -0.1249
  265MPD2    C3 4009   0.257   1.813  15.350 -0.3608  0.2821  0.4459
  265MPD2    C4 4010   0.222   1.692  15.404  0.0259 -0.5060  0.0338
  265MPD2    C5 4011   0.149   1.688  15.519 -0.2308  0.1729 -0.1411
  265MPD2     H 4012   0.242   2.019  15.353  1.0534  0.3717  0.8389
  265MPD2    H1 4013   0.243   1.595  15.361 -2.4863 -1.1848  0.3288
  265MPD2    H2 4014   0.041   1.796  15.660  2.1423 -0.5979  1.6744
  265MPD2    H3 4015   0.113   1.592  15.552  0.5055 -0.5387 -1.3892
  265MPD2     N 4016   0.349   1.797  15.245  0.9889  0.2834 -0.0174
  265MPD2    H5 4017   0.368   1.704  15.211 -2.6806  0.5958 -2.8882
  265MPD2    N1 4018   0.104   2.044  15.601  0.2741 -0.3906  1.0071
  265MPD2    H7 4019   0.112   2.134  15.554 -1.6202 -1.1195 -0.7049
  266TMC3    C1 4020   0.032   2.160  15.795  0.7234 -0.1349 -0.6874
  266TMC3    C2 4021   0.070   2.203  15.920  0.3669  0.0659 -0.9344
  266TMC3    C3 4022   0.040   2.327  15.959 -0.5475 -0.0319 -0.6707
  266TMC3    C4 4023   4.679   2.239  15.714  0.5878 -0.3676 -0.2956
  266TMC3    C5 4024   4.650   2.367  15.759 -0.2405  0.2814 -0.0416
  266TMC3    C6 4025   4.698   2.414  15.876 -0.0771  0.3715  0.1454
  266TMC3     C 4026   0.095   2.039  15.742 -0.8670 -0.1192 -0.0130
  266TMC3     O 4027   0.116   1.949  15.824  0.3917 -0.2313 -0.2069
  266TMC3     H 4028   0.120   2.128  15.980  2.1199  1.3071 -0.8550
  266TMC3    H1 4029   4.641   2.210  15.616  1.7649 -1.6517 -0.3645
  266TMC3    H2 4030   4.658   2.509  15.910 -0.3017 -0.6625  2.7406
  266TMC3    C7 4031   4.564   2.453  15.682  0.2497 -0.0310  0.6791
  266TMC3    C8 4032   0.023   2.345  16.094 -0.0614  0.8221  0.5132
  266TMC3    O1 4033   4.586   2.575  15.682  0.1386 -0.2409  0.4490
  266TMC3    O2 4034   0.022   2.253  16.178 -0.5473 -0.0126 -0.1606
  267MPD2     C 4035   2.402   3.780  17.231  0.3989 -0.7840 -0.4572
  267MPD2    C1 4036   2.354   3.703  17.340  0.5515  0.3570  0.0483
  267MPD2    C2 4037   2.324   3.567  17.320 -0.4582 -0.1421 -0.0508
  267MPD2    C3 4038   2.349   3.512  17.197 -0.0222  0.0558 -0.3834
  267MPD2    C4 4039   2.412   3.586  17.100 -0.4207 -0.0514 -0.3387
  267MPD2    C5 4040   2.427   3.721  17.112 -0.0627  0.1533 -0.5234
  267MPD2     H 4041   2.280   3.503  17.395  1.6933 -0.1720  1.1914
  267MPD2    H1 4042   2.431   3.546  17.001  0.7985  1.8819 -0.8782
  267MPD2    H2 4043   2.432   3.884  17.232  1.8859 -1.1994 -2.1746
  267MPD2    H3 4044   2.470   3.784  17.036  1.3002 -1.1370 -0.8130
  267MPD2     N 4045   2.309   3.372  17.164  0.3904 -0.4569 -0.7489
  267MPD2    H5 4046   2.342   3.343  17.072  0.0794 -0.4795 -0.8520
  267MPD2    N1 4047   2.329   3.775  17.460 -0.3038 -0.1902  0.3633
  267MPD2    H7 4048   2.365   3.869  17.460 -1.6836  0.3469 -2.7835
  268TMC3    C1 4049   2.200   3.827  17.649  0.4683  1.1698 -0.4578
  268TMC3    C2 4050   2.252   3.957  17.638 -0.4799  0.1642  0.4171
  268TMC3    C3 4051   2.242   4.044   0.060 -0.3987 -0.3700  0.0117
  268TMC3    C4 4052   2.162   3.775   0.084 -0.5063 -0.3950 -0.2489
  268TMC3    C5 4053   2.150   3.867   0.186 -0.4471 -0.2965 -0.6646
  268TMC3    C6 4054   2.184   4.000   0.170  0.0369  0.1450  0.7108
  268TMC3     C 4055   2.247   3.725  17.564  0.0397  0.5272  0.3094
  268TMC3     O 4056   2.199   3.612  17.571 -0.3608  0.1710 -0.5963
  268TMC3     H 4057   2.259   4.000  17.539 -0.9536  1.1851  0.8333
  268TMC3    H1 4058   2.125   3.674   0.100  2.3505 -1.7575 -2.3576
  268TMC3    H2 4059   2.184   4.067   0.256  0.6219  1.7044 -0.4969
  268TMC3    C7 4060   2.121   3.802   0.316 -0.2535 -0.2442  0.2070
  268TMC3    C8 4061   2.250   4.184   0.050  0.3363  0.1598  0.3839
  268TMC3    O1 4062   2.114   3.680   0.328 -0.1438 -0.0743 -0.5397
  268TMC3    O2 4063   2.193   4.259   0.130 -0.0805  0.3023 -0.1750
  269MPD2     C 4064   2.836   2.403  15.824 -0.2440  0.8529  0.6058
  269MPD2    C1 4065   2.706   2.427  15.864  0.4167 -0.0472  0.1129
  269MPD2    C2 4066   2.656   2.549  15.827 -0.0663  1.0528  0.2858
  269MPD2    C3 4067   2.728   2.649  15.773  0.4810 -0.0367 -0.0456
  269MPD2    C4 4068   2.867   2.628  15.745  0.2291 -0.0044 -0.0534
  269MPD2    C5 4069   2.917   2.500  15.771  0.5737 -0.5434 -1.1481
  269MPD2     H 4070   2.552   2.579  15.839 -0.6396 -0.1556 -1.8160
  269MPD2    H1 4071   2.933   2.701  15.700  1.7657  0.3031  2.6780
  269MPD2    H2 4072   2.869   2.300  15.834  3.4370  1.7479 -2.0653
  269MPD2    H3 4073   3.018   2.466  15.754 -0.2453 -3.9707  0.8747
  269MPD2     N 4074   2.660   2.769  15.745  0.6796  0.4973  0.6967
  269MPD2    H5 4075   2.559   2.765  15.758  0.8304 -0.7758  1.5690
  269MPD2    N1 4076   2.628   2.321  15.917  0.0123 -0.1449 -0.8275
  269MPD2    H7 4077   2.677   2.232  15.924 -0.2052 -0.3452 -1.9408
  270TMC3    C1 4078   2.436   2.203  15.989  0.1645 -0.0098  0.3831
  270TMC3    C2 4079   2.323   2.156  15.937 -0.2584 -0.1416 -0.5144
  270TMC3    C3 4080   2.286   2.021  15.949 -1.1469  0.4748  0.1426
  270TMC3    C4 4081   2.518   2.120  16.060 -0.3074  0.3430  0.1548
  270TMC3    C5 4082   2.481   1.983  16.078 -0.6451 -0.6484 -0.2552
  270TMC3    C6 4083   2.369   1.934  16.025  0.5690  0.9754  0.3201
  270TMC3     C 4084   2.493   2.327  15.945  0.0889  0.8893 -0.4069
  270TMC3     O 4085   2.413   2.412  15.900 -0.0712 -0.2272 -0.1011
  270TMC3     H 4086   2.285   2.224  15.862 -0.0571  1.8543  1.2179
  270TMC3    H1 4087   2.600   2.156  16.121 -0.0754  0.9556 -0.5154
  270TMC3    H2 4088   2.344   1.828  16.024  0.2334  1.0775 -1.5352
  270TMC3    C7 4089   2.576   1.889  16.131 -0.1406  0.5379 -0.3716
  270TMC3    C8 4090   2.220   1.959  15.829  0.2113  0.7110 -0.3972
  270TMC3    O1 4091   2.696   1.928  16.135  0.2875  0.9998  0.0116
  270TMC3    O2 4092   2.240   1.840  15.798 -0.0961  0.3881 -0.4750
  271MPD2     C 4093   1.625   1.898  14.030 -0.6558 -0.9102 -0.2158
  271MPD2    C1 4094   1.586   1.933  14.154 -0.7336  0.1918 -0.4915
  271MPD2    C2 4095   1.477   2.018  14.156 -0.2862 -0.3772  0.4341
  271MPD2    C3 4096   1.405   2.052  14.043  0.3377 -0.2010 -0.1647
  271MPD2    C4 4097   1.460   2.017  13.919 -0.1755  0.1374 -0.5763
  271MPD2    C5 4098   1.563   1.929  13.914  0.6938  0.5517  0.4391
  271MPD2     H 4099   1.443   2.049  14.254  1.0638 -1.3400  1.2109
  271MPD2    H1 4100   1.415   2.054  13.827 -0.3089  1.1855 -0.0932
  271MPD2    H2 4101   1.710   1.830  14.027  0.8553  0.9384  1.1517
  271MPD2    H3 4102   1.596   1.897  13.816 -1.5389 -0.1477 -0.0944
  271MPD2     N 4103   1.278   2.124  14.033  0.5048  0.1291  0.5105
  271MPD2    H5 4104   1.241   2.140  13.940  1.0370  2.7069  0.7661
  271MPD2    N1 4105   1.670   1.900  14.265  0.4353  0.0456 -0.5233
  271MPD2    H7 4106   1.765   1.870  14.244  0.5653 -0.6191  1.0405
  272TMC3    C1 4107   1.729   1.867  14.494 -0.6283 -0.5912 -0.0971
  272TMC3    C2 4108   1.819   1.768  14.458  0.2787 -0.0444 -0.2077
  272TMC3    C3 4109   1.903   1.712  14.547  0.1579 -0.7235 -0.6014
  272TMC3    C4 4110   1.730   1.921  14.612  0.4584 -0.5645 -0.1912
  272TMC3    C5 4111   1.815   1.864  14.702 -0.5807 -0.3215  0.9076
  272TMC3    C6 4112   1.912   1.768  14.676  0.0524  0.1218 -0.7002
  272TMC3     C 4113   1.631   1.920  14.395 -0.4884  0.0852 -0.0099
  272TMC3     O 4114   1.527   1.968  14.443 -0.1299 -0.1737 -0.6451
  272TMC3     H 4115   1.820   1.720  14.361  0.8489 -2.5328  1.0260
  272TMC3    H1 4116   1.657   2.000  14.627  2.1025  1.3893 -2.5984
  272TMC3    H2 4117   1.982   1.724  14.747  1.6323  3.7598  0.0108
  272TMC3    C7 4118   1.799   1.903  14.840 -0.0478  0.3699 -0.1446
  272TMC3    C8 4119   1.944   1.578  14.512  0.0363  0.0759  0.2211
  272TMC3    O1 4120   1.896   1.882  14.910 -1.0109  0.6732 -0.4928
  272TMC3    O2 4121   1.873   1.515  14.431 -0.3813  0.2527  0.2739
  273MPD2     C 4122   3.150   4.420  11.569  0.5233 -0.1413 -0.0006
  273MPD2    C1 4123   3.194   4.551  11.603  0.5865 -0.0887 -0.0877
  273MPD2    C2 4124   3.203   4.643  11.510 -0.2523 -0.2274 -0.2318
  273MPD2    C3 4125   3.196   4.610  11.375  0.2058  0.1424 -0.0013
  273MPD2    C4 4126   3.176   4.475  11.344 -0.0128 -0.1016 -0.2563
  273MPD2    C5 4127   3.135   4.387  11.443  0.3566  0.3517  0.1100
  273MPD2     H 4128   3.235   0.019  11.547  1.9167 -1.0982  0.1979
  273MPD2    H1 4129   3.179   4.444  11.240 -1.8861  2.2928 -1.0295
  273MPD2    H2 4130   3.121   4.346  11.642 -0.4586 -2.4520 -2.7403
  273MPD2    H3 4131   3.091   4.290  11.423  2.2500  0.2304 -3.3972
  273MPD2     N 4132   3.189   4.702  11.272 -0.2247  0.0895 -0.5316
  273MPD2    H5 4133   3.182   4.669  11.176 -1.9748  0.2361 -0.4370
  273MPD2    N1 4134   3.217   4.594  11.735  0.2441  0.0588 -0.2617
  273MPD2    H7 4135   3.263   4.684  11.747  2.1341 -1.0271  0.7066
  274TMC3    C1 4136   3.199   0.186  11.159 -0.9439 -0.0363 -0.1162
  274TMC3    C2 4137   3.107   0.154  11.058  0.0799  0.5128 -0.1685
  274TMC3    C3 4138   3.085   0.246  10.960 -0.1247  0.4917 -0.6710
  274TMC3    C4 4139   3.244   0.312  11.173  0.3686  0.0524  0.2965
  274TMC3    C5 4140   3.212   0.404  11.079  0.1605 -0.3577 -0.1321
  274TMC3    C6 4141   3.127   0.378  10.974 -0.3578 -0.1159 -0.1973
  274TMC3     C 4142   3.202   0.114  11.284  0.4075 -0.0679  0.3845
  274TMC3     O 4143   3.208   0.183  11.382  0.2192 -0.0243 -0.1913
  274TMC3     H 4144   3.072   0.051  11.055 -0.3470  0.6608 -0.2268
  274TMC3    H1 4145   3.312   0.338  11.254  0.8744 -2.0911  0.5636
  274TMC3    H2 4146   3.112   0.455  10.899 -1.0529 -1.1345 -1.1055
  274TMC3    C7 4147   3.189   0.538  11.139  0.1269  0.0935 -0.2037
  274TMC3    C8 4148   2.983   0.217  10.863 -0.4296  0.5674  0.4939
  274TMC3    O1 4149   3.108   0.609  11.076 -0.3653  0.7455  0.3279
  274TMC3    O2 4150   2.914   0.120  10.891  0.1159 -0.6840  0.0414
  275MPD2     C 4151   2.664   3.334  14.708  0.0107 -1.1641  0.2031
  275MPD2    C1 4152   2.685   3.235  14.805  0.6598 -0.7277  0.1621
  275MPD2    C2 4153   2.625   3.113  14.783 -0.6951  0.3457 -0.3265
  275MPD2    C3 4154   2.562   3.087  14.660 -0.5884  0.2513  0.0954
  275MPD2    C4 4155   2.547   3.183  14.566 -0.0394  0.4203 -0.8774
  275MPD2    C5 4156   2.600   3.302  14.594 -0.0503 -0.3718 -0.8173
  275MPD2     H 4157   2.621   3.039  14.863 -1.3516 -1.9285 -2.4526
  275MPD2    H1 4158   2.479   3.165  14.483  0.4726  0.4066 -1.2955
  275MPD2    H2 4159   2.692   3.438  14.720  0.2723 -1.1887 -0.1925
  275MPD2    H3 4160   2.584   3.374  14.514 -1.2791  1.7911  1.3767
  275MPD2     N 4161   2.506   2.955  14.631 -0.5746  0.5501 -0.2884
  275MPD2    H5 4162   2.451   2.946  14.546  2.4276  0.8762 -2.2480
  275MPD2    N1 4163   2.754   3.254  14.926 -0.1460 -0.0318 -0.1586
  275MPD2    H7 4164   2.756   3.178  14.993  0.6267  1.5485  1.5965
  276TMC3    C1 4165   2.873   3.358  15.096 -0.7010 -0.0707  0.0149
  276TMC3    C2 4166   2.855   3.250  15.177  0.5131  0.3343  0.5539
  276TMC3    C3 4167   2.939   3.228  15.281  0.0925  0.0387 -0.6247
  276TMC3    C4 4168   2.972   3.452  15.122  0.1029 -0.5213  0.0891
  276TMC3    C5 4169   3.049   3.425  15.231 -1.0757  0.6138 -0.8202
  276TMC3    C6 4170   3.035   3.315  15.311 -0.7140  0.8306  0.0986
  276TMC3     C 4171   2.822   3.364  14.960  0.2241  0.2127 -0.0419
  276TMC3     O 4172   2.869   3.452  14.892  0.0894  0.4035 -0.2321
  276TMC3     H 4173   2.778   3.176  15.160  2.9011 -1.7708 -0.9830
  276TMC3    H1 4174   2.985   3.532  15.050  1.8290 -1.3284 -0.4964
  276TMC3    H2 4175   3.108   3.298  15.390 -0.6292 -3.3013 -0.8553
  276TMC3    C7 4176   3.182   3.494  15.248  0.2189 -0.0867  1.1060
  276TMC3    C8 4177   2.965   3.093  15.327  0.6831 -0.1900 -0.7721
  276TMC3    O1 4178   3.272   3.433  15.307  0.0511  0.3872  0.4819
  276TMC3    O2 4179   3.072   3.081  15.385  0.0264  0.1555  0.7796
  277MPD2     C 4180   0.041   1.773  13.555  0.1759 -0.0156 -0.6898
  277MPD2    C1 4181   4.629   1.783  13.574 -0.6464  0.1819 -0.1380
  277MPD2    C2 4182   4.569   1.706  13.675 -0.3712  0.0719 -0.1897
  277MPD2    C3 4183   4.637   1.616  13.755  0.4189 -0.8258  0.6826
  277MPD2    C4 4184   0.052   1.607  13.734  0.3024  0.2400 -0.2653
  277MPD2    C5 4185   0.113   1.699  13.647 -0.4967  0.6293  0.0890
  277MPD2     H 4186   4.461   1.697  13.683 -0.3116 -0.6249 -0.1922
  277MPD2    H1 4187   0.101   1.532  13.796  1.3033  1.1881  0.0882
  277MPD2    H2 4188   0.082   1.838  13.479 -0.6831  1.2190 -0.1071
  277MPD2    H3 4189   0.220   1.689  13.654 -0.3716  0.9627 -1.3506
  277MPD2     N 4190   4.564   1.530  13.836 -0.5642 -0.3976 -0.7846
  277MPD2    H5 4191   4.463   1.537  13.826 -0.6209 -1.0532 -0.6580
  277MPD2    N1 4192   4.565   1.875  13.489  0.0718  0.2589  0.2381
  277MPD2    H7 4193   4.630   1.921  13.425 -0.6366  0.2982 -0.4559
  278TMC3    C1 4194   4.485   1.347  13.964 -0.8812 -0.2185  0.4499
  278TMC3    C2 4195   4.474   1.218  13.912  0.6037 -0.1771 -0.0513
  278TMC3    C3 4196   4.351   1.168  13.886 -0.5688  0.1719  0.7299
  278TMC3    C4 4197   4.375   1.425  13.984 -1.1376  0.1693 -0.5726
  278TMC3    C5 4198   4.255   1.370  13.957  0.5379 -0.6926  0.9667
  278TMC3    C6 4199   4.237   1.244  13.905  0.2966  1.0769 -0.2741
  278TMC3     C 4200   4.601   1.420  13.910 -0.1552  0.0126  1.2184
  278TMC3     O 4201   4.711   1.372  13.919  0.3483  0.3473  0.6677
  278TMC3     H 4202   4.562   1.160  13.886 -1.1985 -3.4517  1.2303
  278TMC3    H1 4203   4.381   1.517  14.040 -1.8144  1.4635 -2.6543
  278TMC3    H2 4204   4.139   1.202  13.886 -0.0575  0.8211  2.1429
  278TMC3    C7 4205   4.144   1.431  14.033  0.1368 -0.0831  0.7428
  278TMC3    C8 4206   4.353   1.079  13.769 -1.2420  0.0931  0.4754
  278TMC3    O1 4207   4.162   1.546  14.072  0.1650  0.0941  0.9277
  278TMC3    O2 4208   4.442   0.994  13.755  0.4629  0.0008 -0.7443
  279MPD2     C 4209   3.995   2.826   0.194 -0.0483  0.5304  0.9824
  279MPD2    C1 4210   3.909   2.734   0.145 -0.0804  0.4938 -0.1349
  279MPD2    C2 4211   3.963   2.625   0.089  0.1378  0.4280 -0.3985
  279MPD2    C3 4212   4.098   2.601   0.093 -0.2172  0.2559 -0.1377
  279MPD2    C4 4213   4.183   2.694   0.143 -0.3532 -0.0741  0.1811
  279MPD2    C5 4214   4.132   2.813   0.188 -0.2756  0.9894  0.2239
  279MPD2     H 4215   3.909   2.556   0.024  0.1632  1.2073 -1.2408
  279MPD2    H1 4216   4.288   2.670   0.142 -1.0459 -3.1508  1.3610
  279MPD2    H2 4217   3.967   2.923   0.233 -1.7132  0.7897 -0.8195
  279MPD2    H3 4218   4.191   2.894   0.229  1.4880  1.1952 -2.6874
  279MPD2     N 4219   4.159   2.482   0.044 -0.0063  0.2088  0.4089
  279MPD2    H5 4220   4.259   2.485   0.030 -0.0995 -0.8272 -0.4600
  279MPD2    N1 4221   3.770   2.761   0.145 -0.6839 -0.3011  0.1319
  279MPD2    H7 4222   3.741   2.839   0.204  1.9056 -0.4310  1.6136
  280TMC3    C1 4223   3.529   2.724   0.118 -0.0861 -0.5580 -0.1569
  280TMC3    C2 4224   3.439   2.672   0.026 -0.0492 -0.2871  0.4716
  280TMC3    C3 4225   3.312   2.719   0.044  0.4960 -0.5563 -0.1289
  280TMC3    C4 4226   3.503   2.814   0.213 -0.1815 -0.0834 -0.3335
  280TMC3    C5 4227   3.370   2.847   0.228 -0.4787  0.8377 -0.5298
  280TMC3    C6 4228   3.270   2.809   0.138  0.8111  0.7102 -0.5782
  280TMC3     C 4229   3.670   2.674   0.094  0.8472 -0.2505 -0.2363
  280TMC3     O 4230   3.683   2.560   0.046 -0.2648 -0.0261 -0.4624
  280TMC3     H 4231   3.476   2.604  17.636  0.8436  0.1322  0.5256
  280TMC3    H1 4232   3.581   2.838   0.284 -1.2949  0.8139  0.5953
  280TMC3    H2 4233   3.165   2.829   0.159  0.7320 -0.9303  0.6269
  280TMC3    C7 4234   3.344   2.957   0.314 -0.4706 -0.1264  0.3712
  280TMC3    C8 4235   3.211   2.659  17.650 -0.8732  0.0238  1.3987
  280TMC3    O1 4236   3.442   2.991   0.391 -0.0931  0.3847  0.0521
  280TMC3    O2 4237   3.102   2.688   0.005 -0.8495 -0.1909 -0.4676
  281TMC3    C1 4238   2.629   2.348  13.616  0.0863 -0.3007  0.8032
  281TMC3    C2 4239   2.740   2.429  13.610 -0.5023 -0.5926 -0.0283
  281TMC3    C3 4240   2.866   2.387  13.567  0.1816 -0.0893  0.1439
  281TMC3    C4 4241   2.647   2.211  13.595 -0.3442  0.6962  0.0423
  281TMC3    C5 4242   2.781   2.172  13.589 -0.2378 -0.2657 -0.4054
  281TMC3    C6 4243   2.886   2.255  13.563  0.2653 -0.5565  0.0603
  281TMC3     C 4244   2.500   2.402  13.576 -0.4570  0.8846  0.0076
  281TMC3     O 4245   2.419   2.315  13.543  0.7263 -0.4614 -0.0613
  281TMC3     H 4246   2.731   2.532  13.642 -1.5711 -0.5718 -0.3982
  281TMC3    H1 4247   2.565   2.144  13.619  0.8970 -1.0737 -0.6257
  281TMC3    H2 4248   2.980   2.213  13.531  2.0245  1.1715  3.0010
  281TMC3    C7 4249   2.819   2.030  13.608  0.7433 -0.7871 -0.0752
  281TMC3    C8 4250   2.892   2.427  13.434 -0.5877 -0.0731 -0.0446
  281TMC3    O1 4251   2.914   2.000  13.680 -0.2776 -0.6915  0.1791
  281TMC3    O2 4252   2.869   2.345  13.351  0.4587  0.5769  0.0360
  282MPD2     C 4253   0.122   3.758  15.192 -0.1129  0.3319  0.5362
  282MPD2    C1 4254   4.719   3.808  15.226  1.0301  0.5226 -0.2657
  282MPD2    C2 4255   4.622   3.800  15.129 -0.2064  0.1277  0.0681
  282MPD2    C3 4256   4.648   3.749  15.006  0.5988 -0.1462 -0.2170
  282MPD2    C4 4257   0.050   3.702  14.971  0.4539 -0.6449 -0.1733
  282MPD2    C5 4258   0.149   3.701  15.065 -0.2358 -0.0025 -0.1006
  282MPD2     H 4259   4.522   3.831  15.159 -0.1610  0.8232 -0.5014
  282MPD2    H1 4260   0.071   3.665  14.871 -1.4612 -0.0222 -0.8063
  282MPD2    H2 4261   0.207   3.772  15.258 -0.2351  0.3484  0.6887
  282MPD2    H3 4262   0.247   3.675  15.027 -0.2517  2.6637 -1.9360
  282MPD2     N 4263   4.545   3.754  14.903 -0.1163 -0.3391 -0.0806
  282MPD2    H5 4264   4.456   3.796  14.928  0.5216  2.0453 -1.8538
  282MPD2    N1 4265   4.685   3.868  15.344  0.3049 -0.3589  0.8327
  282MPD2    H7 4266   4.585   3.879  15.357  0.2936 -2.6912  2.7546
  283TMC3    C1 4267   4.714   3.975  15.554 -0.2971  0.3190 -0.2837
  283TMC3    C2 4268   0.043   4.083  15.608  0.0457  0.0377  0.4149
  283TMC3    C3 4269   0.006   4.120  15.734  0.2888 -0.2404 -0.0101
  283TMC3    C4 4270   4.623   3.897  15.618 -0.5628 -0.0772 -0.4162
  283TMC3    C5 4271   4.584   3.929  15.744 -0.4795 -0.0279  0.2387
  283TMC3    C6 4272   4.640   4.040  15.805 -0.1980  0.2095 -0.0500
  283TMC3     C 4273   0.055   3.924  15.431 -0.3655 -0.4636  0.3322
  283TMC3     O 4274   0.174   3.945  15.424  0.3743  0.3423  0.2587
  283TMC3     H 4275   0.131   4.129  15.564  0.0017 -0.3035 -0.0303
  283TMC3    H1 4276   4.610   3.797  15.580 -0.8383 -0.9046  1.8894
  283TMC3    H2 4277   4.617   4.077  15.904 -0.8415 -1.8839  0.5994
  283TMC3    C7 4278   4.498   3.845  15.825 -0.2409  0.6333  0.6627
  283TMC3    C8 4279   0.009   4.262  15.771 -0.0783  0.3231  0.0412
  283TMC3    O1 4280   4.497   3.878  15.942 -0.1555 -0.3922  0.2501
  283TMC3    O2 4281   4.718   4.295  15.890 -0.0967  0.4740  0.1973
  284MPD2     C 4282   2.476   2.885  11.902  0.1321  0.3434  0.4547
  284MPD2    C1 4283   2.595   2.818  11.868 -0.5162  0.8168 -0.3371
  284MPD2    C2 4284   2.630   2.705  11.938 -0.1538 -0.0344 -0.4747
  284MPD2    C3 4285   2.551   2.663  12.049 -0.3310 -0.0911 -0.5653
  284MPD2    C4 4286   2.437   2.731  12.086 -0.4386 -0.1644  0.3454
  284MPD2    C5 4287   2.401   2.840  12.005 -0.5865  0.0385 -0.0791
  284MPD2     H 4288   2.720   2.650  11.913 -0.8965 -1.5802  0.2183
  284MPD2    H1 4289   2.359   2.688  12.148  0.5194 -1.8363  0.3782
  284MPD2    H2 4290   2.437   2.970  11.847 -2.6676 -2.0128 -1.1977
  284MPD2    H3 4291   2.307   2.892  12.023 -0.3254  0.5167 -0.0853
  284MPD2     N 4292   2.587   2.549  12.126 -1.1921  0.3233 -0.4860
  284MPD2    H5 4293   2.660   2.488  12.090 -2.4013 -0.8587 -0.8924
  284MPD2    N1 4294   2.682   2.861  11.767 -0.5850  0.1937 -0.3224
  284MPD2    H7 4295   2.760   2.796  11.759 -1.1240 -0.4722 -0.1857
  285TMC3    C1 4296   2.784   2.987  11.592 -0.3032 -0.4055 -0.4090
  285TMC3    C2 4297   2.824   2.871  11.537  0.2265  0.6192 -0.0538
  285TMC3    C3 4298   2.926   2.875  11.440 -0.3007  0.0011 -0.2033
  285TMC3    C4 4299   2.836   3.110  11.557 -0.5559  0.6313 -0.5983
  285TMC3    C5 4300   2.936   3.113  11.462 -0.0814  0.5093  0.1568
  285TMC3    C6 4301   2.979   2.999  11.406  0.0403  0.0924 -0.6428
  285TMC3     C 4302   2.686   2.982  11.695 -0.0096 -0.5653  0.2257
  285TMC3     O 4303   2.635   3.085  11.731 -0.6647  0.0221 -0.3078
  285TMC3     H 4304   2.779   2.775  11.563  1.1879 -0.1051 -1.0748
  285TMC3    H1 4305   2.805   3.187  11.628 -1.5568 -1.5554  1.3352
  285TMC3    H2 4306   3.052   3.006  11.326  2.1176  1.5094  1.3712
  285TMC3    C7 4307   2.982   3.230  11.392  0.7966  0.0522  0.3994
  285TMC3    C8 4308   2.975   2.753  11.375  0.0359  0.1739 -0.2533
  285TMC3    O1 4309   3.097   3.226  11.343  0.2206  0.6771 -0.0968
  285TMC3    O2 4310   2.897   2.665  11.341  0.5568  0.3719 -0.1576
  286MPD2     C 4311   3.157   2.250   1.427 -0.3680  0.2953 -0.3186
  286MPD2    C1 4312   3.144   2.152   1.327 -0.0864  0.5693  0.0485
  286MPD2    C2 4313   3.252   2.055   1.318  0.3058 -0.3972 -0.3981
  286MPD2    C3 4314   3.369   2.073   1.383 -0.4352  0.1205 -0.0551
  286MPD2    C4 4315   3.379   2.174   1.473  0.2030  0.4762 -0.6700
  286MPD2    C5 4316   3.275   2.255   1.503  0.0682  0.4446  0.0519
  286MPD2     H 4317   3.236   1.978   1.244 -2.4041  1.5402 -1.8237
  286MPD2    H1 4318   3.475   2.192   1.519 -0.1160  2.1172 -0.6400
  286MPD2    H2 4319   3.081   2.323   1.451 -2.2830 -1.5159 -0.8762
  286MPD2    H3 4320   3.289   2.330   1.580 -2.8119  1.1829 -0.1276
  286MPD2     N 4321   3.484   2.006   1.345  0.9113  0.1374 -0.3787
  286MPD2    H5 4322   3.572   2.029   1.390  0.9713 -0.9226  0.0334
  286MPD2    N1 4323   3.036   2.139   1.228  0.3649 -0.0891 -0.5918
  286MPD2    H7 4324   3.058   2.070   1.157 -2.1300 -1.9816  0.4839
  287TMC3    C1 4325   3.625   1.860   1.210  0.3495 -0.0317  0.2776
  287TMC3    C2 4326   3.633   1.745   1.138  0.7901  0.2964 -0.8224
  287TMC3    C3 4327   3.750   1.691   1.090  0.0812 -0.3333  0.0144
  287TMC3    C4 4328   3.743   1.925   1.240  0.1306 -0.0728  0.7284
  287TMC3    C5 4329   3.857   1.868   1.201 -0.1340  0.6836 -0.4280
  287TMC3    C6 4330   3.865   1.759   1.109 -0.6702  0.2101 -0.2836
  287TMC3     C 4331   3.491   1.909   1.242  0.4669  0.1494  0.3612
  287TMC3     O 4332   3.409   1.857   1.173 -0.2465  0.1849  0.5012
  287TMC3     H 4333   3.538   1.698   1.117  0.7802 -0.3204  0.6427
  287TMC3    H1 4334   3.746   2.012   1.305  1.3060  0.5482 -0.1479
  287TMC3    H2 4335   3.964   1.720   1.088 -0.3980 -0.3472  2.0580
  287TMC3    C7 4336   3.979   1.925   1.264  0.5634 -0.2918  0.4099
  287TMC3    C8 4337   3.731   1.595   0.978 -0.2638  0.5633  0.7624
  287TMC3    O1 4338   3.956   2.031   1.321  0.5652  0.0839  0.2575
  287TMC3    O2 4339   3.618   1.552   0.951 -0.1103  0.1757 -0.4115
  288TMC3    C1 4340   4.708   1.269  15.205 -0.4200  0.2129  0.8362
  288TMC3    C2 4341   4.645   1.173  15.280 -0.5509 -0.0416  0.0402
  288TMC3    C3 4342   4.562   1.218  15.377 -0.1510 -0.0479 -0.3905
  288TMC3    C4 4343   4.691   1.400  15.226 -0.4985  0.7750 -0.1408
  288TMC3    C5 4344   4.614   1.439  15.328  0.4583  0.1189  0.3775
  288TMC3    C6 4345   4.540   1.348  15.399  0.0443  0.5840 -0.1329
  288TMC3     C 4346   0.070   1.227  15.093 -0.5251  0.2042  0.2303
  288TMC3     O 4347   0.166   1.298  15.056  0.5980 -0.5480  0.5777
  288TMC3     H 4348   4.674   1.069  15.273 -1.5625 -0.3652  0.6898
  288TMC3    H1 4349   0.017   1.472  15.159  1.3900 -0.0919  0.2625
  288TMC3    H2 4350   4.481   1.387  15.482  1.6786 -0.7043  1.6332
  288TMC3    C7 4351   4.580   1.575  15.356 -0.6206  0.2672  0.2525
  288TMC3    C8 4352   4.484   1.129  15.460  0.2645 -0.6902  0.0680
  288TMC3    O1 4353   4.520   1.606  15.455  0.5330  0.1675 -0.0711
  288TMC3    O2 4354   4.453   1.166  15.572 -0.6610 -0.3908  0.7447
  289MPD2     C 4355   0.505   0.681  14.589 -0.2820  0.3152  0.2033
  289MPD2    C1 4356   0.492   0.788  14.503 -0.0512 -0.6958 -0.8293
  289MPD2    C2 4357   0.366   0.792  14.435  0.0891 -0.2286 -0.2943
  289MPD2    C3 4358   0.267   0.697  14.451  0.3069  0.3192  0.0679
  289MPD2    C4 4359   0.289   0.586  14.526 -0.6585 -0.1780 -0.1758
  289MPD2    C5 4360   0.410   0.581  14.590 -0.4041  0.3324  0.3199
  289MPD2     H 4361   0.357   0.875  14.365  0.2849  0.3636  0.3800
  289MPD2    H1 4362   0.220   0.503  14.533 -0.9085  0.0103 -0.4413
  289MPD2    H2 4363   0.594   0.663  14.648  0.2997 -0.9933 -1.0848
  289MPD2    H3 4364   0.444   0.489  14.637 -1.2965  0.9026  2.0552
  289MPD2     N 4365   0.142   0.699  14.395 -1.3294  0.9764  0.0405
  289MPD2    H5 4366   0.079   0.624  14.420  0.5913 -0.6320  0.0426
  289MPD2    N1 4367   0.599   0.881  14.480  0.5108  0.0114 -0.2159
  289MPD2    H7 4368   0.687   0.855  14.523  1.0879 -0.3728 -1.6201
  290TMC3    C1 4369   4.674   0.812  14.289  0.0721 -0.5440  0.9531
  290TMC3    C2 4370   4.619   0.936  14.293  0.3601  0.3151  0.6693
  290TMC3    C3 4371   4.489   0.949  14.255 -0.1926  0.7862 -0.4906
  290TMC3    C4 4372   4.615   0.701  14.246 -0.6653  0.2020 -0.1809
  290TMC3    C5 4373   4.483   0.719  14.206 -0.5542  0.1285 -0.2117
  290TMC3    C6 4374   4.421   0.839  14.206 -0.1560  0.0913  0.3870
  290TMC3     C 4375   0.093   0.814  14.325  0.2693  0.0213  0.1975
  290TMC3     O 4376   0.149   0.924  14.310 -0.4306 -0.0276 -0.1928
  290TMC3     H 4377   4.667   1.021  14.341 -0.4200  0.6315  0.8892
  290TMC3    H1 4378   4.659   0.603  14.232 -0.8069  0.1575 -0.3239
  290TMC3    H2 4379   4.320   0.852  14.169  0.1466  3.5482  0.8341
  290TMC3    C7 4380   4.411   0.615  14.130  0.0408  0.2632 -0.2486
  290TMC3    C8 4381   4.410   1.070  14.278 -0.8130 -0.0480  0.3269
  290TMC3    O1 4382   4.327   0.655  14.049  0.2243  0.3580  0.2336
  290TMC3    O2 4383   4.320   1.088  14.195  0.0929 -0.0319 -0.5221
  291MPD2     C 4384   4.411   0.834   0.623  0.5682 -0.3876  0.4927
  291MPD2    C1 4385   4.408   0.719   0.547 -0.5621 -0.0685  0.1132
  291MPD2    C2 4386   4.482   0.724   0.438 -0.3036  0.5294  0.6083
  291MPD2    C3 4387   4.545   0.836   0.395  0.3729 -0.0837  0.4477
  291MPD2    C4 4388   4.558   0.938   0.479 -0.2348  0.2063 -0.4116
  291MPD2    C5 4389   4.489   0.936   0.594 -0.4160 -0.7237  0.1730
  291MPD2     H 4390   4.480   0.632   0.379  0.9390  1.2650 -0.5755
  291MPD2    H1 4391   4.612   1.030   0.461 -0.0130  0.0146 -0.7226
  291MPD2    H2 4392   4.357   0.848   0.716  1.2096  1.9114  0.5227
  291MPD2    H3 4393   4.492   1.026   0.654 -3.7609  0.7179 -1.8099
  291MPD2     N 4394   4.596   0.851   0.263 -0.3630  0.7392  0.6811
  291MPD2    H5 4395   4.636   0.942   0.245  0.5449  0.3544  0.7461
  291MPD2    N1 4396   4.318   0.613   0.565 -0.6054 -0.2984  0.2487
  291MPD2    H7 4397   4.301   0.551   0.486 -0.3097  1.0358 -0.8688
  292TMC3    C1 4398   4.109   0.528   0.622 -0.6313  0.3552 -0.2965
  292TMC3    C2 4399   4.040   0.469   0.728 -0.7979  0.5406  0.3144
  292TMC3    C3 4400   3.948   0.371   0.702 -0.7807  0.1254  0.3676
  292TMC3    C4 4401   4.088   0.489   0.496 -0.7946 -0.8835  0.3125
  292TMC3    C5 4402   3.996   0.392   0.471 -0.6488 -0.1281 -0.1005
  292TMC3    C6 4403   3.936   0.328   0.572 -0.1621 -0.5055  0.0217
  292TMC3     C 4404   4.220   0.610   0.663 -0.4090  0.4819  0.1587
  292TMC3     O 4405   4.210   0.678   0.765  0.1812 -0.1886  0.0356
  292TMC3     H 4406   4.069   0.503   0.826  1.7209 -0.7911  0.0370
  292TMC3    H1 4407   4.126   0.542   0.410 -1.6568 -4.5618 -2.3133
  292TMC3    H2 4408   3.877   0.240   0.549 -1.6972  1.1266 -2.2816
  292TMC3    C7 4409   3.951   0.377   0.337 -0.2973 -0.0782  0.3225
  292TMC3    C8 4410   3.884   0.298   0.813  0.4034  0.3404  0.2533
  292TMC3    O1 4411   3.831   0.384   0.307 -0.3515 -0.6317 -0.2826
  292TMC3    O2 4412   3.937   0.317   0.923  0.5214 -0.7494  0.2304
  293MPD2     C 4413   1.021   1.912  12.400  0.7435 -0.2576 -0.5660
  293MPD2    C1 4414   0.933   1.853  12.492  0.8860 -0.6416  0.5665
  293MPD2    C2 4415   0.957   1.871  12.624 -0.3564  0.1905 -1.0615
  293MPD2    C3 4416   1.063   1.941  12.673 -0.2110 -0.6151  0.4104
  293MPD2    C4 4417   1.152   1.987  12.573 -0.1162 -0.1564  0.2760
  293MPD2    C5 4418   1.124   1.990  12.437  0.2425 -0.5307  0.4215
  293MPD2     H 4419   0.891   1.829  12.699  0.6023 -0.0328 -0.3471
  293MPD2    H1 4420   1.242   2.039  12.603 -0.5252  2.1747 -2.4798
  293MPD2    H2 4421   1.001   1.909  12.293  0.5694  1.8389 -0.5896
  293MPD2    H3 4422   1.186   2.043  12.365 -1.4931  2.5103  1.1777
  293MPD2     N 4423   1.092   1.932  12.811  0.6076 -0.3161 -0.2993
  293MPD2    H5 4424   1.018   1.900  12.873 -0.0071  0.6929 -0.5093
  293MPD2    N1 4425   0.814   1.793  12.441  0.0149  0.1860  0.2283
  293MPD2    H7 4426   0.814   1.790  12.340  0.5219 -0.5515  0.2508
  294TMC3    C1 4427   0.598   1.716  12.426 -0.1365  0.7628 -0.4546
  294TMC3    C2 4428   0.496   1.640  12.482 -0.0123 -0.3341  0.6549
  294TMC3    C3 4429   0.410   1.580  12.393  0.7744  0.3428  0.4435
  294TMC3    C4 4430   0.595   1.755  12.295  0.3880 -0.7220  0.2407
  294TMC3    C5 4431   0.500   1.699  12.211 -0.3981  0.1883  0.0430
  294TMC3    C6 4432   0.409   1.612  12.261  0.0946  0.3670  0.3105
  294TMC3     C 4433   0.710   1.742  12.507  0.2368  0.2307  0.1175
  294TMC3     O 4434   0.695   1.738  12.630  0.0125  0.2424  0.0554
  294TMC3     H 4435   0.487   1.629  12.590  1.8880 -1.0822  0.7417
  294TMC3    H1 4436   0.663   1.828  12.252 -0.7434  0.0392 -0.2715
  294TMC3    H2 4437   0.343   1.565  12.190 -0.0555 -0.6449  1.1228
  294TMC3    C7 4438   0.501   1.716  12.064 -0.1863 -0.5015 -0.2902
  294TMC3    C8 4439   0.304   1.498  12.438 -0.7795  0.9243 -0.0923
  294TMC3    O1 4440   0.398   1.741  12.004 -0.3864 -0.3842  0.4189
  294TMC3    O2 4441   0.279   1.504  12.557  0.0901  0.2994 -0.6566
  295MPD2     C 4442   1.297   0.784  17.392  0.7863  0.7984  0.0033
  295MPD2    C1 4443   1.329   0.786  17.525 -0.4226 -0.6200  0.3070
  295MPD2    C2 4444   1.229   0.819  17.619  0.6533 -0.2371 -0.5302
  295MPD2    C3 4445   1.106   0.871  17.579 -0.6089  0.1868 -0.4510
  295MPD2    C4 4446   1.078   0.854  17.442 -0.2717 -0.5860  0.0356
  295MPD2    C5 4447   1.168   0.805  17.348  0.5361  0.1248 -0.0041
  295MPD2     H 4448   1.249   0.827   0.039  1.4688 -1.0695 -0.6164
  295MPD2    H1 4449   0.982   0.893  17.409 -1.1019 -1.6184  1.2504
  295MPD2    H2 4450   1.366   0.733  17.325 -0.7833 -0.5952 -0.5645
  295MPD2    H3 4451   1.140   0.784  17.246 -0.3729 -0.9328  0.4655
  295MPD2     N 4452   1.011   0.934  17.658 -0.1002  0.4293  0.3540
  295MPD2    H5 4453   0.922   0.964  17.621  0.3410  1.0640 -0.2066
  295MPD2    N1 4454   1.447   0.732  17.584  0.0241  0.5091  0.1452
  295MPD2    H7 4455   1.457   0.744  17.684  0.7886 -0.7663  0.2212
  296TMC3    C1 4456   0.909   1.027   0.156 -0.8183  0.4534  0.1114
  296TMC3    C2 4457   0.939   1.122   0.252 -1.0787  0.0068  0.1604
  296TMC3    C3 4458   0.847   1.142   0.351  0.3672 -0.5868 -0.0692
  296TMC3    C4 4459   0.811   0.933   0.174  0.3273 -0.4969  0.0175
  296TMC3    C5 4460   0.733   0.952   0.281  0.4287  0.5086 -0.0071
  296TMC3    C6 4461   0.740   1.058   0.369 -0.2732 -0.2258  0.5399
  296TMC3     C 4462   1.032   0.967   0.103  0.0651 -0.1907 -0.5766
  296TMC3     O 4463   1.126   0.957   0.178  0.1478 -0.1917  0.2646
  296TMC3     H 4464   1.033   1.176   0.247 -0.9066 -0.2150  1.1702
  296TMC3    H1 4465   0.812   0.845   0.111 -2.9656 -0.3723 -0.2581
  296TMC3    H2 4466   0.665   1.074   0.445 -0.8631 -0.3979 -0.0053
  296TMC3    C7 4467   0.644   0.843   0.297 -0.1317 -0.3995  0.1689
  296TMC3    C8 4468   0.856   1.271   0.423 -0.0243 -0.8140  0.7172
  296TMC3    O1 4469   0.595   0.781   0.204  0.3598 -0.2990  0.2261
  296TMC3    O2 4470   0.926   1.362   0.381 -0.0502  0.3444  0.0118
  297MPD2     C 4471   3.693   3.073  16.830 -0.5168  0.6429 -0.1491
  297MPD2    C1 4472   3.699   3.109  16.696  0.4364  0.0505  0.4860
  297MPD2    C2 4473   3.793   3.198  16.650  0.3360 -0.5355 -0.3615
  297MPD2    C3 4474   3.896   3.249  16.735  0.1088  0.1765 -0.0317
  297MPD2    C4 4475   3.891   3.213  16.865 -0.1008  0.2316 -0.2431
  297MPD2    C5 4476   3.794   3.126  16.908  0.1475  0.8629  0.1921
  297MPD2     H 4477   3.792   3.208  16.542 -1.5664  0.0248 -0.2982
  297MPD2    H1 4478   3.967   3.248  16.934  0.5641 -0.0036 -0.8521
  297MPD2    H2 4479   3.627   3.003  16.879  1.0870  0.2292  1.4150
  297MPD2    H3 4480   3.792   3.099  17.013  2.5025  0.3598  0.1210
  297MPD2     N 4481   4.002   3.333  16.685 -0.3661  0.3185  0.3356
  297MPD2    H5 4482   4.003   3.357  16.586  1.6328 -0.4475  0.1713
  297MPD2    N1 4483   3.596   3.066  16.610  0.3423  0.1957 -0.0309
  297MPD2    H7 4484   3.601   3.112  16.520 -0.2520  0.1743 -0.0707
  298TMC3    C1 4485   3.402   2.960  16.532 -0.3979  0.4274 -0.4428
  298TMC3    C2 4486   3.442   2.973  16.399 -0.0555 -0.0172 -0.0769
  298TMC3    C3 4487   3.349   2.966  16.296 -0.0365 -0.1034 -0.3963
  298TMC3    C4 4488   3.269   2.934  16.563  0.1511  0.2481 -0.0517
  298TMC3    C5 4489   3.175   2.932  16.465 -0.2242 -0.5472 -0.2069
  298TMC3    C6 4490   3.214   2.954  16.334 -0.1929  0.2627  0.6181
  298TMC3     C 4491   3.492   2.981  16.640  0.3241  0.5286  0.0380
  298TMC3     O 4492   3.467   2.914  16.740  0.3920 -0.0796  0.5273
  298TMC3     H 4493   3.546   2.994  16.375 -1.1775  2.1109 -3.0209
  298TMC3    H1 4494   3.237   2.917  16.665  0.5804  0.1825  0.0754
  298TMC3    H2 4495   3.140   2.967  16.256 -0.0370 -0.7340  0.3098
  298TMC3    C7 4496   3.040   2.980  16.500 -0.4436 -0.9652  0.6608
  298TMC3    C8 4497   3.379   2.935  16.157  0.2756  0.0649  0.0097
  298TMC3    O1 4498   3.032   3.044  16.604  0.3958  0.8018  0.3277
  298TMC3    O2 4499   3.290   2.945  16.075  0.3534  0.7934  0.4875
  299MPD2     C 4500   4.171   1.886  10.443 -0.5427  0.0384  0.6365
  299MPD2    C1 4501   4.146   2.022  10.465 -0.0229  1.0032 -0.0603
  299MPD2    C2 4502   4.058   2.077  10.378  0.5670 -0.2212  0.9635
  299MPD2    C3 4503   4.002   2.007  10.276  0.0870  0.1735 -0.2535
  299MPD2    C4 4504   4.014   1.874  10.265 -0.3780  0.6902 -0.1466
  299MPD2    C5 4505   4.097   1.811  10.353 -0.5813 -0.2254 -0.7923
  299MPD2     H 4506   4.044   2.185  10.375  0.0569 -0.3270 -0.5248
  299MPD2    H1 4507   3.964   1.820  10.185  0.4776 -1.4283  0.7311
  299MPD2    H2 4508   4.232   1.828  10.512 -0.1609 -0.2571  0.0474
  299MPD2    H3 4509   4.096   1.702  10.353  0.2626 -0.2363 -2.0019
  299MPD2     N 4510   3.924   2.061  10.175  0.2444  0.2912 -0.3360
  299MPD2    H5 4511   3.896   2.000  10.099  2.9311 -1.0424 -0.2677
  299MPD2    N1 4512   4.225   2.088  10.560  0.0144 -0.1890 -0.2117
  299MPD2    H7 4513   4.294   2.043  10.620  1.3837  0.3310 -1.3940
  300TMC3    C1 4514   3.780   2.205  10.066  0.2175 -0.2524  0.0556
  300TMC3    C2 4515   3.768   2.332  10.026  0.3288  0.0518  0.6215
  300TMC3    C3 4516   3.650   2.372   9.966  0.0054 -0.1818 -0.5716
  300TMC3    C4 4517   3.689   2.111  10.039  0.7329 -0.3019  0.0512
  300TMC3    C5 4518   3.578   2.143   9.970  0.2033 -0.3308  0.4536
  300TMC3    C6 4519   3.555   2.273   9.934  0.0645  0.1783 -0.2329
  300TMC3     C 4520   3.870   2.185  10.175  0.1765 -0.6375  0.9111
  300TMC3     O 4521   3.885   2.280  10.252 -0.1286  0.4724  0.1035
  300TMC3     H 4522   3.848   2.397  10.061  1.4723 -1.2360  0.3936
  300TMC3    H1 4523   3.692   2.015  10.088  0.5169 -0.5507 -0.4227
  300TMC3    H2 4524   3.459   2.299   9.891  0.4180  0.2983 -0.9604
  300TMC3    C7 4525   3.455   2.083  10.009  0.8964  0.4215 -0.5817
  300TMC3    C8 4526   3.603   2.510   9.987  0.0468  0.6048  0.0711
  300TMC3    O1 4527   3.416   1.995   9.933 -0.0813  0.2294 -0.1743
  300TMC3    O2 4528   3.499   2.540   9.932  0.5191 -0.0724 -0.1149
  301MPD2     C 4529   1.137   4.406   1.856  0.2982 -0.2147 -0.3142
  301MPD2    C1 4530   1.035   4.345   1.784  0.0042  0.2896  0.4567
  301MPD2    C2 4531   1.063   4.219   1.742  0.2075  0.3202  0.4102
  301MPD2    C3 4532   1.184   4.153   1.767  0.0175 -0.4599 -0.4621
  301MPD2    C4 4533   1.276   4.218   1.846  1.0715 -0.0078  0.3653
  301MPD2    C5 4534   1.254   4.345   1.892 -0.1046 -0.4500  0.3990
  301MPD2     H 4535   0.984   4.169   1.688 -2.2594  1.5511  2.8635
  301MPD2    H1 4536   1.363   4.170   1.888  2.0887  0.8629 -0.7500
  301MPD2    H2 4537   1.127   4.505   1.900  1.1963  0.4179 -1.5530
  301MPD2    H3 4538   1.325   4.399   1.954  0.1015  2.2776 -2.2625
  301MPD2     N 4539   1.213   4.020   1.720  0.2180  0.4037 -0.2415
  301MPD2    H5 4540   1.304   3.983   1.746 -0.6106 -0.9651  0.6964
  301MPD2    N1 4541   0.913   4.411   1.746  0.0436 -0.0211 -0.0170
  301MPD2    H7 4542   0.842   4.351   1.706  0.1103  1.0998 -1.7986
  302TMC3    C1 4543   1.166   3.819   1.599  0.3551  0.6229 -0.3089
  302TMC3    C2 4544   1.264   3.750   1.673 -0.5830  0.8906 -0.5978
  302TMC3    C3 4545   1.317   3.636   1.612 -0.1270 -0.3704  0.2941
  302TMC3    C4 4546   1.116   3.772   1.485  0.5023  0.3293 -0.5518
  302TMC3    C5 4547   1.178   3.666   1.428  0.0867 -0.0005  0.2043
  302TMC3    C6 4548   1.279   3.598   1.485 -0.8125 -0.6647 -0.2319
  302TMC3     C 4549   1.123   3.947   1.642 -0.5150  0.3935  0.0973
  302TMC3     O 4550   1.025   3.989   1.576 -0.0493 -0.1528 -0.0369
  302TMC3     H 4551   1.290   3.785   1.772  0.6626  0.0592 -0.6316
  302TMC3    H1 4552   1.054   3.831   1.418 -2.4206 -0.4690  1.4664
  302TMC3    H2 4553   1.333   3.514   1.442  2.0435  1.0309  0.0955
  302TMC3    C7 4554   1.148   3.617   1.293  0.0053 -0.1551  0.6494
  302TMC3    C8 4555   1.435   3.577   1.665 -0.0630  0.4098  1.1602
  302TMC3    O1 4556   1.249   3.592   1.228 -0.1408 -0.2154  0.0223
  302TMC3    O2 4557   1.450   3.460   1.643 -0.6355  0.0916  0.4602
  303MPD2     C 4558   1.600   1.161  10.017  0.5426 -0.4701  0.6117
  303MPD2    C1 4559   1.503   1.237  10.079 -0.1659 -0.6138  0.7572
  303MPD2    C2 4560   1.511   1.376  10.065 -0.7544  0.3768 -0.2237
  303MPD2    C3 4561   1.609   1.438   9.982 -0.1088 -0.0885  0.1774
  303MPD2    C4 4562   1.700   1.357   9.919 -0.1853  0.3229  0.0587
  303MPD2    C5 4563   1.691   1.223   9.935 -0.2925  0.5397 -0.6623
  303MPD2     H 4564   1.447   1.442  10.123 -0.1304 -0.3693  1.3276
  303MPD2    H1 4565   1.778   1.396   9.854  0.3767  0.1252  0.6185
  303MPD2    H2 4566   1.602   1.053  10.023  1.1653 -0.5059 -0.2968
  303MPD2    H3 4567   1.765   1.165   9.881 -2.0178 -0.7361 -1.6630
  303MPD2     N 4568   1.620   1.579   9.955 -0.3679 -0.8950  0.7706
  303MPD2    H5 4569   1.702   1.620   9.911 -0.1804 -1.1135  0.9156
  303MPD2    N1 4570   1.407   1.162  10.156  0.5396  0.1181  0.0726
  303MPD2    H7 4571   1.415   1.061  10.161 -1.5387 -0.0066  0.9168
  304TMC3    C1 4572   1.211   1.131  10.293 -0.2509 -0.0130  0.7933
  304TMC3    C2 4573   1.125   1.195  10.376 -0.4192  0.7213 -0.5505
  304TMC3    C3 4574   0.997   1.148  10.392  0.0402 -0.4207  0.0653
  304TMC3    C4 4575   1.184   1.014  10.220  0.9637 -0.3392  0.1802
  304TMC3    C5 4576   1.057   0.971  10.238 -0.0194 -0.6128 -0.1700
  304TMC3    C6 4577   0.973   1.032  10.327  0.2385 -0.7544  1.0209
  304TMC3     C 4578   1.305   1.223  10.229  0.4987 -0.1298 -0.0714
  304TMC3     O 4579   1.279   1.341  10.237 -0.2858  0.1630 -0.0335
  304TMC3     H 4580   1.156   1.288  10.422 -1.9717  1.8194 -1.7188
  304TMC3    H1 4581   1.236   0.990  10.128  0.0142  0.0617 -0.4614
  304TMC3    H2 4582   0.874   0.987  10.335  1.0392 -3.0546 -1.7717
  304TMC3    C7 4583   0.993   0.921  10.115  0.0749 -0.1051  0.1000
  304TMC3    C8 4584   0.902   1.248  10.353 -0.2396  0.1528 -0.4481
  304TMC3    O1 4585   1.037   0.819  10.061  0.0835  0.3040 -0.1808
  304TMC3    O2 4586   0.844   1.212  10.251 -0.2379 -0.0877  0.2778
  305MPD2     C 4587   4.439   3.838  13.832  0.6949 -1.2290  0.9308
  305MPD2    C1 4588   4.459   3.711  13.883 -0.1278  0.2826 -0.2985
  305MPD2    C2 4589   4.413   3.604  13.809 -0.2113 -0.3606 -0.2002
  305MPD2    C3 4590   4.365   3.619  13.685 -0.1624 -0.0204  0.0132
  305MPD2    C4 4591   4.335   3.743  13.638 -0.0259  0.1561  1.0053
  305MPD2    C5 4592   4.378   3.848  13.714 -0.5354 -0.3195 -0.0878
  305MPD2     H 4593   4.448   3.506  13.839  0.4443 -0.2853 -0.7285
  305MPD2    H1 4594   4.301   3.762  13.537 -1.2474 -0.3923  1.3033
  305MPD2    H2 4595   4.469   3.930  13.881 -2.2001  0.1622  0.0392
  305MPD2    H3 4596   4.362   3.945  13.668  1.2697  0.6068  1.2095
  305MPD2     N 4597   4.350   3.505  13.598 -0.4329  0.4214  0.6814
  305MPD2    H5 4598   4.336   3.530  13.501 -0.7197 -0.9266  0.3840
  305MPD2    N1 4599   4.531   3.697  14.005  0.6026  0.8436  0.1900
  305MPD2    H7 4600   4.570   3.781  14.047  0.3290 -0.3433  2.8445
  306TMC3    C1 4601   4.603   3.633  14.200  0.6702 -0.3847 -0.4317
  306TMC3    C2 4602   4.684   3.537  14.267 -0.6421  0.6318 -0.2950
  306TMC3    C3 4603   0.007   3.568  14.394 -0.1864 -0.1191  1.2095
  306TMC3    C4 4604   4.565   3.747  14.262  0.8055 -0.1072 -0.1128
  306TMC3    C5 4605   4.602   3.772  14.391  0.0287 -0.2568  0.0029
  306TMC3    C6 4606   4.690   3.687  14.454  0.0484 -0.3411  0.2668
  306TMC3     C 4607   4.534   3.592  14.086  0.7486  0.4461 -0.6536
  306TMC3     O 4608   4.490   3.481  14.071  0.0512  0.7036 -0.2795
  306TMC3     H 4609   4.698   3.439  14.223  0.2263 -0.0772  1.5221
  306TMC3    H1 4610   4.500   3.817  14.211  0.0189 -0.2462  0.6819
  306TMC3    H2 4611   0.016   3.712  14.548  1.8736  0.1892 -0.7821
  306TMC3    C7 4612   4.555   3.897  14.447 -0.1194 -0.2233 -0.0664
  306TMC3    C8 4613   0.098   3.469  14.450  0.6246 -0.1040 -0.1375
  306TMC3    O1 4614   4.458   3.947  14.399 -0.3494 -0.8673 -0.3014
  306TMC3    O2 4615   0.149   3.386  14.379 -0.3592 -0.0997 -0.3517
  307MPD2     C 4616   2.595   0.958   0.206 -0.5587 -0.1291 -0.6228
  307MPD2    C1 4617   2.647   1.088   0.191  0.3989 -0.3461  0.6955
  307MPD2    C2 4618   2.598   1.185   0.277 -0.7911  0.0298 -0.3370
  307MPD2    C3 4619   2.510   1.148   0.378  0.7366  0.1091 -0.4855
  307MPD2    C4 4620   2.466   1.019   0.391  0.3584 -0.0635 -0.4068
  307MPD2    C5 4621   2.493   0.928   0.291  0.5089 -0.5536  0.5527
  307MPD2     H 4622   2.637   1.286   0.278  0.5072 -0.4753 -0.9221
  307MPD2    H1 4623   2.404   0.977   0.469 -0.6524  0.2573 -1.0433
  307MPD2    H2 4624   2.613   0.878   0.135  0.1809  0.0971 -0.6914
  307MPD2    H3 4625   2.442   0.832   0.295 -0.3773 -0.1087 -0.0433
  307MPD2     N 4626   2.471   1.241   0.472 -0.1613 -0.8190 -0.4627
  307MPD2    H5 4627   2.514   1.331   0.456 -1.7399  0.6687  3.5457
  307MPD2    N1 4628   2.727   1.135   0.079 -0.7161  0.5202 -0.4386
  307MPD2    H7 4629   2.755   1.232   0.088  0.3121  0.1245  0.6583
  308TMC3    C1 4630   2.168   1.515   0.677  0.5573  0.2288 -0.5935
  308TMC3    C2 4631   2.256   1.610   0.727 -0.0007  0.1439  0.1178
  308TMC3    C3 4632   2.386   1.568   0.721  0.1353  0.9595 -0.0093
  308TMC3    C4 4633   2.196   1.383   0.638 -0.1678  0.0287  0.2388
  308TMC3    C5 4634   2.327   1.358   0.629  0.1637  0.0962 -0.8539
  308TMC3    C6 4635   2.424   1.444   0.675 -0.7153  0.0901 -0.7758
  308TMC3     C 4636   2.034   1.538   0.684 -0.2652 -0.4000  0.5024
  308TMC3     O 4637   1.960   1.440   0.704  0.1471 -0.7372 -0.6512
  308TMC3     H 4638   2.231   1.707   0.768 -0.2333  0.4934 -0.8409
  308TMC3    H1 4639   2.119   1.314   0.604 -0.3226 -0.4527  1.5559
  308TMC3    H2 4640   2.530   1.425   0.660 -0.6678  0.7992 -1.3118
  308TMC3    C7 4641   2.375   1.233   0.572  0.2470 -0.2680 -0.2161
  308TMC3    C8 4642   2.483   1.677   0.707  0.0162 -0.1810 -0.8057
  308TMC3    O1 4643   2.300   1.142   0.604  0.2477  0.4730  0.4406
  308TMC3    O2 4644   2.432   1.789   0.685 -0.3403  1.0348  0.1903
  309MPD2     C 4645   1.712   2.172  16.919  0.1768 -0.4983  0.7065
  309MPD2    C1 4646   1.685   2.307  16.898 -0.5035 -0.5206 -0.0371
  309MPD2    C2 4647   1.580   2.366  16.971  0.7949 -0.7082 -0.1751
  309MPD2    C3 4648   1.510   2.291  17.066 -0.5859 -0.2956  0.1379
  309MPD2    C4 4649   1.544   2.162  17.091 -0.4946  0.4136 -0.5519
  309MPD2    C5 4650   1.643   2.102  17.018 -1.1080 -0.6305  0.0627
  309MPD2     H 4651   1.546   2.465  16.942 -0.0767 -0.0471  3.1148
  309MPD2    H1 4652   1.484   2.099  17.155 -0.1964  0.2232 -0.4621
  309MPD2    H2 4653   1.787   2.111  16.869 -1.0952 -1.4589 -0.0255
  309MPD2    H3 4654   1.657   1.996  17.036  0.5092 -0.2582  0.9792
  309MPD2     N 4655   1.406   2.355  17.143  0.5371  0.4079 -0.1263
  309MPD2    H5 4656   1.378   2.304  17.226  1.1850  1.8406  0.9751
  309MPD2    N1 4657   1.756   2.386  16.803 -0.4989  0.4112 -0.0786
  309MPD2    H7 4658   1.705   2.468  16.773  2.0726  1.5938 -1.2188
  310TMC3    C1 4659   1.924   2.437  16.643  0.1006  0.1070  0.0742
  310TMC3    C2 4660   1.862   2.556  16.621  0.4026 -0.0393 -0.0827
  310TMC3    C3 4661   1.912   2.636  16.528  0.1851  0.6778 -0.2448
  310TMC3    C4 4662   2.031   2.391  16.571 -0.0333 -0.1603  0.1888
  310TMC3    C5 4663   2.088   2.482  16.487  0.4046  0.4098  0.1498
  310TMC3    C6 4664   2.031   2.609  16.467  0.4979  0.5341  0.6030
  310TMC3     C 4665   1.867   2.336  16.737 -0.1364  0.4063 -0.0194
  310TMC3     O 4666   1.942   2.244  16.762 -0.7321 -0.5877 -0.5160
  310TMC3     H 4667   1.784   2.590  16.689  0.8569  1.8461 -0.4919
  310TMC3    H1 4668   2.073   2.293  16.589 -0.1558  0.0977  1.8808
  310TMC3    H2 4669   2.086   2.687  16.415  1.1648  0.8208  1.7397
  310TMC3    C7 4670   2.231   2.469  16.461  0.0355  0.2051  0.2666
  310TMC3    C8 4671   1.825   2.744  16.477  0.1777 -0.0138 -0.0256
  310TMC3    O1 4672   2.283   2.372  16.515  0.5331  0.5224  0.4150
  310TMC3    O2 4673   1.715   2.771  16.532 -0.0346  0.4003  0.0770
  311MPD2     C 4674   3.660   3.343  12.705 -0.0506 -0.1370 -0.1824
  311MPD2    C1 4675   3.564   3.421  12.649 -0.2239 -0.8424  0.7612
  311MPD2    C2 4676   3.437   3.435  12.698  0.0615  0.0202 -0.0840
  311MPD2    C3 4677   3.401   3.366  12.813 -0.6730 -0.2647 -0.5866
  311MPD2    C4 4678   3.494   3.283  12.868  0.1436 -0.4478  0.2368
  311MPD2    C5 4679   3.619   3.278  12.815  0.3733 -0.1568  0.7595
  311MPD2     H 4680   3.364   3.501  12.652  1.6500  1.5387 -0.4702
  311MPD2    H1 4681   3.473   3.223  12.956  1.4200  2.2396  2.3997
  311MPD2    H2 4682   3.762   3.340  12.670  0.4157 -2.4582  1.3636
  311MPD2    H3 4683   3.695   3.220  12.867 -0.2627 -2.6916 -1.1390
  311MPD2     N 4684   3.276   3.386  12.875  0.4371  0.0029  0.6676
  311MPD2    H5 4685   3.198   3.435  12.831 -0.7228 -1.7573  0.7530
  311MPD2    N1 4686   3.599   3.508  12.538  0.4638 -0.4418 -0.3747
  311MPD2    H7 4687   3.530   3.578  12.513  0.6851 -0.0245  0.1800
  312TMC3    C1 4688   3.110   3.399  13.029 -0.1375 -0.7170 -0.9423
  312TMC3    C2 4689   3.024   3.386  12.923  0.8695  0.1312  0.5671
  312TMC3    C3 4690   2.910   3.471  12.923 -0.4366 -0.8481  0.0520
  312TMC3    C4 4691   3.096   3.480  13.133 -0.2108  0.4664  0.2461
  312TMC3    C5 4692   2.987   3.562  13.130  0.4672 -0.6294  0.7565
  312TMC3    C6 4693   2.898   3.559  13.027 -0.3472  0.3320  0.2309
  312TMC3     C 4694   3.244   3.349  13.003  0.3070 -0.6874  0.4087
  312TMC3     O 4695   3.317   3.331  13.102  0.1256 -0.2315  0.3293
  312TMC3     H 4696   3.032   3.300  12.857  2.5372  0.2334  0.6330
  312TMC3    H1 4697   3.163   3.487  13.218  1.1503 -0.8302 -0.7166
  312TMC3    H2 4698   2.818   3.631  13.042  1.4221  1.8661  2.2323
  312TMC3    C7 4699   2.988   3.676  13.227  0.1544  0.4544 -0.0636
  312TMC3    C8 4700   2.797   3.411  12.864 -0.2995 -0.1789 -0.1309
  312TMC3    O1 4701   2.940   3.781  13.184  0.1778  0.1604 -0.2131
  312TMC3    O2 4702   2.815   3.341  12.766 -0.3699 -0.6557  0.0021
  313MPD2     C 4703   2.590   2.443  10.554 -1.0064  1.0207  0.0457
  313MPD2    C1 4704   2.706   2.489  10.591 -0.2902  0.0708  0.0943
  313MPD2    C2 4705   2.813   2.495  10.504 -0.4831 -0.3539  0.5906
  313MPD2    C3 4706   2.809   2.436  10.379 -0.3201  0.6301 -0.2273
  313MPD2    C4 4707   2.689   2.379  10.341 -0.2799  0.1496  0.0091
  313MPD2    C5 4708   2.587   2.390  10.432 -0.3470  0.0833  0.1808
  313MPD2     H 4709   2.907   2.541  10.530  0.0360 -1.4221  0.5801
  313MPD2    H1 4710   2.682   2.332  10.243  1.6076 -2.2988  1.0450
  313MPD2    H2 4711   2.502   2.444  10.617 -0.5794 -1.4935  0.6980
  313MPD2    H3 4712   2.496   2.348  10.390 -0.2304 -1.1169  1.1380
  313MPD2     N 4713   2.932   2.446  10.305  0.2728  0.1496  0.5667
  313MPD2    H5 4714   3.012   2.494  10.345  1.4249 -0.7931 -0.6040
  313MPD2    N1 4715   2.714   2.548  10.721  0.0382 -0.0573  0.1240
  313MPD2    H7 4716   2.637   2.532  10.785  0.4399 -1.8466  0.1679
  314TMC3    C1 4717   2.797   2.682  10.893 -0.4639 -0.4896 -0.2658
  314TMC3    C2 4718   2.897   2.743  10.959 -0.1241 -0.7099 -0.2044
  314TMC3    C3 4719   2.874   2.825  11.066 -0.2740  0.5887 -0.2616
  314TMC3    C4 4720   2.667   2.711  10.933 -0.4154  0.1515 -0.5070
  314TMC3    C5 4721   2.636   2.790  11.039 -0.4227  0.0521  0.0500
  314TMC3    C6 4722   2.739   2.854  11.100  0.6758 -0.0086  0.2089
  314TMC3     C 4723   2.824   2.610  10.774 -0.2261 -0.3670  0.0869
  314TMC3     O 4724   2.932   2.646  10.730  0.1726  0.1131  0.3438
  314TMC3     H 4725   2.999   2.733  10.921 -0.3591  0.9899 -1.2607
  314TMC3    H1 4726   2.582   2.683  10.872 -0.9070 -2.0225  1.1219
  314TMC3    H2 4727   2.715   2.930  11.174  1.9519 -1.4693  2.0986
  314TMC3    C7 4728   2.531   2.884  11.006 -0.1334 -0.4485  0.0102
  314TMC3    C8 4729   2.956   2.946  11.051 -0.6461 -0.1084 -0.0895
  314TMC3    O1 4730   2.444   2.914  11.089  0.5097 -0.2347 -0.4318
  314TMC3    O2 4731   3.066   2.930  11.006 -0.0130  0.4380 -0.5283
  315MPD2     C 4732   2.504   2.797  17.513 -0.7302 -0.3095  0.3923
  315MPD2    C1 4733   2.615   2.822  17.593  0.5495 -0.0206 -0.1888
  315MPD2    C2 4734   2.619   2.958  17.633  0.0932 -0.1233  0.3806
  315MPD2    C3 4735   2.537   3.052  17.593  0.3042  0.3717 -0.1063
  315MPD2    C4 4736   2.439   3.022  17.505 -0.1661 -0.0336 -0.4674
  315MPD2    C5 4737   2.414   2.892  17.469 -0.7041 -0.1656 -0.4315
  315MPD2     H 4738   2.676   2.985   0.036  3.5018 -0.3015 -1.7802
  315MPD2    H1 4739   2.371   3.097  17.466 -0.6715 -0.6132 -0.6854
  315MPD2    H2 4740   2.480   2.698  17.476  1.0072  0.4498 -2.7996
  315MPD2    H3 4741   2.340   2.873  17.392 -0.1753 -1.7120 -0.5598
  315MPD2     N 4742   2.567   3.182  17.640  0.0779 -0.6142 -0.4368
  315MPD2    H5 4743   2.653   3.177   0.009  0.7097  0.1710 -1.3602
  315MPD2    N1 4744   2.694   2.724  17.654  0.2971 -0.1266  0.0286
  315MPD2    H7 4745   2.752   2.754   0.045 -0.1836 -2.5616  1.3292
  316TMC3    C1 4746   2.578   3.412  17.671  0.2628 -0.6081 -0.4782
  316TMC3    C2 4747   2.665   3.383   0.092 -0.5132 -0.5918 -0.6801
  316TMC3    C3 4748   2.748   3.484   0.129 -0.4080  0.0723  0.7627
  316TMC3    C4 4749   2.575   3.535  17.606 -0.1655  0.6491 -0.1738
  316TMC3    C5 4750   2.669   3.628  17.649 -0.4949 -0.0861  0.1385
  316TMC3    C6 4751   2.750   3.604   0.069 -0.1909  0.0765  0.4571
  316TMC3     C 4752   2.516   3.300  17.605 -0.3084 -0.0266 -0.3179
  316TMC3     O 4753   2.429   3.318  17.520  0.0776 -0.4539  0.6387
  316TMC3     H 4754   2.651   3.298   0.157  0.0939  1.4050  2.0479
  316TMC3    H1 4755   2.511   3.546  17.519  0.4905 -2.4075 -1.0470
  316TMC3    H2 4756   2.821   3.683   0.094  0.2825  0.0574 -0.8482
  316TMC3    C7 4757   2.721   3.728  17.558 -0.4444 -0.6702 -0.0073
  316TMC3    C8 4758   2.840   3.458   0.243  0.1039 -0.0450 -0.7117
  316TMC3    O1 4759   2.761   3.834  17.610 -0.5544  0.2767 -0.5538
  316TMC3    O2 4760   2.866   3.559   0.307  0.2121  0.7921  0.0240
  317MPD2     C 4761   4.504   0.614  12.409  0.3563 -0.5162 -0.2467
  317MPD2    C1 4762   4.516   0.484  12.451  0.4891 -0.3605 -0.4086
  317MPD2    C2 4763   4.515   0.464  12.589  0.7786 -0.5779 -0.7777
  317MPD2    C3 4764   4.487   0.560  12.682 -0.5155 -0.3254  0.0113
  317MPD2    C4 4765   4.459   0.682  12.638  0.3069  0.8176 -0.3486
  317MPD2    C5 4766   4.465   0.708  12.500  0.1668  0.3461 -0.3288
  317MPD2     H 4767   4.545   0.365  12.621  2.5882  0.3115  0.2421
  317MPD2    H1 4768   4.438   0.767  12.702 -2.3932 -0.1732  0.1018
  317MPD2    H2 4769   4.484   0.651  12.309  3.3003  3.2429  0.5641
  317MPD2    H3 4770   4.454   0.809  12.460 -2.9360  0.0552 -0.2599
  317MPD2     N 4771   4.465   0.516  12.813 -0.0029 -0.6936  0.9437
  317MPD2    H5 4772   4.481   0.418  12.832 -1.3309 -0.7318  1.9269
  317MPD2    N1 4773   4.538   0.369  12.364 -0.0296 -0.5831 -0.4821
  317MPD2    H7 4774   4.522   0.276  12.401  1.3793  0.5327  2.9287
  318TMC3    C1 4775   4.439   0.539  13.042 -0.2569  0.5089 -0.4194
  318TMC3    C2 4776   4.366   0.426  13.061 -0.1402 -0.4443 -0.4049
  318TMC3    C3 4777   4.364   0.368  13.183 -0.2466 -0.4749  0.9846
  318TMC3    C4 4778   4.494   0.609  13.147  0.3435  0.0061  0.2864
  318TMC3    C5 4779   4.499   0.543  13.268 -0.3959  0.6363 -0.4421
  318TMC3    C6 4780   4.428   0.427  13.287  0.1162 -0.4229  0.1973
  318TMC3     C 4781   4.446   0.603  12.921  0.4707  0.7783  0.1607
  318TMC3     O 4782   4.464   0.725  12.935  0.0967 -0.0404 -0.1803
  318TMC3     H 4783   4.295   0.387  12.989 -0.9000 -0.4556  0.3487
  318TMC3    H1 4784   4.560   0.691  13.119 -0.1642  0.1680 -0.4218
  318TMC3    H2 4785   4.442   0.369  13.377  1.5173 -1.0357 -0.4125
  318TMC3    C7 4786   4.605   0.587  13.345  0.3882  0.0866 -0.2313
  318TMC3    C8 4787   4.289   0.249  13.218  0.0992  0.1949  1.0643
  318TMC3    O1 4788   4.643   0.705  13.343  0.1466 -0.2875 -0.0669
  318TMC3    O2 4789   4.318   0.194  13.322  0.0759  0.2372 -0.0832
  319MPD2     C 4790   0.598   2.192  17.161  0.0542 -0.3717  0.3254
  319MPD2    C1 4791   0.716   2.130  17.113  0.3251  0.6996 -0.0229
  319MPD2    C2 4792   0.757   2.153  16.981  0.8663  0.1817  0.5992
  319MPD2    C3 4793   0.691   2.240  16.893  0.1799 -0.0899 -0.1661
  319MPD2    C4 4794   0.578   2.296  16.940  0.0362 -0.0713  0.3792
  319MPD2    C5 4795   0.527   2.279  17.070 -0.2281  0.8313 -0.1920
  319MPD2     H 4796   0.844   2.097  16.948  2.8724  3.2230  0.6804
  319MPD2    H1 4797   0.532   2.373  16.879  0.7212  0.7879  0.9363
  319MPD2    H2 4798   0.569   2.185  17.265  0.4305 -1.0290  0.3891
  319MPD2    H3 4799   0.432   2.319  17.104 -0.9289 -1.4762  0.5737
  319MPD2     N 4800   0.732   2.264  16.759  0.3027 -0.2341 -0.0624
  319MPD2    H5 4801   0.664   2.310  16.699  0.9366  1.2687  0.3793
  319MPD2    N1 4802   0.796   2.044  17.188  0.7843  0.2770 -0.2985
  319MPD2    H7 4803   0.874   1.996  17.143  1.9917  2.9990 -1.0921
  320TMC3    C1 4804   0.860   2.240  16.566  0.0819  0.7612  0.6026
  320TMC3    C2 4805   0.799   2.337  16.490  0.6038 -0.7182 -0.5205
  320TMC3    C3 4806   0.786   2.327  16.354  0.1607  0.0883 -0.2880
  320TMC3    C4 4807   0.917   2.136  16.494  0.3653  0.5323 -0.1742
  320TMC3    C5 4808   0.912   2.136  16.361  0.0651 -0.3135 -0.0829
  320TMC3    C6 4809   0.849   2.227  16.280  0.5017  0.3002 -0.1196
  320TMC3     C 4810   0.857   2.230  16.710  0.5925 -0.0673  0.4151
  320TMC3     O 4811   0.953   2.169  16.753 -0.7246 -0.1433  0.5004
  320TMC3     H 4812   0.755   2.418  16.548 -0.6289 -1.5543 -0.2860
  320TMC3    H1 4813   0.953   2.051  16.552 -0.1937  0.4730  0.0843
  320TMC3    H2 4814   0.836   2.206  16.175 -0.1968  0.0520  0.0171
  320TMC3    C7 4815   0.950   2.011  16.295  0.2277 -0.1519  0.0318
  320TMC3    C8 4816   0.702   2.414  16.285 -0.2327 -0.9229  0.4067
  320TMC3    O1 4817   0.905   1.988  16.187  0.1916  0.2043  0.0461
  320TMC3    O2 4818   0.688   2.530  16.329  0.3491  0.3145 -0.7745
  321TMC3    C1 4819   0.888   1.925  17.356 -0.5220  0.1165  0.0407
  321TMC3    C2 4820   0.883   1.805  17.276  0.0412  0.2612  0.5160
  321TMC3    C3 4821   0.915   1.688  17.340  0.0320  0.1999 -0.3416
  321TMC3    C4 4822   0.925   1.916  17.488  0.4229  0.5338  0.9015
  321TMC3    C5 4823   0.979   1.802  17.540  0.2837 -0.3334 -0.1388
  321TMC3    C6 4824   0.957   1.685  17.471  0.5193 -0.0652 -0.3778
  321TMC3     C 4825   0.794   2.031  17.324  0.4428  0.3197 -0.3517
  321TMC3     O 4826   0.755   2.108  17.409 -0.3692  0.3385  0.2282
  321TMC3     H 4827   0.846   1.800  17.174  0.9479  0.2530  0.1874
  321TMC3    H1 4828   0.936   2.011  17.540  1.4251  1.5713 -1.2082
  321TMC3    H2 4829   0.989   1.593  17.517 -0.4077  0.5958  1.6199
  321TMC3    C7 4830   1.118   1.800  17.579 -0.7308 -0.0695 -0.2382
  321TMC3    C8 4831   0.985   1.599  17.256 -0.3152 -0.7051  0.0110
  321TMC3    O1 4832   1.177   1.703  17.534 -0.4661  0.4382 -0.2269
  321TMC3    O2 4833   0.951   1.596  17.140 -0.1953 -0.3500  0.2928
  322MPD2     C 4834   4.267   2.828  13.609 -0.3997 -0.3160  0.4399
  322MPD2    C1 4835   4.313   2.784  13.729 -0.0310 -0.0494  0.2908
  322MPD2    C2 4836   4.361   2.661  13.742 -0.0672 -0.0520 -0.0178
  322MPD2    C3 4837   4.382   2.584  13.621 -0.3620 -0.0114  0.5554
  322MPD2    C4 4838   4.344   2.629  13.501 -0.4304  1.0467  0.3047
  322MPD2    C5 4839   4.281   2.753  13.497  0.3222  0.1772 -0.6865
  322MPD2     H 4840   4.392   2.618  13.837  1.2392  2.7588  0.8337
  322MPD2    H1 4841   4.354   2.571  13.410  3.1980  0.3557  1.1444
  322MPD2    H2 4842   4.219   2.923  13.593 -0.4524 -0.3927  0.1332
  322MPD2    H3 4843   4.247   2.789  13.401  1.2240  0.6209 -0.8389
  322MPD2     N 4844   4.453   2.457  13.644  0.3506  0.0158  0.7156
  322MPD2    H5 4845   4.468   2.427  13.740 -0.4338 -1.2181  0.4545
  322MPD2    N1 4846   4.285   2.874  13.835 -0.0249  0.0371 -0.3737
  322MPD2    H7 4847   4.229   2.958  13.821  0.7111  0.3341 -1.5091
  323TMC3    C1 4848   4.323   2.986  14.038  0.3906 -0.0697 -0.2803
  323TMC3    C2 4849   4.403   3.084  13.981 -0.1079 -0.1805  0.7362
  323TMC3    C3 4850   4.471   3.169  14.067  0.1286  0.1569 -0.7498
  323TMC3    C4 4851   4.279   2.987  14.173 -0.2016  0.4583  0.3427
  323TMC3    C5 4852   4.347   3.077  14.250 -0.5012  0.4209 -0.5626
  323TMC3    C6 4853   4.442   3.167  14.199 -0.1000  0.3159 -0.1885
  323TMC3     C 4854   4.316   2.855  13.966 -0.3336  0.3210  0.0013
  323TMC3     O 4855   4.354   2.752  14.023  0.1464  0.2499  0.3914
  323TMC3     H 4856   4.447   3.075  13.882  0.1105 -0.2490  0.8402
  323TMC3    H1 4857   4.214   2.912  14.217  1.2221 -0.2527  1.2293
  323TMC3    H2 4858   4.496   3.236  14.262 -1.1977  1.0429 -0.0541
  323TMC3    C7 4859   4.377   3.032  14.380  0.2375  0.0087 -0.0351
  323TMC3    C8 4860   4.606   3.213  14.033 -0.5501  0.2164  0.0347
  323TMC3    O1 4861   4.361   2.910  14.398  0.0536 -0.0569  0.5647
  323TMC3    O2 4862   4.691   3.217  14.125 -0.2003 -0.4323  0.1651
  324MPD2     C 4863   1.057   3.939  14.612 -0.5085  0.2606  0.5337
  324MPD2    C1 4864   1.098   4.023  14.513  0.2184  0.2687  1.2586
  324MPD2    C2 4865   1.006   4.110  14.443  0.5270  0.2088  0.3079
  324MPD2    C3 4866   0.872   4.115  14.485  0.0567  0.3183  0.1414
  324MPD2    C4 4867   0.834   4.032  14.591 -0.0064 -0.2722  0.9352
  324MPD2    C5 4868   0.919   3.936  14.641  0.7299  0.1333  0.6717
  324MPD2     H 4869   1.041   4.164  14.356 -2.1686 -0.9735 -1.5267
  324MPD2    H1 4870   0.732   4.039  14.627 -0.8716 -1.2110 -1.3407
  324MPD2    H2 4871   1.118   3.867  14.665 -0.2848  0.6056  0.7448
  324MPD2    H3 4872   0.882   3.873  14.720  1.3523 -1.2264 -0.1252
  324MPD2     N 4873   0.766   4.185  14.414 -0.5070  0.2649 -0.5077
  324MPD2    H5 4874   0.672   4.165  14.447 -0.2357  0.2309  0.2450
  324MPD2    N1 4875   1.232   4.021  14.464 -1.0695  0.6323  0.0641
  324MPD2    H7 4876   1.255   4.084  14.387  1.6863 -0.0275  0.3567
  325TMC3    C1 4877   0.667   4.338  14.263  0.0291  0.4987 -0.5623
  325TMC3    C2 4878   0.534   4.285  14.270 -0.4623  0.4154  0.1185
  325TMC3    C3 4879   0.432   4.372  14.224 -0.4618  0.4253 -0.1642
  325TMC3    C4 4880   0.684   4.468  14.230 -0.2925 -0.5360  0.2961
  325TMC3    C5 4881   0.584   4.543  14.182  0.9335 -0.3221  1.2860
  325TMC3    C6 4882   0.458   4.498  14.177 -0.2094 -0.4434 -0.2046
  325TMC3     C 4883   0.788   4.270  14.313 -0.3611 -0.2884  0.2698
  325TMC3     O 4884   0.892   4.313  14.271 -0.5642  0.2673 -0.3386
  325TMC3     H 4885   0.524   4.180  14.293 -0.2080 -0.0166 -1.7304
  325TMC3    H1 4886   0.783   4.512  14.238 -0.5477 -0.1854  1.4099
  325TMC3    H2 4887   0.383   4.562  14.130 -0.6259 -1.1803 -0.5391
  325TMC3    C7 4888   0.599   4.680  14.129 -0.0360 -0.3591  0.4436
  325TMC3    C8 4889   0.304   4.306  14.187  0.5748 -0.0865  0.0790
  325TMC3    O1 4890   0.522   4.709  14.040 -0.0153 -0.4212  0.1930
  325TMC3    O2 4891   0.289   4.186  14.193  0.1947  0.7737 -0.8494
  326MPD2     C 4892   2.663   0.245  11.119  0.2716 -0.4823 -0.3121
  326MPD2    C1 4893   2.611   0.311  11.009  0.2479 -0.1056 -0.3229
  326MPD2    C2 4894   2.676   0.420  10.956 -0.2333 -0.3075 -0.7235
  326MPD2    C3 4895   2.792   0.462  11.009 -0.3609  0.3745 -0.5044
  326MPD2    C4 4896   2.846   0.408  11.124 -0.5884 -0.2565 -0.3977
  326MPD2    C5 4897   2.784   0.295  11.173  0.0344  0.5313 -0.0144
  326MPD2     H 4898   2.622   0.485  10.888 -1.6984 -1.1842 -0.4025
  326MPD2    H1 4899   2.934   0.448  11.173 -0.0714 -1.6774 -0.1367
  326MPD2    H2 4900   2.621   0.157  11.167 -0.3264 -0.0958 -0.1222
  326MPD2    H3 4901   2.831   0.247  11.258  2.7151  1.2622 -1.1023
  326MPD2     N 4902   2.868   0.572  10.957 -0.4756 -0.4942  0.2982
  326MPD2    H5 4903   2.955   0.591  11.005  0.2372 -1.3912 -0.6016
  326MPD2    N1 4904   2.503   0.255  10.937  0.0649  0.3198 -0.2946
  326MPD2    H7 4905   2.492   0.297  10.845  0.0644  1.2243  0.1096
  327TMC3    C1 4906   2.327   0.125  10.869 -0.0402 -0.3363 -0.0535
  327TMC3    C2 4907   2.231   0.225  10.857  0.3335 -0.0153  0.2089
  327TMC3    C3 4908   2.178   0.238  10.736 -0.1466  0.6610  0.4645
  327TMC3    C4 4909   2.374   0.057  10.760 -0.0901  0.1855 -0.6866
  327TMC3    C5 4910   2.330   0.089  10.630  0.2847  0.2121 -0.4784
  327TMC3    C6 4911   2.224   0.169  10.624 -0.4812  0.7148 -0.7035
  327TMC3     C 4912   2.427   0.148  10.970  0.1493 -0.1579  0.9748
  327TMC3     O 4913   2.401   0.109  11.086  0.1592 -0.4652 -0.0924
  327TMC3     H 4914   2.207   0.283  10.945 -2.9351  0.7394 -1.1669
  327TMC3    H1 4915   2.450   4.701  10.765 -0.9852 -0.7420 -1.3900
  327TMC3    H2 4916   2.186   0.187  10.525  0.2092  2.4053 -0.6540
  327TMC3    C7 4917   2.436   0.141  10.547 -0.0031  0.3761 -0.2220
  327TMC3    C8 4918   2.140   0.372  10.701 -0.0256 -1.0168  0.1611
  327TMC3    O1 4919   2.410   0.206  10.445 -0.1595 -0.5114  0.3225
  327TMC3    O2 4920   2.130   0.416  10.588 -0.0088 -0.3157  0.2695
  328MPD2     C 4921   0.933   0.534  16.981  0.0278 -0.7943 -0.5749
  328MPD2    C1 4922   0.814   0.535  17.055 -0.4233 -0.3609 -0.4946
  328MPD2    C2 4923   0.760   0.654  17.087  0.4024 -0.7474 -0.1343
  328MPD2    C3 4924   0.831   0.767  17.071  0.0415 -1.2069 -0.1503
  328MPD2    C4 4925   0.948   0.764  17.000 -0.0143 -0.8365 -0.5124
  328MPD2    C5 4926   0.999   0.649  16.959  0.0363 -0.0331  0.2570
  328MPD2     H 4927   0.662   0.661  17.133  0.6755 -2.7997  0.7662
  328MPD2    H1 4928   1.013   0.851  17.000  0.3499 -1.0972  3.0861
  328MPD2    H2 4929   0.976   0.444  16.938  0.3717 -0.7419 -0.3362
  328MPD2    H3 4930   1.096   0.643  16.912 -0.2618  1.3211 -0.5407
  328MPD2     N 4931   0.759   0.882  17.098 -0.3027 -0.1047 -0.0856
  328MPD2    H5 4932   0.665   0.868  17.133 -0.3111 -3.4867 -1.4496
  328MPD2    N1 4933   0.752   0.411  17.075  0.3637 -0.4533 -0.6370
  328MPD2    H7 4934   0.769   0.336  17.008  0.6598  0.4456 -1.5665
  329TMC3    C1 4935   0.611   0.241  17.173  0.2950  0.4038  0.2381
  329TMC3    C2 4936   0.482   0.234  17.207 -0.3221 -1.1436  0.5962
  329TMC3    C3 4937   0.420   0.114  17.190  0.3769  0.8397  0.3818
  329TMC3    C4 4938   0.677   0.134  17.105 -0.0382  0.4171  0.2566
  329TMC3    C5 4939   0.615   0.013  17.094 -0.0683  0.1020 -0.5104
  329TMC3    C6 4940   0.486   0.004  17.146  0.1195  0.0560  0.4862
  329TMC3     C 4941   0.655   0.383  17.170 -0.0630  0.8249 -0.3926
  329TMC3     O 4942   0.623   0.458  17.262  0.6377 -0.4092 -0.2004
  329TMC3     H 4943   0.438   0.324  17.247 -1.4566 -0.6418 -1.7649
  329TMC3    H1 4944   0.777   0.154  17.068 -0.6404  0.5410 -1.2939
  329TMC3    H2 4945   0.433   4.630  17.149 -2.5151  1.4511 -2.3367
  329TMC3    C7 4946   0.693   4.621  17.055  0.5773  0.2846  0.5107
  329TMC3    C8 4947   0.276   0.110  17.181  0.0752 -0.2154  0.0274
  329TMC3    O1 4948   0.688   4.514  17.109 -0.3822  0.1400 -0.3577
  329TMC3    O2 4949   0.222   0.020  17.119 -0.1700 -0.0280  0.2371
  330TMC3    C1 4950   2.805   0.121   9.235 -0.1539 -0.4042 -0.2614
  330TMC3    C2 4951   2.716   0.031   9.190  0.0085 -0.4452 -0.6616
  330TMC3    C3 4952   2.747   4.616   9.187 -0.5339 -0.1331 -0.4806
  330TMC3    C4 4953   2.923   0.085   9.297  0.0911  0.0577 -0.2399
  330TMC3    C5 4954   2.941   4.674   9.299 -0.4600 -0.0813 -0.5855
  330TMC3    C6 4955   2.861   4.577   9.252  0.8447  0.3346  0.0811
  330TMC3     C 4956   2.780   0.262   9.212 -0.2249  0.0790  0.1301
  330TMC3     O 4957   2.866   0.346   9.182 -0.4143  0.3370 -0.4185
  330TMC3     H 4958   2.625   0.064   9.141  1.5324  2.1204 -1.7357
  330TMC3    H1 4959   2.987   0.169   9.324  1.3500 -1.0077  0.0901
  330TMC3    H2 4960   2.887   4.472   9.258 -0.1455  0.0389 -0.7178
  330TMC3    C7 4961   3.061   4.633   9.365 -0.6412  1.0851 -0.8042
  330TMC3    C8 4962   2.629   4.537   9.180 -0.1005 -0.4582 -0.0633
  330TMC3    O1 4963   3.064   4.521   9.409 -0.5679 -0.0269  0.1386
  330TMC3    O2 4964   2.531   4.578   9.115 -0.2523  0.0618  0.2045
  331MPD2     C 4965   0.403   3.376  12.525 -0.2975  0.3339 -0.1055
  331MPD2    C1 4966   0.502   3.439  12.454  0.4432  0.1722  0.5555
  331MPD2    C2 4967   0.611   3.370  12.403 -0.1559 -0.2707 -0.1657
  331MPD2    C3 4968   0.607   3.231  12.410 -0.7298 -0.0720  0.2965
  331MPD2    C4 4969   0.497   3.161  12.460  0.5935 -0.1850 -0.7996
  331MPD2    C5 4970   0.397   3.234  12.525  0.3579  0.0585  0.0939
  331MPD2     H 4971   0.689   3.417  12.344  2.6872 -2.8001  1.5439
  331MPD2    H1 4972   0.495   3.052  12.456 -1.3412 -0.1595 -0.2197
  331MPD2    H2 4973   0.320   3.422  12.579 -1.6356  0.0603 -1.9262
  331MPD2    H3 4974   0.316   3.179  12.570 -0.2236  1.8194  1.2043
  331MPD2     N 4975   0.727   3.168  12.369 -0.3987  0.2622 -0.0868
  331MPD2    H5 4976   0.802   3.229  12.337 -1.5606  1.1483 -1.1051
  331MPD2    N1 4977   0.518   3.583  12.450 -0.1102  0.2144 -0.2936
  331MPD2    H7 4978   0.606   3.612  12.408  0.8111 -2.4195 -0.1553
  332TMC3    C1 4979   0.882   3.011  12.291  0.4720  0.0971  0.5210
  332TMC3    C2 4980   0.930   3.110  12.212  0.0956  0.0245 -0.2470
  332TMC3    C3 4981   1.063   3.113  12.184 -0.0466  0.0769 -0.9313
  332TMC3    C4 4982   0.968   2.922  12.345 -0.3468 -0.1757  0.2601
  332TMC3    C5 4983   1.102   2.926  12.322  0.5407 -0.6947 -0.2759
  332TMC3    C6 4984   1.150   3.020  12.234  0.5102 -0.6015  0.1870
  332TMC3     C 4985   0.756   3.034  12.361 -0.1366 -0.7182 -0.0214
  332TMC3     O 4986   0.715   2.945  12.439 -0.6322  0.3610 -0.5107
  332TMC3     H 4987   0.865   3.193  12.187  1.1541  0.6645 -0.8772
  332TMC3    H1 4988   0.926   2.844  12.408  0.5390 -1.7519 -1.1098
  332TMC3    H2 4989   1.253   3.021  12.203 -0.1978  0.6345 -2.1191
  332TMC3    C7 4990   1.186   2.837  12.407 -0.2214  0.0574  0.0005
  332TMC3    C8 4991   1.109   3.232  12.130  0.1814 -0.6376  0.2720
  332TMC3    O1 4992   1.117   2.751  12.460  0.0623 -0.3628  0.1084
  332TMC3    O2 4993   1.030   3.263  12.042  0.1705 -0.3004 -0.6932
  333MPD2     C 4994   1.054   4.054  11.347  0.7802  0.3561  0.4959
  333MPD2    C1 4995   1.143   3.960  11.293  0.5008  0.0082 -0.1326
  333MPD2    C2 4996   1.154   3.834  11.358 -0.5508 -0.7625  0.8506
  333MPD2    C3 4997   1.075   3.799  11.468 -0.1122 -0.5791 -0.2003
  333MPD2    C4 4998   0.986   3.900  11.516  0.1779 -0.2016  0.2390
  333MPD2    C5 4999   0.973   4.019  11.446 -0.1405 -0.3713 -0.1747
  333MPD2     H 5000   1.223   3.757  11.325  0.6491  0.0898  1.3774
  333MPD2    H1 5001   0.920   3.872  11.597 -0.2987 -0.6042 -0.2833
  333MPD2    H2 5002   1.033   4.153  11.306 -2.4862 -0.5708 -0.0578
  333MPD2    H3 5003   0.908   4.101  11.475  1.9395  1.7656 -1.5316
  333MPD2     N 5004   1.074   3.663  11.521  0.3543 -0.3514  0.1456
  333MPD2    H5 5005   1.126   3.598  11.464  0.3431 -2.5725  2.6539
  333MPD2    N1 5006   1.211   4.003  11.181 -0.2869 -0.5161  0.0040
  333MPD2    H7 5007   1.196   4.098  11.147  0.7652 -0.2913  0.1617
  334TMC3    C1 5008   1.412   4.015  11.052 -0.6196  0.7711 -0.1245
  334TMC3    C2 5009   1.504   3.961  10.969  0.5849  0.2992 -0.4671
  334TMC3    C3 5010   1.601   4.029  10.905 -0.0978  0.0002 -0.9793
  334TMC3    C4 5011   1.414   4.152  11.067  0.5945 -0.3543  0.1944
  334TMC3    C5 5012   1.514   4.219  11.003 -0.2465  0.2516  0.2604
  334TMC3    C6 5013   1.611   4.164  10.914  0.1711 -0.3303 -0.3449
  334TMC3     C 5014   1.313   3.932  11.116 -0.3777  0.1698  0.1123
  334TMC3     O 5015   1.334   3.811  11.124 -0.5531  0.3044  0.2933
  334TMC3     H 5016   1.490   3.855  10.952  0.6601  0.5153 -1.8654
  334TMC3    H1 5017   1.365   4.191  11.155 -1.0966  0.5803 -1.1453
  334TMC3    H2 5018   1.677   4.223  10.851  1.1126 -0.2483  0.7235
  334TMC3    C7 5019   1.513   4.366  10.990  0.4561  0.1051  0.1534
  334TMC3    C8 5020   1.678   3.953  10.815 -0.4218 -0.6663  0.2259
  334TMC3    O1 5021   1.623   4.409  10.947  0.5348 -0.3747  0.9681
  334TMC3    O2 5022   1.658   3.834  10.793 -0.6727  0.5621 -0.1648
  335TMC3    C1 5023   1.776   0.916  17.314 -0.2043  1.1148  0.4163
  335TMC3    C2 5024   1.700   0.830  17.242 -0.5160 -0.4356 -0.6058
  335TMC3    C3 5025   1.764   0.745  17.151 -0.3850  0.7661 -0.6325
  335TMC3    C4 5026   1.906   0.937  17.288 -0.1969 -0.3643 -0.4389
  335TMC3    C5 5027   1.967   0.868  17.185  0.2130  0.4074 -0.7397
  335TMC3    C6 5028   1.895   0.766  17.115  0.0802 -0.8854 -0.3559
  335TMC3     C 5029   1.710   1.018  17.391 -0.6048 -0.5528  0.0747
  335TMC3     O 5030   1.782   1.104  17.446  0.2615  0.5244 -0.6188
  335TMC3     H 5031   1.595   0.812  17.263 -0.7107  0.4691 -0.7989
  335TMC3    H1 5032   1.963   1.010  17.345 -0.6635 -0.7705  0.5295
  335TMC3    H2 5033   1.933   0.716  17.026  0.3250  0.7450 -1.1724
  335TMC3    C7 5034   2.113   0.867  17.176 -0.0466  0.2458  0.4233
  335TMC3    C8 5035   1.673   0.688  17.044  0.5811 -0.3196 -0.5371
  335TMC3    O1 5036   2.153   0.778  17.105  0.3701  0.2223 -0.1823
  335TMC3    O2 5037   1.697   0.681  16.927  0.7569 -0.8004  0.4164
  336MPD2     C 5038   1.018   3.479  16.303  0.8191  0.0485 -0.3510
  336MPD2    C1 5039   0.957   3.407  16.208  0.2126 -0.0798  0.3228
  336MPD2    C2 5040   0.946   3.271  16.213 -0.0122  0.5757 -0.7680
  336MPD2    C3 5041   1.003   3.200  16.319 -0.3700 -0.6493 -0.4373
  336MPD2    C4 5042   1.059   3.272  16.425 -0.8025 -0.1900 -0.3959
  336MPD2    C5 5043   1.061   3.414  16.413  0.5043 -0.3137  0.3760
  336MPD2     H 5044   0.902   3.219  16.128  2.1467 -2.1064 -0.2771
  336MPD2    H1 5045   1.096   3.233  16.519 -0.1605 -2.1895 -1.4772
  336MPD2    H2 5046   1.024   3.587  16.312  0.1935  0.4603 -4.7775
  336MPD2    H3 5047   1.101   3.467  16.499 -1.1298 -2.2761  2.3619
  336MPD2     N 5048   1.003   3.059  16.328  0.6303 -0.3696 -0.2704
  336MPD2    H5 5049   1.061   3.022  16.402  0.9869 -0.8842 -0.8066
  336MPD2    N1 5050   0.881   3.469  16.103 -0.2555  0.0469 -0.1164
  336MPD2    H7 5051   0.856   3.399  16.033  0.0411 -1.9053  1.7525
  337TMC3    C1 5052   0.794   3.629  15.955 -0.4649  0.4312 -0.0502
  337TMC3    C2 5053   0.676   3.552  15.930  0.2563  0.3918 -0.2062
  337TMC3    C3 5054   0.572   3.593  15.848 -0.0784 -0.1724  0.4573
  337TMC3    C4 5055   0.803   3.755  15.909  0.3909 -0.5974 -0.0125
  337TMC3    C5 5056   0.697   3.798  15.827 -0.0951  0.4516 -0.5004
  337TMC3    C6 5057   0.588   3.723  15.789  0.7199 -0.7093 -0.3210
  337TMC3     C 5058   0.880   3.601  16.070  0.4086  0.0477  0.8789
  337TMC3     O 5059   0.937   3.691  16.129  0.3646  0.5107 -0.1275
  337TMC3     H 5060   0.650   3.466  15.991 -4.2764  1.9532  0.0417
  337TMC3    H1 5061   0.878   3.828  15.939 -2.5881  1.4390  2.4801
  337TMC3    H2 5062   0.502   3.772  15.744  0.9897 -1.1249 -1.3051
  337TMC3    C7 5063   0.675   3.942  15.815  0.1715 -0.5232 -0.2483
  337TMC3    C8 5064   0.440   3.539  15.860  0.2386  0.1654 -0.2234
  337TMC3    O1 5065   0.558   3.982  15.822 -0.6683 -0.4578 -0.4051
  337TMC3    O2 5066   0.412   3.461  15.950  0.2131 -0.0612  0.2999
  338MPD2     C 5067   2.033   2.772   0.793 -0.0768  0.0512 -0.2840
  338MPD2    C1 5068   1.907   2.769   0.735  0.3516  0.0630 -0.1762
  338MPD2    C2 5069   1.825   2.876   0.766  0.2491  0.4897  0.2951
  338MPD2    C3 5070   1.870   2.980   0.837  0.1856  0.0658  0.3911
  338MPD2    C4 5071   1.998   2.992   0.884  0.0285 -0.2335 -0.1443
  338MPD2    C5 5072   2.076   2.887   0.863 -0.0664  0.5665 -0.2113
  338MPD2     H 5073   1.723   2.876   0.727  0.0426  0.9579  0.8421
  338MPD2    H1 5074   2.046   3.081   0.923 -0.4445 -1.0641  2.3035
  338MPD2    H2 5075   2.104   2.691   0.783 -0.4156 -0.3371  0.5028
  338MPD2    H3 5076   2.169   2.882   0.919 -0.3135  0.0291  0.1505
  338MPD2     N 5077   1.768   3.078   0.875  0.2165  0.3908  0.1467
  338MPD2    H5 5078   1.679   3.074   0.828 -0.7211 -1.9928  2.1129
  338MPD2    N1 5079   1.852   2.661   0.662  0.0716  0.5284  0.4981
  338MPD2    H7 5080   1.760   2.669   0.621  0.0994  0.9145  0.5052
  339TMC3    C1 5081   1.660   3.234   1.014 -0.3126 -0.6011 -0.8850
  339TMC3    C2 5082   1.622   3.262   1.144 -0.1256  0.0761 -0.5238
  339TMC3    C3 5083   1.503   3.325   1.172 -0.5056 -0.5952  0.0064
  339TMC3    C4 5084   1.588   3.277   0.908  0.4566  0.1608  0.2310
  339TMC3    C5 5085   1.464   3.333   0.943 -0.3422 -0.6435  0.2744
  339TMC3    C6 5086   1.425   3.372   1.071  0.5781 -0.3896 -0.2129
  339TMC3     C 5087   1.781   3.160   0.990 -0.2965 -0.1819  0.3149
  339TMC3     O 5088   1.868   3.170   1.074  0.7099  0.0254  0.6271
  339TMC3     H 5089   1.687   3.237   1.227 -1.0902  1.6856  0.7078
  339TMC3    H1 5090   1.632   3.267   0.810 -0.7670  0.7676 -0.3793
  339TMC3    H2 5091   1.321   3.403   1.082  0.8703 -0.1212  1.8388
  339TMC3    C7 5092   1.380   3.379   0.843 -0.0915  0.1337  0.5281
  339TMC3    C8 5093   1.433   3.263   1.289  1.0720 -0.0143 -0.4009
  339TMC3    O1 5094   1.298   3.466   0.873  0.3263 -0.1066  0.0614
  339TMC3    O2 5095   1.495   3.166   1.337 -0.7904  0.1447  0.4315
  340MPD2     C 5096   0.686   0.582   9.899  0.2898  0.1302 -0.3807
  340MPD2    C1 5097   0.704   0.446   9.942  0.7609 -0.6436  0.5267
  340MPD2    C2 5098   0.728   0.421  10.074  0.0329  0.4272  0.1579
  340MPD2    C3 5099   0.743   0.525  10.170 -0.0821  0.1089  0.0167
  340MPD2    C4 5100   0.712   0.652  10.128 -0.0753  0.1625 -0.2250
  340MPD2    C5 5101   0.684   0.681   9.997 -0.2368 -0.0861 -0.3169
  340MPD2     H 5102   0.757   0.324  10.113 -0.8361 -0.0645 -0.3962
  340MPD2    H1 5103   0.720   0.738  10.193 -2.2793 -0.1186  0.4386
  340MPD2    H2 5104   0.665   0.611   9.797  0.0380 -0.4516 -0.4955
  340MPD2    H3 5105   0.667   0.786   9.975 -1.6903  0.2055  2.2529
  340MPD2     N 5106   0.812   0.509  10.295  0.1675 -0.4266 -0.6498
  340MPD2    H5 5107   0.836   0.596  10.342  0.4498 -0.0264 -1.5236
  340MPD2    N1 5108   0.694   0.339   9.842  1.0343  0.3023 -0.0595
  340MPD2    H7 5109   0.691   0.368   9.745 -0.4433  1.7685  0.4235
  341TMC3    C1 5110   0.716   0.128   9.751 -0.0783  0.9401 -0.2827
  341TMC3    C2 5111   0.676   0.002   9.756  0.1260 -0.0708  0.3452
  341TMC3    C3 5112   0.709   4.633   9.656 -0.6478 -0.0482 -0.6461
  341TMC3    C4 5113   0.801   0.162   9.649 -0.6858 -0.2602 -0.0125
  341TMC3    C5 5114   0.843   0.068   9.552  0.0078  0.2639  0.1572
  341TMC3    C6 5115   0.788   4.666   9.544  0.3100  0.2786 -0.2885
  341TMC3     C 5116   0.686   0.204   9.870  0.1714 -0.7103  0.1981
  341TMC3     O 5117   0.665   0.148   9.976  0.4769  0.3649  0.2110
  341TMC3     H 5118   0.597   4.683   9.819  1.4496 -0.1601  1.9319
  341TMC3    H1 5119   0.850   0.259   9.648  1.1257 -1.1909 -2.0927
  341TMC3    H2 5120   0.801   4.593   9.464  3.2972 -1.4274  1.7752
  341TMC3    C7 5121   0.968   0.077   9.480 -0.4369 -0.4578  0.0248
  341TMC3    C8 5122   0.625   4.511   9.652  0.2645  0.1328  0.5094
  341TMC3    O1 5123   1.056   0.144   9.532  0.3268  0.3029 -0.3431
  341TMC3    O2 5124   0.585   4.452   9.755 -0.1065  0.1974 -0.4611
  342MPD2     C 5125   3.878   3.767   0.182 -0.0474  0.0715  0.5584
  342MPD2    C1 5126   3.977   3.758   0.091 -0.1999  0.0180  0.4119
  342MPD2    C2 5127   4.027   3.868   0.028  0.0155  0.3888  0.1684
  342MPD2    C3 5128   3.975   3.996   0.043 -0.1006  0.4290  0.2663
  342MPD2    C4 5129   3.874   4.008   0.146 -0.0840 -0.0693  0.6358
  342MPD2    C5 5130   3.827   3.893   0.206 -0.2671  0.2582  0.5840
  342MPD2     H 5131   4.105   3.842  17.643 -0.6026 -0.2157 -0.2879
  342MPD2    H1 5132   3.818   4.095   0.179  0.4996  0.2104  0.8891
  342MPD2    H2 5133   3.843   3.682   0.239  1.3166  0.3371  1.7858
  342MPD2    H3 5134   3.742   3.901   0.273 -0.4955 -0.0406  0.3311
  342MPD2     N 5135   4.021   4.112  17.664 -0.7197 -0.1615 -0.5511
  342MPD2    H5 5136   3.978   4.201   0.004 -0.6650  0.3309 -2.1785
  342MPD2    N1 5137   4.040   3.637   0.049  0.1507 -0.9867 -0.1154
  342MPD2    H7 5138   4.104   3.649  17.657 -0.6082  0.5199 -0.5188
  343TMC3    C1 5139   4.082   3.413   0.036 -0.1915  0.9616 -0.4805
  343TMC3    C2 5140   4.212   3.418   0.004  0.4916 -0.0319 -0.4284
  343TMC3    C3 5141   4.267   3.307  17.629  0.1128  0.2511  0.2593
  343TMC3    C4 5142   4.006   3.303   0.012  0.1898 -0.2640 -0.2237
  343TMC3    C5 5143   4.063   3.199  17.631  0.3261 -0.2387 -0.4073
  343TMC3    C6 5144   4.200   3.195  17.596  0.7507 -0.1876 -0.8265
  343TMC3     C 5145   4.027   3.519   0.112 -0.8838 -0.4288 -0.3510
  343TMC3     O 5146   3.943   3.480   0.196 -0.1347 -0.2555  0.2013
  343TMC3     H 5147   4.270   3.507   0.025 -0.2964  0.1751  0.8288
  343TMC3    H1 5148   3.901   3.301   0.041 -0.1724  0.3162 -1.4844
  343TMC3    H2 5149   4.249   3.119  17.536  5.5308  0.5998  2.1145
  343TMC3    C7 5150   3.986   3.096  17.573 -0.5259  0.1737 -0.2622
  343TMC3    C8 5151   4.404   3.284  17.667 -0.1969  0.0934  0.2240
  343TMC3    O1 5152   4.045   3.006  17.514 -0.0440  0.1288  0.4104
  343TMC3    O2 5153   4.441   3.333   0.086  0.3364  0.2601 -0.1327
  344MPD2     C 5154   4.664   2.834  10.738 -0.0186  0.2446  1.0325
  344MPD2    C1 5155   4.573   2.791  10.641 -0.3004  0.0758 -0.2832
  344MPD2    C2 5156   4.552   2.887  10.539  0.9611 -0.5883  0.4702
  344MPD2    C3 5157   4.637   2.996  10.524  0.0285  1.2172  0.2466
  344MPD2    C4 5158   0.011   3.021  10.615 -0.9049 -0.3458  0.4245
  344MPD2    C5 5159   0.024   2.942  10.723 -0.0008  0.7348 -0.0715
  344MPD2     H 5160   4.475   2.868  10.465  0.8235 -0.5798  0.6103
  344MPD2    H1 5161   0.082   3.101  10.601 -0.9586 -0.7883 -2.3956
  344MPD2    H2 5162   4.677   2.778  10.830 -0.5719 -0.3998  0.7217
  344MPD2    H3 5163   0.099   2.971  10.796  0.5647 -2.3165  0.5489
  344MPD2     N 5164   4.635   3.085  10.417 -0.1943 -0.4384 -0.6964
  344MPD2    H5 5165   4.709   3.154  10.429 -1.3031  0.6380 -0.0527
  344MPD2    N1 5166   4.498   2.663  10.651  0.4317 -0.5081 -0.4491
  344MPD2    H7 5167   4.419   2.644  10.591  0.9357 -0.2245 -1.2095
  345TMC3    C1 5168   4.588   3.187  10.215 -0.0694  0.8040  0.3756
  345TMC3    C2 5169   0.002   3.216  10.214 -0.0643  0.1832  0.4284
  345TMC3    C3 5170   0.052   3.324  10.154  0.7845 -0.4638 -0.1386
  345TMC3    C4 5171   4.501   3.277  10.154 -0.2328  0.5869 -0.0842
  345TMC3    C5 5172   4.558   3.391  10.094 -1.0286 -0.3635 -0.7076
  345TMC3    C6 5173   4.692   3.412  10.090  0.1800 -0.0919  0.1817
  345TMC3     C 5174   4.544   3.095  10.313 -0.5630 -0.2673 -0.1904
  345TMC3     O 5175   4.436   3.041  10.296 -0.2572 -0.2589  0.3343
  345TMC3     H 5176   0.071   3.143  10.254  1.0423  1.2143  0.4267
  345TMC3    H1 5177   4.394   3.269  10.169  0.1169  0.4555  2.3534
  345TMC3    H2 5178   0.017   3.471  10.012 -0.2532 -0.0124 -0.0096
  345TMC3    C7 5179   4.476   3.476  10.013 -0.1580 -0.4443  0.1423
  345TMC3    C8 5180   0.190   3.319  10.110  0.1959 -0.4748  0.0860
  345TMC3    O1 5181   4.527   3.581   9.972  0.0094 -0.3568  0.1366
  345TMC3    O2 5182   0.251   3.213  10.092  0.4220 -0.2019  0.0267
  346MPD2     C 5183   0.377   0.042  14.382 -0.9288 -0.0552  0.1594
  346MPD2    C1 5184   0.396   0.160  14.314  0.4950 -1.2840 -0.6268
  346MPD2    C2 5185   0.496   0.249  14.358 -0.3891  0.9354  0.0125
  346MPD2    C3 5186   0.565   0.230  14.475  0.5022  0.7658 -0.2708
  346MPD2    C4 5187   0.537   0.112  14.542  0.6429  0.2239 -0.2468
  346MPD2    C5 5188   0.457   0.012  14.484  0.0326 -0.3168 -0.2790
  346MPD2     H 5189   0.534   0.335  14.305 -1.4856  2.5454  1.8783
  346MPD2    H1 5190   0.587   0.091  14.635 -0.4760 -0.3169  0.2274
  346MPD2    H2 5191   0.316   4.686  14.337  1.1950 -1.3474 -0.5547
  346MPD2    H3 5192   0.440   4.641  14.540  0.6611  1.5413  2.9785
  346MPD2     N 5193   0.657   0.324  14.527  0.1687  0.1196 -0.2868
  346MPD2    H5 5194   0.679   0.401  14.465  1.0106 -0.6357 -0.9344
  346MPD2    N1 5195   0.304   0.192  14.209  0.2150 -0.3560 -0.0977
  346MPD2    H7 5196   0.313   0.287  14.176 -1.3724  0.4962  1.9380
  347TMC3    C1 5197   0.831   0.405  14.659 -0.8052  0.4807 -1.2055
  347TMC3    C2 5198   0.882   0.445  14.536  0.3811  0.2517 -0.2431
  347TMC3    C3 5199   1.015   0.418  14.513 -0.9498 -0.1906 -0.7883
  347TMC3    C4 5200   0.911   0.356  14.750 -0.1620  1.1186 -0.4065
  347TMC3    C5 5201   1.041   0.335  14.729  0.7761 -0.4339  0.4972
  347TMC3    C6 5202   1.096   0.368  14.608 -0.0898  0.1640 -0.1985
  347TMC3     C 5203   0.710   0.327  14.653  0.4145 -0.2680 -0.2525
  347TMC3     O 5204   0.680   0.266  14.757 -0.0854  0.2094  0.0712
  347TMC3     H 5205   0.817   0.481  14.457  0.8284  2.3771  0.3555
  347TMC3    H1 5206   0.878   0.326  14.848 -2.1535  0.8428 -1.1507
  347TMC3    H2 5207   1.196   0.334  14.582  0.9891  2.3453  1.1459
  347TMC3    C7 5208   1.123   0.329  14.849  0.3764 -0.2001  0.5712
  347TMC3    C8 5209   1.024   0.349  14.391  0.1712  0.2960 -0.1616
  347TMC3    O1 5210   1.074   0.295  14.956  0.4623 -0.0389  0.0176
  347TMC3    O2 5211   1.073   0.237  14.391  0.4842 -0.1357  0.1577
  348MPD2     C 5212   3.184   3.929  11.565 -0.8462 -0.7730  0.0019
  348MPD2    C1 5213   3.310   3.982  11.583 -0.0184 -0.0631 -0.2118
  348MPD2    C2 5214   3.367   4.057  11.482  0.2618 -0.1928 -0.5148
  348MPD2    C3 5215   3.295   4.083  11.368  0.3259 -0.5280  0.2972
  348MPD2    C4 5216   3.166   4.036  11.357 -0.2958  0.1958 -0.3618
  348MPD2    C5 5217   3.114   3.954  11.450 -0.4882  0.2583 -0.2360
  348MPD2     H 5218   3.462   4.107  11.494 -0.6225  1.6797 -1.2894
  348MPD2    H1 5219   3.094   4.058  11.279  0.6397  1.0191 -0.9896
  348MPD2    H2 5220   3.137   3.870  11.643  0.8583  1.4688  2.7127
  348MPD2    H3 5221   3.012   3.917  11.453 -0.1170 -0.6266  1.9990
  348MPD2     N 5222   3.363   4.150  11.263  0.3671  0.2275 -0.2861
  348MPD2    H5 5223   3.456   4.181  11.289  1.3882 -0.8066 -2.7244
  348MPD2    N1 5224   3.389   3.953  11.704 -0.0785  0.0593 -0.0676
  348MPD2    H7 5225   3.488   3.978  11.704 -0.2873  0.8732 -2.0810
  349TMC3    C1 5226   3.473   3.857  11.902 -0.5644 -0.3933  0.2308
  349TMC3    C2 5227   3.473   3.730  11.945 -0.3599  0.1192  0.1120
  349TMC3    C3 5228   3.593   3.673  11.971  0.6026 -0.6136 -0.4517
  349TMC3    C4 5229   3.584   3.934  11.880  0.6840 -1.1182  0.1586
  349TMC3    C5 5230   3.703   3.878  11.930 -0.1700 -0.6259 -0.1242
  349TMC3    C6 5231   3.707   3.748  11.960  0.1792 -0.8447  0.6301
  349TMC3     C 5232   3.356   3.883  11.810 -0.1944 -0.4506 -0.6805
  349TMC3     O 5233   3.254   3.823  11.838 -0.2058  0.0742  0.3381
  349TMC3     H 5234   3.374   3.688  11.960 -0.1909 -0.1657  0.4083
  349TMC3    H1 5235   3.567   4.038  11.853 -1.9048 -1.7975 -0.7739
  349TMC3    H2 5236   3.799   3.697  11.988  1.5208  1.4792  0.5192
  349TMC3    C7 5237   3.820   3.902  11.843  0.4100  0.0758  0.3312
  349TMC3    C8 5238   3.607   3.549  12.049 -0.2879  0.2212 -0.2050
  349TMC3    O1 5239   3.864   3.799  11.798  0.5282 -0.0868 -0.3574
  349TMC3    O2 5240   3.717   3.525  12.099 -0.0792 -0.5778  0.4383
  350MPD2     C 5241   2.851   2.841   9.546  0.3589  0.4022  0.5073
  350MPD2    C1 5242   2.829   2.701   9.546  0.0762  0.4914  0.0440
  350MPD2    C2 5243   2.899   2.619   9.632  0.0924  0.5371  0.0152
  350MPD2    C3 5244   2.992   2.673   9.717 -0.2162  0.5743  0.6768
  350MPD2    C4 5245   3.020   2.806   9.712 -0.2817  0.3153 -0.0093
  350MPD2    C5 5246   2.941   2.887   9.637  0.3370  0.1446  0.6585
  350MPD2     H 5247   2.878   2.513   9.634 -0.7151  0.7833  3.6953
  350MPD2    H1 5248   3.100   2.848   9.772 -1.8234  0.7677  1.7294
  350MPD2    H2 5249   2.804   2.904   9.471 -0.7860 -0.9129  0.1025
  350MPD2    H3 5250   2.965   2.992   9.632 -1.2660  0.5419  1.3588
  350MPD2     N 5251   3.068   2.581   9.796 -1.0126 -0.9132 -0.2585
  350MPD2    H5 5252   3.036   2.485   9.798 -1.6178 -0.6848  1.1759
  350MPD2    N1 5253   2.735   2.632   9.473 -0.7960  0.1922 -0.0707
  350MPD2    H7 5254   2.726   2.532   9.488  0.4437  0.3311  1.5322
  351TMC3    C1 5255   2.556   2.581   9.330 -0.0323 -0.6597 -0.6805
  351TMC3    C2 5256   2.614   2.456   9.327 -0.3752  0.3363 -0.1426
  351TMC3    C3 5257   2.522   2.349   9.325  0.0090  0.4595 -0.6220
  351TMC3    C4 5258   2.420   2.608   9.335  0.0526 -0.7313  0.1772
  351TMC3    C5 5259   2.338   2.495   9.352  0.0552  1.1351 -0.4951
  351TMC3    C6 5260   2.390   2.367   9.333  0.4004 -0.4182 -0.9211
  351TMC3     C 5261   2.643   2.686   9.391 -0.0804  0.3109 -0.8542
  351TMC3     O 5262   2.606   2.802   9.387  0.7643 -0.2419  0.8564
  351TMC3     H 5263   2.720   2.433   9.323 -0.5377 -0.5887  0.9643
  351TMC3    H1 5264   2.380   2.708   9.350  1.2497 -0.2285  0.0298
  351TMC3    H2 5265   2.322   2.283   9.336  0.2122 -0.2635 -0.9037
  351TMC3    C7 5266   2.208   2.524   9.409 -0.2268 -0.2826  0.9831
  351TMC3    C8 5267   2.583   2.215   9.321 -0.0525 -0.4197 -0.4137
  351TMC3    O1 5268   2.193   2.630   9.469  0.1544  0.3444 -0.1059
  351TMC3    O2 5269   2.703   2.216   9.340  0.1260  0.0566  0.0933
  352MPD2     C 5270   0.825   0.493   1.165 -0.1605  0.6396 -0.5129
  352MPD2    C1 5271   0.727   0.396   1.139 -0.4413  0.2801  0.0498
  352MPD2    C2 5272   0.696   0.308   1.241  0.5185 -0.5708  0.2040
  352MPD2    C3 5273   0.771   0.300   1.361 -0.2010 -0.0830 -0.0384
  352MPD2    C4 5274   0.870   0.404   1.385 -0.3450  0.0656  0.1246
  352MPD2    C5 5275   0.886   0.502   1.288 -0.3121  0.2596  0.1859
  352MPD2     H 5276   0.616   0.241   1.212 -1.0214  0.8075  1.3069
  352MPD2    H1 5277   0.937   0.396   1.470  1.6714  2.3273 -1.2426
  352MPD2    H2 5278   0.846   0.567   1.089  1.2463  0.5354 -0.2168
  352MPD2    H3 5279   0.962   0.579   1.296  2.4496 -2.6102  1.6911
  352MPD2     N 5280   0.755   0.205   1.462 -0.8408  0.3767 -0.0764
  352MPD2    H5 5281   0.803   0.223   1.549  0.5188  0.1356 -0.7759
  352MPD2    N1 5282   0.663   0.399   1.012  0.4749  0.5389 -0.0799
  352MPD2    H7 5283   0.698   0.474   0.953  2.0782  0.2813  0.5237
  353TMC3    C1 5284   0.656   0.020   1.560  0.6016  0.6037  0.6717
  353TMC3    C2 5285   0.766   4.712   1.635  0.1586  0.2729 -0.0796
  353TMC3    C3 5286   0.768   4.593   1.701 -0.6144 -1.0522  0.1982
  353TMC3    C4 5287   0.552   4.650   1.553 -0.2822  0.1985  0.0525
  353TMC3    C5 5288   0.560   4.533   1.625 -0.2701  0.2849  0.0168
  353TMC3    C6 5289   0.667   4.504   1.700  0.7865 -0.2171 -0.2797
  353TMC3     C 5290   0.660   0.109   1.446  0.6879 -0.8152  0.1237
  353TMC3     O 5291   0.591   0.075   1.351 -0.0242 -0.1929  0.4053
  353TMC3     H 5292   0.850   0.058   1.650 -0.5435  1.2557 -0.5100
  353TMC3    H1 5293   0.464   4.668   1.493 -1.7507  2.3383  2.8364
  353TMC3    H2 5294   0.658   4.408   1.749 -4.7854 -1.2322 -3.2866
  353TMC3    C7 5295   0.488   4.425   1.556 -0.3580 -0.2477 -0.3626
  353TMC3    C8 5296   0.900   4.548   1.747  0.4879 -0.1017 -0.3812
  353TMC3    O1 5297   0.482   4.431   1.436 -0.0291 -0.4718  0.3316
  353TMC3    O2 5298   0.992   4.629   1.747 -0.1564  0.3603  0.2150
  354TMC3    C1 5299   2.414   0.394  13.178  0.0850 -0.3097  0.4212
  354TMC3    C2 5300   2.331   0.478  13.103 -0.3418 -0.2546 -0.7219
  354TMC3    C3 5301   2.293   0.440  12.972 -0.1431  0.9462  0.1358
  354TMC3    C4 5302   2.456   0.278  13.133  0.1812  0.6833 -0.6625
  354TMC3    C5 5303   2.445   0.260  12.996 -0.0457  0.0057  0.4382
  354TMC3    C6 5304   2.371   0.338  12.916 -0.1580 -0.5586 -0.6909
  354TMC3     C 5305   2.438   0.421  13.324  0.0402 -0.1272 -0.3973
  354TMC3     O 5306   2.481   0.327  13.391 -0.1835  0.4223 -0.4616
  354TMC3     H 5307   2.289   0.565  13.151  1.1544 -0.2834  0.6720
  354TMC3    H1 5308   2.538   0.226  13.181 -2.2317  0.6052  3.4447
  354TMC3    H2 5309   2.365   0.317  12.810  3.0985 -1.0020 -0.7787
  354TMC3    C7 5310   2.570   0.212  12.936 -0.5579 -0.2639  0.1200
  354TMC3    C8 5311   2.251   0.540  12.873 -0.1438 -0.1915  0.1840
  354TMC3    O1 5312   2.597   0.094  12.951  0.6284 -0.1508 -0.2702
  354TMC3    O2 5313   2.203   0.495  12.768  0.3472 -0.3549 -0.2463
  355MPD2     C 5314   2.336   1.605  11.521  0.3905  0.4038 -0.1166
  355MPD2    C1 5315   2.397   1.606  11.397 -0.4894  0.6783 -0.3199
  355MPD2    C2 5316   2.525   1.553  11.389  0.1724  0.3537  0.1261
  355MPD2    C3 5317   2.598   1.512  11.503 -0.4079  0.2446 -0.1609
  355MPD2    C4 5318   2.533   1.502  11.621 -0.2960  0.2487 -0.1156
  355MPD2    C5 5319   2.399   1.546  11.631 -0.8069 -0.8181 -0.7721
  355MPD2     H 5320   2.574   1.555  11.292  1.0660 -1.8201  0.5413
  355MPD2    H1 5321   2.581   1.458  11.708  0.8895  2.3438  0.2895
  355MPD2    H2 5322   2.240   1.649  11.544 -0.7783 -1.5186 -1.3544
  355MPD2    H3 5323   2.343   1.527  11.722  0.2372 -1.0174 -0.1681
  355MPD2     N 5324   2.733   1.480  11.497 -0.2704 -0.3207  0.2200
  355MPD2    H5 5325   2.773   1.461  11.588 -0.9029 -2.9987 -0.0436
  355MPD2    N1 5326   2.326   1.677  11.292 -0.4177  0.4569  0.1293
  355MPD2    H7 5327   2.226   1.685  11.309 -0.1739  0.1643  1.7653
  356TMC3    C1 5328   2.958   1.471  11.402 -0.7106  0.0864  0.1992
  356TMC3    C2 5329   3.034   1.543  11.316  0.2713 -0.6224 -0.6797
  356TMC3    C3 5330   3.158   1.594  11.358 -0.4005 -0.5319  0.3468
  356TMC3    C4 5331   3.008   1.454  11.524  0.3830 -0.2877  0.2852
  356TMC3    C5 5332   3.130   1.502  11.558  0.4652  0.0782  0.4528
  356TMC3    C6 5333   3.212   1.575  11.474 -0.2450  0.0888 -0.1082
  356TMC3     C 5334   2.816   1.486  11.385  0.3053  0.1151  0.0885
  356TMC3     O 5335   2.781   1.494  11.268  0.1920  0.4006 -0.1850
  356TMC3     H 5336   2.991   1.561  11.218 -0.7345 -2.8700 -0.6493
  356TMC3    H1 5337   2.957   1.404  11.606  1.4034  0.3764  1.3187
  356TMC3    H2 5338   3.317   1.589  11.497 -0.6252 -0.2895  1.8504
  356TMC3    C7 5339   3.167   1.454  11.686  0.1090 -0.1482  0.4238
  356TMC3    C8 5340   3.228   1.682  11.263  0.1165 -0.9907  0.6249
  356TMC3    O1 5341   3.121   1.345  11.720  0.0793  0.0923 -0.0937
  356TMC3    O2 5342   3.174   1.684  11.153  0.6818 -0.4644 -0.3755
  357MPD2     C 5343   2.374   0.668   0.701 -0.3264 -0.1232  0.1403
  357MPD2    C1 5344   2.411   0.773   0.789  0.0058 -0.7624 -0.5391
  357MPD2    C2 5345   2.326   0.809   0.893 -0.3352  0.4065 -0.2098
  357MPD2    C3 5346   2.200   0.741   0.908 -0.2519  0.3561  1.0173
  357MPD2    C4 5347   2.160   0.647   0.814 -0.8322  0.5232  0.1013
  357MPD2    C5 5348   2.254   0.609   0.720  0.2337  0.0143 -0.1635
  357MPD2     H 5349   2.361   0.893   0.953 -2.1584  0.8625  0.2183
  357MPD2    H1 5350   2.066   0.594   0.822 -0.0728 -0.6962  0.8955
  357MPD2    H2 5351   2.435   0.652   0.613  0.7104 -0.5080  0.9330
  357MPD2    H3 5352   2.221   0.537   0.646 -1.1662 -0.7339  1.2047
  357MPD2     N 5353   2.105   0.785   1.000  0.2771 -0.0613 -0.3800
  357MPD2    H5 5354   2.010   0.754   0.979  0.5792 -0.4910 -1.0945
  357MPD2    N1 5355   2.523   0.849   0.747  0.0973 -0.7184  0.5162
  357MPD2    H7 5356   2.589   0.799   0.689 -2.1740  0.0728 -2.7508
  358TMC3    C1 5357   2.672   1.036   0.724 -0.1705  0.6217 -0.0270
  358TMC3    C2 5358   2.735   0.989   0.613  0.5852 -0.0848  0.1253
  358TMC3    C3 5359   2.843   1.057   0.563 -0.0919 -0.1916 -0.1380
  358TMC3    C4 5360   2.705   1.160   0.766  0.1553 -0.0106  0.4142
  358TMC3    C5 5361   2.806   1.228   0.715 -0.0076  0.7302  0.0217
  358TMC3    C6 5362   2.890   1.175   0.623  0.3267 -0.5989  0.4236
  358TMC3     C 5363   2.546   0.982   0.777 -1.1585 -0.1084 -0.0077
  358TMC3     O 5364   2.479   1.060   0.846  0.0370  0.4991 -0.0162
  358TMC3     H 5365   2.683   0.913   0.555 -0.5093  0.1748  0.7867
  358TMC3    H1 5366   2.656   1.203   0.853 -1.9942 -4.5233  1.4457
  358TMC3    H2 5367   2.949   1.245   0.566 -0.7665  0.6827  0.8571
  358TMC3    C7 5368   2.840   1.352   0.781  0.8154  0.1483 -1.2196
  358TMC3    C8 5369   2.928   1.011   0.450  0.2573 -0.4172 -0.5264
  358TMC3    O1 5370   2.743   1.410   0.822  0.2748 -0.0268 -0.7360
  358TMC3    O2 5371   3.040   1.057   0.436 -1.1685  0.1539 -0.3326
  359MPD2     C 5372   2.864   0.098  12.442  0.5713  0.1682 -0.2225
  359MPD2    C1 5373   2.890   4.700  12.382 -0.3794 -0.1815 -0.1003
  359MPD2    C2 5374   2.800   4.601  12.398 -0.3274  0.0634 -0.2539
  359MPD2    C3 5375   2.696   4.609  12.493  0.5300  0.2630 -0.6485
  359MPD2    C4 5376   2.677   0.004  12.568 -0.0582  0.0465  0.8694
  359MPD2    C5 5377   2.756   0.105  12.531 -0.4136  0.9431 -0.1771
  359MPD2     H 5378   2.819   4.507  12.348  0.1179 -0.1589  0.3269
  359MPD2    H1 5379   2.602   0.019  12.644 -0.1870 -0.8547  0.9116
  359MPD2    H2 5380   2.922   0.185  12.416 -1.3185  1.5928  0.2858
  359MPD2    H3 5381   2.745   0.203  12.576 -1.9125 -0.1047  1.7237
  359MPD2     N 5382   2.620   4.498  12.524  0.5263 -0.0258  0.3086
  359MPD2    H5 5383   2.548   4.503  12.595  2.0045  1.3937  1.7303
  359MPD2    N1 5384   2.993   4.671  12.287 -0.2973 -0.2152  0.4562
  359MPD2    H7 5385   2.994   4.576  12.251 -1.1742 -0.0709  0.0551
  360TMC3    C1 5386   3.182   0.003  12.149 -0.1263  0.3919 -0.0579
  360TMC3    C2 5387   3.297   0.075  12.128  0.1284  0.4262  0.5554
  360TMC3    C3 5388   3.397   0.025  12.044  0.5587 -0.5019  0.3619
  360TMC3    C4 5389   3.161   4.616  12.069  0.2637  0.1588  0.2176
  360TMC3    C5 5390   3.250   4.584  11.971  0.3490 -0.0567  0.1147
  360TMC3    C6 5391   3.362   4.653  11.957  0.3789 -0.3092 -0.1774
  360TMC3     C 5392   3.086   0.048  12.247 -0.0089  0.4336  0.1786
  360TMC3     O 5393   3.118   0.153  12.305 -0.1744 -0.1009 -0.4020
  360TMC3     H 5394   3.332   0.140  12.207  0.7001 -0.6638  1.1956
  360TMC3    H1 5395   3.067   4.563  12.070  1.5835 -2.2287 -0.4225
  360TMC3    H2 5396   3.413   4.639  11.862 -0.6692 -0.9683 -0.6370
  360TMC3    C7 5397   3.188   4.522  11.853 -0.1935  0.3154  0.0579
  360TMC3    C8 5398   3.498   0.116  12.010 -0.1239 -0.6722 -0.8571
  360TMC3    O1 5399   3.119   4.425  11.882 -0.2657  0.6102 -1.0002
  360TMC3    O2 5400   3.480   0.235  12.033  0.1468 -0.5164  0.0258
  361MPD2     C 5401   0.304   3.832  17.046 -0.1810 -0.1438 -0.5562
  361MPD2    C1 5402   0.326   3.913  17.149 -0.8156 -0.2007  0.9444
  361MPD2    C2 5403   0.386   3.872  17.270  0.2052 -0.2437  0.2024
  361MPD2    C3 5404   0.438   3.746  17.277 -0.2543 -0.2748  0.3639
  361MPD2    C4 5405   0.425   3.660  17.169 -0.1338 -0.2884 -0.6076
  361MPD2    C5 5406   0.362   3.707  17.057  1.1311  0.2215 -0.6274
  361MPD2     H 5407   0.386   3.942  17.352 -2.1896  2.3439 -2.0022
  361MPD2    H1 5408   0.474   3.564  17.157 -1.0241 -1.3063  3.6986
  361MPD2    H2 5409   0.244   3.864  16.961  1.8351  1.7184 -1.2931
  361MPD2    H3 5410   0.353   3.637  16.974  0.6677 -0.0379 -0.3551
  361MPD2     N 5411   0.506   3.685  17.389  0.0815  0.3489  0.3003
  361MPD2    H5 5412   0.553   3.596  17.374  1.4047  0.9226  1.0446
  361MPD2    N1 5413   0.287   4.049  17.141 -0.0482 -0.0340  0.5474
  361MPD2    H7 5414   0.320   4.096  17.225  4.3642  0.1862 -1.3408
  362TMC3    C1 5415   0.175   4.246  17.065  0.6934 -0.5835 -0.3527
  362TMC3    C2 5416   0.186   4.302  17.194  0.4723  0.0261  0.1383
  362TMC3    C3 5417   0.118   4.418  17.219 -0.0428  0.9408 -0.1882
  362TMC3    C4 5418   0.091   4.304  16.971 -0.1818  0.4808  0.6491
  362TMC3    C5 5419   0.031   4.431  17.001  0.0002  0.6891 -0.3432
  362TMC3    C6 5420   0.046   4.483  17.124 -0.0040 -0.1846  0.6996
  362TMC3     C 5421   0.235   4.119  17.035 -0.2514  1.0716 -0.9537
  362TMC3     O 5422   0.218   4.083  16.918  0.1203 -0.3084  0.6696
  362TMC3     H 5423   0.246   4.256  17.272 -0.9526  0.1562  1.3064
  362TMC3    H1 5424   0.103   4.265  16.870 -0.0898  0.5411  0.6370
  362TMC3    H2 5425   0.005   4.581  17.148 -1.3112 -0.6198  0.2897
  362TMC3    C7 5426   4.711   4.524  16.898 -0.1178 -0.9289  0.0044
  362TMC3    C8 5427   0.141   4.498  17.336 -0.5067 -0.2459  0.0802
  362TMC3    O1 5428   4.677   4.636  16.929  0.9296  0.2915 -0.9517
  362TMC3    O2 5429   0.252   4.502  17.385 -0.2081  0.4732 -0.1991
  363TMC3    C1 5430   3.861   1.473   9.632  0.4827  0.2084  0.4676
  363TMC3    C2 5431   3.778   1.434   9.533 -0.0226 -0.4194 -0.4462
  363TMC3    C3 5432   3.716   1.533   9.457 -0.0654  0.4360 -0.3039
  363TMC3    C4 5433   3.855   1.604   9.679  0.6467  0.7240 -0.8350
  363TMC3    C5 5434   3.780   1.697   9.613  0.9045 -0.3522  0.7239
  363TMC3    C6 5435   3.708   1.661   9.502  0.1520  0.4072 -0.5146
  363TMC3     C 5436   3.955   1.374   9.671 -0.3722 -1.1301 -0.0603
  363TMC3     O 5437   3.916   1.256   9.671  0.0075 -0.2660 -0.2052
  363TMC3     H 5438   3.792   1.334   9.493  1.9986 -0.1427 -0.4299
  363TMC3    H1 5439   3.905   1.635   9.770  1.0907  1.3427 -1.2904
  363TMC3    H2 5440   3.647   1.737   9.456  0.1392 -0.2475 -1.6043
  363TMC3    C7 5441   3.838   1.828   9.622  0.4809 -0.2445  0.1374
  363TMC3    C8 5442   3.599   1.499   9.377 -0.5318 -0.2124  0.5009
  363TMC3    O1 5443   3.950   1.843   9.672 -0.1772 -0.2957  0.2725
  363TMC3    O2 5444   3.521   1.588   9.353 -0.0631 -0.2265  0.3060
  364MPD2     C 5445   2.070   0.864  10.839 -0.4318 -0.3161 -0.0143
  364MPD2    C1 5446   2.129   0.813  10.730 -0.5998 -0.7474 -0.1611
  364MPD2    C2 5447   2.131   0.676  10.725  0.0165  1.0367 -0.6724
  364MPD2    C3 5448   2.082   0.590  10.824  0.1283 -0.1893  0.1084
  364MPD2    C4 5449   2.022   0.647  10.937  0.0309  0.1140  0.4236
  364MPD2    C5 5450   2.016   0.785  10.942  0.1545 -0.0963 -0.3607
  364MPD2     H 5451   2.190   0.633  10.645  1.3546 -0.1438  0.9470
  364MPD2    H1 5452   1.986   0.588  11.021  0.0256 -1.1584 -0.4747
  364MPD2    H2 5453   2.082   0.971  10.853 -2.2187 -0.0766 -0.3044
  364MPD2    H3 5454   1.986   0.838  11.031  1.2181  2.1108 -1.3167
  364MPD2     N 5455   2.105   0.444  10.813  0.5710 -0.0842  0.1678
  364MPD2    H5 5456   2.086   0.391  10.897  0.3968 -0.3706 -0.0535
  364MPD2    N1 5457   2.169   0.898  10.625 -0.4302 -0.5192  0.0487
  364MPD2    H7 5458   2.156   0.995  10.650  2.4985  0.0013 -0.5482
  365TMC3    C1 5459   2.243   0.965  10.405 -0.0286  0.3659 -0.7446
  365TMC3    C2 5460   2.302   0.925  10.288 -0.5458  0.0693  0.6497
  365TMC3    C3 5461   2.343   1.020  10.199 -0.2444 -0.7852 -0.0595
  365TMC3    C4 5462   2.233   1.100  10.439  0.4436 -0.0148 -0.0182
  365TMC3    C5 5463   2.280   1.192  10.344  0.2134 -0.1047 -0.1226
  365TMC3    C6 5464   2.336   1.155  10.227  0.5265 -0.0958  0.0554
  365TMC3     C 5465   2.199   0.856  10.497  0.3093  0.0494 -0.6461
  365TMC3     O 5466   2.193   0.743  10.449  0.0513  0.1788 -0.1505
  365TMC3     H 5467   2.323   0.819  10.282  0.1835  0.1741  1.3589
  365TMC3    H1 5468   2.180   1.136  10.526  0.9593  0.0150  0.2878
  365TMC3    H2 5469   2.363   1.226  10.150 -2.7836 -0.0778 -1.1103
  365TMC3    C7 5470   2.281   1.335  10.367  0.3669  0.0445 -0.2617
  365TMC3    C8 5471   2.402   0.974  10.073  0.0692  0.1448  0.0388
  365TMC3    O1 5472   2.340   1.409  10.286 -0.0664  0.3052  0.3111
  365TMC3    O2 5473   2.459   1.056   9.998 -0.5574 -0.0382 -0.0180
  366MPD2     C 5474   0.462   2.109  15.520  0.6054  0.0729  0.2726
  366MPD2    C1 5475   0.492   2.217  15.447 -0.2878 -0.1930  0.0895
  366MPD2    C2 5476   0.595   2.219  15.358  1.1179  0.6464  0.0147
  366MPD2    C3 5477   0.672   2.111  15.345 -0.0126  0.5778  0.1228
  366MPD2    C4 5478   0.652   2.000  15.419 -0.4290  0.3596  0.2552
  366MPD2    C5 5479   0.540   1.997  15.503 -1.0197 -0.0937 -0.4054
  366MPD2     H 5480   0.604   2.316  15.311 -0.3067 -0.4000 -2.4464
  366MPD2    H1 5481   0.706   1.906  15.423 -1.0071 -0.0063 -0.7334
  366MPD2    H2 5482   0.378   2.105  15.589 -0.4490  3.2086 -0.8215
  366MPD2    H3 5483   0.515   1.910  15.562  0.4855 -0.9565 -1.0288
  366MPD2     N 5484   0.786   2.135  15.270 -0.7381  0.1768  0.5551
  366MPD2    H5 5485   0.786   2.227  15.227 -1.3089  0.2691  0.7560
  366MPD2    N1 5486   0.432   2.341  15.472  0.1414  0.2285  0.3408
  366MPD2    H7 5487   0.487   2.421  15.440  1.3741 -1.0312 -0.6992
  367TMC3    C1 5488   0.306   2.510  15.566 -0.1694 -0.6880  0.8469
  367TMC3    C2 5489   0.415   2.577  15.616 -0.0718  0.6990 -0.2705
  367TMC3    C3 5490   0.413   2.711  15.629 -0.1014 -0.2069 -0.1139
  367TMC3    C4 5491   0.192   2.587  15.531 -0.0427 -0.5035 -0.1511
  367TMC3    C5 5492   0.198   2.725  15.553  0.2270 -0.3966  0.2502
  367TMC3    C6 5493   0.306   2.781  15.599 -0.3975 -0.2074  0.4016
  367TMC3     C 5494   0.309   2.369  15.533 -0.9188 -0.6850 -0.3800
  367TMC3     O 5495   0.211   2.299  15.545 -0.4865  0.3591  0.4476
  367TMC3     H 5496   0.509   2.535  15.651 -1.0253 -0.6854  0.6280
  367TMC3    H1 5497   0.100   2.535  15.505 -1.0759  0.0760  2.3455
  367TMC3    H2 5498   0.302   2.889  15.608  0.4387 -0.2979  1.8059
  367TMC3    C7 5499   0.118   2.821  15.471  0.1352  0.0699  0.0090
  367TMC3    C8 5500   0.537   2.778  15.659 -0.5843 -0.7796 -0.5455
  367TMC3    O1 5501   0.124   2.940  15.493  0.5763 -0.0514 -0.0611
  367TMC3    O2 5502   0.629   2.706  15.698 -0.3092 -0.3281 -0.1597
  368MPD2     C 5503   1.076   4.000  13.327 -0.2020 -0.6209  0.6928
  368MPD2    C1 5504   1.085   4.130  13.292  0.7244 -1.3586  0.0029
  368MPD2    C2 5505   1.207   4.179  13.273  0.2164  0.1633  0.6331
  368MPD2    C3 5506   1.322   4.105  13.289 -0.0232  0.0264  0.1581
  368MPD2    C4 5507   1.314   3.972  13.322  0.4420  0.1612 -0.0820
  368MPD2    C5 5508   1.187   3.919  13.335 -0.4357 -0.5949  0.6073
  368MPD2     H 5509   1.212   4.281  13.236  0.6369  0.9814  2.9504
  368MPD2    H1 5510   1.398   3.914  13.356  0.4642 -0.2571 -0.8529
  368MPD2    H2 5511   0.981   3.953  13.351 -0.7251 -0.2249 -0.6083
  368MPD2    H3 5512   1.184   3.817  13.374 -0.0971 -0.4380  1.0425
  368MPD2     N 5513   1.457   4.161  13.282  0.1004 -0.4305 -0.0771
  368MPD2    H5 5514   1.539   4.102  13.293 -0.4747 -1.2680 -0.2760
  368MPD2    N1 5515   0.964   4.207  13.260 -0.1924  0.0384  0.2649
  368MPD2    H7 5516   0.880   4.151  13.259  0.0486 -0.3386  0.6712
  369TMC3    C1 5517   0.837   4.380  13.156  0.0840  0.0404  0.4328
  369TMC3    C2 5518   0.860   4.480  13.061  0.4114 -0.2799  0.4097
  369TMC3    C3 5519   0.763   4.505  12.970 -0.0355  0.3966  0.1272
  369TMC3    C4 5520   0.727   4.296  13.165  0.8085 -0.7647 -0.3022
  369TMC3    C5 5521   0.636   4.337  13.076 -0.6327 -0.0597 -0.7407
  369TMC3    C6 5522   0.646   4.433  12.974  0.2814  0.3805 -0.2729
  369TMC3     C 5523   0.964   4.340  13.222  0.2067  0.2911 -0.3986
  369TMC3     O 5524   1.057   4.420  13.226  0.8846 -0.1773  0.5211
  369TMC3     H 5525   0.950   4.540  13.055  1.6489 -2.3918 -2.0376
  369TMC3    H1 5526   0.714   4.223  13.243  0.2268  1.6639  1.8791
  369TMC3    H2 5527   0.584   4.450  12.887  0.2988  1.6934 -0.0159
  369TMC3    C7 5528   0.514   4.258  13.070  0.6637  0.5386 -0.0664
  369TMC3    C8 5529   0.804   4.572  12.846  0.8011 -0.3425 -0.3717
  369TMC3    O1 5530   0.507   4.154  13.138  0.3937 -0.3493 -0.5952
  369TMC3    O2 5531   0.714   4.612  12.773 -0.2385  0.4414 -0.3056
  370TMC3    C1 5532   1.755   0.261  16.332  0.1750  0.6169 -0.4482
  370TMC3    C2 5533   1.712   0.180  16.436 -0.2245 -0.5329  0.2352
  370TMC3    C3 5534   1.624   0.081  16.402  0.5401  0.3819 -0.2300
  370TMC3    C4 5535   1.722   0.227  16.204  0.1490  0.4356 -0.3506
  370TMC3    C5 5536   1.641   0.121  16.181  0.6428  0.2729 -0.8272
  370TMC3    C6 5537   1.587   0.038  16.277 -0.4410  0.2387  0.3700
  370TMC3     C 5538   1.888   0.317  16.357  0.9472  0.3757  0.2799
  370TMC3     O 5539   1.941   0.276  16.458 -0.0654  0.1872  0.1967
  370TMC3     H 5540   1.744   0.204  16.537  0.4361  0.7707 -0.2826
  370TMC3    H1 5541   1.775   0.267  16.119  1.3238  1.7112  0.9853
  370TMC3    H2 5542   1.527   4.671  16.255 -1.8609  1.6624 -1.4723
  370TMC3    C7 5543   1.667   0.050  16.057  0.0061  0.1236 -0.3863
  370TMC3    C8 5544   1.591   4.716  16.515  0.1082 -0.1114  0.7215
  370TMC3    O1 5545   1.687   0.124  15.961  0.2387 -0.1178 -0.3490
  370TMC3    O2 5546   1.573   4.597  16.489 -0.6021 -0.4648 -0.0222
  371TMC3    C1 5547   2.641   2.998  15.673  0.4513 -0.8387  0.4470
  371TMC3    C2 5548   2.506   2.994  15.708 -0.4110 -0.4999 -0.7346
  371TMC3    C3 5549   2.445   3.109  15.693  0.3180 -0.6737  0.3016
  371TMC3    C4 5550   2.706   3.112  15.630 -0.0274 -0.2000 -0.1175
  371TMC3    C5 5551   2.637   3.225  15.630  0.0066 -0.5116 -0.8241
  371TMC3    C6 5552   2.501   3.222  15.653 -0.8760 -0.0642  0.0877
  371TMC3     C 5553   2.724   2.880  15.692 -0.5837  0.0092  0.6438
  371TMC3     O 5554   2.841   2.900  15.660 -0.1553 -0.2749 -0.0334
  371TMC3     H 5555   2.451   2.903  15.727  0.2156 -0.6700  0.2836
  371TMC3    H1 5556   2.811   3.113  15.604 -0.3560  3.6867 -1.3812
  371TMC3    H2 5557   2.448   3.313  15.627  1.1820  0.8529 -0.9127
  371TMC3    C7 5558   2.689   3.311  15.525  0.2141  0.3637 -0.8620
  371TMC3    C8 5559   2.302   3.113  15.705  0.5085 -0.0178  0.3710
  371TMC3    O1 5560   2.600   3.336  15.443 -0.0820  0.6678 -0.1824
  371TMC3    O2 5561   2.242   3.009  15.688 -0.2370  0.9003  0.4065
  372MPD2     C 5562   1.596   4.456  13.621  0.3857  0.2790 -0.1834
  372MPD2    C1 5563   1.710   4.381  13.616 -0.6574  0.3560  0.0530
  372MPD2    C2 5564   1.691   4.247  13.619 -0.1154 -0.2095  0.4045
  372MPD2    C3 5565   1.564   4.190  13.623 -0.1310  0.2078  0.0204
  372MPD2    C4 5566   1.453   4.271  13.653 -0.2123  0.0295  0.7936
  372MPD2    C5 5567   1.468   4.403  13.644  0.4223  0.3199 -0.6178
  372MPD2     H 5568   1.780   4.185  13.610 -0.7780 -1.1415  0.2132
  372MPD2    H1 5569   1.355   4.232  13.681  0.1805 -0.4496  1.4893
  372MPD2    H2 5570   1.585   4.563  13.608 -0.3625  0.1432 -0.6986
  372MPD2    H3 5571   1.379   4.462  13.658  1.0397  0.8229  1.2059
  372MPD2     N 5572   1.550   4.050  13.614 -0.0309 -0.3516  0.6177
  372MPD2    H5 5573   1.633   3.997  13.591  0.7260  0.2769  1.9125
  372MPD2    N1 5574   1.838   4.440  13.606 -0.0135  0.5243  0.1337
  372MPD2    H7 5575   1.915   4.374  13.602 -0.6483 -0.0969 -1.7439
  373TMC3    C1 5576   1.455   3.834  13.638  0.4715 -0.3402  0.8114
  373TMC3    C2 5577   1.375   3.751  13.704 -0.0411  0.6942  0.1407
  373TMC3    C3 5578   1.412   3.615  13.693 -0.1582  0.5623  0.2418
  373TMC3    C4 5579   1.545   3.787  13.547  0.3754  0.5723  1.0997
  373TMC3    C5 5580   1.569   3.657  13.525  0.3116  0.3228 -0.8729
  373TMC3    C6 5581   1.500   3.570  13.598  0.1579  0.5494 -0.2349
  373TMC3     C 5582   1.434   3.979  13.651  0.0667  0.4180 -0.2509
  373TMC3     O 5583   1.332   4.009  13.711 -0.5676  0.3109 -0.4661
  373TMC3     H 5584   1.304   3.784  13.778 -2.4811  1.6660 -2.6339
  373TMC3    H1 5585   1.600   3.859  13.486  0.8298 -1.0734 -0.4170
  373TMC3    H2 5586   1.533   3.466  13.601  0.7149  0.7231 -0.4564
  373TMC3    C7 5587   1.709   3.619  13.508 -0.1331 -0.2003 -0.1557
  373TMC3    C8 5588   1.451   3.559  13.825 -0.2270 -0.1729 -0.2383
  373TMC3    O1 5589   1.728   3.536  13.423 -0.1470 -0.1567  0.0653
  373TMC3    O2 5590   1.543   3.472  13.819  0.5591  0.3128  1.1317
  374TMC3    C1 5591   2.346   4.454   9.600  0.3771  0.0068 -0.3253
  374TMC3    C2 5592   2.455   4.535   9.602  0.6242 -0.5772  0.5481
  374TMC3    C3 5593   2.464   4.633   9.504 -0.0203  1.0286 -0.1047
  374TMC3    C4 5594   2.251   4.465   9.501 -0.7218 -0.4883  0.2250
  374TMC3    C5 5595   2.267   4.557   9.402 -0.9157 -0.2004 -1.1644
  374TMC3    C6 5596   2.370   4.645   9.402  0.0361 -0.0789 -0.8966
  374TMC3     C 5597   2.300   4.374   9.716  0.8272 -0.1708  0.7738
  374TMC3     O 5598   2.194   4.312   9.702 -0.7743  0.3521  0.1776
  374TMC3     H 5599   2.520   4.542   9.689  0.5321 -0.1665  0.5841
  374TMC3    H1 5600   2.172   4.391   9.491 -0.5692 -0.6137 -0.0480
  374TMC3    H2 5601   2.358   0.021   9.353 -1.6897  0.0111 -0.3049
  374TMC3    C7 5602   2.166   4.557   9.302 -0.2787  0.0717 -0.1424
  374TMC3    C8 5603   2.574   0.012   9.515  0.3374  0.2536  0.2612
  374TMC3    O1 5604   2.056   4.510   9.333 -0.3337 -0.3926  0.3084
  374TMC3    O2 5605   2.554   0.115   9.458 -0.6066 -0.3932  0.4339
  375MPD2     C 5606   3.308   0.248  17.068 -0.1924  0.3373 -0.1281
  375MPD2    C1 5607   3.223   0.241  16.956  0.4299 -0.0950 -0.4943
  375MPD2    C2 5608   3.260   0.173  16.844  0.1268 -0.8645 -0.1423
  375MPD2    C3 5609   3.380   0.099  16.841 -0.3193  0.9726  0.2814
  375MPD2    C4 5610   3.464   0.109  16.949  0.3305  0.3791  0.5703
  375MPD2    C5 5611   3.436   0.194  17.052  0.2120 -0.2943 -0.3288
  375MPD2     H 5612   3.202   0.163  16.753  0.8672  1.6205 -0.8927
  375MPD2    H1 5613   3.561   0.060  16.945  0.0886  0.0076 -0.9089
  375MPD2    H2 5614   3.280   0.307  17.154  1.4175  2.0520 -0.7832
  375MPD2    H3 5615   3.516   0.209  17.124  0.7681 -1.3110 -0.7337
  375MPD2     N 5616   3.414   0.008  16.742  0.0027 -0.1672 -0.1579
  375MPD2    H5 5617   3.507   4.692  16.753  0.9212  2.4819  0.9811
  375MPD2    N1 5618   3.106   0.316  16.944  0.1004  0.4779 -0.3150
  375MPD2    H7 5619   3.059   0.321  16.854 -0.4563 -0.5134 -0.0888
  376TMC3    C1 5620   3.412   4.674  16.512  0.6497  0.1102  0.6844
  376TMC3    C2 5621   3.543   4.681  16.517 -0.5370 -0.1111  0.3302
  376TMC3    C3 5622   3.613   4.643  16.406  0.4333  0.2483 -0.0193
  376TMC3    C4 5623   3.349   4.651  16.398  0.5532  0.5524 -0.4733
  376TMC3    C5 5624   3.418   4.624  16.283  0.3807 -0.3546  0.1830
  376TMC3    C6 5625   3.553   4.622  16.285 -0.3724 -0.1394  0.8490
  376TMC3     C 5626   3.335   4.709  16.631 -0.2622  0.1993  0.0815
  376TMC3     O 5627   3.213   4.718  16.608  0.8579 -0.1182  0.5082
  376TMC3     H 5628   3.591   0.010  16.601 -1.1469  2.5617 -0.9273
  376TMC3    H1 5629   3.240   4.652  16.397  0.5392  1.8576  1.6551
  376TMC3    H2 5630   3.613   4.603  16.197 -1.2705  0.7450  0.0508
  376TMC3    C7 5631   3.341   4.621  16.162  0.2174  0.5645 -0.8356
  376TMC3    C8 5632   3.754   4.675  16.403 -0.3947 -0.4825 -0.4635
  376TMC3    O1 5633   3.218   4.642  16.171  0.0628 -0.7805  0.0767
  376TMC3    O2 5634   3.795   4.710  16.297  0.3482 -0.1965 -0.1040
  377MPD2     C 5635   0.123   4.363  12.344 -0.2730  0.0872  0.1290
  377MPD2    C1 5636   0.184   4.341  12.464  0.6379  0.0321 -0.5843
  377MPD2    C2 5637   0.110   4.318  12.584  0.0197  0.4566  0.2772
  377MPD2    C3 5638   4.697   4.340  12.581 -0.0690 -0.3595  0.1615
  377MPD2    C4 5639   4.633   4.349  12.460  0.0188  0.3714  0.0872
  377MPD2    C5 5640   4.709   4.352  12.344  0.1299 -0.5997  0.4362
  377MPD2     H 5641   0.154   4.293  12.680  3.3234 -1.6940 -1.7714
  377MPD2    H1 5642   4.526   4.330  12.456 -0.0246  0.8424 -0.9435
  377MPD2    H2 5643   0.166   4.385  12.247 -1.0957  2.6408  0.3386
  377MPD2    H3 5644   4.657   4.345  12.249  0.3005 -3.0762  0.5372
  377MPD2     N 5645   4.622   4.315  12.694 -0.2008  0.5514 -0.6268
  377MPD2    H5 5646   4.674   4.284  12.776 -0.4054  1.9722  0.0365
  377MPD2    N1 5647   0.323   4.340  12.450 -0.1388 -0.3863  0.6549
  377MPD2    H7 5648   0.363   4.342  12.357 -1.8060 -2.4963 -0.1020
  378TMC3    C1 5649   0.732   4.354  12.396 -0.3041  0.1306 -0.4150
  378TMC3    C2 5650   0.598   4.350  12.407 -0.3703  0.3422 -0.3135
  378TMC3    C3 5651   0.547   4.307  12.527  0.1512  0.5932 -0.7348
  378TMC3    C4 5652   0.823   4.331  12.503 -0.2892 -0.0941  0.3517
  378TMC3    C5 5653   0.768   4.286  12.620 -0.3374 -0.3995 -1.0332
  378TMC3    C6 5654   0.634   4.279  12.632 -0.0107  0.2010  0.0158
  378TMC3     C 5655   0.788   4.399  12.270  0.3202  0.1590  0.0157
  378TMC3     O 5656   0.718   4.480  12.211  0.1044  0.0099  0.1190
  378TMC3     H 5657   0.534   4.386  12.328  0.5071  0.0624 -1.1513
  378TMC3    H1 5658   0.930   4.341  12.484 -0.4324  3.1549  1.3198
  378TMC3    H2 5659   0.600   4.223  12.718 -0.6749  0.0918 -0.3209
  378TMC3    C7 5660   0.852   4.221  12.726 -0.1900 -0.0436 -0.5258
  378TMC3    C8 5661   0.407   4.321  12.560  0.4860 -0.0629  0.6944
  378TMC3    O1 5662   0.788   4.171  12.821 -0.0899 -0.3503 -0.2729
  378TMC3    O2 5663   0.376   4.321  12.680 -0.5002  0.0503 -0.8417
  379MPD2     C 5664   1.727   3.061  16.090 -0.1108 -0.0817  0.1076
  379MPD2    C1 5665   1.638   3.009  16.180 -0.5693 -0.0429 -0.0556
  379MPD2    C2 5666   1.694   2.932  16.282 -0.1075  0.4496 -0.4039
  379MPD2    C3 5667   1.831   2.903  16.286 -0.1204 -0.9735  0.4156
  379MPD2    C4 5668   1.910   2.954  16.191 -0.1819 -0.0896 -0.5918
  379MPD2    C5 5669   1.860   3.041  16.102 -0.5841 -0.5392  0.4061
  379MPD2     H 5670   1.628   2.897  16.361  3.3556 -2.6056  1.1250
  379MPD2    H1 5671   2.016   2.931  16.194 -0.2360 -0.4695 -2.0968
  379MPD2    H2 5672   1.694   3.126  16.010  0.6803 -0.8571 -0.8464
  379MPD2    H3 5673   1.926   3.081  16.026  1.4278  1.4019  3.1931
  379MPD2     N 5674   1.882   2.805  16.368 -0.0303  0.7614  0.2250
  379MPD2    H5 5675   1.963   2.761  16.324 -0.7497 -0.9447  0.5866
  379MPD2    N1 5676   1.502   3.024  16.162  0.2199 -0.1231  0.1599
  379MPD2    H7 5677   1.473   3.070  16.076  1.7254 -2.2136 -1.4708
  380TMC3    C1 5678   1.306   2.935  16.123 -0.3072 -0.4865  0.1113
  380TMC3    C2 5679   1.348   2.830  16.045 -0.4452 -0.5686  0.3425
  380TMC3    C3 5680   1.314   2.824  15.909 -0.9401  0.1082 -0.2979
  380TMC3    C4 5681   1.234   3.038  16.075 -0.4563  0.2165  0.0119
  380TMC3    C5 5682   1.189   3.022  15.946  0.2136  0.1178  0.1817
  380TMC3    C6 5683   1.226   2.911  15.865 -0.1478  0.0057 -0.5664
  380TMC3     C 5684   1.402   2.956  16.225 -0.4612 -0.1492 -0.4430
  380TMC3     O 5685   1.404   2.874  16.318  0.3093 -0.5818 -0.1149
  380TMC3     H 5686   1.402   2.748  16.090  0.2963 -1.3629 -1.9735
  380TMC3    H1 5687   1.198   3.122  16.133 -2.1776  0.3383 -1.2447
  380TMC3    H2 5688   1.192   2.903  15.762  3.0813  2.9651 -1.8479
  380TMC3    C7 5689   1.069   3.097  15.911  0.9846 -0.0308 -0.0529
  380TMC3    C8 5690   1.421   2.812  15.814 -0.1532 -0.6639  0.3426
  380TMC3    O1 5691   1.061   3.216  15.941  0.0550  0.0538  0.6211
  380TMC3    O2 5692   1.393   2.838  15.699 -0.3806 -0.0481  0.1599
  381TMC3    C1 5693   1.454   3.982  16.436  1.2389 -0.4198  0.0437
  381TMC3    C2 5694   1.525   4.081  16.376  0.0990  0.2445 -0.1680
  381TMC3    C3 5695   1.579   4.180  16.452  0.1911  0.4152 -0.0481
  381TMC3    C4 5696   1.468   3.961  16.573  0.5249 -0.2477 -0.1034
  381TMC3    C5 5697   1.503   4.069  16.644 -0.4532 -0.3203 -0.4623
  381TMC3    C6 5698   1.568   4.178  16.588 -0.3961  0.1096  0.3244
  381TMC3     C 5699   1.433   3.870  16.351  0.0724  0.2672 -0.1962
  381TMC3     O 5700   1.407   3.890  16.235 -0.7925 -0.3479  0.3179
  381TMC3     H 5701   1.539   4.087  16.268 -0.2437 -2.4944 -0.3655
  381TMC3    H1 5702   1.402   3.888  16.619 -0.2424 -0.2257 -1.1891
  381TMC3    H2 5703   1.597   4.264  16.647  2.4654  1.5010 -3.1507
  381TMC3    C7 5704   1.488   4.056  16.787 -0.2390 -0.9012 -0.4119
  381TMC3    C8 5705   1.704   4.237  16.387  0.2623 -0.2264 -0.5148
  381TMC3    O1 5706   1.497   3.947  16.834 -0.3910 -0.4805 -0.2424
  381TMC3    O2 5707   1.722   4.199  16.269  0.0490 -0.4902  0.0528
  382MPD2     C 5708   0.611   2.138   0.635 -0.3822  0.2013 -0.4503
  382MPD2    C1 5709   0.624   2.171   0.504 -0.7061 -0.0136 -0.4260
  382MPD2    C2 5710   0.528   2.145   0.410  0.2996 -0.1015 -0.0896
  382MPD2    C3 5711   0.413   2.098   0.455 -0.1435 -0.4733 -0.3800
  382MPD2    C4 5712   0.389   2.075   0.584  0.0237 -0.2828 -0.3583
  382MPD2    C5 5713   0.487   2.097   0.679 -0.3278  0.2858 -0.0724
  382MPD2     H 5714   0.552   2.175   0.309 -0.7800  0.6667 -0.1197
  382MPD2    H1 5715   0.299   2.033   0.627  0.1635 -1.0256 -0.7935
  382MPD2    H2 5716   0.696   2.144   0.703  1.0977 -2.7227 -2.0271
  382MPD2    H3 5717   0.457   2.084   0.782 -0.4551  1.7176  0.0641
  382MPD2     N 5718   0.319   2.046   0.364 -0.1868 -0.4246  0.1622
  382MPD2    H5 5719   0.236   1.997   0.396  0.4929 -0.3078  2.1312
  382MPD2    N1 5720   0.746   2.215   0.452  0.2845  0.4936 -0.6330
  382MPD2    H7 5721   0.752   2.231   0.352 -2.0245 -0.3970 -0.9003
  383TMC3    C1 5722   0.216   1.992   0.165 -0.0164 -0.0258  0.5367
  383TMC3    C2 5723   0.234   1.901   0.061  0.7120  0.0207 -0.2745
  383TMC3    C3 5724   0.118   1.848   0.008 -0.1386 -0.1729  0.4451
  383TMC3    C4 5725   0.092   2.024   0.207 -0.5516 -0.3509  0.0092
  383TMC3    C5 5726   4.705   1.965   0.149 -0.2100 -0.7677 -0.6782
  383TMC3    C6 5727   4.712   1.884   0.037 -0.4139 -0.2182  0.6929
  383TMC3     C 5728   0.334   2.055   0.224 -0.8281  0.1384  0.3758
  383TMC3     O 5729   0.430   2.076   0.148 -0.2425 -0.4337  0.2684
  383TMC3     H 5730   0.334   1.867   0.035  1.0622  2.4033 -2.0249
  383TMC3    H1 5731   0.072   2.100   0.283 -0.2436 -0.9685  0.7028
  383TMC3    H2 5732   4.625   1.848  17.669  0.2653 -2.3921  1.0492
  383TMC3    C7 5733   4.587   1.953   0.230 -0.8252 -0.1658  0.5834
  383TMC3    C8 5734   0.140   1.741  17.600  0.0182  0.9263  0.7822
  383TMC3    O1 5735   4.564   2.047   0.302 -0.2247 -0.6776  0.6587
  383TMC3    O2 5736   0.062   1.745  17.508  0.1126  0.8245  0.2443
  384MPD2     C 5737   1.993   2.663  11.959 -0.1105  0.2610 -0.4031
  384MPD2    C1 5738   1.995   2.560  12.052 -0.1438  0.0095 -0.2659
  384MPD2    C2 5739   2.102   2.468  12.038  0.5585  0.3690 -0.0135
  384MPD2    C3 5740   2.206   2.483  11.950  0.2276  0.3941 -1.4786
  384MPD2    C4 5741   2.199   2.592  11.862  0.1946 -0.4326 -0.0587
  384MPD2    C5 5742   2.084   2.668  11.861 -0.0242 -0.4622  0.3484
  384MPD2     H 5743   2.105   2.382  12.103  1.5306 -0.2606 -0.8804
  384MPD2    H1 5744   2.274   2.611  11.785  0.9350 -0.2901  0.6978
  384MPD2    H2 5745   1.922   2.745  11.956 -1.1860 -0.5931  1.3427
  384MPD2    H3 5746   2.083   2.742  11.782 -2.5634 -0.1992  0.6421
  384MPD2     N 5747   2.310   2.394  11.948 -0.2007 -0.3370 -0.2245
  384MPD2    H5 5748   2.293   2.312  12.005  0.0688  0.5768  1.1811
  384MPD2    N1 5749   1.903   2.542  12.152  0.3646  0.1828  0.1865
  384MPD2    H7 5750   1.929   2.469  12.218  0.1172 -0.2310 -0.1710
  385TMC3    C1 5751   2.465   2.256  11.861  1.0074  1.1969 -0.1619
  385TMC3    C2 5752   2.447   2.200  11.734  0.1792  0.4056 -0.7997
  385TMC3    C3 5753   2.398   2.072  11.732  0.5016 -0.2765 -0.2092
  385TMC3    C4 5754   2.454   2.180  11.977 -0.4201 -0.1033  0.1991
  385TMC3    C5 5755   2.396   2.055  11.964  0.5841  0.6032 -0.6151
  385TMC3    C6 5756   2.374   2.001  11.841 -0.2479 -0.8473  0.0099
  385TMC3     C 5757   2.423   2.390  11.874  0.1573  0.4983  0.5917
  385TMC3     O 5758   2.462   2.460  11.782  0.0904  0.1908 -0.8615
  385TMC3     H 5759   2.470   2.256  11.645  0.0338 -1.6449 -2.1164
  385TMC3    H1 5760   2.467   2.236  12.069 -0.5588  0.2083  0.0265
  385TMC3    H2 5761   2.342   1.900  11.820 -1.8900 -1.1210  3.8038
  385TMC3    C7 5762   2.271   2.054  12.052 -0.1489  0.6039  0.0873
  385TMC3    C8 5763   2.331   2.022  11.606  0.0930  0.6349  0.0300
  385TMC3    O1 5764   2.252   2.160  12.107  0.0081 -0.0244 -0.3001
  385TMC3    O2 5765   2.259   1.929  11.626 -0.5054 -0.1370 -0.6133
  386TMC3    C1 5766   1.604   4.547  11.564  0.4694  0.1161  0.1913
  386TMC3    C2 5767   1.651   4.557  11.435 -0.5326  0.2812  0.7770
  386TMC3    C3 5768   1.574   4.629  11.343 -0.3732  0.2729  0.0166
  386TMC3    C4 5769   1.470   4.576  11.588  0.0359 -0.0682 -0.6306
  386TMC3    C5 5770   1.399   4.629  11.482  1.0105  0.2741  0.4310
  386TMC3    C6 5771   1.445   4.663  11.362  0.3458 -0.4590 -0.2410
  386TMC3     C 5772   1.672   4.478  11.669  0.5219 -0.0848  0.3906
  386TMC3     O 5773   1.627   4.487  11.783 -0.0401 -0.0433  0.3509
  386TMC3     H 5774   1.755   4.542  11.408 -0.6491  1.3219 -0.2354
  386TMC3    H1 5775   1.438   4.580  11.692  0.8536 -0.4230 -0.3641
  386TMC3    H2 5776   1.380   4.710  11.289 -0.7093 -0.2239  0.8534
  386TMC3    C7 5777   1.272   4.688  11.529  0.0330  0.2743  0.3315
  386TMC3    C8 5778   1.626   4.696  11.232 -1.1024 -0.2696  0.2804
  386TMC3    O1 5779   1.220   4.638  11.628 -0.0828 -0.6932  0.6882
  386TMC3    O2 5780   1.568   0.076  11.207  0.5184 -0.1781 -0.2006
  387MPD2     C 5781   3.941   4.667   9.070  0.2063 -0.2269  0.0053
  387MPD2    C1 5782   4.061   4.695   9.132  0.8039 -0.2917  0.4578
  387MPD2    C2 5783   4.131   4.596   9.204  0.2192 -0.0826 -0.2951
  387MPD2    C3 5784   4.065   4.472   9.231 -0.3191 -0.2804  0.3679
  387MPD2    C4 5785   3.942   4.451   9.170  0.0505 -0.5235 -0.2681
  387MPD2    C5 5786   3.882   4.542   9.091  0.0617  0.1864 -0.1403
  387MPD2     H 5787   4.233   4.617   9.234 -1.3744  3.4851  2.5934
  387MPD2    H1 5788   3.883   4.364   9.198  1.3244 -0.0984  3.7175
  387MPD2    H2 5789   3.893   0.011   8.997 -0.4587  1.4380  1.9120
  387MPD2    H3 5790   3.785   4.512   9.052  0.9014  0.8681 -2.7380
  387MPD2     N 5791   4.133   4.377   9.310 -0.0154  0.5396 -0.0890
  387MPD2    H5 5792   4.228   4.398   9.340  0.4539 -0.4605 -0.9021
  387MPD2    N1 5793   4.108   0.101   9.129  0.2490  0.7885  0.4538
  387MPD2    H7 5794   4.199   0.122   9.170  0.2673 -0.0952  0.8720
  388TMC3    C1 5795   4.080   0.335   9.163  0.2212  0.0652  0.0549
  388TMC3    C2 5796   4.008   0.449   9.132  0.5814  0.6777 -1.1760
  388TMC3    C3 5797   3.979   0.540   9.233  0.7804  0.5094 -0.1400
  388TMC3    C4 5798   4.136   0.308   9.281  0.6352 -0.8131 -0.9134
  388TMC3    C5 5799   4.095   0.393   9.383  0.1478  0.3977  0.1597
  388TMC3    C6 5800   4.026   0.508   9.363 -0.1951 -0.0916  0.4570
  388TMC3     C 5801   4.035   0.212   9.094 -0.7480 -0.1059 -0.8169
  388TMC3     O 5802   3.924   0.222   9.044 -0.4415 -0.1734 -1.0264
  388TMC3     H 5803   4.006   0.473   9.026  0.4437  1.5627 -0.9678
  388TMC3    H1 5804   4.217   0.236   9.281  0.2164 -1.2885  0.5020
  388TMC3    H2 5805   4.015   0.578   9.445 -3.0527 -1.4017  1.2210
  388TMC3    C7 5806   4.127   0.359   9.522 -0.2228  0.1593  0.3056
  388TMC3    C8 5807   3.966   0.676   9.193  0.1320  0.6275 -0.2839
  388TMC3    O1 5808   4.158   0.450   9.603  0.4733 -0.9238  0.3285
  388TMC3    O2 5809   3.996   0.765   9.269  0.9882  0.0176  0.1143
  389MPD2     C 5810   4.053   2.825  11.328  0.9666  0.2239  0.1149
  389MPD2    C1 5811   3.958   2.786  11.237 -0.1110 -0.2402 -0.4539
  389MPD2    C2 5812   3.844   2.716  11.282  0.2326 -0.0048  0.5459
  389MPD2    C3 5813   3.845   2.669  11.419  0.2262  0.6323 -0.0555
  389MPD2    C4 5814   3.937   2.714  11.503  0.5163 -0.0868  0.0549
  389MPD2    C5 5815   4.043   2.788  11.460  0.4528  0.0397  0.2519
  389MPD2     H 5816   3.766   2.688  11.213  0.4905  0.3198  0.1210
  389MPD2    H1 5817   3.938   2.690  11.609  3.7413  1.5694  0.4099
  389MPD2    H2 5818   4.140   2.877  11.289 -0.3947  0.9555 -1.9789
  389MPD2    H3 5819   4.118   2.803  11.537  0.4386  0.6041  0.1556
  389MPD2     N 5820   3.740   2.588  11.470 -0.2879 -0.2209 -0.4197
  389MPD2    H5 5821   3.733   2.574  11.571  0.6890  3.6124  0.1831
  389MPD2    N1 5822   3.976   2.828  11.103 -0.3202 -0.2225  0.0281
  389MPD2    H7 5823   4.074   2.851  11.084 -0.9217  0.8677 -1.7609
  390TMC3    C1 5824   3.553   2.447  11.486 -0.2710  0.5881  0.1182
  390TMC3    C2 5825   3.487   2.335  11.434  0.1351 -0.0066 -0.1560
  390TMC3    C3 5826   3.419   2.249  11.519  0.5249 -0.5096  0.1057
  390TMC3    C4 5827   3.532   2.476  11.619  0.3355  0.4035 -0.0256
  390TMC3    C5 5828   3.449   2.404  11.697 -0.4249 -0.3200 -0.0269
  390TMC3    C6 5829   3.402   2.284  11.651 -0.0139 -0.8837  0.0862
  390TMC3     C 5830   3.650   2.510  11.400  0.4367 -0.2885 -0.4399
  390TMC3     O 5831   3.661   2.485  11.281  0.1002 -0.0219 -0.0652
  390TMC3     H 5832   3.498   2.311  11.329 -0.2866  0.6221 -0.3431
  390TMC3    H1 5833   3.574   2.566  11.662 -1.5759  0.7905  1.0167
  390TMC3    H2 5834   3.350   2.228  11.728 -2.8188  0.0182 -1.1501
  390TMC3    C7 5835   3.426   2.440  11.834  0.7622  0.2900  0.0589
  390TMC3    C8 5836   3.334   2.145  11.461  0.0104 -0.3805 -0.4019
  390TMC3    O1 5837   3.511   2.503  11.898 -0.0590  0.0822 -0.0394
  390TMC3    O2 5838   3.296   2.159  11.346 -0.6208  0.7399  0.0862
  391MPD2     C 5839   3.506   4.031  10.465  0.3087 -0.4212  0.1783
  391MPD2    C1 5840   3.499   4.165  10.515 -0.1913  0.1055  0.1661
  391MPD2    C2 5841   3.486   4.275  10.423 -0.1666 -0.0885 -0.6033
  391MPD2    C3 5842   3.473   4.244  10.291  0.5247  0.0445  0.1707
  391MPD2    C4 5843   3.482   4.112  10.244  0.3184  0.2850 -0.5844
  391MPD2    C5 5844   3.493   4.010  10.333 -0.5615  1.0053  0.1379
  391MPD2     H 5845   3.487   4.379  10.455  0.2074 -1.1777  2.8379
  391MPD2    H1 5846   3.485   4.086  10.139 -0.8437  0.7261 -0.7359
  391MPD2    H2 5847   3.513   3.941  10.526 -1.4817 -0.2465  0.6494
  391MPD2    H3 5848   3.498   3.908  10.296 -3.9738  1.0538 -0.4102
  391MPD2     N 5849   3.459   4.360  10.210  0.7223  0.0510  1.2888
  391MPD2    H5 5850   3.459   4.453  10.251  0.0942  0.3084  0.7158
  391MPD2    N1 5851   3.516   4.185  10.659  0.3975  0.3792 -0.3852
  391MPD2    H7 5852   3.527   4.101  10.714  0.5654  1.6375  1.5188
  392TMC3    C1 5853   3.410   4.498  10.028  0.8635 -0.0914  0.5817
  392TMC3    C2 5854   3.310   4.510   9.936 -0.1322 -0.2043  0.2827
  392TMC3    C3 5855   3.259   4.637   9.914 -0.0052 -0.4688 -0.0428
  392TMC3    C4 5856   3.461   4.608  10.092 -0.4473 -0.0516 -0.1972
  392TMC3    C5 5857   3.406   0.009  10.068  0.0498  0.9462 -0.0631
  392TMC3    C6 5858   3.303   0.024   9.975  0.1257 -0.4815 -0.2124
  392TMC3     C 5859   3.430   4.362  10.079 -0.5833  0.5278 -0.6754
  392TMC3     O 5860   3.381   4.274  10.006 -0.1154 -0.0393 -0.0329
  392TMC3     H 5861   3.268   4.428   9.879 -0.3520  0.8557 -1.0834
  392TMC3    H1 5862   3.542   4.606  10.164 -1.4025  3.5308  1.0143
  392TMC3    H2 5863   3.254   0.120   9.963  0.7013 -0.2092 -0.4279
  392TMC3    C7 5864   3.471   0.117  10.144 -0.3445 -0.1719  0.7573
  392TMC3    C8 5865   3.142   4.641   9.830 -0.2131 -0.7018  0.2743
  392TMC3    O1 5866   3.523   0.084  10.251 -0.4896 -0.2245  0.0659
  392TMC3    O2 5867   3.096   4.537   9.791 -0.1664 -0.3811 -0.2419
  393TMC3    C1 5868   2.179   2.209  10.087 -0.8941  0.2621 -0.4372
  393TMC3    C2 5869   2.076   2.132  10.130 -0.8121 -0.0965  0.1704
  393TMC3    C3 5870   2.073   2.000  10.114  0.6010 -0.2277 -0.3733
  393TMC3    C4 5871   2.288   2.147  10.028  0.2120  0.0801 -0.0250
  393TMC3    C5 5872   2.283   2.009  10.013 -0.4653  0.3276 -0.9994
  393TMC3    C6 5873   2.180   1.935  10.067  0.6452  0.0882  0.3111
  393TMC3     C 5874   2.187   2.353  10.129 -0.0997  0.3018  0.0581
  393TMC3     O 5875   2.084   2.412  10.167  0.0783 -0.1189  0.4649
  393TMC3     H 5876   1.997   2.185  10.182 -0.9077  2.3929 -2.5003
  393TMC3    H1 5877   2.363   2.209   9.980  1.1666 -0.6994  0.4460
  393TMC3    H2 5878   2.190   1.827  10.071 -0.5843 -0.0686 -0.8040
  393TMC3    C7 5879   2.383   1.947   9.931  0.0005  0.5452 -0.2913
  393TMC3    C8 5880   1.945   1.933  10.128  0.1846  0.3635 -0.3239
  393TMC3    O1 5881   2.376   1.834   9.885 -0.4979 -0.1355 -0.3192
  393TMC3    O2 5882   1.842   2.002  10.122  0.1247 -0.3085 -0.1931
  394TMC3    C1 5883   3.933   2.867  10.871 -0.4124  0.0804  0.9537
  394TMC3    C2 5884   3.842   2.866  10.773 -0.4469 -0.5483 -0.3463
  394TMC3    C3 5885   3.881   2.906  10.647 -0.7577 -0.1826  0.0173
  394TMC3    C4 5886   4.064   2.911  10.846 -0.3319  0.4144  0.1674
  394TMC3    C5 5887   4.103   2.943  10.718  0.0088 -0.0314 -0.1362
  394TMC3    C6 5888   4.010   2.941  10.618 -0.0479  0.0582 -0.4462
  394TMC3     C 5889   3.889   2.807  11.000 -0.8295  0.2057  0.1828
  394TMC3     O 5890   3.778   2.748  10.995  0.1277 -0.7793 -0.0849
  394TMC3     H 5891   3.736   2.856  10.794 -0.5965  0.6308 -0.5502
  394TMC3    H1 5892   4.142   2.922  10.920  1.9023 -1.8936 -1.8484
  394TMC3    H2 5893   4.039   2.959  10.516  0.3716  2.7314  0.1472
  394TMC3    C7 5894   4.231   3.011  10.699 -0.4209 -0.7629  0.2919
  394TMC3    C8 5895   3.780   2.925  10.550 -0.0424 -0.3608 -0.7933
  394TMC3    O1 5896   4.322   3.001  10.781  0.3951  0.4691 -0.2662
  394TMC3    O2 5897   3.669   2.948  10.599 -0.4541 -0.3355  0.2102
  395TMC3    C1 5898   3.771   4.566  14.082  0.3401  0.2029  0.1778
  395TMC3    C2 5899   3.671   4.650  14.046  0.0103  0.0362 -0.0168
  395TMC3    C3 5900   3.667   0.064  14.090  0.7025 -0.8286  0.1078
  395TMC3    C4 5901   3.866   4.608  14.170 -0.2995  0.0095  0.1028
  395TMC3    C5 5902   3.865   0.021  14.203  0.3337  0.4066 -0.7955
  395TMC3    C6 5903   3.770   0.112  14.166 -0.3315  0.3443 -0.1343
  395TMC3     C 5904   3.719   4.440  14.137  0.0456 -0.4493 -0.5117
  395TMC3     O 5905   3.736   4.442  14.257  0.0066  0.4952 -0.2654
  395TMC3     H 5906   3.602   4.630  13.965  2.6059 -0.0157 -2.2381
  395TMC3    H1 5907   3.938   4.536  14.208  0.1324  0.5223  0.2527
  395TMC3    H2 5908   3.765   0.209  14.214  0.9497 -0.1001  0.8695
  395TMC3    C7 5909   3.967   0.059  14.300 -1.0593  0.3639  0.2921
  395TMC3    C8 5910   3.538   0.092  14.155  0.7041 -0.5062 -0.1578
  395TMC3    O1 5911   3.991   4.698  14.384 -0.0664  0.1728  0.0747
  395TMC3    O2 5912   3.492   0.202  14.170 -0.8508  0.0304  0.1291
  396MPD2     C 5913   3.544   1.023  16.965 -0.1914  0.5521  0.0878
  396MPD2    C1 5914   3.653   1.098  17.008  0.0837  0.1659 -0.3122
  396MPD2    C2 5915   3.671   1.225  16.953 -0.9050  0.0926  0.1429
  396MPD2    C3 5916   3.581   1.277  16.863 -0.6416  0.4996  0.3153
  396MPD2    C4 5917   3.469   1.200  16.817 -0.1754  1.2881  0.0142
  396MPD2    C5 5918   3.457   1.071  16.863  0.3504 -0.6273  1.1454
  396MPD2     H 5919   3.752   1.289  16.987 -0.2582 -0.5208 -0.2402
  396MPD2    H1 5920   3.404   1.244  16.742  0.6287  0.2017 -1.3326
  396MPD2    H2 5921   3.516   0.930  17.015  0.1300  3.0693  4.9105
  396MPD2    H3 5922   3.369   1.014  16.833 -0.4223  1.2237 -0.1128
  396MPD2     N 5923   3.607   1.409  16.819  0.1086  0.2418  0.2841
  396MPD2    H5 5924   3.691   1.453  16.856  0.2630 -1.0321  1.4184
  396MPD2    N1 5925   3.737   1.043  17.113  0.1386 -0.3958  0.2485
  396MPD2    H7 5926   3.699   0.954  17.146 -0.6679 -0.3932 -0.6607
  397TMC3    C1 5927   3.939   0.994  17.224 -0.1536  0.3201  0.5852
  397TMC3    C2 5928   4.018   0.943  17.126 -0.3550 -0.5492  0.3621
  397TMC3    C3 5929   4.004   0.821  17.084 -0.1448 -0.0489 -0.0709
  397TMC3    C4 5930   3.867   0.908  17.306  0.2458  0.3814  0.6344
  397TMC3    C5 5931   3.865   0.777  17.264 -0.4478 -0.2547  0.4766
  397TMC3    C6 5932   3.931   0.729  17.152  0.0008 -0.2272 -0.5119
  397TMC3     C 5933   3.857   1.095  17.161 -0.3032  0.2807 -0.8645
  397TMC3     O 5934   3.907   1.200  17.129  0.1055  0.1674  0.0218
  397TMC3     H 5935   4.056   1.017  17.057 -1.9280 -0.0580  0.0260
  397TMC3    H1 5936   3.810   0.959  17.384 -2.5536 -1.3955 -0.2781
  397TMC3    H2 5937   3.931   0.621  17.139 -0.7099 -0.2632 -0.2270
  397TMC3    C7 5938   3.809   0.677  17.360  0.1463 -0.0441 -0.0284
  397TMC3    C8 5939   4.012   0.815  16.941  0.0241 -0.9045  0.5351
  397TMC3    O1 5940   3.792   0.565  17.323  0.1511 -0.6182  0.2132
  397TMC3    O2 5941   4.020   0.920  16.876 -0.5964  0.2322 -0.4175
  398MPD2     C 5942   1.855   2.283   0.248  0.2511 -0.9794 -0.2769
  398MPD2    C1 5943   1.922   2.156   0.244  0.4780  0.5928  0.8711
  398MPD2    C2 5944   2.055   2.155   0.204 -0.5718 -0.1180  0.5579
  398MPD2    C3 5945   2.131   2.271   0.182 -0.2841  0.0454 -0.7859
  398MPD2    C4 5946   2.063   2.393   0.194  0.3743 -0.3682  0.6322
  398MPD2    C5 5947   1.925   2.397   0.224 -0.0998 -0.5806 -0.2502
  398MPD2     H 5948   2.093   2.054   0.202  2.0018  0.9207 -1.3023
  398MPD2    H1 5949   2.109   2.485   0.161 -1.1530  0.1750  0.0044
  398MPD2    H2 5950   1.748   2.286   0.261  0.2718  0.4392 -0.4771
  398MPD2    H3 5951   1.872   2.491   0.217  0.3102 -0.4319 -1.3723
  398MPD2     N 5952   2.267   2.263   0.147  0.2198 -0.2713  0.2717
  398MPD2    H5 5953   2.303   2.169   0.151 -0.5066 -0.4427  2.2736
  398MPD2    N1 5954   1.863   2.031   0.271 -0.3597  0.1771  0.0949
  398MPD2    H7 5955   1.926   1.955   0.248 -0.6281  0.0363 -0.1779
  399TMC3    C1 5956   1.703   1.866   0.328 -0.0309  0.9209 -0.8472
  399TMC3    C2 5957   1.803   1.781   0.350  0.6552 -0.2243  0.0653
  399TMC3    C3 5958   1.771   1.646   0.340  0.7127  0.2565 -1.3618
  399TMC3    C4 5959   1.576   1.831   0.293 -0.1116  0.3759  0.3931
  399TMC3    C5 5960   1.548   1.699   0.276  0.2708 -0.3716 -0.2329
  399TMC3    C6 5961   1.644   1.605   0.299 -0.6494 -0.7505 -0.3737
  399TMC3     C 5962   1.732   2.006   0.308 -0.0154 -0.5958  0.2936
  399TMC3     O 5963   1.646   2.087   0.326  0.4104  0.1702 -0.0939
  399TMC3     H 5964   1.904   1.802   0.383  0.6483 -0.3776  0.1852
  399TMC3    H1 5965   1.511   1.914   0.266  3.6362  2.9294 -0.7707
  399TMC3    H2 5966   1.611   1.504   0.278 -1.4684 -0.8673  1.4361
  399TMC3    C7 5967   1.408   1.661   0.255  0.0989  0.4696 -0.4032
  399TMC3    C8 5968   1.891   1.556   0.329 -0.0748 -0.9126  0.1468
  399TMC3    O1 5969   1.388   1.556   0.197 -0.4776 -0.7000 -0.0677
  399TMC3    O2 5970   1.995   1.608   0.289  0.3499 -0.8813 -0.0676
  400TMC3    C1 5971   0.700   1.104  17.114  0.2647  0.6897  0.1476
  400TMC3    C2 5972   0.575   1.072  17.068 -0.0208 -0.1967 -0.3110
  400TMC3    C3 5973   0.462   1.138  17.113 -0.1240 -0.4885 -0.1236
  400TMC3    C4 5974   0.719   1.206  17.196 -0.4111  0.2027 -0.3522
  400TMC3    C5 5975   0.607   1.271  17.242  0.2738 -0.5858  0.1939
  400TMC3    C6 5976   0.486   1.245  17.197 -0.5777  0.6602  0.3593
  400TMC3     C 5977   0.807   1.010  17.098  0.2269 -0.0582  0.9521
  400TMC3     O 5978   0.921   1.047  17.107  0.5083 -0.6006  0.1785
  400TMC3     H 5979   0.556   0.987  17.003  1.3768 -1.3542  0.7903
  400TMC3    H1 5980   0.821   1.226  17.227 -0.1847  0.9264 -1.5402
  400TMC3    H2 5981   0.398   1.287  17.243 -0.4415  0.8931  0.4063
  400TMC3    C7 5982   0.629   1.384  17.328 -0.3624 -0.3375 -0.0145
  400TMC3    C8 5983   0.338   1.066  17.126  0.3150  0.3441  0.3162
  400TMC3    O1 5984   0.737   1.396  17.385  0.4595 -0.2977  0.3599
  400TMC3    O2 5985   0.287   1.077  17.240 -0.4838  0.2343 -0.1528
  401MPD2     C 5986   2.850   4.371   0.202 -0.4922 -0.4873 -0.2938
  401MPD2    C1 5987   2.858   4.324   0.333  0.1383 -0.4293  0.7732
  401MPD2    C2 5988   2.780   4.213   0.368 -0.1574 -0.2987  0.4090
  401MPD2    C3 5989   2.705   4.143   0.284 -0.1013  0.0175  0.1236
  401MPD2    C4 5990   2.694   4.186   0.153  0.2694 -0.9675 -0.3114
  401MPD2    C5 5991   2.762   4.298   0.118 -0.0832 -0.3247  0.5202
  401MPD2     H 5992   2.788   4.182   0.471 -0.1115  0.4065  0.6175
  401MPD2    H1 5993   2.620   4.139   0.090 -0.7548 -1.1942  1.0601
  401MPD2    H2 5994   2.904   4.455   0.161 -0.9275 -0.9666 -1.8688
  401MPD2    H3 5995   2.752   4.334   0.016 -2.3619  0.1463  0.9108
  401MPD2     N 5996   2.628   4.038   0.334  0.1119  0.6563 -0.4634
  401MPD2    H5 5997   2.647   4.009   0.429 -0.7079 -1.7693 -1.0238
  401MPD2    N1 5998   2.941   4.383   0.434  0.5644 -0.6989  0.3219
  401MPD2    H7 5999   2.938   4.339   0.525 -1.4798  1.3095  1.2367
  402TMC3    C1 6000   2.469   3.867   0.349  0.2027 -0.3380 -0.5220
  402TMC3    C2 6001   2.456   3.898   0.480 -0.9585  0.2679  0.0721
  402TMC3    C3 6002   2.455   3.793   0.566 -0.1817 -0.3817 -0.0634
  402TMC3    C4 6003   2.458   3.742   0.301  1.1363 -0.0589 -0.8098
  402TMC3    C5 6004   2.452   3.638   0.383  0.1572  0.1589 -0.0508
  402TMC3    C6 6005   2.459   3.664   0.518 -0.1226 -0.5008 -0.5019
  402TMC3     C 6006   2.551   3.956   0.262 -0.3226  0.0815  0.8070
  402TMC3     O 6007   2.523   3.948   0.145  0.0587 -0.0239 -0.2380
  402TMC3     H 6008   2.461   4.001   0.514  1.2157 -0.0062  0.6184
  402TMC3    H1 6009   2.453   3.735   0.193 -1.6871 -0.8328 -0.6431
  402TMC3    H2 6010   2.452   3.581   0.587 -0.3699 -1.0950 -1.2433
  402TMC3    C7 6011   2.432   3.503   0.337 -0.1465 -0.6623 -0.5321
  402TMC3    C8 6012   2.504   3.810   0.703  0.2879  0.0676  0.6069
  402TMC3    O1 6013   2.390   3.488   0.224  0.0012  0.0402  0.0745
  402TMC3    O2 6014   2.548   3.707   0.751 -0.1164  0.3072 -0.0427
  403MPD2     C 6015   1.592   2.432  13.095 -0.2114  0.7241  0.4499
  403MPD2    C1 6016   1.616   2.318  13.167  0.4923 -0.5203 -0.1011
  403MPD2    C2 6017   1.703   2.334  13.277  0.1213  0.4057 -0.5053
  403MPD2    C3 6018   1.763   2.451  13.308 -0.3188 -0.6391  0.0222
  403MPD2    C4 6019   1.736   2.564  13.234  0.2400  0.9219 -0.9730
  403MPD2    C5 6020   1.650   2.554  13.131 -0.2226 -0.0260 -0.5058
  403MPD2     H 6021   1.718   2.245  13.335  0.0152  1.3298  0.9311
  403MPD2    H1 6022   1.772   2.664  13.256  1.3364  0.2295  0.3849
  403MPD2    H2 6023   1.528   2.420  13.008  0.8612 -0.9851 -0.0941
  403MPD2    H3 6024   1.624   2.645  13.078  0.5814  0.7155  0.3915
  403MPD2     N 6025   1.846   2.451  13.422  0.3707 -0.1012  0.2762
  403MPD2    H5 6026   1.873   2.360  13.459 -0.8502 -0.1949  0.9187
  403MPD2    N1 6027   1.536   2.209  13.140  0.5932  0.6851 -0.8644
  403MPD2    H7 6028   1.524   2.184  13.042  0.2311  0.3679 -0.7394
  404TMC3    C1 6029   1.391   2.028  13.167 -0.1255 -0.5121  0.3199
  404TMC3    C2 6030   1.358   1.918  13.241  0.8987  0.3554  0.0896
  404TMC3    C3 6031   1.247   1.844  13.201 -0.6572 -0.6094  0.6444
  404TMC3    C4 6032   1.328   2.058  13.051  0.4202  0.5767 -0.4308
  404TMC3    C5 6033   1.224   1.980  13.009  0.6332  0.8500  0.0662
  404TMC3    C6 6034   1.184   1.867  13.077 -0.6071  0.1093 -0.5038
  404TMC3     C 6035   1.487   2.121  13.222 -0.0400  0.2660 -0.0986
  404TMC3     O 6036   1.509   2.118  13.341 -0.5783  0.0267 -0.0509
  404TMC3     H 6037   1.414   1.892  13.330  0.1255  2.1295  1.0932
  404TMC3    H1 6038   1.338   2.154  13.001  0.9720 -1.1231 -3.5668
  404TMC3    H2 6039   1.098   1.810  13.046 -0.1470  0.1067 -1.7572
  404TMC3    C7 6040   1.212   1.987  12.864 -0.5829 -0.0670  0.5271
  404TMC3    C8 6041   1.213   1.732  13.282  0.0597 -0.8112 -0.7962
  404TMC3    O1 6042   1.308   2.045  12.813 -0.3923 -0.0174  0.0880
  404TMC3    O2 6043   1.178   1.630  13.227 -0.0946 -0.0507  0.2280
  405MPD2     C 6044   2.142   2.688  14.131  0.5029  1.0786  0.0532
  405MPD2    C1 6045   2.048   2.586  14.101 -0.8519  0.0125 -1.0376
  405MPD2    C2 6046   1.937   2.630  14.031 -0.0623 -0.2839  0.3835
  405MPD2    C3 6047   1.917   2.761  13.991 -0.3360  0.0145  0.3231
  405MPD2    C4 6048   2.006   2.865  14.029  0.3536  0.5275 -0.0152
  405MPD2    C5 6049   2.115   2.822  14.101 -0.1802  0.6392  0.7096
  405MPD2     H 6050   1.861   2.554  14.018 -0.1689 -0.0572 -0.3001
  405MPD2    H1 6051   1.984   2.968  14.002  1.3326  1.0085  1.0067
  405MPD2    H2 6052   2.231   2.669  14.190 -0.1430 -1.6763  0.1244
  405MPD2    H3 6053   2.177   2.898  14.147  1.6372 -0.1581 -0.4290
  405MPD2     N 6054   1.794   2.794  13.920 -0.0641  0.0525  0.2966
  405MPD2    H5 6055   1.719   2.727  13.934 -2.1681  2.2682 -0.3421
  405MPD2    N1 6056   2.051   2.449  14.139 -0.7247  0.3294 -0.7484
  405MPD2    H7 6057   1.980   2.388  14.102  0.1522 -1.5155  0.5707
  406TMC3    C1 6058   1.419   2.878  13.860  0.0340  0.5797 -0.0776
  406TMC3    C2 6059   1.398   2.789  13.763 -0.0970  0.7455 -0.2482
  406TMC3    C3 6060   1.506   2.754  13.687 -0.4532  0.5058  1.3116
  406TMC3    C4 6061   1.541   2.937  13.887 -0.0252  0.0263 -0.5374
  406TMC3    C5 6062   1.641   2.913  13.798 -0.7202  0.0835  0.2197
  406TMC3    C6 6063   1.632   2.819  13.697  0.3840 -0.2759 -0.4635
  406TMC3     C 6064   1.310   2.921  13.939  0.8765 -0.2081  0.2398
  406TMC3     O 6065   1.250   2.837  13.999 -0.4474  0.0129 -0.0725
  406TMC3     H 6066   1.304   2.739  13.746 -0.2890  0.9134  0.3221
  406TMC3    H1 6067   1.561   2.991  13.979  0.0755 -0.4120 -0.3021
  406TMC3    H2 6068   1.719   2.782  13.645  0.4710 -1.0965  0.2622
  406TMC3    C7 6069   1.770   2.908  13.848 -0.0234 -0.4996  0.3178
  406TMC3    C8 6070   1.507   2.618  13.639 -0.5092 -0.0577 -0.1031
  406TMC3    O1 6071   1.852   2.995  13.812  0.1816 -0.0736 -0.4459
  406TMC3    O2 6072   1.496   2.599  13.517  0.2436  0.4606 -0.1646
  407MPD2     C 6073   3.584   4.085   9.611 -0.2076  0.9385  0.0625
  407MPD2    C1 6074   3.696   4.127   9.543 -0.0304  0.2073 -0.4598
  407MPD2    C2 6075   3.768   4.237   9.587  0.0489 -0.5657  0.7561
  407MPD2    C3 6076   3.736   4.297   9.709  0.0425  0.9346  0.6863
  407MPD2    C4 6077   3.632   4.248   9.784  0.2654 -0.3273  0.2783
  407MPD2    C5 6078   3.555   4.146   9.731 -1.1967 -0.1733  0.3424
  407MPD2     H 6079   3.853   4.276   9.532 -0.9959  1.4986  0.5906
  407MPD2    H1 6080   3.597   4.304   9.870  1.3170  1.5078 -0.4996
  407MPD2    H2 6081   3.524   4.003   9.572 -0.7484  2.2089 -1.7987
  407MPD2    H3 6082   3.470   4.119   9.792  0.1119 -2.4731  1.1684
  407MPD2     N 6083   3.820   4.405   9.754 -0.6722  0.2406 -0.2647
  407MPD2    H5 6084   3.884   4.450   9.690 -1.1291 -0.1361 -0.9965
  407MPD2    N1 6085   3.745   4.070   9.420 -0.4889 -0.7018 -0.3268
  407MPD2    H7 6086   3.822   4.119   9.376 -1.1877  0.4681 -0.2649
  408TMC3    C1 6087   3.778   3.894   9.271  0.7194  0.4214 -0.0597
  408TMC3    C2 6088   3.863   3.799   9.320  0.0089 -0.4213  0.4588
  408TMC3    C3 6089   3.996   3.803   9.282  0.0690 -0.4972  0.5426
  408TMC3    C4 6090   3.827   3.973   9.169 -0.2571 -0.1730  0.6947
  408TMC3    C5 6091   3.953   3.957   9.124  0.5951 -0.0178 -0.6248
  408TMC3    C6 6092   4.046   3.885   9.190  0.3983  0.0271 -0.0344
  408TMC3     C 6093   3.693   3.949   9.375  0.1785  0.3454 -0.0116
  408TMC3     O 6094   3.621   3.870   9.435  0.4064 -0.3774 -0.2563
  408TMC3     H 6095   3.818   3.741   9.400  4.2186 -0.1890  2.9729
  408TMC3    H1 6096   3.778   4.066   9.144  1.1296  0.2671 -0.3846
  408TMC3    H2 6097   4.144   3.883   9.143 -0.8292  2.0289 -2.6518
  408TMC3    C7 6098   4.003   4.058   9.032 -0.6147  0.6580 -0.3482
  408TMC3    C8 6099   4.082   3.714   9.349  0.2152  0.4425 -0.6080
  408TMC3    O1 6100   4.122   4.085   9.030  0.0533  0.1864  0.1387
  408TMC3    O2 6101   4.032   3.607   9.383  0.2690 -0.6017 -0.3894
  409MPD2     C 6102   4.285   0.533  16.936  0.4666 -0.3670  0.8873
  409MPD2    C1 6103   4.291   0.602  17.055  0.0050 -0.3954 -0.3812
  409MPD2    C2 6104   4.356   0.717  17.074  0.5631  0.2544  0.5552
  409MPD2    C3 6105   4.423   0.775  16.966  0.8449  0.5714  0.4543
  409MPD2    C4 6106   4.409   0.713  16.845 -0.2531  0.5973 -0.1399
  409MPD2    C5 6107   4.341   0.590  16.822 -0.0321 -0.0643  0.3592
  409MPD2     H 6108   4.369   0.762  17.172 -0.7222 -0.0029  0.8352
  409MPD2    H1 6109   4.445   0.756  16.753  0.2700  0.9547  0.2368
  409MPD2    H2 6110   4.216   0.451  16.918 -1.1069  0.9062  1.1830
  409MPD2    H3 6111   4.340   0.551  16.721  1.1268 -1.0044  0.7135
  409MPD2     N 6112   4.489   0.900  16.973 -0.2739 -0.1060  0.3595
  409MPD2    H5 6113   4.526   0.932  16.885 -2.1435  0.0818 -0.3713
  409MPD2    N1 6114   4.232   0.556  17.177 -0.2315  0.3137  0.6888
  409MPD2    H7 6115   4.237   0.621  17.255  0.3497  1.6322 -0.4604
  410TMC3    C1 6116   4.570   1.100  17.045 -0.8938 -0.1570  0.7959
  410TMC3    C2 6117   4.649   1.148  17.143  0.2946  0.1764 -0.0338
  410TMC3    C3 6118   4.698   1.278  17.120  0.1674  0.3043  0.2688
  410TMC3    C4 6119   4.536   1.157  16.929 -0.0115  0.0472 -0.4113
  410TMC3    C5 6120   4.580   1.288  16.914  0.1768  0.4370 -0.4203
  410TMC3    C6 6121   4.653   1.354  17.013 -0.5204 -0.0734 -0.4566
  410TMC3     C 6122   4.501   0.978  17.082 -0.3092 -0.9568  0.7252
  410TMC3     O 6123   4.487   0.950  17.202 -0.4096  0.2195  0.3504
  410TMC3     H 6124   4.675   1.084  17.227 -2.6865 -1.6250 -0.4908
  410TMC3    H1 6125   4.455   1.119  16.866 -0.3236  0.8565 -0.4979
  410TMC3    H2 6126   4.681   1.454  16.984 -2.8797  0.9104  0.6177
  410TMC3    C7 6127   4.566   1.359  16.790  0.4140 -0.4089 -0.2764
  410TMC3    C8 6128   0.036   1.363  17.219  0.3691 -0.1406  0.3696
  410TMC3    O1 6129   4.565   1.482  16.790  1.1870  0.4828 -0.7796
  410TMC3    O2 6130   0.065   1.477  17.190 -0.0503 -0.0235 -0.0075
  411MPD2     C 6131   4.109   0.893  15.020 -0.4673 -0.2603  0.0824
  411MPD2    C1 6132   4.112   0.942  14.898  0.2875 -0.3459  0.1922
  411MPD2    C2 6133   4.068   0.876  14.785  0.0986 -0.8530  0.0973
  411MPD2    C3 6134   4.014   0.748  14.804  0.4776  0.2228 -0.0116
  411MPD2    C4 6135   3.999   0.701  14.936  1.0692  0.2918  0.4575
  411MPD2    C5 6136   4.060   0.765  15.039  0.2141 -0.3640 -1.1049
  411MPD2     H 6137   4.059   0.925  14.689 -0.5814  1.1753  1.1925
  411MPD2    H1 6138   3.973   0.598  14.957  1.4931  0.2434  0.7630
  411MPD2    H2 6139   4.141   0.949  15.106 -1.8256 -1.9836  1.7068
  411MPD2    H3 6140   4.057   0.729  15.142  0.4573  3.3951  0.2231
  411MPD2     N 6141   3.968   0.666  14.706  0.6984 -0.3080  0.6258
  411MPD2    H5 6142   3.922   0.582  14.738  0.5832 -1.5172 -2.7299
  411MPD2    N1 6143   4.143   1.077  14.899 -0.0392  0.2423  0.3351
  411MPD2    H7 6144   4.158   1.126  14.986  2.8340  1.7002 -1.0010
  412TMC3    C1 6145   3.905   0.587  14.499  0.2834  0.2870  0.3568
  412TMC3    C2 6146   3.857   0.475  14.563  0.4368  0.4875  0.4112
  412TMC3    C3 6147   3.764   0.394  14.501 -0.1859  0.3150 -0.1820
  412TMC3    C4 6148   3.867   0.617  14.368  0.7971 -0.1335 -0.3364
  412TMC3    C5 6149   3.768   0.539  14.316  0.2613 -0.4638  0.4649
  412TMC3    C6 6150   3.723   0.426  14.377  0.1073 -1.1061 -1.0391
  412TMC3     C 6151   3.986   0.681  14.570 -0.7977  0.2534  0.2759
  412TMC3     O 6152   4.040   0.762  14.499  0.3379 -0.0603 -0.6405
  412TMC3     H 6153   3.870   0.440  14.665 -1.5514 -0.6407  0.2790
  412TMC3    H1 6154   3.895   0.712  14.326  4.7056 -1.7854 -1.5006
  412TMC3    H2 6155   3.670   0.353  14.318 -1.9131 -0.5807  0.1452
  412TMC3    C7 6156   3.653   0.613  14.266  0.0337 -0.3831 -0.3492
  412TMC3    C8 6157   3.644   0.353  14.582 -0.2592 -0.2797  0.3926
  412TMC3    O1 6158   3.542   0.562  14.300 -0.6201 -0.1123  0.3082
  412TMC3    O2 6159   3.652   0.283  14.685  0.2191  0.2949  0.3857
  413MPD2     C 6160   0.815   4.180  15.429  0.2514  0.1330  0.1610
  413MPD2    C1 6161   0.716   4.090  15.407  0.4443 -0.4490 -0.3271
  413MPD2    C2 6162   0.741   3.960  15.445 -0.8183  0.1409  0.0272
  413MPD2    C3 6163   0.860   3.919  15.501 -0.3436  0.4523  0.1933
  413MPD2    C4 6164   0.957   4.012  15.523  0.8952  0.8717  0.0079
  413MPD2    C5 6165   0.937   4.138  15.477  0.3454  0.2408  0.2294
  413MPD2     H 6166   0.664   3.885  15.428 -0.6116  0.1151 -0.7891
  413MPD2    H1 6167   1.051   3.987  15.571  0.2884 -0.9083  0.2764
  413MPD2    H2 6168   0.804   4.281  15.393 -0.0046  0.1522  0.2897
  413MPD2    H3 6169   1.011   4.210  15.508  1.8880 -1.7384  1.1075
  413MPD2     N 6170   0.876   3.780  15.520 -0.1744  0.5890  0.4280
  413MPD2    H5 6171   0.804   3.720  15.482  0.9548 -0.5896  0.1586
  413MPD2    N1 6172   0.602   4.139  15.347  0.3164  0.1221 -0.1361
  413MPD2    H7 6173   0.606   4.239  15.328  0.6154 -0.7835 -4.8578
  414TMC3    C1 6174   0.979   3.583  15.591 -0.8066  0.9132  0.3466
  414TMC3    C2 6175   1.064   3.526  15.678  0.2286  0.1467  0.0417
  414TMC3    C3 6176   1.108   3.400  15.659  0.1370 -0.4898 -0.5463
  414TMC3    C4 6177   0.947   3.515  15.476  0.6492  0.0600 -0.0691
  414TMC3    C5 6178   1.005   3.392  15.445 -0.1735 -0.4686 -0.2713
  414TMC3    C6 6179   1.071   3.331  15.547 -0.4898  0.3236  0.6002
  414TMC3     C 6180   0.982   3.727  15.589  0.0592 -0.0597 -0.3639
  414TMC3     O 6181   1.054   3.779  15.672 -0.2636  0.3759  0.3806
  414TMC3     H 6182   1.106   3.578  15.764  0.4700  0.4339 -0.2504
  414TMC3    H1 6183   0.877   3.561  15.407 -0.5266 -1.1630  0.3044
  414TMC3    H2 6184   1.119   3.237  15.523 -1.8325  0.4830 -2.7400
  414TMC3    C7 6185   1.066   3.384  15.313  0.9341  0.1318 -0.6190
  414TMC3    C8 6186   1.249   3.381  15.699 -0.8139  0.7354  0.9394
  414TMC3    O1 6187   1.167   3.319  15.307 -0.0572 -1.1841 -0.0766
  414TMC3    O2 6188   1.290   3.269  15.675 -0.0612 -0.3459  0.1120
  415TMC3    C1 6189   1.563   1.807   9.947 -0.2299 -0.9692 -0.3519
  415TMC3    C2 6190   1.684   1.824   9.890 -0.1330  0.7251 -0.3085
  415TMC3    C3 6191   1.708   1.946   9.839 -0.0291 -0.9575  0.2186
  415TMC3    C4 6192   1.461   1.887   9.904 -0.6800  0.1823  0.8378
  415TMC3    C5 6193   1.484   1.991   9.822 -0.5087 -0.5713 -0.1845
  415TMC3    C6 6194   1.610   2.028   9.788 -0.1944  0.0822  0.5659
  415TMC3     C 6195   1.537   1.673  10.002  0.4822  0.9890 -0.2267
  415TMC3     O 6196   1.430   1.662  10.061 -0.3400 -0.5521  0.2845
  415TMC3     H 6197   1.767   1.769   9.933 -1.1432  0.2392  1.0639
  415TMC3    H1 6198   1.363   1.872   9.948 -0.8261 -2.7125 -0.4583
  415TMC3    H2 6199   1.628   2.120   9.735 -0.0928  0.6849  1.6469
  415TMC3    C7 6200   1.386   2.020   9.725  0.6694 -0.4654 -0.1938
  415TMC3    C8 6201   1.844   1.961   9.791 -0.7448  0.1191  0.6116
  415TMC3    O1 6202   1.396   2.116   9.647 -0.0648  0.1361 -0.1741
  415TMC3    O2 6203   1.915   1.859   9.779 -0.1134 -0.2498  0.2903
  416MPD2     C 6204   3.151   0.878  11.522  0.0458  0.0380 -0.0832
  416MPD2    C1 6205   3.057   0.851  11.421  0.2885  0.0687  0.2221
  416MPD2    C2 6206   3.092   0.752  11.331 -0.3675  0.4540  0.5621
  416MPD2    C3 6207   3.203   0.672  11.348 -0.5626 -0.0290 -0.2545
  416MPD2    C4 6208   3.290   0.698  11.452 -0.0389  0.5754 -0.4263
  416MPD2    C5 6209   3.265   0.810  11.529 -0.4040  0.4619 -0.1657
  416MPD2     H 6210   3.022   0.718  11.256 -0.2777  1.3853  0.0579
  416MPD2    H1 6211   3.385   0.655  11.483 -0.1699  0.8570  0.3572
  416MPD2    H2 6212   3.138   0.958  11.594  1.3005  0.3253 -0.1845
  416MPD2    H3 6213   3.334   0.843  11.606 -1.5644 -0.4454  1.2458
  416MPD2     N 6214   3.238   0.563  11.265  0.2739  0.6698  0.0935
  416MPD2    H5 6215   3.307   0.503  11.309  0.5214  0.4095 -0.6540
  416MPD2    N1 6216   2.927   0.910  11.399  0.1036  0.2604 -0.4254
  416MPD2    H7 6217   2.872   0.861  11.329 -1.2102  1.1050  0.0202
  417TMC3    C1 6218   2.731   1.044  11.427 -0.6162  0.0501  0.2335
  417TMC3    C2 6219   2.656   1.115  11.519 -0.2313  0.9386  0.2668
  417TMC3    C3 6220   2.524   1.130  11.493 -0.2081  0.8791 -0.3140
  417TMC3    C4 6221   2.682   1.016  11.300 -0.0009  0.0651  0.7568
  417TMC3    C5 6222   2.550   1.025  11.281  0.4825 -0.4265  0.1193
  417TMC3    C6 6223   2.470   1.087  11.373  0.7964  0.4362 -0.1365
  417TMC3     C 6224   2.870   1.009  11.474 -0.2492  0.2428  0.4037
  417TMC3     O 6225   2.900   1.062  11.582 -0.3260  0.0882  0.1136
  417TMC3     H 6226   2.694   1.126  11.620  3.2281  1.3559 -1.0704
  417TMC3    H1 6227   2.740   0.969  11.222 -1.2335  0.7597 -0.5744
  417TMC3    H2 6228   2.367   1.093  11.341  1.3886 -0.8563 -2.3333
  417TMC3    C7 6229   2.512   1.062  11.144  0.1958 -0.3172  0.0964
  417TMC3    C8 6230   2.429   1.144  11.598  0.0080  0.9610 -0.3210
  417TMC3    O1 6231   2.480   1.176  11.126 -0.3842 -0.1678 -0.5276
  417TMC3    O2 6232   2.451   1.106  11.712 -0.6558  0.0768  0.0648
  418TMC3    C1 6233   2.602   2.154   0.012 -0.1106 -0.1574  0.1276
  418TMC3    C2 6234   2.548   2.272   0.018 -0.1879 -0.1667 -0.0633
  418TMC3    C3 6235   2.492   2.299   0.137  0.0823  0.4449 -0.4613
  418TMC3    C4 6236   2.649   2.079   0.116 -0.1739 -0.1246 -0.2034
  418TMC3    C5 6237   2.587   2.110   0.233 -0.3107 -0.3236 -0.2801
  418TMC3    C6 6238   2.502   2.215   0.241 -0.0780 -0.4596  0.2538
  418TMC3     C 6239   2.638   2.112  17.566  0.0783 -0.0795  0.0725
  418TMC3     O 6240   2.654   2.203  17.479 -0.0561 -0.4292  0.2181
  418TMC3     H 6241   2.520   2.332  17.617 -0.8204 -0.1076  0.1817
  418TMC3    H1 6242   2.718   1.996   0.107  0.4900  0.3705  0.3061
  418TMC3    H2 6243   2.449   2.240   0.332 -2.7370  2.2855 -2.0588
  418TMC3    C7 6244   2.602   2.026   0.351 -0.4930  0.3361  0.5933
  418TMC3    C8 6245   2.362   2.362   0.142 -0.2185 -1.0867  0.1537
  418TMC3    O1 6246   2.504   2.023   0.421  0.1707 -0.3831 -0.3727
  418TMC3    O2 6247   2.335   2.480   0.127 -0.3585 -0.1779 -0.7626
  419MPD2     C 6248   0.155   0.327  12.545  0.8313  0.4186 -0.6507
  419MPD2    C1 6249   0.158   0.460  12.531  0.0230 -0.6515  0.4001
  419MPD2    C2 6250   0.161   0.534  12.643 -0.3645  0.2957 -0.0562
  419MPD2    C3 6251   0.160   0.474  12.769  0.1457  0.0309 -0.3201
  419MPD2    C4 6252   0.150   0.341  12.782  0.3707 -0.0667 -0.2665
  419MPD2    C5 6253   0.141   0.267  12.666  0.8291  0.0395 -0.8442
  419MPD2     H 6254   0.166   0.642  12.637 -1.3864  0.3832  0.6488
  419MPD2    H1 6255   0.141   0.287  12.876 -2.0509  3.1317  1.2997
  419MPD2    H2 6256   0.156   0.262  12.458 -0.8458 -1.0788  0.4584
  419MPD2    H3 6257   0.131   0.160  12.660  0.1514  0.2459 -3.2694
  419MPD2     N 6258   0.160   0.566  12.877  0.0166  0.5188 -0.2504
  419MPD2    H5 6259   0.170   0.666  12.863 -0.2341  0.6227  0.3108
  419MPD2    N1 6260   0.171   0.531  12.407 -0.4482 -0.7081 -0.0482
  419MPD2    H7 6261   0.183   0.631  12.412  3.6730 -1.2995  2.1419
  420TMC3    C1 6262   0.175   0.653  13.094 -0.9796  0.1390 -0.2085
  420TMC3    C2 6263   0.094   0.759  13.071  0.0089 -0.1920  0.0280
  420TMC3    C3 6264   0.117   0.864  13.161 -0.0012 -0.9514 -0.4897
  420TMC3    C4 6265   0.268   0.645  13.190 -0.3188 -0.2641 -0.4557
  420TMC3    C5 6266   0.285   0.747  13.276  0.1800 -0.6723  0.8645
  420TMC3    C6 6267   0.201   0.860  13.271 -0.0157 -0.3333 -0.3834
  420TMC3     C 6268   0.162   0.534  13.011  0.2646 -0.4455  0.0210
  420TMC3     O 6269   0.169   0.426  13.069  0.3455  0.6754  0.0960
  420TMC3     H 6270   0.030   0.766  12.984  0.0716 -0.6596 -0.0588
  420TMC3    H1 6271   0.327   0.555  13.198  0.4569  0.5167  2.4188
  420TMC3    H2 6272   0.216   0.950  13.330 -0.1805 -0.1674 -0.5980
  420TMC3    C7 6273   0.407   0.770  13.351  1.0527 -0.5371  0.6869
  420TMC3    C8 6274   0.029   0.976  13.137  0.0314 -0.2493  0.1461
  420TMC3    O1 6275   0.404   0.862  13.434 -0.1487 -0.1933  0.6675
  420TMC3    O2 6276   4.708   0.993  13.022 -0.2324  0.0724 -0.1972
  421TMC3    C1 6277   1.971   2.544  13.603 -0.1330 -0.3664 -0.6207
  421TMC3    C2 6278   2.044   2.661  13.631 -0.3340 -0.2439 -0.0764
  421TMC3    C3 6279   2.143   2.644  13.726  0.0373 -0.3385  0.5945
  421TMC3    C4 6280   2.013   2.418  13.639  0.5375  0.0656  0.1940
  421TMC3    C5 6281   2.102   2.411  13.746  0.2901  0.0625  0.0299
  421TMC3    C6 6282   2.173   2.521  13.780  0.2862  0.3059  0.1166
  421TMC3     C 6283   1.880   2.562  13.498 -0.1712  0.4659 -0.0146
  421TMC3     O 6284   1.844   2.677  13.480 -0.0488  0.2435 -0.1165
  421TMC3     H 6285   2.018   2.759  13.592  0.1974 -0.1004 -0.0663
  421TMC3    H1 6286   1.949   2.335  13.611  1.3589 -0.3080 -0.6232
  421TMC3    H2 6287   2.248   2.510  13.857  0.5634 -0.5931 -0.2847
  421TMC3    C7 6288   2.155   2.285  13.789 -0.0828 -0.1514 -0.6651
  421TMC3    C8 6289   2.226   2.758  13.752 -0.1559 -0.1532  0.1695
  421TMC3    O1 6290   2.206   2.279  13.899  0.0868 -0.1970  0.3377
  421TMC3    O2 6291   2.330   2.730  13.805  0.3130  0.4488  0.3438
  422TMC3    C1 6292   3.913   3.773  12.332 -0.2502  0.5047  0.2442
  422TMC3    C2 6293   3.821   3.872  12.318 -0.3328 -0.0182 -0.2760
  422TMC3    C3 6294   3.690   3.837  12.325  0.1544 -0.1235 -0.1934
  422TMC3    C4 6295   3.884   3.647  12.372 -0.2864  0.1877  0.3807
  422TMC3    C5 6296   3.756   3.626  12.399  0.0650  0.5006  0.4959
  422TMC3    C6 6297   3.652   3.706  12.362 -0.4411  0.5474 -0.3183
  422TMC3     C 6298   4.022   3.778  12.230  0.4814 -0.0039  0.8449
  422TMC3     O 6299   4.076   3.880  12.196 -0.1720  0.2133  0.3413
  422TMC3     H 6300   3.845   3.969  12.277  1.8812 -0.5829 -0.3656
  422TMC3    H1 6301   3.960   3.570  12.383  0.5473  1.1392  1.2276
  422TMC3    H2 6302   3.548   3.679  12.372 -0.1998  0.2747  1.5002
  422TMC3    C7 6303   3.728   3.507  12.477  0.5367  0.2525 -0.7692
  422TMC3    C8 6304   3.586   3.933  12.307  0.3559 -0.3685 -0.0111
  422TMC3    O1 6305   3.817   3.422  12.479  0.0673 -0.1588  0.0144
  422TMC3    O2 6306   3.478   3.889  12.268  0.3993  0.2393 -0.5067
  423MPD2     C 6307   0.876   0.516   0.309  0.0460  0.0505  0.4879
  423MPD2    C1 6308   0.832   0.383   0.319 -0.0388  0.0240  0.1448
  423MPD2    C2 6309   0.861   0.285   0.227  0.2743 -0.0376  0.0981
  423MPD2    C3 6310   0.960   0.307   0.135 -0.1361  0.6675  0.0017
  423MPD2    C4 6311   1.000   0.444   0.108 -0.7775  0.0674  0.3197
  423MPD2    C5 6312   0.962   0.539   0.199 -0.4642  0.4868  0.2374
  423MPD2     H 6313   0.815   0.187   0.235 -1.4919  0.7463 -0.4311
  423MPD2    H1 6314   1.071   0.467   0.029 -0.6315  0.2682  0.5090
  423MPD2    H2 6315   0.838   0.595   0.372  1.7507  0.3160  1.1715
  423MPD2    H3 6316   0.991   0.642   0.183 -1.9528  0.9468  0.5019
  423MPD2     N 6317   1.025   0.216   0.047 -0.0570  0.1480 -0.4889
  423MPD2    H5 6318   1.099   0.242  17.668 -1.2396  5.9553  0.4432
  423MPD2    N1 6319   0.746   0.359   0.421  0.2805 -0.5388  0.3532
  423MPD2    H7 6320   0.697   0.271   0.427 -0.2332 -0.1737  1.4383
  424TMC3    C1 6321   0.609   0.404   0.613  0.2506 -0.8716 -0.6188
  424TMC3    C2 6322   0.632   0.385   0.748 -0.1921  0.1004  0.4758
  424TMC3    C3 6323   0.541   0.330   0.825 -0.4549 -0.4377  0.7106
  424TMC3    C4 6324   0.502   0.342   0.547 -0.2231  0.3406 -0.3540
  424TMC3    C5 6325   0.404   0.291   0.632 -0.2028 -0.7190  0.1274
  424TMC3    C6 6326   0.421   0.283   0.767  0.7396  1.0803  1.1518
  424TMC3     C 6327   0.728   0.439   0.536 -0.2219 -0.1944 -0.8905
  424TMC3     O 6328   0.814   0.503   0.591 -0.3683  0.0484  0.1828
  424TMC3     H 6329   0.728   0.423   0.782  0.0540 -0.4119  0.3576
  424TMC3    H1 6330   0.484   0.354   0.441  1.9741  2.2000 -0.5199
  424TMC3    H2 6331   0.352   0.230   0.832  0.3235  0.8700  0.5315
  424TMC3    C7 6332   0.271   0.287   0.573  1.3231  0.1431 -0.7197
  424TMC3    C8 6333   0.578   0.303   0.958  0.1261 -0.0998 -0.2242
  424TMC3    O1 6334   0.254   0.290   0.452  0.2163 -0.0238 -0.5424
  424TMC3    O2 6335   0.509   0.219   1.008 -0.1585  0.3974  0.4989
  425MPD2     C 6336   0.239   4.092  17.572 -0.2621  0.3679 -0.0849
  425MPD2    C1 6337   0.143   4.018  17.518 -0.4288 -0.0906  0.2656
  425MPD2    C2 6338   0.025   4.077  17.487 -0.1910 -0.7735  0.4265
  425MPD2    C3 6339   0.000   4.210  17.515 -0.2788 -0.7455  0.2017
  425MPD2    C4 6340   0.098   4.278  17.576 -0.1258  0.1135  0.8740
  425MPD2    C5 6341   0.220   4.224  17.595 -0.1477  0.3595 -0.0150
  425MPD2     H 6342   4.664   4.015  17.451  0.6867 -0.6072 -1.8536
  425MPD2    H1 6343   0.084   4.384  17.597  1.2304  0.6846 -1.1426
  425MPD2    H2 6344   0.339   4.054  17.587 -0.6280 -1.0044 -1.0824
  425MPD2    H3 6345   0.300   4.273  17.649 -1.3682  1.3937  0.8117
  425MPD2     N 6346   4.599   4.269  17.485  0.3075 -0.0007 -0.1157
  425MPD2    H5 6347   4.537   4.221  17.420  1.4664 -1.0800 -0.4171
  425MPD2    N1 6348   0.174   3.883  17.495  0.7439  0.1947  0.5472
  425MPD2    H7 6349   0.253   3.844  17.545  0.8130  1.5058  1.4610
  426TMC3    C1 6350   0.135   3.656  17.445  0.3182  0.2154 -0.4760
  426TMC3    C2 6351   0.124   3.575  17.337 -0.1488 -0.4649 -0.3511
  426TMC3    C3 6352   0.181   3.449  17.347  0.0221  0.1814 -0.1105
  426TMC3    C4 6353   0.192   3.619  17.566  0.8562  0.9281 -0.1085
  426TMC3    C5 6354   0.230   3.483  17.570 -0.0337 -0.2034  0.1946
  426TMC3    C6 6355   0.226   3.401  17.464 -0.5123  0.0225 -0.2060
  426TMC3     C 6356   0.096   3.792  17.424 -0.5239  0.5309 -0.9175
  426TMC3     O 6357   4.716   3.816  17.360  0.0745 -0.3953  0.2895
  426TMC3     H 6358   0.073   3.622  17.253  0.2892  1.0847  0.2566
  426TMC3    H1 6359   0.201   3.682  17.654 -3.1557  0.6974  0.4276
  426TMC3    H2 6360   0.270   3.302  17.469 -0.9116 -0.1825 -0.7012
  426TMC3    C7 6361   0.252   3.414   0.003  0.2371  0.6984 -0.3035
  426TMC3    C8 6362   0.179   3.364  17.230  1.1434 -0.1226  0.1505
  426TMC3    O1 6363   0.329   3.320   0.002 -0.2876  0.0960  0.1887
  426TMC3    O2 6364   0.280   3.305  17.199  0.5777 -0.2216 -0.0007
  427MPD2     C 6365   2.713   0.613  14.573  0.4710  0.1548  0.1343
  427MPD2    C1 6366   2.804   0.643  14.668 -0.5936  0.2778 -0.0002
  427MPD2    C2 6367   2.834   0.773  14.688  0.9736  0.0922 -0.1732
  427MPD2    C3 6368   2.765   0.874  14.626 -0.1042  0.4219 -0.1004
  427MPD2    C4 6369   2.675   0.846  14.530  0.2627 -0.0627 -0.0617
  427MPD2    C5 6370   2.647   0.714  14.498  0.0418  0.0480  0.2679
  427MPD2     H 6371   2.910   0.796  14.763 -0.5669  1.9732  0.8045
  427MPD2    H1 6372   2.644   0.915  14.452  0.5846 -0.5529 -0.6199
  427MPD2    H2 6373   2.696   0.511  14.541 -0.6222  0.7747 -1.2415
  427MPD2    H3 6374   2.594   0.688  14.407  1.4021 -2.8760  0.3346
  427MPD2     N 6375   2.778   1.010  14.663  0.5180  0.4488  0.6794
  427MPD2    H5 6376   2.707   1.072  14.624  0.6094 -0.1138 -0.3828
  427MPD2    N1 6377   2.878   0.550  14.749  0.0724  0.1804  0.3482
  427MPD2    H7 6378   2.941   0.592  14.817 -1.1619 -0.1442  1.6837
  428TMC3    C1 6379   2.936   0.348  14.856 -0.1792  0.3144  0.4550
  428TMC3    C2 6380   2.970   0.220  14.824 -0.1793  0.5589  0.3375
  428TMC3    C3 6381   3.076   0.158  14.885 -0.4154 -0.0536 -0.2550
  428TMC3    C4 6382   3.005   0.406  14.962 -0.1347  0.6533 -0.6088
  428TMC3    C5 6383   3.104   0.340  15.025 -0.2195 -0.0829 -0.0722
  428TMC3    C6 6384   3.149   0.225  14.980 -0.7386 -1.2981  0.6097
  428TMC3     C 6385   2.852   0.418  14.760 -0.0184  0.0987 -0.3670
  428TMC3     O 6386   2.773   0.352  14.695 -0.0355  0.4886 -0.2496
  428TMC3     H 6387   2.924   0.169  14.739  1.2649 -0.7268  0.3351
  428TMC3    H1 6388   2.985   0.509  14.989  0.7081  0.7143 -0.1997
  428TMC3    H2 6389   3.242   0.182  15.014  1.4842  2.0615 -1.2750
  428TMC3    C7 6390   3.170   0.403  15.134  0.7188 -0.1888  0.5237
  428TMC3    C8 6391   3.078   0.012  14.888 -0.0416  0.4857 -0.5496
  428TMC3    O1 6392   3.158   0.524  15.150 -0.0805 -0.5939 -1.0057
  428TMC3    O2 6393   3.191   4.693  14.928  0.0710 -0.1762 -0.3423
  429MPD2     C 6394   4.279   1.939   0.004  0.2575  0.1220  0.5976
  429MPD2    C1 6395   4.286   1.882  17.568 -0.4019 -0.6153 -0.1785
  429MPD2    C2 6396   4.375   1.937  17.472 -0.3974 -0.2206 -0.1030
  429MPD2    C3 6397   4.462   2.046  17.506  0.6967 -0.3326 -0.5024
  429MPD2    C4 6398   4.445   2.101  17.632  0.2879 -0.0151 -0.5949
  429MPD2    C5 6399   4.355   2.048   0.029  0.3967 -0.0149  0.3556
  429MPD2     H 6400   4.376   1.887  17.376  2.1118 -0.5347  0.0928
  429MPD2    H1 6401   4.498   2.191  17.660 -0.4945  0.3487 -0.2707
  429MPD2    H2 6402   4.223   1.896   0.086 -0.1958  1.6995  1.1162
  429MPD2    H3 6403   4.345   2.088   0.129  1.3014 -0.5830  0.6698
  429MPD2     N 6404   4.562   2.075  17.413  0.0015  0.1968 -0.0661
  429MPD2    H5 6405   4.560   2.011  17.334  1.8881  0.0531  0.0082
  429MPD2    N1 6406   4.218   1.763  17.530 -0.0452  0.4373  0.4656
  429MPD2    H7 6407   4.226   1.729  17.435  0.4717 -0.8802  0.9941
  430TMC3    C1 6408   0.048   2.142  17.326  0.2943 -0.0117 -0.2986
  430TMC3    C2 6409   0.003   2.190  17.214 -0.3171  0.2434 -0.8037
  430TMC3    C3 6410   0.088   2.178  17.101 -0.0248 -0.9713  0.9551
  430TMC3    C4 6411   0.166   2.079  17.342  0.7568  0.4133  0.1578
  430TMC3    C5 6412   0.245   2.057  17.229 -0.1007  0.1654  0.1362
  430TMC3    C6 6413   0.206   2.111  17.110 -0.4129  0.2072  0.5193
  430TMC3     C 6414   4.677   2.142  17.442  0.7073  0.1007  0.0659
  430TMC3     O 6415   4.712   2.168  17.556  0.0161  0.2105  0.1116
  430TMC3     H 6416   4.620   2.221  17.200 -0.2126  1.1336  0.4193
  430TMC3    H1 6417   0.184   2.029  17.437 -0.1092  0.0280  0.1194
  430TMC3    H2 6418   0.274   2.100  17.026  0.3456 -1.7578  1.3950
  430TMC3    C7 6419   0.341   1.949  17.236  0.5204 -0.1737  0.5817
  430TMC3    C8 6420   0.025   2.167  16.974  0.8784  0.0270 -0.3587
  430TMC3    O1 6421   0.381   1.891  17.136 -0.3447 -0.0291  0.0201
  430TMC3    O2 6422   0.067   2.078  16.901 -0.3747 -0.5699  0.4711
  431MPD2     C 6423   0.065   1.330  12.435  0.2161 -0.7726  0.4469
  431MPD2    C1 6424   0.176   1.307  12.358 -0.1685 -0.3833 -0.7032
  431MPD2    C2 6425   0.195   1.190  12.291 -0.8440  0.9494  1.0576
  431MPD2    C3 6426   0.093   1.098  12.295 -0.4112  0.1908 -0.3151
  431MPD2    C4 6427   4.703   1.115  12.372  0.7134  0.1767 -0.0278
  431MPD2    C5 6428   4.684   1.235  12.439 -0.0319  0.3875 -0.5222
  431MPD2     H 6429   0.275   1.168  12.221 -0.7431  0.7252  1.2450
  431MPD2    H1 6430   4.626   1.040  12.379 -0.2137  1.0769 -0.4674
  431MPD2    H2 6431   0.057   1.421  12.494  1.9617  0.8884 -1.8834
  431MPD2    H3 6432   4.610   1.240  12.517 -0.6168 -2.0572 -0.9242
  431MPD2     N 6433   0.100   0.976  12.227  0.6445  0.1754  0.3793
  431MPD2    H5 6434   0.039   0.902  12.260  2.5839 -0.7372  1.8911
  431MPD2    N1 6435   0.282   1.400  12.341 -0.8748  0.4611  0.6895
  431MPD2    H7 6436   0.346   1.385  12.263 -0.6180  3.1707  0.3809
  432TMC3    C1 6437   0.204   0.800  12.114  0.1033 -0.8662  0.1213
  432TMC3    C2 6438   0.273   0.764  11.996 -0.1210 -0.1217  0.8014
  432TMC3    C3 6439   0.286   0.630  11.975 -0.0372 -0.0176  0.0382
  432TMC3    C4 6440   0.161   0.710  12.201 -0.1999 -0.2023  0.0255
  432TMC3    C5 6441   0.191   0.578  12.180  0.3465 -0.1719 -0.2119
  432TMC3    C6 6442   0.242   0.535  12.065 -0.2159  0.5915  0.3409
  432TMC3     C 6443   0.195   0.941  12.128 -0.1333 -0.8870 -0.1351
  432TMC3     O 6444   0.282   1.011  12.074 -0.0783  0.0906  0.5085
  432TMC3     H 6445   0.312   0.837  11.927 -0.0987 -0.3457  0.5744
  432TMC3    H1 6446   0.112   0.744  12.292  0.7287  0.9660  0.0879
  432TMC3    H2 6447   0.283   0.435  12.054  0.5825  1.1913 -2.0567
  432TMC3    C7 6448   0.165   0.477  12.284 -0.7540  0.5134 -0.0584
  432TMC3    C8 6449   0.317   0.578  11.843 -0.1688 -0.0406 -0.1158
  432TMC3    O1 6450   0.176   0.359  12.256 -0.1674 -0.0127  0.3820
  432TMC3    O2 6451   0.288   0.459  11.820 -0.0911 -0.2041  0.4381
  433MPD2     C 6452   3.920   4.522  10.565 -0.2714  0.3768  0.4064
  433MPD2    C1 6453   3.919   4.401  10.635  0.0833 -0.5685  0.5852
  433MPD2    C2 6454   3.934   4.404  10.774 -0.7113  0.4487  0.2027
  433MPD2    C3 6455   3.965   4.522  10.840 -0.0152 -0.0935 -0.0470
  433MPD2    C4 6456   3.970   4.643  10.775 -0.2286  0.1371  0.1860
  433MPD2    C5 6457   3.950   4.637  10.639 -0.1832 -0.2093 -0.1250
  433MPD2     H 6458   3.931   4.311  10.829 -0.9939 -0.5720 -1.5446
  433MPD2    H1 6459   3.994   0.013  10.828 -0.5881  1.1396 -1.3742
  433MPD2    H2 6460   3.908   4.537  10.458 -0.4671 -1.1057  0.2216
  433MPD2    H3 6461   3.944   0.006  10.578  1.3999  0.5278  0.8256
  433MPD2     N 6462   3.969   4.515  10.978  0.0337  0.2933  0.1995
  433MPD2    H5 6463   3.956   4.423  11.018  1.4570  0.7209  1.6603
  433MPD2    N1 6464   3.919   4.285  10.550 -0.3907 -0.1806  0.1681
  433MPD2    H7 6465   3.909   4.299  10.450  1.6110  1.1375  0.1362
  434TMC3    C1 6466   3.966   4.055  10.488  0.0741  0.4014 -0.9333
  434TMC3    C2 6467   4.050   3.956  10.528  0.1117 -0.0442  0.2693
  434TMC3    C3 6468   4.162   3.920  10.455 -0.4506  0.1610 -0.1244
  434TMC3    C4 6469   3.970   4.092  10.352 -0.2066  0.4512 -0.1427
  434TMC3    C5 6470   4.070   4.033  10.277 -0.4010  0.2194  0.2774
  434TMC3    C6 6471   4.179   3.967  10.331 -0.7415  0.0277 -0.0719
  434TMC3     C 6472   3.938   4.159  10.594  0.0442 -0.3132 -0.2743
  434TMC3     O 6473   3.960   4.126  10.710  0.3434  0.6802  0.1237
  434TMC3     H 6474   4.063   3.931  10.633 -0.2545 -0.4931  0.2091
  434TMC3    H1 6475   3.924   4.178  10.305 -2.2033 -1.2926 -1.3360
  434TMC3    H2 6476   4.262   3.941  10.266  0.9621 -0.6538  2.3968
  434TMC3    C7 6477   4.085   4.086  10.140  0.4622 -0.4208 -0.0646
  434TMC3    C8 6478   4.278   3.881  10.530 -0.2851 -0.8647 -0.7409
  434TMC3    O1 6479   4.171   4.173  10.134 -0.6353  0.1260  0.0324
  434TMC3    O2 6480   4.259   3.811  10.627 -0.1511  0.0624 -0.2205
  435MPD2     C 6481   1.659   0.201  15.462  0.3531  0.1850 -0.7338
  435MPD2    C1 6482   1.720   0.225  15.585  0.9494 -0.8909  0.3731
  435MPD2    C2 6483   1.824   0.147  15.628  0.5642 -0.6636 -0.3759
  435MPD2    C3 6484   1.864   0.036  15.553 -0.5963 -0.2040  0.3939
  435MPD2    C4 6485   1.790   4.718  15.447  0.0493  0.4239  0.1176
  435MPD2    C5 6486   1.692   0.086  15.391 -0.1960  0.2989 -0.4611
  435MPD2     H 6487   1.871   0.160  15.725  2.1691 -2.5124 -0.9065
  435MPD2    H1 6488   1.823   4.630  15.392 -0.3138  0.8516 -0.7779
  435MPD2    H2 6489   1.586   0.270  15.420 -0.3731 -0.9978 -1.3962
  435MPD2    H3 6490   1.641   0.052  15.302 -2.0552  1.3955  0.1946
  435MPD2     N 6491   1.968   4.677  15.618  0.0935  0.2784 -0.1188
  435MPD2    H5 6492   1.991   0.002  15.706 -1.5826  0.6785  0.1182
  435MPD2    N1 6493   1.675   0.325  15.676 -0.1776  0.3245 -0.1107
  435MPD2    H7 6494   1.738   0.358  15.748  0.2812 -0.9633  0.0821
  436TMC3    C1 6495   1.567   0.602  15.960  0.0107 -0.1884  0.3699
  436TMC3    C2 6496   1.584   0.499  15.871 -0.4270 -0.6256  0.4663
  436TMC3    C3 6497   1.547   0.512  15.741  0.9590  0.0357  0.6424
  436TMC3    C4 6498   1.509   0.718  15.919  0.2932 -0.1398 -0.2870
  436TMC3    C5 6499   1.453   0.718  15.794 -0.2431  0.4340 -0.1629
  436TMC3    C6 6500   1.474   0.617  15.699 -0.0995 -0.5738  0.5179
  436TMC3     C 6501   1.642   0.594  16.089  0.4999 -0.3841 -0.6620
  436TMC3     O 6502   1.737   0.514  16.093  0.0771 -0.5895  0.0687
  436TMC3     H 6503   1.631   0.413  15.917 -2.0846 -1.0963  1.2900
  436TMC3    H1 6504   1.479   0.800  15.983  2.0771 -0.2803  0.6999
  436TMC3    H2 6505   1.430   0.628  15.601  0.1266 -0.5462  0.4210
  436TMC3    C7 6506   1.344   0.812  15.777  0.2390  0.1003  0.3759
  436TMC3    C8 6507   1.575   0.415  15.640  0.3011  1.1206  0.3978
  436TMC3    O1 6508   1.271   0.826  15.874  0.0720 -0.0482 -0.3527
  436TMC3    O2 6509   1.489   0.405  15.553 -0.0676 -0.2075  0.0286
  437TMC3    C1 6510   4.485   2.013  12.683 -0.3353 -0.3801  0.2445
  437TMC3    C2 6511   4.388   2.103  12.719 -0.4916 -0.7700  0.0128
  437TMC3    C3 6512   4.356   2.202  12.627  0.0916  0.6900 -0.3839
  437TMC3    C4 6513   4.545   2.023  12.560 -0.0384 -0.3434 -0.0024
  437TMC3    C5 6514   4.520   2.126  12.477 -0.0628  0.1157 -0.7310
  437TMC3    C6 6515   4.421   2.221  12.511 -0.0291 -0.0187 -0.2574
  437TMC3     C 6516   4.539   1.922  12.773  0.8889 -0.2733  0.2150
  437TMC3     O 6517   4.660   1.892  12.775 -0.5216  0.8984  0.1284
  437TMC3     H 6518   4.322   2.085  12.803 -0.1683  0.1714  0.4775
  437TMC3    H1 6519   4.608   1.941  12.526  2.2521  0.9737  1.0486
  437TMC3    H2 6520   4.399   2.307  12.450  0.6425  1.8576  2.1315
  437TMC3    C7 6521   4.618   2.155  12.375 -0.1578  0.2699 -0.4244
  437TMC3    C8 6522   4.245   2.292  12.667  0.4764 -0.2979 -0.2470
  437TMC3    O1 6523   4.583   2.211  12.276 -0.5842  0.0779  0.4386
  437TMC3    O2 6524   4.194   2.278  12.779 -0.7805 -0.0291 -0.1522
  438MPD2     C 6525   2.779   2.594  16.503  0.6296  0.7393  0.2717
  438MPD2    C1 6526   2.876   2.509  16.546  0.4030  0.4991  0.9460
  438MPD2    C2 6527   2.846   2.402  16.634 -0.3011  0.3632 -0.4136
  438MPD2    C3 6528   2.718   2.375  16.667  0.1014  0.2598  0.0592
  438MPD2    C4 6529   2.618   2.463  16.633 -0.1155 -0.1270  0.3530
  438MPD2    C5 6530   2.649   2.573  16.552  0.0203 -0.3575 -0.1541
  438MPD2     H 6531   2.926   2.334  16.662  0.2002 -0.6838 -4.3047
  438MPD2    H1 6532   2.520   2.440  16.672  0.0269 -0.6643  0.3930
  438MPD2    H2 6533   2.802   2.691  16.461  2.1625  0.4606  0.4419
  438MPD2    H3 6534   2.577   2.651  16.529  2.1919  2.0256  1.1045
  438MPD2     N 6535   2.684   2.267  16.749 -0.7144  0.2316  0.2015
  438MPD2    H5 6536   2.586   2.252  16.769 -0.7950  0.6349  0.1111
  438MPD2    N1 6537   3.017   2.533  16.524  0.7821  0.4814  0.1067
  438MPD2    H7 6538   3.080   2.481  16.584  0.2990  0.5640  0.6910
  439TMC3    C1 6539   3.206   2.601  16.401  0.0058 -0.1994  0.4433
  439TMC3    C2 6540   3.245   2.606  16.270  0.2319 -0.1496  0.4932
  439TMC3    C3 6541   3.369   2.559  16.242 -0.1514  0.3192 -0.1198
  439TMC3    C4 6542   3.291   2.568  16.504 -0.4166 -0.2485 -0.2262
  439TMC3    C5 6543   3.419   2.542  16.471  0.6399 -0.6449  0.4073
  439TMC3    C6 6544   3.463   2.531  16.341  0.3580 -1.1752 -0.1855
  439TMC3     C 6545   3.071   2.627  16.433 -0.1961 -0.3472  0.1415
  439TMC3     O 6546   3.011   2.694  16.354 -0.4190 -0.8572 -0.0151
  439TMC3     H 6547   3.167   2.594  16.196 -0.3246 -0.3097  1.1098
  439TMC3    H1 6548   3.249   2.566  16.603 -0.7079  0.5051 -0.3331
  439TMC3    H2 6549   3.545   2.465  16.317  1.5095 -0.4834  1.8518
  439TMC3    C7 6550   3.521   2.530  16.577  0.5937  0.1193  0.4274
  439TMC3    C8 6551   3.407   2.534  16.100  0.4029  0.3147  0.1525
  439TMC3    O1 6552   3.472   2.537  16.688 -0.0781 -0.0992  0.3480
  439TMC3    O2 6553   3.521   2.488  16.087 -0.8696 -0.6813  0.0409
  440MPD2     C 6554   1.386   3.396  14.636 -0.2746 -0.4522  0.0194
  440MPD2    C1 6555   1.325   3.350  14.757 -0.0629  0.2801 -0.3090
  440MPD2    C2 6556   1.399   3.319  14.865  0.3617  0.4963 -0.3233
  440MPD2    C3 6557   1.539   3.312  14.855 -0.3573 -0.2926 -0.2865
  440MPD2    C4 6558   1.599   3.352  14.736 -0.0321  0.3049  0.5216
  440MPD2    C5 6559   1.524   3.397  14.628  0.0410 -0.4100 -0.3678
  440MPD2     H 6560   1.352   3.292  14.958  2.2447 -1.7150 -0.0127
  440MPD2    H1 6561   1.706   3.365  14.737  0.0872 -0.9710  3.9234
  440MPD2    H2 6562   1.330   3.431  14.550 -0.2660 -2.1760 -0.6997
  440MPD2    H3 6563   1.574   3.424  14.536 -1.5760  0.8164 -0.8920
  440MPD2     N 6564   1.632   3.248  14.949  0.0017 -0.1413 -0.7229
  440MPD2    H5 6565   1.733   3.257  14.941  0.1536  0.6976  1.8877
  440MPD2    N1 6566   1.184   3.347  14.770  0.1803  0.2741 -0.4719
  440MPD2    H7 6567   1.157   3.313  14.862 -1.1516 -1.0936 -1.3634
  441TMC3    C1 6568   1.703   3.137  15.135 -0.4242  0.7099  0.6496
  441TMC3    C2 6569   1.768   3.248  15.184  0.2886 -0.0511 -0.2655
  441TMC3    C3 6570   1.833   3.235  15.299  0.1132  0.3168  0.4237
  441TMC3    C4 6571   1.700   3.020  15.194 -0.8268  0.3988  0.2376
  441TMC3    C5 6572   1.784   3.009  15.300  0.5826 -0.2840  0.8029
  441TMC3    C6 6573   1.848   3.112  15.356  0.4216  0.6877  0.0111
  441TMC3     C 6574   1.590   3.177  15.057 -0.1770 -0.8063 -0.0967
  441TMC3     O 6575   1.484   3.131  15.100 -0.4376 -0.0420 -0.3709
  441TMC3     H 6576   1.743   3.339  15.130  2.2033 -0.0398 -1.1074
  441TMC3    H1 6577   1.643   2.938  15.152 -2.0040  1.3637 -0.0221
  441TMC3    H2 6578   1.885   3.115  15.457 -2.2740  3.9342  0.8892
  441TMC3    C7 6579   1.746   2.906  15.400 -0.0845 -0.0302 -0.7075
  441TMC3    C8 6580   1.815   3.341  15.394  0.1100 -0.4019  0.6759
  441TMC3    O1 6581   1.628   2.878  15.395 -0.2262 -0.4136 -0.8093
  441TMC3    O2 6582   1.883   3.441  15.368  0.0458 -0.2285 -0.3269
  442MPD2     C 6583   4.588   4.031  17.094 -0.4186 -0.2240  0.2412
  442MPD2    C1 6584   4.474   4.065  17.019  0.5403  0.4151  0.9625
  442MPD2    C2 6585   4.436   3.969  16.928 -0.5621  0.4940  0.0936
  442MPD2    C3 6586   4.499   3.842  16.909  0.2322  0.4107 -0.2470
  442MPD2    C4 6587   4.608   3.820  16.983  0.4034 -0.6018  0.2201
  442MPD2    C5 6588   4.650   3.916  17.067  0.7533 -0.2831  0.5832
  442MPD2     H 6589   4.351   3.985  16.863 -0.3544 -0.4005 -0.3967
  442MPD2    H1 6590   4.661   3.725  16.985  0.0320 -0.8056  0.3613
  442MPD2    H2 6591   4.627   4.100  17.167 -1.3944 -0.9511  1.4373
  442MPD2    H3 6592   0.018   3.902  17.127  0.6091  0.7819  1.0315
  442MPD2     N 6593   4.440   3.759  16.817 -0.0644  0.4947 -0.1605
  442MPD2    H5 6594   4.347   3.781  16.782  0.9674  0.5576 -2.8540
  442MPD2    N1 6595   4.409   4.191  17.020  0.4936  0.0607  0.2702
  442MPD2    H7 6596   4.331   4.201  16.956  0.7602 -1.6961 -0.3374
  443TMC3    C1 6597   4.311   4.378  17.106  0.3087  0.0780 -0.5065
  443TMC3    C2 6598   4.270   4.419  16.979  0.3236 -0.3455 -0.1716
  443TMC3    C3 6599   4.145   4.466  16.974  0.0740  0.1054 -0.1162
  443TMC3    C4 6600   4.231   4.388  17.216 -0.4113 -0.0584  0.2506
  443TMC3    C5 6601   4.099   4.420  17.203  0.2007 -0.9210 -0.3175
  443TMC3    C6 6602   4.060   4.459  17.080 -0.1016 -0.0496 -0.2950
  443TMC3     C 6603   4.416   4.284  17.125  0.5126 -0.1905 -0.5852
  443TMC3     O 6604   4.473   4.282  17.235 -0.2896  0.0205  0.1509
  443TMC3     H 6605   4.333   4.421  16.891  0.4878  1.5540 -0.0148
  443TMC3    H1 6606   4.268   4.363  17.315  0.5241 -2.0369 -0.5888
  443TMC3    H2 6607   3.957   4.440  17.054  0.5871 -1.5715 -1.9180
  443TMC3    C7 6608   4.016   4.312  17.254  0.1211 -0.0188 -0.4256
  443TMC3    C8 6609   4.078   4.434  16.845 -0.5462  0.3161 -0.0081
  443TMC3    O1 6610   4.080   4.208  17.272 -0.5198 -0.3579  0.3218
  443TMC3    O2 6611   3.990   4.355  16.854  0.0406 -0.1944  0.4426
  444MPD2     C 6612   4.677   3.166  17.668 -0.2791 -0.3184  0.1936
  444MPD2    C1 6613   4.604   3.183  17.558 -0.6582  0.0008 -0.2070
  444MPD2    C2 6614   4.658   3.135  17.431 -0.5284  0.4843  0.1409
  444MPD2    C3 6615   0.069   3.091  17.421 -0.2753 -0.0985 -0.6296
  444MPD2    C4 6616   0.141   3.078  17.534 -0.0101 -0.2341 -0.3108
  444MPD2    C5 6617   0.083   3.120  17.656 -0.0309  0.6773 -1.2379
  444MPD2     H 6618   4.599   3.132  17.341  0.4736 -3.1820 -0.3732
  444MPD2    H1 6619   0.243   3.042  17.532 -0.2447 -0.8129 -2.3690
  444MPD2    H2 6620   4.649   3.196   0.082  0.0038 -0.7315  0.3964
  444MPD2    H3 6621   0.154   3.117   0.052 -2.6206 -1.1283  0.9645
  444MPD2     N 6622   0.110   3.054  17.283 -0.0938 -0.6599 -0.1639
  444MPD2    H5 6623   0.039   3.071  17.212 -0.2655 -3.6837 -0.7136
  444MPD2    N1 6624   4.471   3.223  17.568  0.1736  0.3549 -0.1038
  444MPD2    H7 6625   4.418   3.209  17.482 -0.8196 -0.6361  0.6625
  445TMC3    C1 6626   0.222   2.946  17.110 -0.5001  0.4478  0.6504
  445TMC3    C2 6627   0.106   2.961  17.037 -0.2084  0.8113  0.8286
  445TMC3    C3 6628   0.102   2.912  16.905  0.0140 -0.0619  0.6438
  445TMC3    C4 6629   0.333   2.894  17.060  0.0078  0.0207 -0.0535
  445TMC3    C5 6630   0.325   2.839  16.937 -0.2274 -0.7013  0.5894
  445TMC3    C6 6631   0.210   2.843  16.861  0.1402 -0.0895 -0.3482
  445TMC3     C 6632   0.227   3.009  17.239  0.4583  0.7726 -0.6634
  445TMC3     O 6633   0.321   2.973  17.311  0.0762  0.2802 -0.1476
  445TMC3     H 6634   0.020   3.023  17.060 -0.3518  0.7131  0.5604
  445TMC3    H1 6635   0.430   2.900  17.108 -0.2980 -0.4372  0.6237
  445TMC3    H2 6636   0.211   2.806  16.759 -0.4704  1.0027 -0.7502
  445TMC3    C7 6637   0.446   2.781  16.878  0.5400 -0.8649  0.2113
  445TMC3    C8 6638   4.706   2.931  16.817  0.7960 -0.5578  0.2597
  445TMC3    O1 6639   0.438   2.765  16.759 -0.7234 -0.5571  0.1667
  445TMC3    O2 6640   0.014   2.895  16.704  0.1382 -0.1416  0.3664
  446MPD2     C 6641   3.926   3.655  11.036  0.7757  0.0185  0.2430
  446MPD2    C1 6642   3.881   3.723  10.925 -0.1532  0.4099 -0.3587
  446MPD2    C2 6643   3.940   3.839  10.885 -0.1937 -0.3085  0.4463
  446MPD2    C3 6644   4.060   3.884  10.941  0.0801 -0.0534  0.2327
  446MPD2    C4 6645   4.100   3.819  11.056  0.1682  0.7828 -0.1697
  446MPD2    C5 6646   4.036   3.708  11.099  1.5326 -0.3798  0.0128
  446MPD2     H 6647   3.899   3.896  10.802 -3.1930 -2.2419  0.5974
  446MPD2    H1 6648   4.184   3.845  11.119  0.4059  2.2962 -1.0990
  446MPD2    H2 6649   3.899   3.553  11.063  0.8065  0.3214  1.4131
  446MPD2    H3 6650   4.090   3.651  11.174 -0.1590 -2.6514 -0.4706
  446MPD2     N 6651   4.124   4.000  10.892  0.0940  0.8016  0.8307
  446MPD2    H5 6652   4.088   4.045  10.808 -0.6927 -1.8546 -0.2646
  446MPD2    N1 6653   3.775   3.670  10.849  0.0933 -0.7244 -0.0300
  446MPD2    H7 6654   3.747   3.735  10.776 -0.0746  0.0028  0.6709
  447TMC3    C1 6655   4.299   4.161  10.871 -0.9084 -0.0606 -0.2272
  447TMC3    C2 6656   4.270   4.191  10.748 -0.9569  0.4755 -0.0593
  447TMC3    C3 6657   4.353   4.280  10.679  0.0761 -0.1378 -0.0615
  447TMC3    C4 6658   4.403   4.229  10.944  0.0678 -0.3546 -0.1973
  447TMC3    C5 6659   4.490   4.301  10.868 -0.6683  0.5902  0.2610
  447TMC3    C6 6660   4.460   4.340  10.740  0.0923  0.6237 -1.0870
  447TMC3     C 6661   4.251   4.041  10.936  0.5192  0.1265 -0.2430
  447TMC3     O 6662   4.327   3.983  11.012 -0.2482 -0.0006  0.1871
  447TMC3     H 6663   4.200   4.129  10.692 -1.5721 -0.1383  1.3899
  447TMC3    H1 6664   4.427   4.189  11.042 -0.8972  0.2770  0.3013
  447TMC3    H2 6665   4.525   4.408  10.686  1.3803  0.1831 -0.1035
  447TMC3    C7 6666   4.603   4.356  10.943 -0.6268  0.1917 -0.3522
  447TMC3    C8 6667   4.298   4.367  10.582  0.1019  0.4503  0.7775
  447TMC3    O1 6668   4.705   4.380  10.882  0.0668  0.2488  0.0763
  447TMC3    O2 6669   4.241   4.311  10.490 -0.1651  0.6052  0.2833
  448TMC3    C1 6670   2.744   0.010  17.005 -0.0809  0.4249 -0.3396
  448TMC3    C2 6671   2.682   4.645  16.926 -0.3457  0.2198 -0.1771
  448TMC3    C3 6672   2.650   4.523  16.977  0.6087  0.2887  0.1714
  448TMC3    C4 6673   2.763   4.705  17.138  0.5240  0.3552 -0.3237
  448TMC3    C5 6674   2.718   4.591  17.189  0.0251 -0.5504 -0.0176
  448TMC3    C6 6675   2.663   4.493  17.114  0.4395 -0.7215 -0.1546
  448TMC3     C 6676   2.697   0.146  16.975  0.0395 -0.3387 -0.7304
  448TMC3     O 6677   2.684   0.174  16.857  0.7304 -0.3212 -0.3759
  448TMC3     H 6678   2.658   4.686  16.829 -1.1756 -0.9245 -0.4552
  448TMC3    H1 6679   2.807   0.059  17.204  0.1419  1.6371 -1.5131
  448TMC3    H2 6680   2.646   4.394  17.154  0.3313 -0.6862 -0.1148
  448TMC3    C7 6681   2.649   4.616  17.314 -0.0259  0.3754 -0.2281
  448TMC3    C8 6682   2.605   4.413  16.889  0.1156 -0.5661 -0.2906
  448TMC3    O1 6683   2.622   0.011  17.329  0.6904 -0.0171 -0.3715
  448TMC3    O2 6684   2.596   4.298  16.932  0.2183 -0.0306  0.5410
  449MPD2     C 6685   3.087   2.273  13.850 -0.3563 -0.3791 -0.4491
  449MPD2    C1 6686   3.112   2.407  13.851  0.0018 -0.0254 -0.0083
  449MPD2    C2 6687   3.012   2.501  13.885 -0.5267 -0.0193 -0.3568
  449MPD2    C3 6688   2.878   2.451  13.907  0.5258  0.6042  0.0604
  449MPD2    C4 6689   2.860   2.316  13.913  0.1679  0.5541 -0.4756
  449MPD2    C5 6690   2.960   2.229  13.882 -0.4493  0.8674  0.1381
  449MPD2     H 6691   3.034   2.607  13.880  0.6765 -0.2017  0.7639
  449MPD2    H1 6692   2.761   2.280  13.938  0.4779 -1.9180 -2.8541
  449MPD2    H2 6693   3.169   2.205  13.828 -3.2946 -2.8488 -3.7209
  449MPD2    H3 6694   2.936   2.124  13.884  0.1766  0.7397  1.1958
  449MPD2     N 6695   2.786   2.547  13.941  0.8167 -0.4128 -0.1555
  449MPD2    H5 6696   2.832   2.637  13.951 -0.4163 -0.0896  2.3597
  449MPD2    N1 6697   3.240   2.466  13.841 -0.1055 -0.3067  0.2621
  449MPD2    H7 6698   3.235   2.566  13.855  2.5436 -0.3084  1.1713
  450TMC3    C1 6699   3.472   2.500  13.842  0.1189 -0.8719  0.5048
  450TMC3    C2 6700   3.537   2.537  13.731 -0.7213 -0.1703 -1.2238
  450TMC3    C3 6701   3.587   2.662  13.726 -0.2485 -0.2291 -0.3748
  450TMC3    C4 6702   3.448   2.594  13.940  0.2517  0.1575  0.1445
  450TMC3    C5 6703   3.474   2.727  13.921 -0.2123  0.1076  0.3402
  450TMC3    C6 6704   3.553   2.760  13.810 -0.1167 -0.0624  0.0937
  450TMC3     C 6705   3.362   2.403  13.824  0.2559 -0.6529  0.0708
  450TMC3     O 6706   3.394   2.291  13.800  0.2255  0.0822  0.3453
  450TMC3     H 6707   3.553   2.474  13.644 -0.9142 -2.3143  0.3017
  450TMC3    H1 6708   3.395   2.564  14.030 -0.3140  1.7101  0.3405
  450TMC3    H2 6709   3.578   2.860  13.776 -2.0175 -0.4526 -2.4223
  450TMC3    C7 6710   3.347   2.791  13.936  0.1786  0.6534 -0.0772
  450TMC3    C8 6711   3.658   2.697  13.611 -0.7119  0.1238  0.3995
  450TMC3    O1 6712   3.251   2.717  13.924 -0.2299  0.1446  0.5378
  450TMC3    O2 6713   3.612   2.793  13.545 -0.4965  0.1896  0.1752
  451MPD2     C 6714   0.651   1.859   1.519  0.0864 -0.5857  0.2919
  451MPD2    C1 6715   0.573   1.900   1.409  0.2284  0.2236 -0.6865
  451MPD2    C2 6716   0.507   1.795   1.340 -0.0876 -1.0995  0.3579
  451MPD2    C3 6717   0.531   1.658   1.380  0.2285 -0.4861  0.6560
  451MPD2    C4 6718   0.597   1.622   1.495  0.0703 -0.2508  0.3576
  451MPD2    C5 6719   0.653   1.729   1.564 -0.3563  0.4254  0.5932
  451MPD2     H 6720   0.453   1.830   1.252 -2.2908 -1.2189  1.6686
  451MPD2    H1 6721   0.609   1.522   1.535 -0.0510 -0.9155 -1.2654
  451MPD2    H2 6722   0.700   1.937   1.576 -0.2553 -0.1337 -0.0349
  451MPD2    H3 6723   0.716   1.710   1.651 -1.1426  0.5303  1.1826
  451MPD2     N 6724   0.486   1.544   1.310 -0.7674  0.4385 -0.7924
  451MPD2    H5 6725   0.498   1.461   1.368 -0.3895  2.0767  1.4487
  451MPD2    N1 6726   0.567   2.034   1.372  0.1852  0.0912 -0.5375
  451MPD2    H7 6727   0.625   2.101   1.423  1.6466 -0.3890 -1.5720
  452TMC3    C1 6728   0.415   1.416   1.125  0.2600 -0.2453 -0.4103
  452TMC3    C2 6729   0.374   1.312   1.203  0.3482 -0.2960 -0.3003
  452TMC3    C3 6730   0.354   1.193   1.148 -0.0165 -0.1313  0.9204
  452TMC3    C4 6731   0.407   1.403   0.989  0.2495 -0.1914 -0.5261
  452TMC3    C5 6732   0.366   1.284   0.934  0.1940  0.1136  0.1618
  452TMC3    C6 6733   0.359   1.173   1.012  0.0631  0.0798  0.0666
  452TMC3     C 6734   0.435   1.547   1.181 -1.0564  0.0893  0.2796
  452TMC3     O 6735   0.431   1.645   1.111 -0.5322  0.2711 -0.3474
  452TMC3     H 6736   0.353   1.341   1.305 -0.9348 -0.1004 -0.6204
  452TMC3    H1 6737   0.441   1.491   0.935 -1.8108 -0.0695 -1.6593
  452TMC3    H2 6738   0.357   1.075   0.966 -3.0842 -0.0018  0.3801
  452TMC3    C7 6739   0.366   1.268   0.791  0.1044  0.3961  0.6570
  452TMC3    C8 6740   0.335   1.078   1.236  0.0032  0.9195  0.3957
  452TMC3    O1 6741   0.427   1.354   0.722  0.0349 -0.5556  0.0491
  452TMC3    O2 6742   0.381   1.077   1.349  0.6261 -0.0852  0.1454
  453TMC3    C1 6743   1.699   3.245  12.047  0.0292 -0.1675 -0.2281
  453TMC3    C2 6744   1.607   3.149  12.037  0.2480 -0.3289 -0.2386
  453TMC3    C3 6745   1.494   3.170  11.960  0.4769  0.3082 -0.3744
  453TMC3    C4 6746   1.690   3.363  11.982  0.1237 -0.3487 -0.3726
  453TMC3    C5 6747   1.572   3.389  11.920  0.3326  0.2215 -0.1791
  453TMC3    C6 6748   1.477   3.296  11.909  0.5682  0.1720  0.0070
  453TMC3     C 6749   1.811   3.238  12.133  0.5521 -0.8588  0.0400
  453TMC3     O 6750   1.862   3.345  12.164  0.2402  0.1371 -0.2982
  453TMC3     H 6751   1.616   3.059  12.095  1.3480  0.0893  0.2476
  453TMC3    H1 6752   1.764   3.442  11.992 -1.2079  0.8677 -0.1348
  453TMC3    H2 6753   1.398   3.323  11.840  1.5666 -0.6511 -1.4852
  453TMC3    C7 6754   1.593   3.472  11.805  0.6501  0.1571 -0.2507
  453TMC3    C8 6755   1.386   3.079  11.942 -0.5558  0.3002 -0.0171
  453TMC3    O1 6756   1.704   3.465  11.753 -0.0736  0.1413  0.1258
  453TMC3    O2 6757   1.281   3.133  11.900 -0.1896  0.3233  0.4917
  454MPD2     C 6758   0.571   3.426  16.293  0.7092 -0.7415 -0.1771
  454MPD2    C1 6759   0.575   3.291  16.257  0.6419  0.2547  0.0059
  454MPD2    C2 6760   0.636   3.201  16.348  0.2395 -0.1871 -0.0256
  454MPD2    C3 6761   0.696   3.248  16.460 -0.0759 -0.0160 -0.1938
  454MPD2    C4 6762   0.711   3.386  16.478  0.2436  0.1199  0.1460
  454MPD2    C5 6763   0.643   3.469  16.395  0.4695 -0.3693  0.3568
  454MPD2     H 6764   0.629   3.093  16.338 -1.2727 -0.0747 -0.2302
  454MPD2    H1 6765   0.741   3.436  16.569 -2.8531  0.6234  0.8782
  454MPD2    H2 6766   0.533   3.497  16.221 -0.5075  1.7423  2.9281
  454MPD2    H3 6767   0.636   3.574  16.422  0.8380 -1.0472  3.0682
  454MPD2     N 6768   0.751   3.149  16.543  0.5004  0.6361 -0.0878
  454MPD2    H5 6769   0.825   3.184  16.603  0.5426 -1.3168  1.0206
  454MPD2    N1 6770   0.494   3.246  16.148  0.3550 -0.1220 -0.1946
  454MPD2    H7 6771   0.460   3.317  16.084 -0.3886  1.8087  2.3253
  455TMC3    C1 6772   0.545   3.016  16.557  0.8146 -0.3639 -0.1488
  455TMC3    C2 6773   0.480   3.107  16.635  0.3120 -0.1459  0.0074
  455TMC3    C3 6774   0.344   3.110  16.622  0.1544  0.4264  0.4226
  455TMC3    C4 6775   0.482   2.924  16.481  0.5956  0.6496  0.1306
  455TMC3    C5 6776   0.346   2.928  16.478  0.0651 -0.2468 -0.7740
  455TMC3    C6 6777   0.272   3.023  16.548 -0.1510 -0.0724  0.2822
  455TMC3     C 6778   0.693   3.021  16.564  0.2462 -0.1182 -0.6532
  455TMC3     O 6779   0.752   2.931  16.621 -0.0810 -0.5665 -0.3363
  455TMC3     H 6780   0.534   3.165  16.709  0.7593  1.4269 -1.5454
  455TMC3    H1 6781   0.541   2.864  16.414 -2.1048 -2.3469  0.4273
  455TMC3    H2 6782   0.166   3.008  16.567 -0.1962  1.0622  0.8888
  455TMC3    C7 6783   0.279   2.818  16.404  1.1906 -0.4515  0.3248
  455TMC3    C8 6784   0.283   3.167  16.741 -0.1170  0.7146 -0.0369
  455TMC3    O1 6785   0.350   2.748  16.333  0.5421  0.3422  0.3933
  455TMC3    O2 6786   0.357   3.177  16.839  0.2160  0.1000 -0.4267
  456MPD2     C 6787   2.725   2.975  16.310 -0.3449  0.5290 -0.1835
  456MPD2    C1 6788   2.824   3.030  16.391  0.5174 -0.4467 -0.4985
  456MPD2    C2 6789   2.808   3.146  16.461  0.5567 -0.9561  0.6505
  456MPD2    C3 6790   2.692   3.219  16.437 -0.4918  0.3986 -0.1927
  456MPD2    C4 6791   2.595   3.168  16.347 -0.3334  0.9313  0.6676
  456MPD2    C5 6792   2.606   3.041  16.296  0.5014 -0.1329 -0.0247
  456MPD2     H 6793   2.882   3.187  16.528  0.5228 -0.3874  0.3420
  456MPD2    H1 6794   2.493   3.202  16.334 -0.7728 -0.8744 -0.5155
  456MPD2    H2 6795   2.734   2.879  16.259  3.9830  0.2215  1.1392
  456MPD2    H3 6796   2.529   2.999  16.233  0.9026 -3.1399  1.5183
  456MPD2     N 6797   2.678   3.342  16.506 -0.8797  0.0845  0.1996
  456MPD2    H5 6798   2.757   3.368  16.563 -0.7794  3.5195 -1.4858
  456MPD2    N1 6799   2.943   2.965  16.405  0.4362  0.0962 -0.3282
  456MPD2    H7 6800   2.960   2.893  16.335  1.5609  0.6436 -0.6182
  457TMC3    C1 6801   2.603   3.552  16.568 -0.0612  0.4618  0.3578
  457TMC3    C2 6802   2.556   3.665  16.512  0.4732  0.5407 -0.1017
  457TMC3    C3 6803   2.567   3.778  16.586 -0.3242 -0.0869  0.5188
  457TMC3    C4 6804   2.638   3.534  16.697  0.4878  0.0924 -0.1168
  457TMC3    C5 6805   2.638   3.651  16.768 -0.7215 -0.2036  0.0551
  457TMC3    C6 6806   2.600   3.773  16.720  0.3420 -0.5901  0.6125
  457TMC3     C 6807   2.576   3.430  16.484 -0.0990 -0.5729 -1.0556
  457TMC3     O 6808   2.478   3.423  16.413  0.4945 -0.1789 -0.2305
  457TMC3     H 6809   2.544   3.660  16.405  0.8796  0.2276 -0.1321
  457TMC3    H1 6810   2.656   3.435  16.739  0.7252  0.9336  1.7407
  457TMC3    H2 6811   2.582   3.856  16.788 -0.2762  0.0775 -0.3696
  457TMC3    C7 6812   2.688   3.644  16.905  0.0927  0.1460  0.4636
  457TMC3    C8 6813   2.537   3.899  16.518  0.0244 -0.4603 -0.4128
  457TMC3    O1 6814   2.681   3.537  16.961 -0.3695 -0.7060 -0.1152
  457TMC3    O2 6815   2.514   3.899  16.396  0.6971 -0.1159 -0.4673
  458MPD2     C 6816   0.383   2.168  12.225 -0.2433 -0.2912  0.4225
  458MPD2    C1 6817   0.378   2.122  12.361  0.0005 -0.2151 -0.7942
  458MPD2    C2 6818   0.255   2.098  12.422 -0.6707 -1.0056 -0.4235
  458MPD2    C3 6819   0.142   2.128  12.353  0.0101  0.0374 -0.3552
  458MPD2    C4 6820   0.146   2.168  12.223  0.0498  1.6051  0.3490
  458MPD2    C5 6821   0.265   2.185  12.159 -0.5153  0.2802  0.1915
  458MPD2     H 6822   0.252   2.073  12.527  0.0609  1.7937  0.2561
  458MPD2    H1 6823   0.059   2.206  12.171  0.7891  0.0922 -1.9906
  458MPD2    H2 6824   0.478   2.191  12.178 -0.6148 -0.4715 -0.4208
  458MPD2    H3 6825   0.270   2.214  12.054  1.4196 -2.6841 -0.5153
  458MPD2     N 6826   0.020   2.123  12.422  0.5927  0.2871  0.6616
  458MPD2    H5 6827   0.022   2.077  12.513  3.5605 -1.2317 -0.1724
  458MPD2    N1 6828   0.503   2.114  12.430 -0.2285  0.7706  0.7153
  458MPD2    H7 6829   0.590   2.141  12.385 -1.0913 -1.2581 -2.1131
  459TMC3    C1 6830   0.659   2.089  12.614 -0.1378  0.4563 -0.2204
  459TMC3    C2 6831   0.736   2.180  12.553 -0.4882  0.5031  0.1994
  459TMC3    C3 6832   0.834   2.241  12.620 -0.0433  0.8985  0.3919
  459TMC3    C4 6833   0.670   2.074  12.750  0.1278 -0.7761  0.3703
  459TMC3    C5 6834   0.763   2.145  12.820 -0.9588  0.4466  0.0278
  459TMC3    C6 6835   0.847   2.232  12.754 -0.7584 -0.1426 -1.0478
  459TMC3     C 6836   0.523   2.058  12.558 -1.5356 -0.9843  0.8375
  459TMC3     O 6837   0.441   2.016  12.639 -0.1299 -0.4358 -0.5976
  459TMC3     H 6838   0.737   2.186  12.444  1.7311  0.8910  0.2349
  459TMC3    H1 6839   0.600   2.008  12.801 -1.7821  0.2053 -0.9846
  459TMC3    H2 6840   0.930   2.287  12.797 -0.3456 -1.2253 -0.4629
  459TMC3    C7 6841   0.774   2.101  12.957  0.5817  0.3748 -0.6218
  459TMC3    C8 6842   0.937   2.311  12.539  0.1034  0.0821  0.3760
  459TMC3    O1 6843   0.681   2.030  13.001  0.6397  0.0069  0.4398
  459TMC3    O2 6844   1.045   2.331  12.596  0.7324  0.4162 -0.3401
  460MPD2     C 6845   4.267   0.015  10.613  0.7829 -0.3446 -0.4148
  460MPD2    C1 6846   4.261   4.612  10.547 -0.6755 -0.0572 -0.0873
  460MPD2    C2 6847   4.206   4.595  10.424  0.1081 -0.2411 -0.6865
  460MPD2    C3 6848   4.159   4.712  10.355 -0.8769 -0.1871  0.3299
  460MPD2    C4 6849   4.157   0.112  10.417  0.1038  0.1139  0.3494
  460MPD2    C5 6850   4.216   0.121  10.537 -0.5777 -0.4830 -0.1325
  460MPD2     H 6851   4.194   4.508  10.360 -0.4254 -0.4703 -0.2756
  460MPD2    H1 6852   4.127   0.207  10.373 -1.2254 -0.7133 -0.5255
  460MPD2    H2 6853   4.293   0.037  10.716  2.6936  1.0808 -1.1868
  460MPD2    H3 6854   4.239   0.218  10.582  1.3457 -0.4261 -1.2562
  460MPD2     N 6855   4.110   4.695  10.221  0.4706 -0.2088 -0.3164
  460MPD2    H5 6856   4.121   4.604  10.178 -0.7892 -0.0038 -1.0786
  460MPD2    N1 6857   4.306   4.501  10.621  0.2859 -0.7122  0.5196
  460MPD2    H7 6858   4.332   4.517  10.717  1.4519 -1.9588  0.4135
  461TMC3    C1 6859   3.989   0.027  10.023 -0.0148 -0.2526 -0.4581
  461TMC3    C2 6860   3.950   4.614  10.006  0.1865 -0.4413  0.0418
  461TMC3    C3 6861   3.887   4.584   9.891 -0.0279 -0.3731  0.2765
  461TMC3    C4 6862   3.951   0.126   9.934  0.4474 -0.6303  0.2097
  461TMC3    C5 6863   3.885   0.091   9.815 -0.2617  0.2503  0.5091
  461TMC3    C6 6864   3.859   4.679   9.788 -0.4854 -0.1381  0.0058
  461TMC3     C 6865   4.061   0.069  10.142 -0.3478 -0.1002  0.3219
  461TMC3     O 6866   4.074   0.193  10.150  0.0350  0.5872 -0.0297
  461TMC3     H 6867   3.976   4.539  10.080  0.4787 -2.2358 -1.9028
  461TMC3    H1 6868   4.014   0.214   9.932  0.4723 -0.7372 -2.5656
  461TMC3    H2 6869   3.819   4.645   9.693 -0.3478 -1.0009  0.2571
  461TMC3    C7 6870   3.838   0.197   9.723  0.2848  0.0236 -0.6471
  461TMC3    C8 6871   3.821   4.457   9.886 -0.5498 -0.7846 -0.9456
  461TMC3    O1 6872   3.784   0.164   9.618 -0.2704 -0.0267  0.2860
  461TMC3    O2 6873   3.768   4.422   9.990 -0.2563 -0.1977  0.6421
  462TMC3    C1 6874   4.539   0.937  17.587  0.6833 -0.8655 -0.3618
  462TMC3    C2 6875   4.480   0.839  17.509  0.5077 -0.3138  0.0399
  462TMC3    C3 6876   4.541   0.711  17.535 -0.5254 -0.0085 -0.0254
  462TMC3    C4 6877   4.620   0.917   0.006  0.1871  1.2339 -0.1527
  462TMC3    C5 6878   4.658   0.787   0.047  0.2585  0.7165 -0.1472
  462TMC3    C6 6879   4.630   0.686  17.636 -0.0690  0.0910  0.6480
  462TMC3     C 6880   4.517   1.080  17.554 -0.5898  0.2579 -0.2366
  462TMC3     O 6881   4.555   1.165  17.627 -0.0446 -0.3410 -0.0976
  462TMC3     H 6882   4.443   0.858  17.409 -0.6557 -0.6268  0.4165
  462TMC3    H1 6883   4.659   0.994   0.072 -1.6588  1.6737  0.4160
  462TMC3    H2 6884   4.658   0.582  17.646 -0.8265 -0.4360 -2.6985
  462TMC3    C7 6885   4.626   0.746   0.178 -0.4585 -0.5089 -0.1070
  462TMC3    C8 6886   4.529   0.618  17.430  0.4946  0.5847  0.2254
  462TMC3    O1 6887   4.609   0.626   0.186  0.0106  0.0190 -0.1729
  462TMC3    O2 6888   4.423   0.615  17.372 -0.7978 -0.0423 -1.0769
  463MPD2     C 6889   0.375   0.135   1.762  0.7077  0.6005  0.4811
  463MPD2    C1 6890   0.290   0.113   1.660 -0.6276  0.5647  0.1510
  463MPD2    C2 6891   0.311   0.192   1.544  0.4806 -0.0843  0.1628
  463MPD2    C3 6892   0.395   0.302   1.548 -0.1040  0.0302  0.0865
  463MPD2    C4 6893   0.485   0.317   1.650  0.3111 -0.0269 -0.9308
  463MPD2    C5 6894   0.466   0.238   1.757  0.0994 -0.1468 -0.0234
  463MPD2     H 6895   0.245   0.182   1.458  1.3617  0.7430 -0.6083
  463MPD2    H1 6896   0.550   0.402   1.666 -0.5341  0.1601  1.5463
  463MPD2    H2 6897   0.376   0.074   1.851  0.9141  0.0282  0.0861
  463MPD2    H3 6898   0.536   0.236   1.840  0.5439  4.2474 -0.2936
  463MPD2     N 6899   0.410   0.390   1.441  0.4632  0.1114  0.3171
  463MPD2    H5 6900   0.496   0.445   1.444  0.2167  0.5830 -1.2256
  463MPD2    N1 6901   0.203   0.004   1.647 -0.2890  0.1671  0.1060
  463MPD2    H7 6902   0.154   4.720   1.558 -1.3428 -0.8612  0.7456
  464TMC3    C1 6903   0.061   4.541   1.695 -0.7848  0.7270 -0.0572
  464TMC3    C2 6904   4.690   4.580   1.599  0.7668 -0.5442 -0.2801
  464TMC3    C3 6905   4.573   4.509   1.591 -0.5531 -0.6064  0.2619
  464TMC3    C4 6906   0.034   4.439   1.780 -1.2947 -0.0059  0.3321
  464TMC3    C5 6907   4.644   4.363   1.753  0.2508 -0.3465  0.3150
  464TMC3    C6 6908   4.547   4.392   1.658  0.4666 -0.2704  0.0987
  464TMC3     C 6909   0.170   4.626   1.732 -0.4132 -0.5757  0.4829
  464TMC3     O 6910   0.226   4.591   1.834  0.4128 -0.4919  0.4160
  464TMC3     H 6911   4.700   4.673   1.544 -3.5225 -0.7676 -1.4756
  464TMC3    H1 6912   0.118   4.398   1.834 -1.2898 -0.3010  0.0977
  464TMC3    H2 6913   4.447   4.351   1.658  0.3878 -0.0833  1.2880
  464TMC3    C7 6914   4.624   4.252   1.845 -0.2322  0.1472  0.1422
  464TMC3    C8 6915   4.475   4.564   1.497 -0.0183 -0.0556 -0.2466
  464TMC3    O1 6916   4.669   4.274   1.956  0.0839 -0.3436 -0.0511
  464TMC3    O2 6917   4.516   4.629   1.400 -0.2654 -0.0225 -0.3744
  465MPD2     C 6918   2.282   2.558  16.839  0.0358 -0.0907  0.3153
  465MPD2    C1 6919   2.159   2.574  16.885 -0.2589 -0.1969  0.2482
  465MPD2    C2 6920   2.089   2.685  16.853 -0.2364  0.1589 -0.7324
  465MPD2    C3 6921   2.136   2.776  16.763  0.2170 -0.1040 -1.0266
  465MPD2    C4 6922   2.260   2.757  16.712  0.0021 -0.0790  0.1727
  465MPD2    C5 6923   2.339   2.657  16.764 -0.1288 -0.3009  0.2265
  465MPD2     H 6924   1.998   2.697  16.910  0.4130  0.9918  0.1249
  465MPD2    H1 6925   2.303   2.832  16.646 -0.9537  0.5649  0.2969
  465MPD2    H2 6926   2.356   2.485  16.871 -0.8672 -1.4762 -0.7617
  465MPD2    H3 6927   2.445   2.651  16.742 -0.1590 -0.5228  0.1354
  465MPD2     N 6928   2.055   2.886  16.738 -0.4185  0.0594 -0.2699
  465MPD2    H5 6929   1.965   2.884  16.786 -0.2501 -3.3212 -0.0925
  465MPD2    N1 6930   2.097   2.480  16.962  0.3149 -0.1970  0.0764
  465MPD2    H7 6931   2.005   2.506  16.996 -0.2054  0.9409 -2.2471
  466TMC3    C1 6932   1.744   3.117  16.570 -0.1814 -0.2881 -0.4732
  466TMC3    C2 6933   1.767   3.244  16.530  0.0446 -0.3767  0.4813
  466TMC3    C3 6934   1.898   3.288  16.527 -0.1695 -0.5233 -0.9983
  466TMC3    C4 6935   1.845   3.042  16.626 -0.2131 -0.2412  0.2598
  466TMC3    C5 6936   1.977   3.086  16.629  0.1212  0.0365  0.4852
  466TMC3    C6 6937   2.004   3.213  16.577 -0.2839  0.1132  0.9984
  466TMC3     C 6938   1.611   3.107  16.630 -0.2271  0.1182  0.0647
  466TMC3     O 6939   1.544   3.205  16.662 -0.1691 -0.1486 -0.0689
  466TMC3     H 6940   1.690   3.314  16.501 -0.0820 -1.6907 -2.3362
  466TMC3    H1 6941   1.821   2.947  16.673  1.6141 -0.7866  0.0595
  466TMC3    H2 6942   2.102   3.258  16.574  0.1080 -0.7713  0.2771
  466TMC3    C7 6943   2.092   3.001  16.668 -0.0538 -0.3148 -0.1257
  466TMC3    C8 6944   1.927   3.427  16.537 -0.5363 -0.9574  0.5603
  466TMC3    O1 6945   2.204   3.033  16.628 -0.5683 -0.2124 -0.2741
  466TMC3    O2 6946   2.020   3.459  16.608  0.7059  0.2263  0.0637
  467TMC3    C1 6947   2.384   1.246  13.424  0.2834  0.2980  0.0457
  467TMC3    C2 6948   2.446   1.322  13.327 -0.5153 -0.1147  0.2075
  467TMC3    C3 6949   2.382   1.440  13.291  0.3857  0.5144  0.0893
  467TMC3    C4 6950   2.251   1.282  13.454 -0.3442  0.4452  0.2860
  467TMC3    C5 6951   2.183   1.384  13.394 -0.0063 -1.0462  0.0848
  467TMC3    C6 6952   2.250   1.476  13.317 -0.0429 -0.0441  0.9127
  467TMC3     C 6953   2.478   1.175  13.502  0.0265  0.0247  0.3612
  467TMC3     O 6954   2.488   1.204  13.623  0.0522 -0.4693 -0.7872
  467TMC3     H 6955   2.549   1.299  13.302 -0.7078 -1.1161  0.3160
  467TMC3    H1 6956   2.202   1.212  13.521 -0.2527  2.2551  2.2308
  467TMC3    H2 6957   2.196   1.534  13.243 -0.8976 -1.2346  0.6011
  467TMC3    C7 6958   2.040   1.382  13.390  0.2148 -0.0399  0.2477
  467TMC3    C8 6959   2.467   1.558  13.311 -0.6398  0.2256  0.1755
  467TMC3    O1 6960   1.990   1.393  13.278  0.2542 -0.0092 -0.1310
  467TMC3    O2 6961   2.415   1.668  13.290 -0.5213  0.7672  0.1069
  468MPD2     C 6962   1.253   0.086  10.992 -0.0114 -0.0414 -0.0942
  468MPD2    C1 6963   1.376   0.056  10.929 -0.7428 -0.7343  0.2553
  468MPD2    C2 6964   1.424   4.647  10.945  0.5855 -0.3305 -0.1799
  468MPD2    C3 6965   1.359   4.553  11.026  0.2487 -0.6805 -0.6000
  468MPD2    C4 6966   1.242   4.589  11.086  0.1870  0.3329 -0.3193
  468MPD2    C5 6967   1.189   4.711  11.070 -0.2044 -0.7540  0.2143
  468MPD2     H 6968   1.516   4.609  10.903  0.4577 -1.6434  0.7606
  468MPD2    H1 6969   1.193   4.516  11.149  2.1109  0.1183  0.9287
  468MPD2    H2 6970   1.197   0.176  10.969  0.9568  0.7726  0.7061
  468MPD2    H3 6971   1.084   0.001  11.098  0.1996 -1.8289  2.1484
  468MPD2     N 6972   1.402   4.423  11.044  0.4991 -0.7215  0.0110
  468MPD2    H5 6973   1.345   4.356  11.095  1.4778  0.8114  3.1359
  468MPD2    N1 6974   1.445   0.143  10.837  1.0129  0.1607  0.8588
  468MPD2    H7 6975   1.524   0.103  10.788 -0.3417 -1.7393  0.2225
  469TMC3    C1 6976   1.503   0.349  10.725  0.3935 -0.3329  0.9181
  469TMC3    C2 6977   1.606   0.277  10.672  0.2794 -0.4040  0.0108
  469TMC3    C3 6978   1.726   0.325  10.643 -0.5713 -0.5897 -0.5920
  469TMC3    C4 6979   1.520   0.487  10.748 -0.7565 -0.3990 -0.3704
  469TMC3    C5 6980   1.652   0.532  10.732  0.2377 -0.2424  0.1425
  469TMC3    C6 6981   1.750   0.455  10.672  0.1065  0.6804  0.6738
  469TMC3     C 6982   1.412   0.276  10.814  0.1029  0.6072 -0.3729
  469TMC3     O 6983   1.325   0.344  10.866  0.1845  0.1497 -0.3222
  469TMC3     H 6984   1.585   0.177  10.635  0.9734 -0.2501 -0.8131
  469TMC3    H1 6985   1.452   0.547  10.806 -1.2765 -2.3170  0.9979
  469TMC3    H2 6986   1.851   0.489  10.651  0.1348 -2.3099 -4.0017
  469TMC3    C7 6987   1.687   0.672  10.755  0.1541 -0.0555  0.1364
  469TMC3    C8 6988   1.827   0.241  10.684 -0.4327  0.4958  0.8087
  469TMC3    O1 6989   1.742   0.732  10.664  0.2293 -0.6755 -0.3261
  469TMC3    O2 6990   1.885   0.186  10.593 -0.0012  0.2843 -0.1586
  470TMC3    C1 6991   4.074   1.082   0.775 -0.6870  0.3800  0.2643
  470TMC3    C2 6992   4.191   1.149   0.810  0.0903  0.0850 -1.1140
  470TMC3    C3 6993   4.180   1.227   0.924  0.0164 -0.3860 -0.5807
  470TMC3    C4 6994   3.958   1.097   0.849 -0.5722  0.5928  0.1493
  470TMC3    C5 6995   3.960   1.160   0.973 -0.8785  0.1058 -0.0221
  470TMC3    C6 6996   4.071   1.226   1.010  0.1069  0.6301 -0.0414
  470TMC3     C 6997   4.064   1.018   0.643 -0.1907 -0.5014  0.2578
  470TMC3     O 6998   4.139   1.061   0.558 -0.0634 -0.2042 -0.1028
  470TMC3     H 6999   4.283   1.131   0.756 -0.3653  1.0906 -2.2164
  470TMC3    H1 7000   3.862   1.072   0.804 -0.3501 -0.3269  0.1970
  470TMC3    H2 7001   4.086   1.290   1.096 -1.8469  2.1313 -0.7956
  470TMC3    C7 7002   3.838   1.199   1.048  0.6338 -0.5051 -1.1489
  470TMC3    C8 7003   4.271   1.342   0.922 -0.6207 -0.8871 -0.2068
  470TMC3    O1 7004   3.739   1.163   0.981 -0.4453  0.0617 -0.1110
  470TMC3    O2 7005   4.282   1.402   1.025  0.4384 -0.1099  0.1278
  471MPD2     C 7006   4.399   2.253  16.597  0.1707  0.3793  0.8486
  471MPD2    C1 7007   4.521   2.190  16.590 -0.2136 -0.1779  0.1754
  471MPD2    C2 7008   4.600   2.189  16.708 -0.1630 -0.2947  0.4589
  471MPD2    C3 7009   4.560   2.242  16.834 -0.1430 -0.6339  0.6263
  471MPD2    C4 7010   4.436   2.304  16.829  0.8624 -0.5562  0.4139
  471MPD2    C5 7011   4.359   2.307  16.713  0.0894  0.2952 -0.0989
  471MPD2     H 7012   4.704   2.165  16.695 -0.7187 -2.3840 -0.1220
  471MPD2    H1 7013   4.394   2.369  16.905  0.3227 -2.3670  1.6656
  471MPD2    H2 7014   4.345   2.262  16.503 -0.8374 -3.3350  1.0780
  471MPD2    H3 7015   4.268   2.366  16.714  0.9962  1.7187 -0.9898
  471MPD2     N 7016   4.634   2.241  16.952 -0.2473 -0.1721  0.2018
  471MPD2    H5 7017   4.584   2.290  17.025 -0.6933  0.5939 -0.6138
  471MPD2    N1 7018   4.572   2.126  16.470 -0.1173 -0.5684  0.5336
  471MPD2    H7 7019   4.665   2.087  16.481 -0.1199 -0.9769 -0.8567
  472TMC3    C1 7020   4.575   2.013  16.261  0.4786 -0.4629  0.3451
  472TMC3    C2 7021   4.497   1.985  16.145  0.3781  0.0086  0.3616
  472TMC3    C3 7022   4.502   1.861  16.084 -0.2832 -0.1218  0.2213
  472TMC3    C4 7023   4.650   1.911  16.309 -0.6861  0.5785 -0.5179
  472TMC3    C5 7024   4.638   1.783  16.257 -0.3875 -0.5464  0.9271
  472TMC3    C6 7025   4.562   1.754  16.143 -0.3561 -0.0893  0.7325
  472TMC3     C 7026   4.498   2.093  16.357 -0.0079 -0.9183 -0.3415
  472TMC3     O 7027   4.375   2.096  16.344 -0.2091 -0.3583 -0.1892
  472TMC3     H 7028   4.437   2.060  16.094  1.0757  0.5641  0.3493
  472TMC3    H1 7029   4.692   1.916  16.409  2.4097 -0.8489 -1.7547
  472TMC3    H2 7030   4.574   1.661  16.090  2.2608  2.2330 -2.7817
  472TMC3    C7 7031   4.643   1.672  16.353  0.2479  0.3983 -0.1930
  472TMC3    C8 7032   4.398   1.826  15.989  0.1880  0.1529 -0.7699
  472TMC3    O1 7033   4.664   1.704  16.468  0.2132  0.2425  0.3697
  472TMC3    O2 7034   4.381   1.889  15.885 -0.1118  0.3282 -0.6306
  473MPD2     C 7035   4.113   3.718  13.983 -0.1111 -0.4136 -0.6218
  473MPD2    C1 7036   4.113   3.835  13.919  0.8623 -0.2116 -0.2911
  473MPD2    C2 7037   4.174   3.945  13.981 -0.5897 -0.1567 -0.3346
  473MPD2    C3 7038   4.240   3.940  14.107 -0.6182  0.8538 -0.0877
  473MPD2    C4 7039   4.247   3.821  14.163 -0.1430  0.3985 -0.0357
  473MPD2    C5 7040   4.180   3.709  14.101  0.7229  0.2707 -0.6167
  473MPD2     H 7041   4.161   4.037  13.925  1.3842  0.2978 -0.0388
  473MPD2    H1 7042   4.305   3.818  14.254 -1.8066  1.2451  1.0631
  473MPD2    H2 7043   4.077   3.622  13.947  1.2923 -1.8814  1.9211
  473MPD2    H3 7044   4.198   3.609  14.138 -1.4429 -0.7155 -2.2185
  473MPD2     N 7045   4.304   4.050  14.169 -0.3224 -0.8620 -0.2110
  473MPD2    H5 7046   4.348   4.038  14.260  0.4975 -2.6947 -0.8617
  473MPD2    N1 7047   4.048   3.849  13.792  0.1950 -0.1318 -0.3765
  473MPD2    H7 7048   4.062   3.939  13.747 -2.1097 -0.0100 -0.8537
  474TMC3    C1 7049   4.334   4.270  14.226  0.1934 -0.1101 -0.0356
  474TMC3    C2 7050   4.271   4.388  14.217 -0.1899 -1.1323 -0.4222
  474TMC3    C3 7051   4.326   4.505  14.264  0.4507 -0.0819  0.2837
  474TMC3    C4 7052   4.451   4.254  14.291 -0.4250  0.3288  0.2963
  474TMC3    C5 7053   4.507   4.367  14.348 -0.7329  0.2894 -0.2101
  474TMC3    C6 7054   4.452   4.492  14.331  0.0088  0.4750 -0.2529
  474TMC3     C 7055   4.301   4.178  14.118 -0.6418  0.0690  0.3766
  474TMC3     O 7056   4.254   4.226  14.019 -0.2237 -0.0841 -0.2891
  474TMC3     H 7057   4.169   4.393  14.179 -0.4712 -2.2026  0.1712
  474TMC3    H1 7058   4.515   4.171  14.262  0.2839  0.4913  1.4096
  474TMC3    H2 7059   4.498   4.582  14.370 -0.8397  0.2065  1.3971
  474TMC3    C7 7060   4.641   4.349  14.393 -0.7015 -1.0572  0.1363
  474TMC3    C8 7061   4.292   4.621  14.188 -0.4102  0.2498 -0.0985
  474TMC3    O1 7062   4.707   4.254  14.352  0.0697 -0.8141 -0.6770
  474TMC3    O2 7063   4.217   4.605  14.097  0.1445  0.4712 -0.1244
  475MPD2     C 7064   2.869   1.974   9.764 -0.6471  0.6744  0.0669
  475MPD2    C1 7065   2.854   2.051   9.872  0.4466  0.0014 -0.8443
  475MPD2    C2 7066   2.736   2.060   9.942 -0.7015  0.9327 -0.0652
  475MPD2    C3 7067   2.626   1.982   9.897 -1.1267  0.2622  0.2273
  475MPD2    C4 7068   2.636   1.902   9.783  0.8196  0.0195  1.0644
  475MPD2    C5 7069   2.759   1.892   9.719  0.5007  0.5603  0.1277
  475MPD2     H 7070   2.720   2.119  10.032 -1.0419 -0.8272  1.0375
  475MPD2    H1 7071   2.555   1.840   9.747  0.8073  1.5244 -1.5099
  475MPD2    H2 7072   2.963   1.962   9.711 -1.0836  1.3452 -0.8488
  475MPD2    H3 7073   2.770   1.831   9.630  0.9408  2.7867 -1.3553
  475MPD2     N 7074   2.500   2.007   9.956  0.9562  0.2521 -0.0683
  475MPD2    H5 7075   2.494   2.076  10.031  0.5191  0.0859  0.0494
  475MPD2    N1 7076   2.964   2.123   9.938  0.0307  0.1427 -0.0943
  475MPD2    H7 7077   2.944   2.176  10.022 -0.6225 -1.0305  0.4837
  476TMC3    C1 7078   3.146   2.254   9.959 -0.2265  0.1148  0.2489
  476TMC3    C2 7079   3.186   2.372   9.890  0.4025  0.3428 -0.6991
  476TMC3    C3 7080   3.198   2.486   9.962 -0.1372 -0.5889  0.1231
  476TMC3    C4 7081   3.094   2.261  10.083 -0.1661 -0.2106  0.7734
  476TMC3    C5 7082   3.094   2.385  10.139 -0.5711  0.8037 -0.2860
  476TMC3    C6 7083   3.147   2.501  10.086 -0.8742 -0.0614  0.0635
  476TMC3     C 7084   3.080   2.154   9.876 -0.1408  0.4179 -0.3326
  476TMC3     O 7085   3.114   2.158   9.758  0.6463  0.0887 -0.0002
  476TMC3     H 7086   3.218   2.374   9.787  0.0511 -2.7996 -0.8776
  476TMC3    H1 7087   3.058   2.184  10.151 -1.4683  0.6446  1.0420
  476TMC3    H2 7088   3.138   2.598  10.133 -0.0745  1.3265 -2.6717
  476TMC3    C7 7089   2.954   2.394  10.182 -0.4606  0.3062  0.5794
  476TMC3    C8 7090   3.177   2.608   9.884 -0.1297  0.1636  0.3941
  476TMC3    O1 7091   2.875   2.335  10.110 -0.0371  0.0336 -0.3899
  476TMC3    O2 7092   3.232   2.708   9.921 -0.3081 -0.3113  0.2210
  477MPD2     C 7093   0.232   4.006  11.626  0.5960  0.4390  1.0074
  477MPD2    C1 7094   0.180   3.880  11.608 -0.2890  0.4856 -0.4768
  477MPD2    C2 7095   0.151   3.802  11.715 -0.3739 -0.0075  1.1177
  477MPD2    C3 7096   0.159   3.854  11.844  0.2849  0.1521 -0.3439
  477MPD2    C4 7097   0.201   3.984  11.867  0.1668 -0.3185  0.3048
  477MPD2    C5 7098   0.242   4.054  11.754  0.8657  0.2806 -0.1764
  477MPD2     H 7099   0.100   3.706  11.703 -0.2375 -0.0025  0.4516
  477MPD2    H1 7100   0.225   4.027  11.963  1.2388 -0.1245 -0.0506
  477MPD2    H2 7101   0.262   4.071  11.545 -2.5906  0.0276 -0.4745
  477MPD2    H3 7102   0.293   4.150  11.754  1.6360 -0.1297  0.8926
  477MPD2     N 7103   0.130   3.767  11.953 -0.2538 -0.1900  0.1832
  477MPD2    H5 7104   0.108   3.669  11.937 -0.4803 -0.1562  0.2766
  477MPD2    N1 7105   0.155   3.845  11.473  0.1122  0.2834  0.0267
  477MPD2    H7 7106   0.150   3.915  11.400  0.6709  0.9855  0.6529
  478TMC3    C1 7107   0.064   3.705  11.305 -0.6652 -0.1431 -0.1850
  478TMC3    C2 7108   4.660   3.639  11.322  0.4953 -0.2220  0.2321
  478TMC3    C3 7109   4.562   3.676  11.238  0.0689 -0.4762 -0.2872
  478TMC3    C4 7110   0.086   3.811  11.217 -0.4336  0.3195  0.2099
  478TMC3    C5 7111   4.696   3.834  11.133  0.7729  0.3131 -0.0038
  478TMC3    C6 7112   4.574   3.771  11.144 -0.4275 -0.0690  0.1573
  478TMC3     C 7113   0.134   3.713  11.432  0.0530  0.2919  0.0384
  478TMC3     O 7114   0.136   3.611  11.497  0.0491 -0.5320 -0.0788
  478TMC3     H 7115   4.640   3.578  11.409 -1.5990  0.7261  0.4285
  478TMC3    H1 7116   0.181   3.863  11.212 -1.4139  2.0242 -0.5227
  478TMC3    H2 7117   4.484   3.799  11.091 -1.9085 -1.1859  2.0878
  478TMC3    C7 7118   4.719   3.930  11.022  0.2233 -0.9041 -0.2141
  478TMC3    C8 7119   4.429   3.680  11.309 -0.2573 -0.1721  0.9812
  478TMC3    O1 7120   0.108   3.992  11.023 -0.6271 -0.1165  0.2495
  478TMC3    O2 7121   4.400   3.588  11.386  0.3843 -0.2286  0.6955
  479MPD2     C 7122   3.377   0.229  15.390 -1.3252  0.0933 -0.3561
  479MPD2    C1 7123   3.324   0.328  15.316  0.1215 -0.9022  0.6835
  479MPD2    C2 7124   3.357   0.458  15.360 -0.4929  0.3326 -0.9138
  479MPD2    C3 7125   3.434   0.486  15.468  0.0093 -0.1221  0.5894
  479MPD2    C4 7126   3.497   0.381  15.525 -0.2226 -0.7446  0.6137
  479MPD2    C5 7127   3.458   0.251  15.496 -0.3494 -0.1145  0.4671
  479MPD2     H 7128   3.309   0.543  15.313 -0.6674  0.5182 -0.3975
  479MPD2    H1 7129   3.581   0.397  15.592 -0.1027  0.6463  0.1303
  479MPD2    H2 7130   3.356   0.123  15.382  1.3658 -0.3765 -1.2138
  479MPD2    H3 7131   3.513   0.174  15.549  1.4205  0.5006 -0.4695
  479MPD2     N 7132   3.473   0.615  15.525 -0.1815  0.2936  0.6736
  479MPD2    H5 7133   3.526   0.606  15.611  1.3350 -1.0449 -0.3904
  479MPD2    N1 7134   3.237   0.300  15.208 -0.0843  0.5040 -0.2283
  479MPD2    H7 7135   3.211   0.203  15.190 -1.2859  1.0058 -1.2280
  480TMC3    C1 7136   3.742   0.898  15.624  0.5281 -1.2457  0.3038
  480TMC3    C2 7137   3.732   1.024  15.577  0.3410 -0.2889 -0.2455
  480TMC3    C3 7138   3.622   1.053  15.512  0.5174  0.0119 -0.2241
  480TMC3    C4 7139   3.651   0.797  15.598  0.3193 -0.0544 -0.0708
  480TMC3    C5 7140   3.547   0.835  15.512  0.1834 -0.6724  0.4285
  480TMC3    C6 7141   3.524   0.966  15.479  0.7539 -0.3947 -0.4264
  480TMC3     C 7142   3.847   0.868  15.719 -0.0638  0.4638 -0.4429
  480TMC3     O 7143   3.847   0.750  15.743 -0.0169 -0.3591  0.2623
  480TMC3     H 7144   3.808   1.100  15.591  1.3455 -1.0993 -1.2514
  480TMC3    H1 7145   3.650   0.699  15.644 -1.1861 -0.1309 -0.2746
  480TMC3    H2 7146   3.446   0.989  15.407  2.0826 -1.3536 -2.1865
  480TMC3    C7 7147   3.457   0.737  15.458  0.4396 -0.4326 -0.2136
  480TMC3    C8 7148   3.622   1.185  15.451 -1.0346 -0.6597 -0.1355
  480TMC3    O1 7149   3.380   0.772  15.364  0.1560  0.0573  0.5294
  480TMC3    O2 7150   3.726   1.249  15.454  0.4155  0.4389  0.1350
  481MPD2     C 7151   1.346   0.779  14.270  0.1261 -0.1873 -0.2424
  481MPD2    C1 7152   1.219   0.775  14.315 -0.6895 -0.0662  0.6795
  481MPD2    C2 7153   1.182   0.766  14.446  0.0930  0.1969 -0.0014
  481MPD2    C3 7154   1.278   0.763  14.542 -0.2962 -0.1473  0.2717
  481MPD2    C4 7155   1.413   0.781  14.503  0.2521  0.4717  0.1231
  481MPD2    C5 7156   1.440   0.787  14.365  0.4405  0.0628  1.1998
  481MPD2     H 7157   1.081   0.750  14.479  0.4132  0.0831  0.9321
  481MPD2    H1 7158   1.499   0.793  14.568 -0.9160 -1.5286  2.0070
  481MPD2    H2 7159   1.377   0.793  14.167  1.9852  0.8969  0.4481
  481MPD2    H3 7160   1.540   0.809  14.330 -0.0647 -2.6306 -2.0219
  481MPD2     N 7161   1.250   0.762  14.687 -0.0821  0.1912  0.0105
  481MPD2    H5 7162   1.314   0.809  14.749  0.6581 -1.1698  0.2890
  481MPD2    N1 7163   1.124   0.781  14.213  0.1853  0.3428  0.3500
  481MPD2    H7 7164   1.160   0.795  14.119  0.6409 -3.3433 -0.0557
  482TMC3    C1 7165   0.914   0.783  14.095 -0.4623  0.8468 -0.1635
  482TMC3    C2 7166   0.781   0.796  14.124 -0.2546  0.3443 -0.4618
  482TMC3    C3 7167   0.699   0.845  14.027  0.3768 -0.3678  0.2498
  482TMC3    C4 7168   0.975   0.814  13.976  0.0846  0.7924  0.8924
  482TMC3    C5 7169   0.880   0.857  13.882 -0.1863 -0.1509 -0.0329
  482TMC3    C6 7170   0.745   0.872  13.899  0.5228  0.4046  0.1597
  482TMC3     C 7171   0.990   0.752  14.221 -0.1913 -0.6361  0.3787
  482TMC3     O 7172   0.936   0.685  14.305 -0.3707  0.0946 -0.4188
  482TMC3     H 7173   0.745   0.774  14.223 -0.3310 -5.0722 -1.6821
  482TMC3    H1 7174   1.075   0.783  13.949 -0.4423 -0.4924  0.4287
  482TMC3    H2 7175   0.673   0.930  13.841  0.3461  1.8860  1.8554
  482TMC3    C7 7176   0.919   0.851  13.742 -0.0986 -0.1288 -0.5015
  482TMC3    C8 7177   0.562   0.807  14.046 -0.3390 -0.3182  0.2218
  482TMC3    O1 7178   1.038   0.829  13.714 -0.2045  0.0705  0.1478
  482TMC3    O2 7179   0.556   0.693  14.090  0.2775  0.5654 -0.0246
  483TMC3    C1 7180   3.129   4.482   0.533  0.0189 -0.9484 -0.0552
  483TMC3    C2 7181   3.189   4.603   0.568 -0.0869  0.5000 -0.1373
  483TMC3    C3 7182   3.223   4.614   0.699  0.0870 -0.5091  0.1954
  483TMC3    C4 7183   3.131   4.376   0.615 -0.1324 -0.2605  0.5754
  483TMC3    C5 7184   3.175   4.389   0.744  0.3551  0.4335  0.3104
  483TMC3    C6 7185   3.208   4.510   0.792 -0.3153 -0.0357 -0.3865
  483TMC3     C 7186   3.042   4.478   0.413  0.1788  0.1335 -0.2304
  483TMC3     O 7187   3.045   4.573   0.334  0.3437 -0.5328  0.5810
  483TMC3     H 7188   3.203   4.679   0.493 -2.5207 -0.3154 -1.4250
  483TMC3    H1 7189   3.109   4.281   0.568 -0.1020  1.5169 -2.9937
  483TMC3    H2 7190   3.234   4.517   0.897 -0.2034  0.7658 -0.4669
  483TMC3    C7 7191   3.198   4.271   0.831 -0.4100  0.2072 -0.0483
  483TMC3    C8 7192   3.307   0.007   0.738 -0.1107 -0.6253  0.3828
  483TMC3    O1 7193   3.282   4.265   0.913 -0.4082  0.4126 -0.1384
  483TMC3    O2 7194   3.317   0.103   0.662  0.4358  0.0763  0.5357
  484MPD2     C 7195   0.912   2.515  12.247  0.2726 -0.1410  0.4559
  484MPD2    C1 7196   0.971   2.431  12.332 -0.4619 -0.1690 -0.1410
  484MPD2    C2 7197   1.103   2.398  12.311 -0.8560 -0.3176  0.0499
  484MPD2    C3 7198   1.188   2.476  12.239 -0.7928  0.0954  0.8348
  484MPD2    C4 7199   1.128   2.586  12.187 -1.3875  0.4396  0.5442
  484MPD2    C5 7200   0.994   2.603  12.185 -0.1916  1.0335  0.3108
  484MPD2     H 7201   1.140   2.311  12.365 -0.2586 -0.7057 -0.9835
  484MPD2    H1 7202   1.186   2.657  12.128  1.5250 -1.1048  1.5675
  484MPD2    H2 7203   0.805   2.530  12.248  0.7551  3.2945  0.0675
  484MPD2    H3 7204   0.960   2.678  12.114  0.1273 -0.2611 -1.1843
  484MPD2     N 7205   1.330   2.467  12.235 -0.1067 -0.2682  0.1831
  484MPD2    H5 7206   1.376   2.541  12.184  0.3897 -1.5874 -1.3055
  484MPD2    N1 7207   0.888   2.365  12.422 -0.5913 -0.2879  0.1314
  484MPD2    H7 7208   0.789   2.366  12.402 -0.8873  0.8269  1.6426
  485TMC3    C1 7209   1.538   2.376  12.255 -0.2086  0.4247 -0.6098
  485TMC3    C2 7210   1.607   2.274  12.320 -0.2507 -0.2062 -0.1046
  485TMC3    C3 7211   1.735   2.312  12.366 -0.0242 -0.0348  0.1063
  485TMC3    C4 7212   1.579   2.504  12.236 -0.5149 -0.2132  0.5883
  485TMC3    C5 7213   1.703   2.539  12.273 -0.0900  0.1817  0.3050
  485TMC3    C6 7214   1.778   2.442  12.345 -0.1754 -0.1886 -0.7881
  485TMC3     C 7215   1.397   2.353  12.266  0.4363  0.2285 -0.3583
  485TMC3     O 7216   1.352   2.248  12.312  0.0888 -0.4928  0.2431
  485TMC3     H 7217   1.562   2.181  12.350 -1.2053  0.0554 -0.7351
  485TMC3    H1 7218   1.535   2.570  12.161 -1.2757  0.3999  1.5724
  485TMC3    H2 7219   1.879   2.469  12.374 -0.9278  0.5518  1.1090
  485TMC3    C7 7220   1.785   2.613  12.172 -1.6246 -0.7726 -0.6914
  485TMC3    C8 7221   1.837   2.224  12.316  0.3963  0.2882 -0.5241
  485TMC3    O1 7222   1.742   2.707  12.111  0.3398 -0.3360  0.0235
  485TMC3    O2 7223   1.949   2.267  12.324  0.7056 -0.0410 -0.1269
  486MPD2     C 7224   3.438   1.236  13.474 -0.0978 -0.5055 -0.1268
  486MPD2    C1 7225   3.335   1.213  13.393  0.3886  0.4937 -0.7844
  486MPD2    C2 7226   3.257   1.320  13.351  0.2022 -0.1627 -0.2223
  486MPD2    C3 7227   3.296   1.449  13.384  0.2021 -0.2708  0.1528
  486MPD2    C4 7228   3.401   1.467  13.473 -0.2948  0.4738 -1.0363
  486MPD2    C5 7229   3.466   1.359  13.513 -0.6191 -0.3672  0.3385
  486MPD2     H 7230   3.172   1.322  13.284 -1.4429  0.9622  1.8971
  486MPD2    H1 7231   3.431   1.560  13.519  1.5161 -0.6259  0.0143
  486MPD2    H2 7232   3.496   1.152  13.511  1.7056  0.4837 -0.7448
  486MPD2    H3 7233   3.541   1.368  13.591 -1.3462 -0.6767  1.0763
  486MPD2     N 7234   3.220   1.555  13.326  0.2371 -0.0305  0.1414
  486MPD2    H5 7235   3.164   1.522  13.248 -1.9096 -1.3873  2.2374
  486MPD2    N1 7236   3.316   1.078  13.350  0.1607 -0.2278  0.6890
  486MPD2    H7 7237   3.387   1.008  13.369  2.5452  1.6596 -1.1653
  487TMC3    C1 7238   3.244   0.889  13.227  0.7907  0.4817  0.4312
  487TMC3    C2 7239   3.163   0.830  13.137 -0.0590 -0.5366 -0.2733
  487TMC3    C3 7240   3.170   0.693  13.130 -0.1536  0.4718 -1.0104
  487TMC3    C4 7241   3.303   0.817  13.334  0.5289  0.2977 -0.0831
  487TMC3    C5 7242   3.290   0.681  13.329 -0.1243 -0.1635  0.5805
  487TMC3    C6 7243   3.244   0.617  13.216 -0.5490 -0.7316  0.4259
  487TMC3     C 7244   3.224   1.031  13.252 -0.7898  0.0735  0.7924
  487TMC3     O 7245   3.145   1.089  13.179 -0.3738  0.0662  0.1162
  487TMC3     H 7246   3.120   0.881  13.051 -0.5023 -1.0073 -0.3323
  487TMC3    H1 7247   3.329   0.860  13.430  1.4209  1.1705 -0.7159
  487TMC3    H2 7248   3.224   0.511  13.227 -2.2681 -0.6138 -1.4975
  487TMC3    C7 7249   3.230   0.635  13.450  0.0203  0.4623  0.6276
  487TMC3    C8 7250   3.065   0.630  13.058  0.1233  0.1503  0.3528
  487TMC3    O1 7251   3.285   0.637  13.559  0.1394 -0.0011  0.5363
  487TMC3    O2 7252   2.957   0.676  13.086 -0.1194  0.1115  0.0839
  488MPD2     C 7253   3.606   3.463  16.696  0.4847 -0.3995 -0.2385
  488MPD2    C1 7254   3.703   3.551  16.732  0.6604 -0.4705  0.8945
  488MPD2    C2 7255   3.734   3.560  16.867  0.0063 -0.1574  0.0292
  488MPD2    C3 7256   3.668   3.495  16.963  0.1446  0.7799 -1.1425
  488MPD2    C4 7257   3.567   3.402  16.925  0.4588 -0.5178  0.4808
  488MPD2    C5 7258   3.548   3.380  16.792 -0.2084  0.5122 -0.2908
  488MPD2     H 7259   3.811   3.627  16.903 -1.2079  2.1020 -1.5348
  488MPD2    H1 7260   3.501   3.345  16.990  0.3730 -0.2247  0.6494
  488MPD2    H2 7261   3.591   3.451  16.589 -1.4997  1.7284 -0.1870
  488MPD2    H3 7262   3.472   3.308  16.767  0.8362 -1.3873  1.9759
  488MPD2     N 7263   3.715   3.512  17.094  0.2207 -0.2238 -0.3832
  488MPD2    H5 7264   3.803   3.560  17.107  0.1707  0.1909 -1.6636
  488MPD2    N1 7265   3.764   3.639  16.637 -0.0131  0.0743 -0.0817
  488MPD2    H7 7266   3.821   3.712  16.680 -0.1011  1.0459 -1.6215
  489TMC3    C1 7267   3.708   3.512  17.331 -0.1073 -0.0734 -0.2415
  489TMC3    C2 7268   3.783   3.631  17.332  0.0379 -0.2637 -0.5211
  489TMC3    C3 7269   3.773   3.705  17.447  0.4725 -0.2188  0.2781
  489TMC3    C4 7270   3.656   3.462  17.447  0.6284 -0.3465 -0.7352
  489TMC3    C5 7271   3.660   3.539  17.560 -0.0671 -0.1145  0.1379
  489TMC3    C6 7272   3.708   3.666  17.556 -0.1704 -0.4665 -0.1548
  489TMC3     C 7273   3.654   3.458  17.205 -0.3422 -0.1305 -0.3362
  489TMC3     O 7274   3.562   3.377  17.213 -0.1679 -0.0730  0.5083
  489TMC3     H 7275   3.821   3.678  17.242 -2.2588  0.5827 -1.0379
  489TMC3    H1 7276   3.615   3.361  17.442 -1.1419  0.4450 -2.1914
  489TMC3    H2 7277   3.700   3.735  17.639 -0.3626 -2.6368  1.6205
  489TMC3    C7 7278   3.655   3.467  17.684  0.0614 -0.4473  0.6889
  489TMC3    C8 7279   3.808   3.842  17.423 -0.2432  1.1071  0.2192
  489TMC3    O1 7280   3.681   3.346  17.677  0.6140 -0.5429  0.3424
  489TMC3    O2 7281   3.904   3.860  17.349 -0.4410  0.4599  0.0639
  490MPD2     C 7282   4.651   2.566  17.236 -0.4917  0.2563  0.2111
  490MPD2    C1 7283   4.614   2.536  17.365  0.5124  0.0214  0.1944
  490MPD2    C2 7284   4.705   2.578  17.458  0.2750  0.2933 -0.4701
  490MPD2    C3 7285   0.108   2.632  17.436 -0.0724  0.1338 -0.2413
  490MPD2    C4 7286   0.140   2.653  17.307 -1.2685 -0.4066 -0.1129
  490MPD2    C5 7287   0.049   2.621  17.209  0.0183 -0.3941 -0.1870
  490MPD2     H 7288   4.673   2.558  17.560  2.4147 -3.0567 -0.4363
  490MPD2    H1 7289   0.242   2.680  17.283 -0.3486 -3.4406  0.3700
  490MPD2    H2 7290   4.599   2.539  17.145 -1.1953 -0.1469  0.7302
  490MPD2    H3 7291   0.068   2.646  17.105 -1.8641 -1.0304 -0.6886
  490MPD2     N 7292   0.207   2.668  17.538 -0.6731  0.5693 -0.1907
  490MPD2    H5 7293   0.290   2.721  17.515  0.6336 -0.9936  0.9227
  490MPD2    N1 7294   4.502   2.463  17.402  0.1570 -0.4924  0.0969
  490MPD2    H7 7295   4.481   2.452  17.501  2.3212 -0.2102  0.5788
  491TMC3    C1 7296   4.308   2.324  17.389 -0.5252 -1.2229  0.3455
  491TMC3    C2 7297   4.258   2.373  17.500  0.2924 -0.0606 -0.4628
  491TMC3    C3 7298   4.148   2.318  17.555  0.3001  0.2596 -0.4028
  491TMC3    C4 7299   4.250   2.217  17.328 -0.1107  0.2211  0.0465
  491TMC3    C5 7300   4.137   2.167  17.386 -0.5019  0.4313 -0.2055
  491TMC3    C6 7301   4.072   2.221  17.495 -0.2494  0.3409  0.1509
  491TMC3     C 7302   4.417   2.392  17.317  0.8387  0.0044  0.0775
  491TMC3     O 7303   4.437   2.362  17.197  0.3079 -0.4427  0.0257
  491TMC3     H 7304   4.303   2.459  17.548  1.8402  0.1139 -2.2239
  491TMC3    H1 7305   4.310   2.170  17.251  2.6620 -0.6825  2.7094
  491TMC3    H2 7306   3.981   2.179  17.536  0.3723  0.3998  1.6186
  491TMC3    C7 7307   4.071   2.057  17.316  0.4006  0.3638  0.3805
  491TMC3    C8 7308   4.094   2.368  17.685 -0.4428  0.7474  0.4915
  491TMC3    O1 7309   4.120   2.047  17.201 -0.0293  0.3752  0.0686
  491TMC3    O2 7310   3.982   2.325   0.030  0.1541  0.5146  0.4100
  492MPD2     C 7311   4.578   2.216  11.313 -0.0417  0.1177 -0.1082
  492MPD2    C1 7312   4.472   2.174  11.247  0.5164 -0.6757  0.5321
  492MPD2    C2 7313   4.363   2.104  11.310  0.1359 -0.1772 -0.2945
  492MPD2    C3 7314   4.376   2.069  11.442  0.2873  0.3088  0.0885
  492MPD2    C4 7315   4.496   2.102  11.505  0.2743  0.6888 -0.6053
  492MPD2    C5 7316   4.595   2.172  11.439 -0.5487 -0.2139  0.5918
  492MPD2     H 7317   4.279   2.067  11.253 -0.0972  0.6403 -0.4738
  492MPD2    H1 7318   4.523   2.072  11.605 -0.4216 -1.9724 -1.1964
  492MPD2    H2 7319   4.659   2.262  11.258  0.9672 -1.5538 -0.0283
  492MPD2    H3 7320   4.685   2.203  11.490 -0.9072  0.9347  0.5116
  492MPD2     N 7321   4.278   1.994  11.510  0.2196  0.4176 -0.2657
  492MPD2    H5 7322   4.307   1.960  11.601  0.4230 -0.4350 -0.6466
  492MPD2    N1 7323   4.465   2.225  11.112  0.2199 -0.2459 -0.7599
  492MPD2    H7 7324   4.542   2.285  11.085  2.8293 -2.9817  0.5808
  493TMC3    C1 7325   4.369   2.273  10.894 -1.0553  0.2048 -0.3750
  493TMC3    C2 7326   4.441   2.383  10.874  0.7216  0.1754 -0.0783
  493TMC3    C3 7327   4.440   2.455  10.761 -0.6712 -0.0800 -0.2664
  493TMC3    C4 7328   4.306   2.213  10.790  0.6046  0.5240 -0.9485
  493TMC3    C5 7329   4.306   2.283  10.678 -0.1135  0.4017 -0.1544
  493TMC3    C6 7330   4.357   2.409  10.654 -0.2573 -0.3490 -0.1638
  493TMC3     C 7331   4.376   2.188  11.011 -0.9931  0.0133 -0.0958
  493TMC3     O 7332   4.297   2.093  11.014 -0.0702 -0.0788  0.0985
  493TMC3     H 7333   4.501   2.430  10.951  1.1638 -0.9688  0.2753
  493TMC3    H1 7334   4.262   2.115  10.805 -1.4516  1.4597 -0.9141
  493TMC3    H2 7335   4.354   2.457  10.557  0.6034  1.7601  0.8337
  493TMC3    C7 7336   4.230   2.230  10.569 -0.4730  0.3756 -0.2773
  493TMC3    C8 7337   4.539   2.564  10.743 -0.1963 -0.0709 -0.1415
  493TMC3    O1 7338   4.185   2.317  10.490  0.3102 -0.6027  0.0257
  493TMC3    O2 7339   4.630   2.561  10.823 -0.5049 -0.2686  0.2909
  494TMC3    C1 7340   0.032   4.619   0.214  0.1151  0.1138  0.6688
  494TMC3    C2 7341   0.035   4.490   0.250  0.5302 -0.6709  0.4819
  494TMC3    C3 7342   0.146   4.420   0.217 -0.0890  0.5146 -0.0326
  494TMC3    C4 7343   0.136   4.688   0.155  0.5110 -0.6983  0.6245
  494TMC3    C5 7344   0.242   4.615   0.114  0.3975  0.2479  0.1826
  494TMC3    C6 7345   0.246   4.482   0.143 -0.2185  0.2425  0.2648
  494TMC3     C 7346   4.682   4.698   0.312 -0.2428 -0.5160  0.5438
  494TMC3     O 7347   4.571   0.022   0.287  0.3474 -0.6746  0.7132
  494TMC3     H 7348   4.677   4.459   0.317  1.1720 -2.1164  0.5673
  494TMC3    H1 7349   0.121   0.070   0.123  0.8223  0.1162  3.1309
  494TMC3    H2 7350   0.328   4.412   0.128 -0.1737  0.0934  1.1808
  494TMC3    C7 7351   0.357   4.675   0.053 -0.7774  0.1141  0.9999
  494TMC3    C8 7352   0.156   4.285   0.259  0.1881  0.1894 -0.0904
  494TMC3    O1 7353   0.432   4.593   0.004 -0.3745  0.0884 -0.2013
  494TMC3    O2 7354   0.265   4.241   0.285 -0.3840  0.0213 -0.4571
  495TMC3    C1 7355   4.095   1.298  14.820 -0.1881 -0.2210  0.1155
  495TMC3    C2 7356   4.070   1.368  14.707  0.2346 -0.4627  0.8161
  495TMC3    C3 7357   3.970   1.457  14.705  0.6839 -0.4209 -0.0588
  495TMC3    C4 7358   4.034   1.330  14.940  0.0762  0.8355 -0.3016
  495TMC3    C5 7359   3.949   1.430  14.941 -0.3127  0.4577 -0.5894
  495TMC3    C6 7360   3.914   1.495  14.827  0.8485  0.1613  0.4755
  495TMC3     C 7361   4.136   1.155  14.788  0.2591  0.2491 -0.0447
  495TMC3     O 7362   4.163   1.122  14.671 -0.4509  0.1450 -0.0324
  495TMC3     H 7363   4.124   1.346  14.616  0.9135 -0.2111  1.1549
  495TMC3    H1 7364   4.046   1.267  15.027 -0.0201 -2.1441 -2.4374
  495TMC3    H2 7365   3.840   1.575  14.825  3.0038  2.1582  0.2458
  495TMC3    C7 7366   3.851   1.429  15.047  0.7828 -0.7618 -0.0721
  495TMC3    C8 7367   3.884   1.462  14.597 -0.0642  0.2293  0.3652
  495TMC3    O1 7368   3.889   1.373  15.149 -0.2105  0.1799  0.2097
  495TMC3    O2 7369   3.784   1.535  14.603 -0.1270  0.3561  0.0620
  496MPD2     C 7370   1.382   1.734  15.044  0.0382  0.4193  0.5167
  496MPD2    C1 7371   1.453   1.725  15.163 -0.4397  0.4029  0.9317
  496MPD2    C2 7372   1.399   1.778  15.281 -0.0942 -0.0306  0.3679
  496MPD2    C3 7373   1.269   1.832  15.280 -0.2777  0.1814  0.3949
  496MPD2    C4 7374   1.202   1.835  15.154  0.9731  0.8006 -0.6954
  496MPD2    C5 7375   1.263   1.801  15.038 -0.4614 -0.2158 -0.4638
  496MPD2     H 7376   1.458   1.771  15.372  1.1935 -1.5096 -0.5785
  496MPD2    H1 7377   1.104   1.880  15.165  1.1427  1.1887 -0.7820
  496MPD2    H2 7378   1.430   1.688  14.958 -0.5132 -0.1591  0.5173
  496MPD2    H3 7379   1.205   1.807  14.947 -0.7266  2.3416 -0.1421
  496MPD2     N 7380   1.189   1.859  15.400  0.8444  0.2044 -0.1106
  496MPD2    H5 7381   1.093   1.888  15.386  0.8007 -0.0408 -0.3262
  496MPD2    N1 7382   1.577   1.664  15.147 -0.3438  0.4453  0.3426
  496MPD2    H7 7383   1.594   1.619  15.058 -1.1170  0.5925  0.1171
  497TMC3    C1 7384   1.137   1.933  15.616 -0.3095  0.4051 -0.5918
  497TMC3    C2 7385   1.004   1.887  15.610 -0.3831 -0.0905  0.2714
  497TMC3    C3 7386   0.923   1.935  15.709  0.7767 -0.7383 -0.6652
  497TMC3    C4 7387   1.183   2.015  15.718 -0.0593  0.3495 -0.6944
  497TMC3    C5 7388   1.093   2.055  15.812 -0.2155 -0.3579 -0.0628
  497TMC3    C6 7389   0.963   2.023  15.807 -0.7900 -0.2256  0.5190
  497TMC3     C 7390   1.239   1.868  15.528  0.2997 -0.6597  0.3453
  497TMC3     O 7391   1.353   1.859  15.575 -0.6209 -0.3520  0.5239
  497TMC3     H 7392   0.952   1.842  15.526  1.1825 -1.2763 -0.0635
  497TMC3    H1 7393   1.285   2.051  15.720 -0.5096  1.6395 -1.6717
  497TMC3    H2 7394   0.898   2.048  15.890  0.8915 -0.0056  1.7610
  497TMC3    C7 7395   1.138   2.111  15.943 -0.2348  0.1888  0.1321
  497TMC3    C8 7396   0.811   1.847  15.725  0.2624  0.3683  0.0877
  497TMC3    O1 7397   1.064   2.188  16.000 -0.3906 -0.0519  0.2096
  497TMC3    O2 7398   0.829   1.733  15.683  0.5301 -0.0914  0.6149
  498MPD2     C 7399   2.256   2.210   9.639  0.3509 -0.0149 -0.3342
  498MPD2    C1 7400   2.180   2.294   9.725  0.0535 -0.3914  0.5589
  498MPD2    C2 7401   2.062   2.249   9.764  0.9796  0.5112 -0.7649
  498MPD2    C3 7402   2.009   2.128   9.732 -0.5275 -0.0821  0.0569
  498MPD2    C4 7403   2.092   2.043   9.658 -0.2570  0.0313  0.0025
  498MPD2    C5 7404   2.209   2.087   9.615 -0.3007  0.2194 -0.4534
  498MPD2     H 7405   2.005   2.315   9.828  1.9886  0.9659 -0.3432
  498MPD2    H1 7406   2.064   1.945   9.621  1.9133 -0.8507  0.6921
  498MPD2    H2 7407   2.360   2.227   9.611 -0.3788  0.4199 -2.7184
  498MPD2    H3 7408   2.281   2.024   9.565 -0.8645 -0.8898  0.1309
  498MPD2     N 7409   1.883   2.093   9.774  0.2761 -0.3163  0.4888
  498MPD2    H5 7410   1.815   2.162   9.804  0.8558  0.3893  0.1602
  498MPD2    N1 7411   2.228   2.417   9.773 -0.0736 -0.3951  0.4008
  498MPD2    H7 7412   2.167   2.469   9.836  0.0131  0.1495  0.0278
  499TMC3    C1 7413   2.384   2.581   9.809  0.9912  0.0349 -0.2079
  499TMC3    C2 7414   2.511   2.611   9.828  0.2440 -0.8694 -0.0217
  499TMC3    C3 7415   2.557   2.740   9.818  0.4588 -0.2180 -0.0433
  499TMC3    C4 7416   2.289   2.675   9.782  0.1652  0.3278 -1.0012
  499TMC3    C5 7417   2.331   2.807   9.781  0.4835  1.0433 -0.0729
  499TMC3    C6 7418   2.463   2.841   9.800 -0.1383 -0.2770 -0.6457
  499TMC3     C 7419   2.361   2.445   9.783  0.1472  0.4184 -0.9166
  499TMC3     O 7420   2.454   2.365   9.784  0.5840  0.4590  0.0725
  499TMC3     H 7421   2.583   2.535   9.854  1.4955 -0.5947 -2.6962
  499TMC3    H1 7422   2.188   2.647   9.752  0.4529 -0.8789 -0.8414
  499TMC3    H2 7423   2.495   2.943   9.814  1.5621 -0.8700 -0.1638
  499TMC3    C7 7424   2.240   2.916   9.774 -0.7144  0.3095  0.4393
  499TMC3    C8 7425   2.678   2.770   9.898 -0.8269  0.5734  0.5104
  499TMC3    O1 7426   2.291   3.024   9.774 -0.1382  0.4158  0.9113
  499TMC3    O2 7427   2.738   2.675   9.952  0.1727  0.0675  0.2077
  500MPD2     C 7428   3.365   3.025  10.623  0.4248  0.0908 -0.4452
  500MPD2    C1 7429   3.405   3.143  10.560  0.3826 -0.1768 -0.7380
  500MPD2    C2 7430   3.301   3.216  10.504 -0.8965 -0.1908 -0.2676
  500MPD2    C3 7431   3.170   3.185  10.526  0.1478 -0.2598  0.2283
  500MPD2    C4 7432   3.136   3.073  10.591  0.0986  0.0392 -0.5562
  500MPD2    C5 7433   3.233   2.996  10.649 -0.1943 -0.2691  0.0608
  500MPD2     H 7434   3.322   3.316  10.469 -0.4348  0.0560  0.7129
  500MPD2    H1 7435   3.035   3.041  10.614 -0.1923  1.2487 -0.1783
  500MPD2    H2 7436   3.440   2.959  10.664 -0.5633 -0.7756 -0.0283
  500MPD2    H3 7437   3.199   2.910  10.705  2.3874 -1.1358  0.3115
  500MPD2     N 7438   3.067   3.272  10.487 -0.5022  0.8421  0.9849
  500MPD2    H5 7439   2.975   3.240  10.515 -0.6100 -0.3896 -0.7470
  500MPD2    N1 7440   3.540   3.184  10.560 -0.4328  0.4579  0.5581
  500MPD2    H7 7441   3.607   3.133  10.616 -0.8063 -1.0718 -0.3940
  501TMC3    C1 7442   3.727   3.325  10.500  0.3655  0.4158  0.2381
  501TMC3    C2 7443   3.758   3.422  10.406  0.6354  0.5857  0.3147
  501TMC3    C3 7444   3.859   3.510  10.428 -0.0527  0.6179 -1.3221
  501TMC3    C4 7445   3.793   3.312  10.617 -0.5955  0.5813 -0.5094
  501TMC3    C5 7446   3.897   3.401  10.632 -0.3206 -0.2300  0.2058
  501TMC3    C6 7447   3.930   3.501  10.544  0.5563  0.1950 -0.1285
  501TMC3     C 7448   3.585   3.290  10.487 -0.4025 -0.2313 -0.6014
  501TMC3     O 7449   3.526   3.346  10.395  0.0297  0.3663  0.2383
  501TMC3     H 7450   3.709   3.427  10.310 -0.3248 -0.1438  0.7575
  501TMC3    H1 7451   3.779   3.220  10.672  0.9345  1.2484  0.9950
  501TMC3    H2 7452   4.018   3.563  10.549  1.1856 -0.7630  0.5818
  501TMC3    C7 7453   3.997   3.362  10.731  0.0136 -0.5366 -0.7877
  501TMC3    C8 7454   3.892   3.617  10.334  0.0375 -0.2267 -0.5385
  501TMC3    O1 7455   3.984   3.250  10.780 -0.1298  0.0159  0.5054
  501TMC3    O2 7456   4.003   3.664  10.347 -0.3638  0.0161 -0.5845
  502TMC3    C1 7457   2.505   2.258  15.579  0.4041  0.0037  0.1831
  502TMC3    C2 7458   2.594   2.356  15.551  0.2257 -0.2011  0.3370
  502TMC3    C3 7459   2.524   2.475  15.512 -0.4191 -0.0037 -0.1834
  502TMC3    C4 7460   2.371   2.268  15.593  0.8608 -0.7195  0.2941
  502TMC3    C5 7461   2.313   2.387  15.571  0.3426 -0.3211  0.4825
  502TMC3    C6 7462   2.390   2.488  15.529 -0.3746 -0.3683 -0.2757
  502TMC3     C 7463   2.554   2.129  15.619 -0.1838  0.5678  0.7239
  502TMC3     O 7464   2.469   2.054  15.669 -0.5260 -0.7209  0.7796
  502TMC3     H 7465   2.700   2.357  15.572  0.0155  2.1477  1.2743
  502TMC3    H1 7466   2.306   2.184  15.614 -1.1358  0.5499 -0.8066
  502TMC3    H2 7467   2.339   2.580  15.501  0.2740  0.7043  2.0955
  502TMC3    C7 7468   2.188   2.409  15.633  0.6329 -0.1016 -0.5353
  502TMC3    C8 7469   2.595   2.575  15.444 -0.1225  0.0822 -0.5667
  502TMC3    O1 7470   2.168   2.352  15.743  0.2864  0.0900 -0.0681
  502TMC3    O2 7471   2.528   2.672  15.421 -0.0718 -0.2630  0.0027
  503MPD2     C 7472   0.758   3.212  17.251 -0.0211 -0.6808 -0.1626
  503MPD2    C1 7473   0.792   3.175  17.378  0.4574 -1.2431 -0.4808
  503MPD2    C2 7474   0.841   3.052  17.412  0.5782  0.3233  0.1351
  503MPD2    C3 7475   0.868   2.963  17.315 -0.7384  0.4295 -0.3497
  503MPD2    C4 7476   0.823   2.997  17.186  0.4805  0.1791 -0.0940
  503MPD2    C5 7477   0.776   3.122  17.156  0.0745 -0.4645 -0.3632
  503MPD2     H 7478   0.884   3.027  17.508  2.4032 -0.9096 -0.9986
  503MPD2    H1 7479   0.832   2.935  17.097  0.1735 -0.4041  0.2789
  503MPD2    H2 7480   0.736   3.313  17.218  0.1594 -1.0405 -1.4025
  503MPD2    H3 7481   0.746   3.148  17.055 -1.6540 -1.9132 -0.2189
  503MPD2     N 7482   0.928   2.837  17.345  0.6040  0.3351  0.0626
  503MPD2    H5 7483   0.941   2.806  17.441  2.0962 -0.4092 -0.3790
  503MPD2    N1 7484   0.781   3.272  17.485 -0.3553  0.3973  0.0586
  503MPD2    H7 7485   0.809   3.246  17.579  3.0703 -1.1197 -1.3715
  504TMC3    C1 7486   1.084   2.664  17.283 -0.0676 -0.2913  0.6363
  504TMC3    C2 7487   1.116   2.662  17.414  0.1450 -0.1997 -0.0292
  504TMC3    C3 7488   1.226   2.579  17.443  0.5151 -0.1915 -0.5956
  504TMC3    C4 7489   1.161   2.599  17.186 -0.6224 -0.1975 -0.3228
  504TMC3    C5 7490   1.256   2.516  17.224 -0.6168  0.4545 -0.4720
  504TMC3    C6 7491   1.294   2.502  17.354 -0.1254  0.0093  0.1680
  504TMC3     C 7492   0.996   2.769  17.242  0.1879  0.7377  0.8270
  504TMC3     O 7493   1.013   2.794  17.122  0.2412  0.3024 -0.0145
  504TMC3     H 7494   1.063   2.721  17.487  2.4744  1.2528  0.4890
  504TMC3    H1 7495   1.158   2.626  17.081 -1.5418 -0.9867 -0.4965
  504TMC3    H2 7496   1.383   2.451  17.389  0.5496  0.1374 -1.3969
  504TMC3    C7 7497   1.352   2.484  17.123  0.1360 -0.4423  0.6736
  504TMC3    C8 7498   1.276   2.592  17.581  0.2754  0.9504  0.1105
  504TMC3    O1 7499   1.352   2.548  17.019  0.2532  0.0138  0.3581
  504TMC3    O2 7500   1.320   2.488  17.631  0.0801 -0.4600  0.3218
  505MPD2     C 7501   0.791   1.741  10.261 -0.2870 -0.0215 -0.7239
  505MPD2    C1 7502   0.747   1.629  10.195 -0.5749  0.1345  1.0458
  505MPD2    C2 7503   0.792   1.505  10.240 -0.4260 -0.0321  0.2325
  505MPD2    C3 7504   0.864   1.498  10.359  0.5166 -0.2026 -0.3379
  505MPD2    C4 7505   0.896   1.615  10.427 -1.1820  0.0963  0.1375
  505MPD2    C5 7506   0.860   1.738  10.379 -0.1157 -0.0599 -0.0049
  505MPD2     H 7507   0.770   1.413  10.188 -1.5490  0.5232 -0.2756
  505MPD2    H1 7508   0.939   1.606  10.526 -1.4052  0.8804  0.3068
  505MPD2    H2 7509   0.752   1.837  10.231 -0.8637  0.2543  0.9566
  505MPD2    H3 7510   0.882   1.829  10.433 -0.5465  0.6063 -0.9443
  505MPD2     N 7511   0.909   1.372  10.414 -0.2035 -0.1175  0.0513
  505MPD2    H5 7512   0.965   1.382  10.498  2.1957 -0.0962 -1.5537
  505MPD2    N1 7513   0.670   1.638  10.074  0.0114  0.0845 -0.1208
  505MPD2    H7 7514   0.663   1.730  10.031  0.8821  1.0673  1.8660
  506TMC3    C1 7515   0.584   1.564   9.865  0.0247  0.2281 -0.3670
  506TMC3    C2 7516   0.659   1.643   9.793  0.0445  0.3747 -0.3137
  506TMC3    C3 7517   0.651   1.632   9.653  0.1862 -0.3645  0.7641
  506TMC3    C4 7518   0.510   1.465   9.806 -0.2048 -0.1128 -0.0551
  506TMC3    C5 7519   0.520   1.441   9.674  0.0646 -0.2567 -0.2136
  506TMC3    C6 7520   0.586   1.529   9.592  0.2359 -0.4564  0.6574
  506TMC3     C 7521   0.629   1.529  10.000 -0.2108 -0.0788 -0.0405
  506TMC3     O 7522   0.619   1.407  10.026 -0.4817 -0.0153  0.4443
  506TMC3     H 7523   0.733   1.705   9.844  0.4186  0.4690 -0.9737
  506TMC3    H1 7524   0.441   1.410   9.868 -2.0572 -1.3146 -3.1806
  506TMC3    H2 7525   0.604   1.514   9.486 -0.0050 -0.0327  0.5581
  506TMC3    C7 7526   0.576   1.308   9.655 -1.1613 -0.0888  0.2722
  506TMC3    C8 7527   0.750   1.695   9.568  0.3405 -0.2324 -0.1132
  506TMC3    O1 7528   0.600   1.270   9.540  0.3363 -0.2131 -0.0371
  506TMC3    O2 7529   0.735   1.708   9.445 -0.4243 -0.1023  0.0250
  507TMC3    C1 7530   1.897   2.233  14.413  0.1593  0.1010 -0.5207
  507TMC3    C2 7531   1.808   2.202  14.314  0.0526  0.8652  0.0937
  507TMC3    C3 7532   1.862   2.177  14.187 -0.1413  0.5529  1.0837
  507TMC3    C4 7533   2.036   2.248  14.390 -0.0514 -0.0506 -0.3566
  507TMC3    C5 7534   2.077   2.256  14.261 -0.0670  0.6352  0.0503
  507TMC3    C6 7535   1.994   2.209  14.157 -0.6446  0.3966 -0.3531
  507TMC3     C 7536   1.849   2.254  14.546 -0.3193  0.1236 -0.2367
  507TMC3     O 7537   1.728   2.269  14.565  0.3604  0.1438 -0.0530
  507TMC3     H 7538   1.702   2.195  14.332 -0.3281  0.5940 -2.3419
  507TMC3    H1 7539   2.103   2.293  14.462 -1.3282  0.0246  0.7862
  507TMC3    H2 7540   2.023   2.216  14.053 -0.4931 -0.5807 -0.3826
  507TMC3    C7 7541   2.138   2.386  14.227 -0.3826  0.0853  0.5082
  507TMC3    C8 7542   1.768   2.213  14.087  0.2438 -0.0320  0.9575
  507TMC3    O1 7543   2.217   2.431  14.304  0.2980 -0.2097 -0.1468
  507TMC3    O2 7544   1.670   2.276  14.135  0.0278  0.1366 -0.3402
  508MPD2     C 7545   3.459   4.524  15.830  0.0269 -0.2899 -0.4520
  508MPD2    C1 7546   3.392   4.598  15.923  0.3537  0.4498  0.7945
  508MPD2    C2 7547   3.298   4.691  15.878  0.8006 -0.6975  0.8154
  508MPD2    C3 7548   3.269   4.710  15.743 -1.0369 -0.3155 -0.1709
  508MPD2    C4 7549   3.338   4.633  15.645 -0.2009 -0.4765 -0.1914
  508MPD2    C5 7550   3.431   4.547  15.697 -0.8339 -0.0577  0.3792
  508MPD2     H 7551   3.246   0.022  15.957  2.0083  1.9226 -0.1194
  508MPD2    H1 7552   3.329   4.657  15.540 -1.2543  1.9416  0.4389
  508MPD2    H2 7553   3.533   4.449  15.857 -0.1741 -0.1294  0.5612
  508MPD2    H3 7554   3.488   4.485  15.629 -3.8417 -1.2492 -1.0676
  508MPD2     N 7555   3.185   0.091  15.705  0.3846 -0.2736  0.1722
  508MPD2    H5 7556   3.163   0.154  15.782 -0.9337 -1.5696  0.8620
  508MPD2    N1 7557   3.412   4.568  16.060  0.4079 -0.6684  0.2740
  508MPD2    H7 7558   3.485   4.506  16.094 -0.0931 -1.6872 -0.5102
  509TMC3    C1 7559   2.972   0.434  15.445  0.1430  0.3713 -0.8869
  509TMC3    C2 7560   3.003   0.527  15.540  0.3394  0.2572  0.6158
  509TMC3    C3 7561   3.080   0.484  15.644  0.1062  0.1804 -0.3808
  509TMC3    C4 7562   3.007   0.300  15.459  0.6170 -0.2322  0.0265
  509TMC3    C5 7563   3.082   0.259  15.565 -0.7772  0.3055  0.7428
  509TMC3    C6 7564   3.125   0.356  15.658  0.0911  0.0101  0.5015
  509TMC3     C 7565   2.893   0.463  15.323 -0.4935 -0.4671  0.2898
  509TMC3     O 7566   2.845   0.370  15.263 -0.2682  0.2264  0.0228
  509TMC3     H 7567   2.957   0.625  15.538  2.8053  1.4067  0.4555
  509TMC3    H1 7568   2.980   0.217  15.395  3.0103 -1.5826  0.7799
  509TMC3    H2 7569   3.206   0.333  15.727  0.4699  0.2129  0.1230
  509TMC3    C7 7570   3.137   0.122  15.577 -0.4040  0.0445 -0.6081
  509TMC3    C8 7571   3.142   0.571  15.740  0.4882 -0.3745 -0.1800
  509TMC3    O1 7572   3.139   0.046  15.479 -0.1074 -0.4993 -0.2842
  509TMC3    O2 7573   3.199   0.513  15.834  0.5493  0.2347 -0.3671
  510MPD2     C 7574   0.597   2.034  14.541  0.0835 -0.6061 -0.8318
  510MPD2    C1 7575   0.708   2.027  14.621 -0.0215 -0.4731  0.7087
  510MPD2    C2 7576   0.831   1.996  14.570 -0.7806  0.3876  0.5835
  510MPD2    C3 7577   0.845   1.969  14.430  0.5408 -0.6554  0.1197
  510MPD2    C4 7578   0.734   1.989  14.350 -0.0040 -1.0670 -0.2952
  510MPD2    C5 7579   0.610   2.024  14.400 -0.1017  0.1598 -0.2929
  510MPD2     H 7580   0.914   1.963  14.632 -1.1988 -0.1642  0.8531
  510MPD2    H1 7581   0.750   1.981  14.243  2.3772 -1.1788  0.0564
  510MPD2    H2 7582   0.493   2.055  14.567  0.7378  2.6442 -0.9058
  510MPD2    H3 7583   0.525   2.041  14.335  0.3924 -4.0275 -2.0207
  510MPD2     N 7584   0.971   1.928  14.381 -0.1557  0.1112  0.6903
  510MPD2    H5 7585   1.040   1.923  14.455  0.0116 -1.5368  0.4203
  510MPD2    N1 7586   0.677   2.013  14.758 -0.0640  0.5774  0.3631
  510MPD2    H7 7587   0.579   2.006  14.782 -0.2541  1.8533 -0.0601
  511TMC3    C1 7588   0.712   1.924  14.973  0.4578 -0.4877  0.6525
  511TMC3    C2 7589   0.582   1.941  15.017 -0.3434 -0.1106 -0.5653
  511TMC3    C3 7590   0.519   1.848  15.105 -0.7552  0.0409 -0.1561
  511TMC3    C4 7591   0.779   1.816  15.024  0.7004  0.5877  0.0524
  511TMC3    C5 7592   0.721   1.726  15.108 -0.3712 -0.9988 -0.0202
  511TMC3    C6 7593   0.596   1.749  15.154  0.1689  0.2037  0.2522
  511TMC3     C 7594   0.768   1.995  14.863  0.4942  0.1006 -0.4651
  511TMC3     O 7595   0.886   2.013  14.863  0.3431 -0.2354 -0.0407
  511TMC3     H 7596   0.529   2.031  14.989 -1.2851 -0.1047  1.2069
  511TMC3    H1 7597   0.882   1.822  14.990  1.1099  0.2040  1.2157
  511TMC3    H2 7598   0.556   1.676  15.223  1.1313 -0.4656  0.1003
  511TMC3    C7 7599   0.775   1.590  15.099 -0.0046  0.8741 -0.1158
  511TMC3    C8 7600   0.406   1.903  15.173  0.5239  0.1727  0.1148
  511TMC3    O1 7601   0.892   1.584  15.064  0.1583 -0.2010  0.0382
  511TMC3    O2 7602   0.373   2.015  15.148  0.3139  0.0821 -0.4802
  512TMC3    C1 7603   3.665   1.293  13.137  0.1850 -0.0491  0.7889
  512TMC3    C2 7604   3.786   1.249  13.167  0.3540 -0.1860 -0.5539
  512TMC3    C3 7605   3.799   1.111  13.158 -0.5765 -0.0379  0.1117
  512TMC3    C4 7606   3.557   1.207  13.105  0.2099  0.6397  0.7135
  512TMC3    C5 7607   3.579   1.073  13.094 -0.3150  0.3209  0.0742
  512TMC3    C6 7608   3.705   1.028  13.113  0.2309 -0.1387  0.1090
  512TMC3     C 7609   3.641   1.441  13.129 -0.5582 -0.2101  0.6744
  512TMC3     O 7610   3.734   1.507  13.167  0.2160  0.6437  0.0961
  512TMC3     H 7611   3.870   1.309  13.199  0.5459 -1.3271  1.0307
  512TMC3    H1 7612   3.457   1.246  13.121 -1.0127 -2.6946  1.2060
  512TMC3    H2 7613   3.730   0.922  13.117  0.1604 -0.1213  0.9463
  512TMC3    C7 7614   3.475   1.000  13.012  0.1990 -0.5353  0.4591
  512TMC3    C8 7615   3.943   1.071  13.160  0.0699 -0.7285 -0.1153
  512TMC3    O1 7616   3.387   1.069  12.963  0.3128  0.1228  0.1610
  512TMC3    O2 7617   3.966   0.965  13.105 -0.0500 -0.1253  0.0356
  513MPD2     C 7618   1.003   0.657  12.011 -0.2068 -0.0213  0.2846
  513MPD2    C1 7619   1.106   0.564  12.052 -0.6326  0.6585 -0.1178
  513MPD2    C2 7620   1.085   0.491  12.169  0.4885 -0.0357  0.2971
  513MPD2    C3 7621   0.980   0.522  12.253  0.2308 -0.1882 -0.0940
  513MPD2    C4 7622   0.896   0.623  12.222  0.3399  0.1312  0.7341
  513MPD2    C5 7623   0.908   0.689  12.102 -0.3450  0.4306 -0.1352
  513MPD2     H 7624   1.146   0.414  12.215  2.1916  0.7286 -0.6668
  513MPD2    H1 7625   0.821   0.658  12.293 -0.0735 -2.3877  1.5238
  513MPD2    H2 7626   1.029   0.722  11.928 -0.8721  0.0478  0.1325
  513MPD2    H3 7627   0.851   0.780  12.086  0.0173  0.7134  0.1837
  513MPD2     N 7628   0.976   0.454  12.382 -0.6749 -0.5628  0.7277
  513MPD2    H5 7629   1.055   0.392  12.396 -2.7339 -3.3060  0.2121
  513MPD2    N1 7630   1.211   0.539  11.967  0.5085 -0.2330  0.9090
  513MPD2    H7 7631   1.223   0.597  11.884 -1.0435  0.4875  1.1928
  514TMC3    C1 7632   1.403   0.431  11.881 -0.1541 -0.0127 -0.1939
  514TMC3    C2 7633   1.345   0.379  11.768 -0.6176 -0.5565  0.3458
  514TMC3    C3 7634   1.423   0.289  11.701  0.2329  0.0148  0.0439
  514TMC3    C4 7635   1.516   0.381  11.937  0.2277  0.1266 -0.4036
  514TMC3    C5 7636   1.582   0.282  11.870 -0.5509  0.1421 -0.1660
  514TMC3    C6 7637   1.541   0.238  11.746  0.0169 -0.5523 -0.1705
  514TMC3     C 7638   1.301   0.438  11.987  0.4725  0.0918  0.4757
  514TMC3     O 7639   1.312   0.348  12.071  0.4753 -0.0796 -0.6590
  514TMC3     H 7640   1.240   0.390  11.743 -0.1124  3.1098 -0.1875
  514TMC3    H1 7641   1.554   0.418  12.031 -0.8710  2.4857 -0.8838
  514TMC3    H2 7642   1.604   0.169  11.691 -0.7204  0.3681 -2.1710
  514TMC3    C7 7643   1.634   0.183  11.969 -0.1683  0.0641 -0.0783
  514TMC3    C8 7644   1.428   0.297  11.551 -0.7544 -0.2513  0.1853
  514TMC3    O1 7645   1.752   0.161  11.977 -0.1628 -0.3209 -0.0086
  514TMC3    O2 7646   1.479   0.216  11.473  0.8557  0.1818 -0.2978
  515MPD2     C 7647   3.726   3.516  15.192 -0.1195  0.7042 -0.0390
  515MPD2    C1 7648   3.798   3.418  15.254  0.1669 -0.7687 -0.0856
  515MPD2    C2 7649   3.930   3.435  15.263 -0.0694 -0.6704 -0.0240
  515MPD2    C3 7650   4.003   3.536  15.207  0.2918  0.0854  0.3986
  515MPD2    C4 7651   3.931   3.637  15.163 -0.1420 -0.1025  0.0190
  515MPD2    C5 7652   3.794   3.633  15.162 -0.0194  0.6897  0.5295
  515MPD2     H 7653   3.983   3.366  15.328  0.2697 -1.9977 -1.7028
  515MPD2    H1 7654   3.979   3.724  15.118 -0.2001 -0.0289  0.0991
  515MPD2    H2 7655   3.618   3.510  15.188 -0.1846  2.1207 -0.3820
  515MPD2    H3 7656   3.751   3.719  15.111  0.4227  0.4524 -0.2361
  515MPD2     N 7657   4.141   3.541  15.194  0.2981  0.9410 -0.5660
  515MPD2    H5 7658   4.182   3.629  15.164  0.0218  1.0430 -0.6380
  515MPD2    N1 7659   3.731   3.303  15.285  0.4270  0.0343  0.7554
  515MPD2    H7 7660   3.645   3.289  15.233  1.7016  1.3868 -1.6861
  516TMC3    C1 7661   3.724   3.065  15.323 -0.0432  0.1084  0.3058
  516TMC3    C2 7662   3.663   3.058  15.204  0.3746 -0.3318  0.2115
  516TMC3    C3 7663   3.643   2.932  15.153  0.7140  0.7168  0.1208
  516TMC3    C4 7664   3.758   2.959  15.403  0.4460  0.3677 -0.1540
  516TMC3    C5 7665   3.731   2.838  15.348  0.0878  0.5589 -0.2978
  516TMC3    C6 7666   3.674   2.823  15.230 -0.9477  0.1519  0.1245
  516TMC3     C 7667   3.775   3.195  15.361  0.0978 -0.6300  0.0487
  516TMC3     O 7668   3.871   3.195  15.436 -0.5871  0.4224 -0.4244
  516TMC3     H 7669   3.643   3.143  15.140 -0.1357  0.0238  0.8358
  516TMC3    H1 7670   3.812   2.966  15.496  3.0662 -2.8876 -1.4690
  516TMC3    H2 7671   3.647   2.725  15.192  0.6258 -0.3191  0.1986
  516TMC3    C7 7672   3.799   2.722  15.410  0.3546  0.0410  0.4775
  516TMC3    C8 7673   3.644   2.928  15.008 -0.1696  0.6158 -0.8312
  516TMC3    O1 7674   3.884   2.740  15.493 -0.1258  0.3108 -0.4131
  516TMC3    O2 7675   3.597   3.021  14.943 -0.2088  0.3479 -0.3502
  517MPD2     C 7676   4.001   0.143  17.580 -0.1322  0.0508 -0.6832
  517MPD2    C1 7677   4.102   0.103  17.673  0.3558  0.3727 -0.4394
  517MPD2    C2 7678   4.121   0.162   0.106  0.1043  0.1986  0.6274
  517MPD2    C3 7679   4.046   0.271   0.139  0.2613 -0.2151 -0.8606
  517MPD2    C4 7680   3.950   0.314   0.051  0.4927  0.0061 -0.0672
  517MPD2    C5 7681   3.933   0.257  17.612  1.1453  0.3520  0.5939
  517MPD2     H 7682   4.198   0.116   0.167  0.9305  1.5433  0.5982
  517MPD2    H1 7683   3.899   0.401   0.089 -0.3665 -0.9055  0.8343
  517MPD2    H2 7684   3.979   0.099  17.484  0.2440 -0.1600 -0.6726
  517MPD2    H3 7685   3.860   0.287  17.537  1.5712  1.7516  0.7386
  517MPD2     N 7686   4.054   0.320   0.271  0.9758 -0.3521 -0.1761
  517MPD2    H5 7687   4.134   0.292   0.327 -0.4604 -1.4671  1.2783
  517MPD2    N1 7688   4.168   4.699  17.648 -0.5378  0.5917  0.2416
  517MPD2    H7 7689   4.254   4.680   0.012  0.5311  3.9172 -0.3059
  518TMC3    C1 7690   4.191   4.472  17.561 -0.4191  0.2497 -0.2563
  518TMC3    C2 7691   4.125   4.352  17.569  0.6963  1.1525 -0.2397
  518TMC3    C3 7692   4.198   4.235  17.569  0.3921  0.1516 -0.5762
  518TMC3    C4 7693   4.326   4.478  17.572 -0.5555  0.2995  0.0834
  518TMC3    C5 7694   4.396   4.361  17.552 -0.1381  0.0237 -0.4789
  518TMC3    C6 7695   4.332   4.238  17.542  0.4667 -0.0953  0.1046
  518TMC3     C 7696   4.109   4.595  17.572  0.5890  0.2739  0.0356
  518TMC3     O 7697   3.993   4.588  17.539 -0.3063 -0.8001 -0.0375
  518TMC3     H 7698   4.018   4.348  17.554  1.0382 -0.9669 -1.9857
  518TMC3    H1 7699   4.375   4.575  17.577  1.2333 -0.5858 -0.2404
  518TMC3    H2 7700   4.384   4.143  17.546  0.2130 -0.2036  0.9251
  518TMC3    C7 7701   4.537   4.359  17.564 -0.2140 -0.7583  0.9308
  518TMC3    C8 7702   4.127   4.108  17.579 -0.0429  0.3211  0.6469
  518TMC3    O1 7703   4.571   4.413  17.669  0.9556  0.3308  0.2401
  518TMC3    O2 7704   4.175   4.010  17.529  0.2230 -0.4822 -0.1967
  519MPD2     C 7705   0.625   2.687  14.651 -0.6719  0.5670 -0.3528
  519MPD2    C1 7706   0.559   2.637  14.536 -0.0005  0.6972 -0.3037
  519MPD2    C2 7707   0.626   2.559  14.448 -0.2452  0.3693  0.4290
  519MPD2    C3 7708   0.761   2.535  14.458 -0.5470  0.1533 -0.6386
  519MPD2    C4 7709   0.825   2.578  14.568 -0.0763 -0.0128  0.2268
  519MPD2    C5 7710   0.755   2.644  14.664 -0.3243  0.2034  0.5828
  519MPD2     H 7711   0.572   2.505  14.371 -0.9539  0.8711  0.5700
  519MPD2    H1 7712   0.926   2.548  14.593  0.4358  0.9832 -0.6667
  519MPD2    H2 7713   0.583   2.745  14.732  0.3117 -2.7091  2.5530
  519MPD2    H3 7714   0.803   2.675  14.756  1.5787 -2.0744  0.3444
  519MPD2     N 7715   0.832   2.462  14.362 -0.2489  0.4076  0.1643
  519MPD2    H5 7716   0.934   2.464  14.368 -0.3365  0.6996  1.4267
  519MPD2    N1 7717   0.419   2.669  14.524 -0.2527  0.1700  0.0226
  519MPD2    H7 7718   0.371   2.724  14.594 -3.0437 -0.6230 -1.2742
  520TMC3    C1 7719   0.877   2.338  14.167 -0.2853  0.2306  0.8908
  520TMC3    C2 7720   0.831   2.345  14.041  0.4632 -1.4682 -0.2344
  520TMC3    C3 7721   0.917   2.289  13.949  0.8415  0.1750 -0.0670
  520TMC3    C4 7722   1.001   2.289  14.196  0.8291 -0.1853 -0.4561
  520TMC3    C5 7723   1.085   2.238  14.099  0.0648  0.3491  0.1102
  520TMC3    C6 7724   1.039   2.237  13.971  0.1505  0.6451 -0.0578
  520TMC3     C 7725   0.779   2.384  14.266 -0.4375 -0.1391 -0.0370
  520TMC3     O 7726   0.664   2.358  14.233 -0.3514 -0.1357 -0.3994
  520TMC3     H 7727   0.744   2.403  14.011  1.4205  0.2017  0.2222
  520TMC3    H1 7728   1.034   2.286  14.299  2.0157 -0.0204 -0.8328
  520TMC3    H2 7729   1.103   2.200  13.891  1.3098  0.3818  0.9847
  520TMC3    C7 7730   1.211   2.176  14.141 -0.5917 -0.3586 -0.0605
  520TMC3    C8 7731   0.873   2.247  13.817  0.1968  0.4194 -0.3329
  520TMC3    O1 7732   1.236   2.162  14.259 -0.1970  0.1781 -0.4546
  520TMC3    O2 7733   0.947   2.215  13.725 -0.0154 -0.6625  0.0282
  521MPD2     C 7734   2.384   1.028  17.364 -0.1741  0.2064  0.2189
  521MPD2    C1 7735   2.330   0.947  17.267  0.7443  0.7268 -0.3099
  521MPD2    C2 7736   2.418   0.873  17.189 -0.2959 -0.3285 -0.1333
  521MPD2    C3 7737   2.551   0.867  17.200 -0.4987 -0.6722 -0.2793
  521MPD2    C4 7738   2.598   0.954  17.287  0.2209  0.1797 -0.4277
  521MPD2    C5 7739   2.522   1.033  17.365  0.5840 -0.2601  0.5345
  521MPD2     H 7740   2.376   0.810  17.112  0.9070 -1.7182  0.3253
  521MPD2    H1 7741   2.705   0.968  17.298  0.0985  1.4134 -0.7526
  521MPD2    H2 7742   2.316   1.069  17.437  0.5751  1.9037 -0.0409
  521MPD2    H3 7743   2.564   1.090  17.448  0.2326  1.5559 -0.5273
  521MPD2     N 7744   2.625   0.769  17.127  0.4552  0.1178  0.8454
  521MPD2    H5 7745   2.578   0.710  17.060  1.3782 -1.4202  1.5654
  521MPD2    N1 7746   2.188   0.947  17.257 -0.1654 -0.0265  0.1446
  521MPD2    H7 7747   2.145   1.026  17.305  0.5132  1.0180 -0.9739
  522TMC3    C1 7748   2.808   0.652  17.048  0.4045 -0.2346 -0.2819
  522TMC3    C2 7749   2.887   0.556  17.091 -0.5837  0.0559  0.2094
  522TMC3    C3 7750   2.940   0.471  17.001  0.2829  0.2783 -1.2218
  522TMC3    C4 7751   2.776   0.669  16.914  0.1144  0.2177 -0.7358
  522TMC3    C5 7752   2.838   0.581  16.829  0.2340 -0.5539  0.1720
  522TMC3    C6 7753   2.921   0.484  16.869 -0.0363 -0.1425  0.1739
  522TMC3     C 7754   2.760   0.743  17.147 -0.4351 -0.5648  0.6846
  522TMC3     O 7755   2.832   0.774  17.244  0.5697  0.4065 -0.6335
  522TMC3     H 7756   2.907   0.546  17.197 -0.7739  0.7603  0.3092
  522TMC3    H1 7757   2.715   0.750  16.876  1.3516  0.5962 -1.9175
  522TMC3    H2 7758   2.966   0.428  16.788  0.7484  0.0016  0.5057
  522TMC3    C7 7759   2.800   0.588  16.691 -0.1254 -0.7897 -0.3032
  522TMC3    C8 7760   3.050   0.388  17.049 -0.8072  0.8611  0.1295
  522TMC3    O1 7761   2.877   0.534  16.610 -0.6878 -0.4436  0.5913
  522TMC3    O2 7762   3.068   0.390  17.170 -0.2365 -0.3379  0.7886
  523MPD2     C 7763   3.828   0.555   9.788  0.0265 -0.0388  0.6502
  523MPD2    C1 7764   3.818   0.446   9.713 -0.0976 -0.4491 -0.6152
  523MPD2    C2 7765   3.776   0.462   9.584 -0.1070 -0.1638 -0.0683
  523MPD2    C3 7766   3.733   0.584   9.540  0.0668 -0.2188 -0.0860
  523MPD2    C4 7767   3.731   0.690   9.625 -0.1641  0.0597  0.7993
  523MPD2    C5 7768   3.772   0.673   9.755 -0.1613  0.2761  0.0716
  523MPD2     H 7769   3.769   0.378   9.515  1.8563  0.4268 -0.9880
  523MPD2    H1 7770   3.685   0.788   9.611 -2.4390 -1.1442 -0.0661
  523MPD2    H2 7771   3.857   0.541   9.892 -1.7775 -1.9566  0.9033
  523MPD2    H3 7772   3.760   0.750   9.830  1.7315  2.6635 -2.0656
  523MPD2     N 7773   3.661   0.596   9.416 -0.1537  0.5445 -0.1277
  523MPD2    H5 7774   3.617   0.686   9.400  0.3847  0.9536  0.7327
  523MPD2    N1 7775   3.860   0.327   9.770  0.0444 -0.2947  0.1283
  523MPD2    H7 7776   3.890   0.345   9.865  0.4244 -0.0096 -0.0434
  524TMC3    C1 7777   3.578   0.568   9.198  0.3457  0.0959 -0.0483
  524TMC3    C2 7778   3.561   0.481   9.096  0.1611  0.0184 -0.3774
  524TMC3    C3 7779   3.467   0.522   9.000 -0.0763 -0.2877  0.2871
  524TMC3    C4 7780   3.525   0.695   9.202  0.4455 -0.8274 -0.3726
  524TMC3    C5 7781   3.441   0.736   9.103  0.5666  0.3868 -0.1066
  524TMC3    C6 7782   3.399   0.643   9.005  0.2561 -0.6740 -0.2945
  524TMC3     C 7783   3.653   0.512   9.310  0.0250  1.1408 -0.1633
  524TMC3     O 7784   3.695   0.398   9.294 -0.0601 -0.4939  0.5264
  524TMC3     H 7785   3.565   0.374   9.117  0.2462  0.0047 -0.4605
  524TMC3    H1 7786   3.535   0.766   9.284 -0.9495  0.4566 -1.3095
  524TMC3    H2 7787   3.326   0.672   8.930 -1.2469 -1.5959  0.8052
  524TMC3    C7 7788   3.379   0.871   9.101 -0.0396 -0.3943  0.3681
  524TMC3    C8 7789   3.430   0.417   8.905 -0.2934 -0.1892  0.7007
  524TMC3    O1 7790   3.266   0.882   9.052  0.0257 -0.2028 -0.1541
  524TMC3    O2 7791   3.313   0.407   8.876  0.2322  0.4254  0.7407
  525MPD2     C 7792   2.253   1.890  14.580 -0.4208  0.5223 -0.9816
  525MPD2    C1 7793   2.284   1.955  14.700  0.3316 -0.1059  0.0667
  525MPD2    C2 7794   2.319   2.091  14.698  0.7195  0.4380  0.7912
  525MPD2    C3 7795   2.321   2.158  14.580 -0.8962  0.1734 -0.1089
  525MPD2    C4 7796   2.309   2.088  14.460 -0.3678  0.0624 -0.3916
  525MPD2    C5 7797   2.257   1.957  14.464 -0.4653  0.7684  0.2582
  525MPD2     H 7798   2.325   2.135  14.797 -0.3827 -2.2056  2.0338
  525MPD2    H1 7799   2.312   2.136  14.363  1.5334  1.0633  0.1631
  525MPD2    H2 7800   2.211   1.790  14.574  1.7667 -0.4686  0.5220
  525MPD2    H3 7801   2.245   1.907  14.369  0.3353  0.4292  0.3344
  525MPD2     N 7802   2.355   2.292  14.566 -0.0071  0.1666 -0.1712
  525MPD2    H5 7803   2.331   2.333  14.476  0.5591  1.8779  0.4577
  525MPD2    N1 7804   2.296   1.891  14.824 -0.2792  0.4495 -0.0655
  525MPD2    H7 7805   2.344   1.936  14.902 -1.7750  2.2531 -0.1722
  526TMC3    C1 7806   2.283   1.728  14.986 -0.1399  0.4466  0.1331
  526TMC3    C2 7807   2.207   1.758  15.094  0.2890 -0.8738  0.8345
  526TMC3    C3 7808   2.258   1.706  15.213 -0.1064 -0.0990  0.4745
  526TMC3    C4 7809   2.393   1.652  14.985  0.4532 -0.0631 -0.0187
  526TMC3    C5 7810   2.442   1.613  15.114 -0.3431  0.0375  0.2695
  526TMC3    C6 7811   2.380   1.648  15.227 -0.4912  0.0041  0.4504
  526TMC3     C 7812   2.246   1.767  14.850  0.0451 -0.8715  0.0325
  526TMC3     O 7813   2.220   1.672  14.776 -0.2753 -0.2193  0.0128
  526TMC3     H 7814   2.104   1.789  15.083  0.7656  0.0914 -0.8535
  526TMC3    H1 7815   2.434   1.616  14.891  0.6839  0.2624 -0.0457
  526TMC3    H2 7816   2.418   1.636  15.328 -0.6156 -1.7485  0.3041
  526TMC3    C7 7817   2.585   1.592  15.129  0.2744 -0.2858 -0.5359
  526TMC3    C8 7818   2.205   1.767  15.331  0.7108 -0.6317  0.4244
  526TMC3    O1 7819   2.630   1.590  15.245 -0.1307  0.1817  0.1008
  526TMC3    O2 7820   2.232   1.712  15.434 -0.2382  0.7433 -0.5949
  527MPD2     C 7821   4.482   0.333   0.672  0.4618  0.8250  0.3696
  527MPD2    C1 7822   4.545   0.315   0.795 -1.1997  0.2237  0.4148
  527MPD2    C2 7823   4.688   0.313   0.784  0.3629 -0.5023 -0.1227
  527MPD2    C3 7824   0.035   0.311   0.668 -0.2273 -0.1490 -0.3432
  527MPD2    C4 7825   4.690   0.318   0.550 -0.2462 -0.1555  0.7493
  527MPD2    C5 7826   4.554   0.325   0.552  0.1905  0.1634  0.0413
  527MPD2     H 7827   0.023   0.309   0.877 -0.2039  1.1982  0.2996
  527MPD2    H1 7828   0.021   0.293   0.459  1.7876 -1.5351  2.2791
  527MPD2    H2 7829   4.378   0.358   0.658  0.4277 -1.2857 -3.0797
  527MPD2    H3 7830   4.503   0.332   0.456  2.5334 -0.7309 -1.2788
  527MPD2     N 7831   0.175   0.298   0.675  0.1670  0.0158 -0.1360
  527MPD2    H5 7832   0.200   0.285   0.772  3.3981  1.1709 -0.8296
  527MPD2    N1 7833   4.487   0.318   0.919  0.2022  0.3184 -0.3008
  527MPD2    H7 7834   4.550   0.325   0.998  1.0960 -2.8948 -0.7512
  528TMC3    C1 7835   4.312   0.298   1.078 -0.2155 -0.0764 -0.2043
  528TMC3    C2 7836   4.385   0.249   1.186 -0.1584 -0.6227  0.6254
  528TMC3    C3 7837   4.328   0.250   1.314  0.2821 -0.0886  0.2699
  528TMC3    C4 7838   4.187   0.351   1.106 -0.7670  0.7453  0.4902
  528TMC3    C5 7839   4.134   0.349   1.234 -0.5403 -0.2866  0.0834
  528TMC3    C6 7840   4.198   0.302   1.343 -0.2354 -0.1993  0.0574
  528TMC3     C 7841   4.354   0.312   0.938 -0.5966 -0.5060 -0.0283
  528TMC3     O 7842   4.262   0.323   0.856  0.5987 -0.2646  0.9886
  528TMC3     H 7843   4.488   0.217   1.176 -0.5508 -2.2871  1.9028
  528TMC3    H1 7844   4.127   0.398   1.029 -2.0846 -3.1305 -0.8561
  528TMC3    H2 7845   4.158   0.312   1.443  1.9395  2.0237  0.7310
  528TMC3    C7 7846   4.014   0.438   1.264  0.2298 -0.0552 -0.3972
  528TMC3    C8 7847   4.427   0.253   1.418  0.0275 -0.2456  0.2572
  528TMC3    O1 7848   3.997   0.483   1.376  0.2139  0.0708  0.6605
  528TMC3    O2 7849   4.538   0.296   1.386  0.0825 -0.3878 -0.0285
  529MPD2     C 7850   2.097   3.875   0.824  0.0582  0.3844 -0.5004
  529MPD2    C1 7851   2.133   3.762   0.750  0.5376 -0.9153  0.3712
  529MPD2    C2 7852   2.142   3.768   0.615 -0.0540 -0.1098 -0.2537
  529MPD2    C3 7853   2.105   3.884   0.548  0.6842 -0.8253  0.1712
  529MPD2    C4 7854   2.083   3.999   0.623  0.2113 -0.4707 -0.3207
  529MPD2    C5 7855   2.072   3.992   0.759 -0.9599 -0.6524  0.2405
  529MPD2     H 7856   2.165   3.681   0.556  1.8904  0.9823 -1.1119
  529MPD2    H1 7857   2.059   4.092   0.574 -4.0772 -1.4449  0.0027
  529MPD2    H2 7858   2.086   3.879   0.932 -0.9810  1.0407 -0.6263
  529MPD2    H3 7859   2.042   4.082   0.812  0.8516 -0.6266  1.2332
  529MPD2     N 7860   2.118   3.905   0.411  0.3632 -0.1234  0.3367
  529MPD2    H5 7861   2.105   3.997   0.372  2.4364 -0.1363 -0.3847
  529MPD2    N1 7862   2.183   3.644   0.810 -0.0291 -0.5193 -0.0741
  529MPD2    H7 7863   2.200   3.564   0.749  0.8132 -1.0978  0.9265
  530TMC3    C1 7864   2.325   3.523   0.965  0.2611  0.4949 -0.4897
  530TMC3    C2 7865   2.436   3.553   1.049  0.0729  0.3598 -0.6737
  530TMC3    C3 7866   2.493   3.452   1.117 -0.6830 -0.4657  0.4435
  530TMC3    C4 7867   2.264   3.400   0.968  0.3989 -0.2753  0.2158
  530TMC3    C5 7868   2.318   3.309   1.055  0.0948  0.1955  0.6182
  530TMC3    C6 7869   2.431   3.336   1.123  0.1625  0.2218 -0.4090
  530TMC3     C 7870   2.251   3.646   0.936  0.3847  0.4798  0.0545
  530TMC3     O 7871   2.284   3.740   1.009  0.1937  0.1760  0.4541
  530TMC3     H 7872   2.490   3.646   1.042  0.0593  0.2866 -1.7179
  530TMC3    H1 7873   2.174   3.381   0.911  0.6206 -3.9306  1.0937
  530TMC3    H2 7874   2.458   3.265   1.201 -2.4711 -2.4936 -1.9707
  530TMC3    C7 7875   2.256   3.184   1.090  0.0799 -0.0594 -0.1112
  530TMC3    C8 7876   2.589   3.483   1.221 -0.9027 -0.3501  0.7791
  530TMC3    O1 7877   2.294   3.089   1.023 -0.2247 -0.6360  0.7783
  530TMC3    O2 7878   2.615   3.602   1.233 -0.0136 -0.3991  0.0525
  531MPD2     C 7879   1.603   0.140  12.495 -0.2403  0.1455 -0.1640
  531MPD2    C1 7880   1.484   0.185  12.441  0.0410  0.1272  0.1063
  531MPD2    C2 7881   1.470   0.196  12.303  0.0786  0.5311  0.4701
  531MPD2    C3 7882   1.566   0.160  12.218 -0.0953 -0.0023  0.1283
  531MPD2    C4 7883   1.683   0.118  12.270  0.0978 -0.1291 -0.6324
  531MPD2    C5 7884   1.710   0.120  12.406  0.0320  0.1371 -0.3765
  531MPD2     H 7885   1.385   0.252  12.267  0.2022  0.2239 -0.3008
  531MPD2    H1 7886   1.756   0.073  12.204 -0.5168  0.6045 -1.8073
  531MPD2    H2 7887   1.623   0.136  12.602 -1.8292 -1.2699  0.0699
  531MPD2    H3 7888   1.810   0.091  12.437  0.4506  0.0646 -1.7458
  531MPD2     N 7889   1.544   0.182  12.078 -0.5497  0.0402  0.1599
  531MPD2    H5 7890   1.454   0.219  12.047 -0.4505  1.4991  1.5734
  531MPD2    N1 7891   1.383   0.218  12.534  0.4817 -0.6471 -0.3389
  531MPD2    H7 7892   1.405   0.212  12.633  1.1354  0.0073 -0.4456
  532TMC3    C1 7893   1.174   0.312  12.609 -0.4241 -0.1392 -0.2517
  532TMC3    C2 7894   1.046   0.331  12.579 -0.3305 -0.5101  0.2313
  532TMC3    C3 7895   0.977   0.445  12.613 -0.3385  1.0655 -0.0731
  532TMC3    C4 7896   1.237   0.410  12.677 -0.1570 -0.2761 -0.0420
  532TMC3    C5 7897   1.173   0.531  12.709  0.4301 -0.5078 -0.5142
  532TMC3    C6 7898   1.037   0.543  12.694 -0.1211 -0.3923  0.0821
  532TMC3     C 7899   1.251   0.246  12.506  0.3964  0.4754 -0.1083
  532TMC3     O 7900   1.190   0.239  12.399  0.4950 -0.6702 -0.9051
  532TMC3     H 7901   0.991   0.255  12.524 -0.8345 -1.6865  2.3650
  532TMC3    H1 7902   1.344   0.401  12.681 -0.3206 -2.3985 -0.2340
  532TMC3    H2 7903   0.979   0.629  12.724 -0.6160 -0.2725 -1.2219
  532TMC3    C7 7904   1.235   0.618  12.811 -0.0626  0.3431 -0.1864
  532TMC3    C8 7905   0.912   0.499  12.494 -0.7941  0.2100 -0.1013
  532TMC3    O1 7906   1.190   0.730  12.833  0.3907  0.1627  0.1450
  532TMC3    O2 7907   0.825   0.585  12.508 -0.2824 -0.3120 -0.1044
  533TMC3    C1 7908   2.368   2.515  14.644  0.6529  0.3568 -0.5447
  533TMC3    C2 7909   2.453   2.611  14.690  0.1688  0.0460 -0.6265
  533TMC3    C3 7910   2.418   2.738  14.658  0.0432  0.8241 -0.8187
  533TMC3    C4 7911   2.255   2.553  14.581  0.1319 -0.2425 -0.0719
  533TMC3    C5 7912   2.216   2.679  14.587 -0.5200 -0.7028  0.7975
  533TMC3    C6 7913   2.296   2.785  14.617  0.6993  0.1264 -0.1425
  533TMC3     C 7914   2.385   2.374  14.673  0.0348 -0.2124 -0.9048
  533TMC3     O 7915   2.434   2.347  14.780 -0.5471 -0.4911 -0.1985
  533TMC3     H 7916   2.553   2.585  14.721 -0.7122 -1.4603  0.9962
  533TMC3    H1 7917   2.184   2.473  14.561 -0.2060 -0.1277  0.6632
  533TMC3    H2 7918   2.272   2.890  14.605 -2.4993 -0.6269 -0.5652
  533TMC3    C7 7919   2.079   2.692  14.623 -0.2913  0.2332  0.6479
  533TMC3    C8 7920   2.504   2.840  14.710 -0.2814 -0.1232  0.5714
  533TMC3    O1 7921   2.051   2.739  14.733 -0.2780 -0.3733 -0.7067
  533TMC3    O2 7922   2.580   2.816  14.803  0.2751 -0.4328 -0.0508
  534MPD2     C 7923   4.519   4.019   2.001 -0.3401 -0.4038 -0.2191
  534MPD2    C1 7924   4.493   4.041   1.865  0.1077 -0.0873  0.4618
  534MPD2    C2 7925   4.419   3.955   1.795 -0.3727  0.4185 -0.5201
  534MPD2    C3 7926   4.371   3.839   1.857 -0.3115 -0.2727  0.3358
  534MPD2    C4 7927   4.412   3.814   1.991 -0.1851 -0.4353  0.2290
  534MPD2    C5 7928   4.489   3.902   2.060 -0.2554 -0.4057 -0.0580
  534MPD2     H 7929   4.407   3.969   1.688  1.6265 -0.3869 -0.8548
  534MPD2    H1 7930   4.380   3.727   2.047  2.3519  0.5616  3.2474
  534MPD2    H2 7931   4.574   4.097   2.054  1.2409 -0.1743 -2.2295
  534MPD2    H3 7932   4.518   3.886   2.163 -0.9712  0.2582  0.2402
  534MPD2     N 7933   4.283   3.761   1.788 -0.0007  0.8333  0.6472
  534MPD2    H5 7934   4.254   3.795   1.697 -0.5138 -1.2819  0.0225
  534MPD2    N1 7935   4.541   4.156   1.795 -0.5810 -0.0513  0.1689
  534MPD2    H7 7936   4.512   4.171   1.699  0.6555  0.6095 -0.1102
  535TMC3    C1 7937   4.163   3.555   1.732  0.2288 -0.5867  1.0688
  535TMC3    C2 7938   4.030   3.531   1.746  0.6061  0.2432  0.5654
  535TMC3    C3 7939   3.963   3.513   1.626 -0.2472  0.1456 -0.2878
  535TMC3    C4 7940   4.228   3.570   1.613 -0.7062  0.4028 -0.3298
  535TMC3    C5 7941   4.157   3.558   1.503  0.0313  0.9315 -0.1397
  535TMC3    C6 7942   4.029   3.518   1.505  0.1640 -0.3031 -0.6500
  535TMC3     C 7943   4.221   3.640   1.833 -0.0692 -0.5553 -0.7285
  535TMC3     O 7944   4.222   3.585   1.944  0.5642 -0.2527 -0.5898
  535TMC3     H 7945   3.991   3.543   1.846 -0.0323  0.1368  0.3282
  535TMC3    H1 7946   4.330   3.604   1.605  0.2319 -1.3400  4.3026
  535TMC3    H2 7947   3.966   3.489   1.421  0.6359  1.3935 -1.5927
  535TMC3    C7 7948   4.225   3.566   1.377  0.1907  0.6987  0.2496
  535TMC3    C8 7949   3.818   3.495   1.618  0.4456 -0.4463 -0.1323
  535TMC3    O1 7950   4.344   3.545   1.371  0.1393 -0.5742 -0.3468
  535TMC3    O2 7951   3.766   3.456   1.516  0.0890 -0.3879 -0.0107
  536MPD2     C 7952   3.841   2.145  16.330 -0.2120  0.6195 -0.1447
  536MPD2    C1 7953   3.740   2.051  16.323  0.4234  0.0413 -0.1191
  536MPD2    C2 7954   3.680   2.029  16.197  0.7494 -0.2347  0.6661
  536MPD2    C3 7955   3.711   2.102  16.092  0.2030  0.2886 -0.4653
  536MPD2    C4 7956   3.811   2.196  16.103  0.7803 -0.2443  0.0426
  536MPD2    C5 7957   3.875   2.214  16.221  0.2144  0.7518 -0.8566
  536MPD2     H 7958   3.602   1.955  16.183  0.7549 -0.4188  1.6051
  536MPD2    H1 7959   3.839   2.248  16.012  3.1870  0.0130  0.9301
  536MPD2    H2 7960   3.899   2.167  16.418  2.6179  0.1875 -1.8967
  536MPD2    H3 7961   3.952   2.291  16.227  1.5404 -0.7003  0.9975
  536MPD2     N 7962   3.651   2.092  15.966  0.0091 -0.4752 -0.1456
  536MPD2    H5 7963   3.691   2.162  15.904 -1.8366  0.4033 -0.3468
  536MPD2    N1 7964   3.716   1.975  16.437  0.5146 -0.2465 -0.0328
  536MPD2    H7 7965   3.779   1.989  16.516 -1.3327 -1.9130  1.7413
  537TMC3    C1 7966   3.635   1.803  16.575  0.0898 -0.0119  0.2102
  537TMC3    C2 7967   3.702   1.874  16.670 -0.4321  0.5337  0.4357
  537TMC3    C3 7968   3.718   1.799  16.785 -0.1949  0.7728 -0.3329
  537TMC3    C4 7969   3.578   1.676  16.587  1.4341  0.1681  0.2705
  537TMC3    C5 7970   3.606   1.609  16.700 -0.1171  0.0755  0.3494
  537TMC3    C6 7971   3.671   1.675  16.806  0.8033 -0.2225 -0.4146
  537TMC3     C 7972   3.626   1.874  16.450 -0.1668 -0.0194 -0.0290
  537TMC3     O 7973   3.525   1.848  16.383  0.5202 -0.5060  0.3252
  537TMC3     H 7974   3.741   1.975  16.665  0.6944  0.1809  1.8166
  537TMC3    H1 7975   3.518   1.644  16.503  0.5425  0.8701  0.6422
  537TMC3    H2 7976   3.689   1.623  16.900  1.4782 -1.1231 -1.0464
  537TMC3    C7 7977   3.548   1.480  16.722  0.1765  0.7056  0.2313
  537TMC3    C8 7978   3.783   1.855  16.899 -0.6021  0.5012  0.1569
  537TMC3    O1 7979   3.448   1.458  16.650  0.0253  1.3078  0.4837
  537TMC3    O2 7980   3.880   1.931  16.897  0.1514  0.5242 -0.0992
  538TMC3    C1 7981   4.583   0.252  11.217  0.4788  0.4463 -0.6801
  538TMC3    C2 7982   4.637   0.169  11.123 -0.0100  0.1229  0.2182
  538TMC3    C3 7983   4.603   0.189  10.986 -0.7170  0.2837 -0.0167
  538TMC3    C4 7984   4.493   0.348  11.183  0.3835  0.1554  0.1998
  538TMC3    C5 7985   4.481   0.381  11.050  0.5562  0.7421 -0.2828
  538TMC3    C6 7986   4.539   0.300  10.951 -0.1812 -0.1673 -0.2926
  538TMC3     C 7987   4.644   0.268  11.347 -0.5494 -0.1134 -0.1707
  538TMC3     O 7988   4.575   0.328  11.428 -0.1068  0.7850  0.1281
  538TMC3     H 7989   4.685   0.076  11.153  0.1900  0.1766  0.0616
  538TMC3    H1 7990   4.456   0.421  11.255  1.3518  0.9794 -0.1422
  538TMC3    H2 7991   4.495   0.296  10.852 -2.0754  0.4866  0.5227
  538TMC3    C7 7992   4.395   0.487  11.008 -0.3009  0.5417  0.0014
  538TMC3    C8 7993   4.642   0.086  10.898  0.0502 -1.1236 -0.3447
  538TMC3    O1 7994   4.314   0.543  11.081 -1.0095  0.2824  0.2821
  538TMC3    O2 7995   4.657   4.696  10.941 -0.1655 -0.1548  0.5175
  539MPD2     C 7996   4.203   3.802  11.487  0.2282 -0.2247 -0.9371
  539MPD2    C1 7997   4.280   3.869  11.395  0.9536  0.5900 -0.3472
  539MPD2    C2 7998   4.250   4.001  11.366  0.1939 -0.3206 -0.3630
  539MPD2    C3 7999   4.157   4.075  11.440  0.0984  0.4714 -0.3701
  539MPD2    C4 8000   4.092   4.005  11.532  0.6541 -0.3296  1.0910
  539MPD2    C5 8001   4.108   3.872  11.551 -0.3404  0.0144  0.7280
  539MPD2     H 8002   4.315   4.055  11.299 -1.5874  0.0206 -1.8020
  539MPD2    H1 8003   4.028   4.052  11.606 -3.2904  0.4428 -2.8180
  539MPD2    H2 8004   4.207   3.694  11.496  0.7239 -0.2113 -1.0276
  539MPD2    H3 8005   4.051   3.819  11.627 -4.1829  2.7777 -0.2698
  539MPD2     N 8006   4.134   4.212  11.434  0.2637 -0.0098  0.3924
  539MPD2    H5 8007   4.058   4.245  11.491 -0.4448 -0.8392 -0.0742
  539MPD2    N1 8008   4.378   3.806  11.311  0.3014 -0.5324  0.1659
  539MPD2    H7 8009   4.429   3.874  11.255 -0.4874 -1.0648 -1.1804
  540TMC3    C1 8010   4.117   4.416  11.334 -0.1640  0.1477 -0.2356
  540TMC3    C2 8011   4.094   4.455  11.204 -0.0929  0.2562  0.4481
  540TMC3    C3 8012   4.025   4.572  11.195  0.2347 -0.0083  0.1902
  540TMC3    C4 8013   4.056   4.464  11.448  0.2944  0.2283 -0.2337
  540TMC3    C5 8014   3.994   4.582  11.430  0.1490 -0.2454 -1.0390
  540TMC3    C6 8015   3.975   4.636  11.309  0.0288 -0.9285 -0.4420
  540TMC3     C 8016   4.183   4.291  11.334  0.0768  0.0259 -0.3575
  540TMC3     O 8017   4.264   4.276  11.240  0.8914 -0.1145 -0.1686
  540TMC3     H 8018   4.128   4.392  11.123  0.1541 -2.4626  2.6916
  540TMC3    H1 8019   4.068   4.426  11.549 -1.8030  0.4902  0.1021
  540TMC3    H2 8020   3.914   0.004  11.297  1.0667 -0.1117  0.2627
  540TMC3    C7 8021   3.909   4.624  11.539 -0.7540 -0.3128 -1.0996
  540TMC3    C8 8022   3.985   4.623  11.066 -0.2337 -0.5450 -0.6071
  540TMC3    O1 8023   3.880   4.538  11.622 -0.0810 -0.7913 -0.3489
  540TMC3    O2 8024   3.974   0.023  11.059  0.0232 -0.3430  0.0013
  541MPD2     C 8025   2.250   0.904  12.924  0.3334 -0.4305  0.0516
  541MPD2    C1 8026   2.243   0.787  12.846 -0.1232 -0.5063 -0.5871
  541MPD2    C2 8027   2.194   0.788  12.714  0.7532 -0.4612  0.1448
  541MPD2    C3 8028   2.161   0.918  12.662 -0.4484 -0.0644 -0.7914
  541MPD2    C4 8029   2.188   1.033  12.738  0.2091 -0.4331  1.0509
  541MPD2    C5 8030   2.226   1.029  12.867 -0.4573 -0.3304  0.0421
  541MPD2     H 8031   2.174   0.702  12.652 -1.1252 -1.6010  2.3136
  541MPD2    H1 8032   2.162   1.134  12.708 -0.8574 -1.1073 -0.2666
  541MPD2    H2 8033   2.287   0.902  13.026 -0.0864  0.6623  0.2277
  541MPD2    H3 8034   2.225   1.123  12.921 -2.9695  0.5595 -1.5413
  541MPD2     N 8035   2.101   0.952  12.534 -0.2040 -0.5785  0.6298
  541MPD2    H5 8036   2.081   1.048  12.509 -0.9816 -1.4138 -1.9363
  541MPD2    N1 8037   2.270   0.671  12.914 -0.4254 -0.2016 -0.3465
  541MPD2    H7 8038   2.320   0.688  13.001 -3.0936 -1.5325  1.4388
  542TMC3    C1 8039   1.988   0.926  12.342 -0.2348  0.2485 -0.1584
  542TMC3    C2 8040   2.066   0.976  12.244  0.6176  0.1367  0.0328
  542TMC3    C3 8041   2.008   0.997  12.122 -0.0293  0.3675 -0.0655
  542TMC3    C4 8042   1.859   0.886  12.330  0.5465  0.4352  0.0006
  542TMC3    C5 8043   1.810   0.915  12.208  0.1902  0.1946 -0.0166
  542TMC3    C6 8044   1.880   0.963  12.098  0.6436  0.5729  1.0479
  542TMC3     C 8045   2.053   0.859  12.451 -0.3052  0.0763 -0.4693
  542TMC3     O 8046   2.080   0.742  12.439 -0.3798 -0.5685  0.1850
  542TMC3     H 8047   2.172   0.990  12.266  0.7454  0.1274 -0.5843
  542TMC3    H1 8048   1.811   0.826  12.407 -0.4187  1.3016  0.0715
  542TMC3    H2 8049   1.832   0.974  12.002  0.4747  0.6511  1.1405
  542TMC3    C7 8050   1.671   0.967  12.203 -0.0064 -0.2761 -0.1610
  542TMC3    C8 8051   2.088   1.053  12.012  0.3266  0.1289 -0.2488
  542TMC3    O1 8052   1.627   0.999  12.092  0.2326 -0.0242  0.4491
  542TMC3    O2 8053   2.214   1.031  12.010  0.9497 -0.2515  0.0833
  543TMC3    C1 8054   2.696   2.077  16.894 -0.3062 -0.2787 -0.5556
  543TMC3    C2 8055   2.734   1.949  16.884  0.3590  0.8757  1.0994
  543TMC3    C3 8056   2.649   1.852  16.920  0.2176  0.6635 -0.9099
  543TMC3    C4 8057   2.579   2.123  16.953  0.7507 -0.0033 -0.5457
  543TMC3    C5 8058   2.506   2.022  17.006  0.3427  0.5702 -0.2742
  543TMC3    C6 8059   2.534   1.885  16.986 -0.5784 -0.1350 -0.4326
  543TMC3     C 8060   2.769   2.183  16.815 -0.0740 -0.2603 -0.6661
  543TMC3     O 8061   2.892   2.175  16.820 -0.3962  0.2661  0.0226
  543TMC3     H 8062   2.828   1.931  16.832  0.0190 -0.0775  0.8225
  543TMC3    H1 8063   2.572   2.230  16.970  0.4229 -0.1937  0.5116
  543TMC3    H2 8064   2.465   1.812  17.026 -0.4232 -1.0177 -1.7842
  543TMC3    C7 8065   2.392   2.059  17.091  1.1238 -0.1351  0.5234
  543TMC3    C8 8066   2.691   1.714  16.921  0.5818  0.5914  0.4355
  543TMC3    O1 8067   2.308   1.970  17.088 -0.1722 -0.1659 -0.3351
  543TMC3    O2 8068   2.799   1.686  16.871 -0.6395  0.2785  0.0603
  544MPD2     C 8069   2.647   1.222  17.039  0.2203 -0.6085 -0.1672
  544MPD2    C1 8070   2.701   1.286  16.926 -0.1671  0.8286  0.5758
  544MPD2    C2 8071   2.686   1.424  16.920  0.3802  0.2438 -0.5502
  544MPD2    C3 8072   2.635   1.498  17.023  0.9752  0.2940 -0.0143
  544MPD2    C4 8073   2.586   1.435  17.144  1.1093  0.4763  0.4126
  544MPD2    C5 8074   2.591   1.297  17.146  0.2881  0.5477  0.7845
  544MPD2     H 8075   2.710   1.476  16.828  1.3270 -0.8074 -0.8929
  544MPD2    H1 8076   2.541   1.496  17.222  0.8536  0.0300  0.6114
  544MPD2    H2 8077   2.652   1.114  17.043  0.1709 -0.6642 -1.4248
  544MPD2    H3 8078   2.538   1.243  17.223  1.6943 -0.3625  1.1121
  544MPD2     N 8079   2.619   1.639  17.017  0.4814  0.2708 -0.1221
  544MPD2    H5 8080   2.558   1.685  17.084  0.4436 -0.5582  0.4034
  544MPD2    N1 8081   2.764   1.197  16.828 -0.6067  0.5666  0.0312
  544MPD2    H7 8082   2.779   1.098  16.846  1.7022  0.8734 -0.2274
  545TMC3    C1 8083   2.876   1.127  16.633  0.1391  0.2108  0.4542
  545TMC3    C2 8084   2.947   1.172  16.526 -0.0085  0.0979 -0.3875
  545TMC3    C3 8085   3.027   1.083  16.461  0.6169 -0.7371  0.2678
  545TMC3    C4 8086   2.893   1.002  16.687  0.0760  0.2607 -0.5329
  545TMC3    C5 8087   2.971   0.912  16.618  0.2582  0.7497  0.2750
  545TMC3    C6 8088   3.020   0.945  16.494 -0.8895 -0.6735  0.2187
  545TMC3     C 8089   2.817   1.234  16.709 -1.0890 -0.4835 -0.4541
  545TMC3     O 8090   2.809   1.345  16.655  0.0342 -0.0706  0.3784
  545TMC3     H 8091   2.942   1.276  16.497 -0.6094  0.2038  0.1069
  545TMC3    H1 8092   2.839   0.970  16.775  0.2348  0.3113 -0.4159
  545TMC3    H2 8093   3.074   0.872  16.434 -0.9125  1.1067 -1.9615
  545TMC3    C7 8094   3.045   0.815  16.685 -0.4048  0.7003  0.8521
  545TMC3    C8 8095   3.160   1.139  16.441 -0.8279  0.0819 -0.5567
  545TMC3    O1 8096   3.109   0.741  16.609  0.3911 -0.1886 -0.5430
  545TMC3    O2 8097   3.167   1.255  16.399  0.0739  0.0498  0.6376
  546MPD2     C 8098   3.566   2.838  17.468  0.0590  0.1678 -0.1974
  546MPD2    C1 8099   3.699   2.804  17.469 -0.5634 -0.0043  0.7396
  546MPD2    C2 8100   3.787   2.894  17.510  0.4258 -0.3384  0.9491
  546MPD2    C3 8101   3.751   3.027  17.536 -0.1388 -0.3182 -0.0904
  546MPD2    C4 8102   3.624   3.056  17.545 -0.5287 -0.4502  0.2451
  546MPD2    C5 8103   3.529   2.965  17.512  0.1913 -0.3159  0.0056
  546MPD2     H 8104   3.884   2.853  17.538  0.5812 -0.3254  0.4316
  546MPD2    H1 8105   3.592   3.155  17.575  1.2268 -0.2126  1.2668
  546MPD2    H2 8106   3.488   2.769  17.440  1.3214 -2.0307  1.7097
  546MPD2    H3 8107   3.423   2.984  17.518 -0.1946 -2.0528 -1.2059
  546MPD2     N 8108   3.848   3.117  17.578 -0.4162 -0.1428 -0.0191
  546MPD2    H5 8109   3.814   3.204  17.619 -0.3422 -1.2057  2.2911
  546MPD2    N1 8110   3.733   2.670  17.434  0.1400  0.1184  0.5810
  546MPD2    H7 8111   3.659   2.600  17.431 -0.1387  0.4469 -0.1571
  547TMC3    C1 8112   3.867   2.498  17.365  0.6403 -0.7388 -0.2984
  547TMC3    C2 8113   3.905   2.472  17.233 -0.5900  0.0789  0.1718
  547TMC3    C3 8114   3.831   2.371  17.171  1.2430 -0.7875 -0.2069
  547TMC3    C4 8115   3.782   2.416  17.432 -0.1528  0.2409  0.9032
  547TMC3    C5 8116   3.725   2.310  17.372  0.5595  0.2927 -0.1961
  547TMC3    C6 8117   3.740   2.291  17.235  0.0509 -0.0749  1.2586
  547TMC3     C 8118   3.858   2.637  17.395  0.5146  0.1848  0.5870
  547TMC3     O 8119   3.951   2.702  17.340 -0.5236  0.2413  0.0727
  547TMC3     H 8120   3.970   2.544  17.184  0.5507 -1.2294 -0.2201
  547TMC3    H1 8121   3.757   2.454  17.530 -0.3297 -0.8083  1.2599
  547TMC3    H2 8122   3.679   2.219  17.182 -0.3537  0.4827  0.9616
  547TMC3    C7 8123   3.585   2.298  17.411  0.4939  0.0593 -0.4707
  547TMC3    C8 8124   3.784   2.407  17.038 -0.2494 -0.1281 -0.7177
  547TMC3    O1 8125   3.532   2.402  17.461 -0.4470  0.9913 -0.6533
  547TMC3    O2 8126   3.666   2.424  17.022  0.0310 -0.4811  0.5902
  548MPD2     C 8127   3.598   2.707  12.317 -0.2844 -0.3715  0.2472
  548MPD2    C1 8128   3.578   2.629  12.430  0.3353 -0.1147 -0.3211
  548MPD2    C2 8129   3.617   2.500  12.442 -0.2874  0.3040 -0.1040
  548MPD2    C3 8130   3.673   2.441  12.328 -0.5577 -0.4511  0.1080
  548MPD2    C4 8131   3.704   2.510  12.216 -0.8217  0.5716  0.0130
  548MPD2    C5 8132   3.671   2.646  12.217  0.0533  0.1862 -0.1006
  548MPD2     H 8133   3.597   2.440  12.529  2.2689  0.7575  0.7817
  548MPD2    H1 8134   3.753   2.462  12.133 -1.2298  1.9451 -1.0066
  548MPD2    H2 8135   3.580   2.814  12.306  1.0394 -0.1555  0.2265
  548MPD2    H3 8136   3.709   2.713  12.141 -1.8486  3.8698  2.1762
  548MPD2     N 8137   3.686   2.301  12.333 -0.2792  0.4110 -0.3903
  548MPD2    H5 8138   3.643   2.261  12.417 -2.3256  1.3781 -0.9627
  548MPD2    N1 8139   3.517   2.699  12.534  0.0079  0.9476 -0.0976
  548MPD2    H7 8140   3.494   2.797  12.516 -2.0613  0.0749 -2.2146
  549TMC3    C1 8141   3.387   2.725  12.741  0.5399  0.1881 -0.2456
  549TMC3    C2 8142   3.345   2.844  12.688  0.6649  0.0027 -0.1856
  549TMC3    C3 8143   3.298   2.933  12.781  0.6768  0.7873 -0.4187
  549TMC3    C4 8144   3.366   2.682  12.868  0.3723 -0.1416 -0.2794
  549TMC3    C5 8145   3.315   2.771  12.952  0.2913 -0.6630 -0.0697
  549TMC3    C6 8146   3.281   2.897  12.911  0.1410  0.0884 -0.4086
  549TMC3     C 8147   3.481   2.647  12.657  0.3562  0.5534  0.7474
  549TMC3     O 8148   3.503   2.538  12.709  0.1705 -0.2052 -0.2017
  549TMC3     H 8149   3.336   2.864  12.582  1.7123  0.7978 -0.1239
  549TMC3    H1 8150   3.413   2.595  12.913  0.8934  2.4218  4.1632
  549TMC3    H2 8151   3.232   2.965  12.980  1.6521  2.2133 -1.4106
  549TMC3    C7 8152   3.301   2.736  13.094  0.4311 -0.2907  0.1210
  549TMC3    C8 8153   3.217   3.036  12.728 -0.2710  0.1095 -0.1534
  549TMC3    O1 8154   3.294   2.822  13.179 -0.9359 -0.2656 -0.1679
  549TMC3    O2 8155   3.127   3.070  12.809  0.4104 -0.4218 -0.1839
  550TMC3    C1 8156   1.250   0.820  12.414  0.3332 -0.2487 -1.1454
  550TMC3    C2 8157   1.218   0.888  12.523  0.5919  0.5311 -0.0296
  550TMC3    C3 8158   1.115   0.976  12.520  0.0614 -0.6424  0.5043
  550TMC3    C4 8159   1.183   0.834  12.300  0.3703 -0.0627 -0.2636
  550TMC3    C5 8160   1.083   0.926  12.298 -0.1909  0.7896 -0.7577
  550TMC3    C6 8161   1.053   1.006  12.401  0.1055  0.0544  0.9065
  550TMC3     C 8162   1.369   0.733  12.424 -0.0549 -0.2411 -0.1035
  550TMC3     O 8163   1.408   0.694  12.536 -0.3291  0.5322  0.2275
  550TMC3     H 8164   1.271   0.865  12.615  1.7525  0.4484 -0.7170
  550TMC3    H1 8165   1.212   0.783  12.209 -1.9498 -3.6545  1.0290
  550TMC3    H2 8166   0.982   1.088  12.394  0.3745  0.3673  1.8330
  550TMC3    C7 8167   1.041   0.974  12.167 -0.2255 -0.7817 -0.0532
  550TMC3    C8 8168   1.095   1.071  12.629  0.2611 -0.6740 -0.1562
  550TMC3    O1 8169   1.112   0.946  12.072  0.3281 -0.3776 -0.7128
  550TMC3    O2 8170   1.054   1.180  12.606 -0.2578  0.2764 -0.6535
  551TMC3    C1 8171   4.428   3.097  13.380  0.6419  0.0520  0.1094
  551TMC3    C2 8172   4.520   3.159  13.294  0.4434 -0.2682  0.2053
  551TMC3    C3 8173   4.554   3.286  13.319 -0.2222  0.0721  0.2270
  551TMC3    C4 8174   4.374   3.172  13.489 -0.0086 -0.9822 -0.2986
  551TMC3    C5 8175   4.392   3.306  13.495  0.3832 -0.2039  0.8202
  551TMC3    C6 8176   4.485   3.364  13.409 -0.2677  0.7632  0.5133
  551TMC3     C 8177   4.328   3.029  13.301 -0.3029  0.5275 -0.5273
  551TMC3     O 8178   4.370   2.985  13.195 -0.2574  0.5521 -0.0330
  551TMC3     H 8179   4.566   3.104  13.212  0.4315 -1.4189  0.9599
  551TMC3    H1 8180   4.319   3.124  13.568  1.1291  2.1841  2.4452
  551TMC3    H2 8181   4.524   3.460  13.441 -0.3656  1.1558 -0.5320
  551TMC3    C7 8182   4.374   3.375  13.623 -0.0268 -0.1583 -0.4310
  551TMC3    C8 8183   4.626   3.359  13.223 -0.2629 -0.2575  0.7834
  551TMC3    O1 8184   4.409   3.320  13.729 -0.0485 -0.2554  0.1516
  551TMC3    O2 8185   0.012   3.311  13.181  0.1744 -0.3055  0.0534
  552MPD2     C 8186   1.778   0.924  13.525  0.2136 -0.8092  0.4426
  552MPD2    C1 8187   1.724   0.860  13.634 -0.3971  0.1321  0.3684
  552MPD2    C2 8188   1.801   0.858  13.752  0.0141  0.9671 -0.0022
  552MPD2    C3 8189   1.923   0.926  13.764 -0.0611 -0.1052  0.2112
  552MPD2    C4 8190   1.977   0.991  13.657  0.2476 -0.0835  0.3881
  552MPD2    C5 8191   1.903   0.983  13.538 -0.4743  0.1204 -0.5235
  552MPD2     H 8192   1.757   0.815  13.841 -2.7837  1.9269 -0.9187
  552MPD2    H1 8193   2.079   1.029  13.663  0.5827 -0.7293 -1.1777
  552MPD2    H2 8194   1.738   0.916  13.425 -0.8233  4.5132  0.4692
  552MPD2    H3 8195   1.956   1.025  13.453  0.2868  1.0350  0.4070
  552MPD2     N 8196   2.006   0.921  13.881  0.1345 -0.1034 -0.4573
  552MPD2    H5 8197   2.084   0.986  13.889 -1.0741  1.1777  0.9362
  552MPD2    N1 8198   1.595   0.799  13.637 -0.5854  0.0188 -0.0837
  552MPD2    H7 8199   1.584   0.739  13.719 -0.2186  1.0155  0.6923
  553TMC3    C1 8200   1.381   0.734  13.596  0.2752 -0.0144 -0.1734
  553TMC3    C2 8201   1.333   0.644  13.503 -0.3813 -0.4890 -0.3527
  553TMC3    C3 8202   1.257   0.545  13.546 -0.0488 -0.0648  0.7581
  553TMC3    C4 8203   1.359   0.723  13.730  0.5484  0.8975  0.2935
  553TMC3    C5 8204   1.274   0.621  13.769  0.4423 -0.0714  0.1348
  553TMC3    C6 8205   1.218   0.533  13.676 -0.8037 -0.0784  1.1869
  553TMC3     C 8206   1.495   0.811  13.548  0.3945  0.2189 -0.2962
  553TMC3     O 8207   1.494   0.852  13.432 -0.1603 -0.2064  0.0985
  553TMC3     H 8208   1.362   0.651  13.398  0.3973 -0.9946 -0.1743
  553TMC3    H1 8209   1.415   0.778  13.804  1.6288 -2.4659  1.9762
  553TMC3    H2 8210   1.168   0.445  13.715 -0.7243 -0.9852 -0.7721
  553TMC3    C7 8211   1.308   0.582  13.899 -0.9355 -0.2402 -0.3199
  553TMC3    C8 8212   1.244   0.432  13.450  0.1330 -0.4355  0.2055
  553TMC3    O1 8213   1.218   0.576  13.982  0.2786  0.2347  0.2677
  553TMC3    O2 8214   1.338   0.415  13.373 -0.0725 -0.6492 -0.6607
  554TMC3    C1 8215   3.409   4.259  11.062 -0.7234  0.4176 -0.4522
  554TMC3    C2 8216   3.441   4.217  10.933  0.0206  0.6612 -0.4362
  554TMC3    C3 8217   3.534   4.290  10.866  0.7749 -0.3797  0.0693
  554TMC3    C4 8218   3.479   4.362  11.121  0.1138  0.1732  0.0047
  554TMC3    C5 8219   3.568   4.431  11.051  0.8845  0.2003  0.1089
  554TMC3    C6 8220   3.602   4.398  10.919  0.4378  1.4894 -0.3840
  554TMC3     C 8221   3.315   4.169  11.136 -0.0401  0.2223  0.1798
  554TMC3     O 8222   3.220   4.121  11.077 -0.0846  0.1532  0.2968
  554TMC3     H 8223   3.381   4.139  10.886  0.6648 -0.7394  1.0761
  554TMC3    H1 8224   3.459   4.386  11.225  1.3096 -1.8798  0.7043
  554TMC3    H2 8225   3.658   4.469  10.860  1.0794  0.0726 -1.4983
  554TMC3    C7 8226   3.603   4.567  11.091  0.0937  0.3161 -0.5788
  554TMC3    C8 8227   3.527   4.303  10.723 -0.7018 -1.0166 -0.4432
  554TMC3    O1 8228   3.659   4.635  11.006  0.3640 -0.4172  1.0618
  554TMC3    O2 8229   3.518   4.410  10.669 -0.3865  0.0436 -0.0994
  555TMC3    C1 8230   2.417   3.892  14.968  0.5960  0.1811  0.2329
  555TMC3    C2 8231   2.416   4.016  15.022 -0.1834  0.2944 -0.2124
  555TMC3    C3 8232   2.503   4.045  15.123  0.5418 -0.0163  0.4941
  555TMC3    C4 8233   2.507   3.799  15.007 -0.0734  0.5664 -0.4525
  555TMC3    C5 8234   2.585   3.821  15.117  0.7477  0.3397  0.2015
  555TMC3    C6 8235   2.579   3.944  15.180 -0.1639 -0.1848  0.0622
  555TMC3     C 8236   2.398   3.894  14.824 -0.3606 -0.4159 -0.3973
  555TMC3     O 8237   2.509   3.894  14.771 -0.1028  0.2693 -0.4610
  555TMC3     H 8238   2.334   4.080  14.990  0.9910  1.2643 -1.2738
  555TMC3    H1 8239   2.506   3.699  14.967  0.7919  0.0909  0.7298
  555TMC3    H2 8240   2.623   3.961  15.278 -1.1225 -0.7016  0.5920
  555TMC3    C7 8241   2.653   3.709  15.178  0.2539 -0.2689  0.2483
  555TMC3    C8 8242   2.535   4.184  15.149 -0.9897  0.9536 -1.1240
  555TMC3    O1 8243   2.613   3.597  15.154  0.2384 -0.2932  0.1719
  555TMC3    O2 8244   2.463   4.262  15.094  0.4635 -0.4741 -0.1934
  556MPD2     C 8245   0.524   1.065  10.302  0.5049  0.4703 -0.7728
  556MPD2    C1 8246   0.499   0.981  10.408  0.2606 -0.4209  0.1164
  556MPD2    C2 8247   0.453   0.854  10.367 -0.2210 -0.5896 -0.2079
  556MPD2    C3 8248   0.426   0.814  10.238 -0.2708  0.2195 -0.1533
  556MPD2    C4 8249   0.452   0.906  10.135 -0.3245 -0.3219 -0.4380
  556MPD2    C5 8250   0.517   1.019  10.174 -0.1483 -0.5630  0.7738
  556MPD2     H 8251   0.427   0.778  10.440 -0.3430 -0.9818 -0.6553
  556MPD2    H1 8252   0.444   0.884  10.029 -2.0554 -3.1711  0.2828
  556MPD2    H2 8253   0.577   1.158  10.316 -1.6472  1.2968  1.9932
  556MPD2    H3 8254   0.546   1.088  10.096  1.6755 -1.5336  0.5913
  556MPD2     N 8255   0.378   0.682  10.217 -0.4524 -0.6703 -0.5958
  556MPD2    H5 8256   0.358   0.632  10.303  0.3386 -0.1255 -0.0965
  556MPD2    N1 8257   0.520   1.017  10.546 -0.1285  0.2015  0.1564
  556MPD2    H7 8258   0.503   0.949  10.620 -0.7984 -0.8085 -0.9386
  557TMC3    C1 8259   0.312   0.493  10.094  0.5031 -0.1735  0.3239
  557TMC3    C2 8260   0.349   0.416   9.991  0.7705 -0.1724 -0.1726
  557TMC3    C3 8261   0.325   0.286   9.991 -0.4019  0.2417 -0.5065
  557TMC3    C4 8262   0.229   0.445  10.195 -0.4229  0.2571 -0.7955
  557TMC3    C5 8263   0.206   0.311  10.194 -0.5604  0.3374  0.5652
  557TMC3    C6 8264   0.245   0.229  10.087  0.8894  0.2393 -0.5718
  557TMC3     C 8265   0.347   0.633  10.093  0.2964  0.9326 -0.4380
  557TMC3     O 8266   0.354   0.680   9.979  0.1121  0.2092 -0.0971
  557TMC3     H 8267   0.409   0.456   9.910  2.5831 -1.6134  0.4593
  557TMC3    H1 8268   0.191   0.498  10.282 -0.5923 -0.8755 -0.1796
  557TMC3    H2 8269   0.246   0.121  10.093  3.4187  0.3140  0.6590
  557TMC3    C7 8270   0.177   0.257  10.327  0.1296  0.0239 -0.0113
  557TMC3    C8 8271   0.327   0.225   9.860 -0.1162  0.2056  0.2238
  557TMC3    O1 8272   0.200   0.332  10.419 -1.0138  0.8471 -0.3735
  557TMC3    O2 8273   0.308   0.302   9.769 -0.4690  0.7647 -0.3379
  558TMC3    C1 8274   2.950   3.431  10.370 -0.4139  0.3710  0.2468
  558TMC3    C2 8275   2.845   3.410  10.448 -0.5412  0.0829  0.3120
  558TMC3    C3 8276   2.721   3.457  10.408  0.1401 -0.9153  0.9908
  558TMC3    C4 8277   2.929   3.482  10.243 -0.3226 -0.1719 -0.1291
  558TMC3    C5 8278   2.800   3.513  10.200  0.4098  0.0742  0.7309
  558TMC3    C6 8279   2.691   3.516  10.288 -0.7282  0.4056  0.4047
  558TMC3     C 8280   3.079   3.365  10.392  0.5505  0.5076 -0.8998
  558TMC3     O 8281   3.172   3.389  10.316 -0.7703 -0.2661  0.0683
  558TMC3     H 8282   2.860   3.385  10.553 -0.6380 -3.2665 -0.4594
  558TMC3    H1 8283   3.016   3.508  10.183  0.1514 -0.5349  0.4058
  558TMC3    H2 8284   2.589   3.538  10.259 -1.2979 -1.6795  0.8359
  558TMC3    C7 8285   2.788   3.543  10.065  0.5217  0.2046  0.2319
  558TMC3    C8 8286   2.611   3.428  10.507  0.0930  0.1545 -0.3202
  558TMC3    O1 8287   2.886   3.515   9.995  0.5044 -0.3883  0.2402
  558TMC3    O2 8288   2.521   3.511  10.510  0.4412  0.3680  0.3675
  559MPD2     C 8289   3.057   3.830  10.168 -0.3326  0.6519  0.4640
  559MPD2    C1 8290   2.992   3.806  10.288 -0.3989 -0.7710 -0.0161
  559MPD2    C2 8291   3.070   3.752  10.391 -0.2960  0.2869 -0.1894
  559MPD2    C3 8292   3.203   3.743  10.382 -0.5114  0.0003  0.6758
  559MPD2    C4 8293   3.263   3.768  10.263  0.8536  0.1199  0.4105
  559MPD2    C5 8294   3.185   3.809  10.156  0.3933 -0.6122  0.0487
  559MPD2     H 8295   3.013   3.727  10.480  0.2194  0.3626  0.1595
  559MPD2    H1 8296   3.369   3.757  10.243  0.8254 -0.5400  0.6111
  559MPD2    H2 8297   3.006   3.864  10.079  0.4862 -1.7512 -0.9359
  559MPD2    H3 8298   3.240   3.827  10.064 -0.6715 -2.0406 -0.8839
  559MPD2     N 8299   3.264   3.674  10.488  0.1078  0.2009  0.3056
  559MPD2    H5 8300   3.207   3.638  10.563 -1.1245  1.6635  0.0667
  559MPD2    N1 8301   2.854   3.852  10.294  0.4285  0.4784  0.6937
  559MPD2    H7 8302   2.816   3.901  10.214  0.1894 -0.1415  0.4282
  560TMC3    C1 8303   3.442   3.581  10.612 -0.2476 -0.3262 -0.1850
  560TMC3    C2 8304   3.339   3.503  10.671 -0.7607  0.5644 -0.3476
  560TMC3    C3 8305   3.366   3.436  10.791  0.0229 -0.3575  0.4593
  560TMC3    C4 8306   3.561   3.610  10.672  0.0991  1.1360  0.5915
  560TMC3    C5 8307   3.576   3.546  10.795  0.3569 -0.3115 -0.5049
  560TMC3    C6 8308   3.486   3.456  10.850  0.1349 -0.2943 -0.1665
  560TMC3     C 8309   3.398   3.646  10.493  0.6243 -0.9697 -0.5062
  560TMC3     O 8310   3.489   3.675  10.416  0.8140  0.7828  0.3423
  560TMC3     H 8311   3.258   3.463  10.610 -0.8463 -1.1140  0.8800
  560TMC3    H1 8312   3.637   3.675  10.629 -0.0228  1.5091  0.9407
  560TMC3    H2 8313   3.505   3.409  10.946 -1.1670  3.6706  2.0226
  560TMC3    C7 8314   3.703   3.552  10.870 -0.3163 -0.1356 -0.6632
  560TMC3    C8 8315   3.268   3.349  10.846 -0.0842 -0.0659  0.1735
  560TMC3    O1 8316   3.723   3.464  10.953 -0.2608  0.3455 -0.3103
  560TMC3    O2 8317   3.317   3.274  10.929  0.5344 -0.0422 -0.3866
  561TMC3    C1 8318   1.173   3.302  11.645  0.4977 -0.1177  0.3820
  561TMC3    C2 8319   1.076   3.229  11.711  0.1321 -0.0778 -0.4644
  561TMC3    C3 8320   0.964   3.291  11.755 -0.6644 -0.2027 -0.7060
  561TMC3    C4 8321   1.159   3.436  11.627 -0.1225  1.1574 -0.5627
  561TMC3    C5 8322   1.044   3.491  11.676 -0.6102  0.0785 -0.4142
  561TMC3    C6 8323   0.947   3.421  11.742 -0.5149 -0.3851 -0.2072
  561TMC3     C 8324   1.293   3.234  11.590 -0.4502 -0.3324 -1.1312
  561TMC3     O 8325   1.387   3.297  11.539  0.0856 -0.5298 -0.2940
  561TMC3     H 8326   1.077   3.122  11.726  0.8409  0.0380  0.3361
  561TMC3    H1 8327   1.223   3.496  11.564 -0.5750  3.5253  1.2595
  561TMC3    H2 8328   0.855   3.473  11.765 -0.0535  0.1512  0.4261
  561TMC3    C7 8329   1.022   3.630  11.644  0.1592 -0.7867  0.1506
  561TMC3    C8 8330   0.855   3.214  11.815  0.0865 -0.4720 -0.0019
  561TMC3    O1 8331   0.945   3.688  11.725  0.5609  0.3550 -0.0696
  561TMC3    O2 8332   0.860   3.091  11.778  0.1952  0.0124  0.1671
  562TMC3    C1 8333   2.584   4.684  15.891  0.1922  0.4625  0.5663
  562TMC3    C2 8334   2.478   0.039  15.849  0.0179  0.0587 -0.3984
  562TMC3    C3 8335   2.405   0.009  15.737  0.1288  0.3859 -0.4711
  562TMC3    C4 8336   2.591   4.563  15.825 -0.1111 -0.4985  0.0516
  562TMC3    C5 8337   2.510   4.525  15.724 -0.1509 -0.5653 -0.3606
  562TMC3    C6 8338   2.416   4.610  15.672  0.6708 -0.5069  0.7061
  562TMC3     C 8339   2.669   4.716  16.003 -0.2957  0.6846  0.4890
  562TMC3     O 8340   2.717   4.614  16.054  0.6339  0.3658 -0.2908
  562TMC3     H 8341   2.446   0.132  15.894  0.5642 -0.9532  2.1219
  562TMC3    H1 8342   2.681   4.507  15.848 -0.0969 -0.2833  0.5299
  562TMC3    H2 8343   2.349   4.580  15.593  0.4291  2.3427 -0.1859
  562TMC3    C7 8344   2.522   4.395  15.662 -0.1873  0.2291  0.3543
  562TMC3    C8 8345   2.321   0.116  15.683  0.6997 -0.6830 -0.2146
  562TMC3    O1 8346   2.486   4.393  15.544 -0.1309  0.3545  0.7913
  562TMC3    O2 8347   2.281   0.196  15.767  0.6063 -0.2788  0.6217
  563MPD2     C 8348   0.546   1.314  15.768 -0.1965 -0.5693  0.3473
  563MPD2    C1 8349   0.621   1.339  15.882  0.1180  0.3512 -0.6004
  563MPD2    C2 8350   0.760   1.350  15.869 -0.4871  0.1092 -0.2933
  563MPD2    C3 8351   0.818   1.361  15.743 -0.8108  1.0999 -0.2106
  563MPD2    C4 8352   0.748   1.332  15.634  0.2994 -0.1358 -0.6454
  563MPD2    C5 8353   0.612   1.316  15.643  0.2314 -0.4645 -0.1436
  563MPD2     H 8354   0.818   1.360  15.960  0.4190 -0.7101 -0.7831
  563MPD2    H1 8355   0.789   1.327  15.533 -1.2276 -0.9640 -1.2197
  563MPD2    H2 8356   0.438   1.306  15.766 -0.3350  0.9178  1.3383
  563MPD2    H3 8357   0.561   1.297  15.549  0.8905  1.3177 -0.8596
  563MPD2     N 8358   0.959   1.391  15.738 -0.4937 -0.0227  0.0878
  563MPD2    H5 8359   1.007   1.400  15.827  0.6912  1.0665 -0.6682
  563MPD2    N1 8360   0.549   1.374  15.999  0.1178 -0.4740  0.3923
  563MPD2    H7 8361   0.449   1.355  15.998  0.2078 -1.1243  2.6564
  564TMC3    C1 8362   0.496   1.438  16.219  0.1675  0.4314 -0.1324
  564TMC3    C2 8363   0.365   1.398  16.209  0.5434 -0.1492 -0.5454
  564TMC3    C3 8364   0.278   1.401  16.312 -0.0406  0.0966 -0.1251
  564TMC3    C4 8365   0.544   1.486  16.334  0.5776  0.7406 -0.3282
  564TMC3    C5 8366   0.454   1.480  16.443  0.5888  0.6656 -0.6715
  564TMC3    C6 8367   0.324   1.444  16.440 -0.3713 -0.0966 -0.3168
  564TMC3     C 8368   0.592   1.426  16.115  0.5214 -0.3907 -0.3829
  564TMC3     O 8369   0.710   1.461  16.133  0.2051 -0.5684 -0.5305
  564TMC3     H 8370   0.339   1.344  16.119 -1.4732 -1.1255  0.6165
  564TMC3    H1 8371   0.647   1.515  16.353  0.3232  0.3795  1.5943
  564TMC3    H2 8372   0.262   1.451  16.529 -0.7140 -0.3356 -0.5382
  564TMC3    C7 8373   0.510   1.503  16.576  0.1147 -0.4238 -0.4912
  564TMC3    C8 8374   0.196   1.279  16.329 -0.4942  0.3866  0.0704
  564TMC3    O1 8375   0.427   1.543  16.659 -0.5467  0.2702  0.1096
  564TMC3    O2 8376   0.220   1.215  16.429  0.0116 -0.0792 -0.5532
  565TMC3    C1 8377   4.502   1.576   9.574 -0.4266 -0.0873  0.2711
  565TMC3    C2 8378   4.554   1.448   9.597  0.1210 -0.0149 -0.6201
  565TMC3    C3 8379   4.501   1.345   9.529  0.4160  0.0706  0.0356
  565TMC3    C4 8380   4.411   1.604   9.468 -0.3335  0.3629  0.2003
  565TMC3    C5 8381   4.360   1.487   9.411  0.7113 -0.5186 -0.0238
  565TMC3    C6 8382   4.400   1.362   9.431  0.3224 -0.7169 -0.5149
  565TMC3     C 8383   4.558   1.694   9.644  0.6882  0.2417 -0.4969
  565TMC3     O 8384   4.517   1.802   9.602 -0.0612  0.7367  0.2757
  565TMC3     H 8385   4.630   1.428   9.673  0.5893 -1.2334 -1.4237
  565TMC3    H1 8386   4.388   1.703   9.430 -1.8699 -0.0458  0.0839
  565TMC3    H2 8387   4.363   1.285   9.365 -1.9776  1.0978 -1.3286
  565TMC3    C7 8388   4.242   1.503   9.330 -0.4713 -0.2456 -0.8098
  565TMC3    C8 8389   4.532   1.205   9.549  0.3401  0.3678 -0.1122
  565TMC3    O1 8390   4.209   1.406   9.262 -0.4208 -0.0077 -0.4601
  565TMC3    O2 8391   4.481   1.126   9.470  0.1698  0.2675  0.0244
  566MPD2     C 8392   1.583   3.569  14.318  0.3669  0.1372  0.0563
  566MPD2    C1 8393   1.661   3.572  14.205  0.5142 -0.4868 -0.1718
  566MPD2    C2 8394   1.598   3.575  14.079  0.0813  0.0289 -0.1230
  566MPD2    C3 8395   1.461   3.588  14.072 -0.4633  0.3072 -0.7651
  566MPD2    C4 8396   1.387   3.582  14.182 -0.3537 -1.0987  0.1618
  566MPD2    C5 8397   1.446   3.574  14.305 -0.1111  0.2716  0.5655
  566MPD2     H 8398   1.657   3.571  13.988  1.1748 -0.3973  0.5994
  566MPD2    H1 8399   1.279   3.586  14.187 -0.2982  0.3354  0.1079
  566MPD2    H2 8400   1.625   3.584  14.417  0.9907 -0.9451 -0.0448
  566MPD2    H3 8401   1.383   3.583  14.393 -2.2254  0.0118 -0.9373
  566MPD2     N 8402   1.397   3.605  13.942 -0.7198 -0.1411  0.3096
  566MPD2    H5 8403   1.303   3.643  13.936  0.2471  1.9311 -1.3421
  566MPD2    N1 8404   1.800   3.578  14.215  0.7267 -0.5915 -0.6090
  566MPD2    H7 8405   1.835   3.580  14.310 -1.2231 -1.4376  0.1334
  567TMC3    C1 8406   2.024   3.635  14.153 -0.1633  0.2750 -1.2144
  567TMC3    C2 8407   2.086   3.713  14.057  0.4477  0.2834  0.3395
  567TMC3    C3 8408   2.211   3.760  14.086  0.2384 -0.9697 -0.3818
  567TMC3    C4 8409   2.075   3.606  14.283  0.1809  0.1213  0.1337
  567TMC3    C5 8410   2.206   3.650  14.298  0.5236  0.6567 -0.0261
  567TMC3    C6 8411   2.274   3.721  14.201  0.3023 -0.3247  0.0966
  567TMC3     C 8412   1.889   3.607  14.114 -0.0160 -0.0982 -0.4836
  567TMC3     O 8413   1.864   3.630  13.998 -0.1100 -0.1888  0.3387
  567TMC3     H 8414   2.037   3.765  13.976 -0.6729 -1.5513 -0.1653
  567TMC3    H1 8415   2.035   3.536  14.355 -0.0506  0.3999  0.2760
  567TMC3    H2 8416   2.370   3.761  14.234 -0.9209  2.1728  0.5965
  567TMC3    C7 8417   2.276   3.614  14.420  0.1968  0.1016 -0.3816
  567TMC3    C8 8418   2.240   3.886  14.024  0.2323 -0.8568  0.3320
  567TMC3    O1 8419   2.396   3.594  14.413 -0.2878  0.1032 -0.2970
  567TMC3    O2 8420   2.145   3.962  14.017 -0.4388  0.3768 -0.0125
  568MPD2     C 8421   4.596   4.433  16.565  0.0920  0.4522  0.0529
  568MPD2    C1 8422   4.651   4.513  16.661  0.2611 -0.5125  0.0637
  568MPD2    C2 8423   4.691   4.643  16.643  0.3423  0.2114  1.1253
  568MPD2    C3 8424   4.665   4.706  16.522 -0.6251 -0.2502  0.9192
  568MPD2    C4 8425   4.590   4.634  16.429 -0.2590  0.2421 -1.0166
  568MPD2    C5 8426   4.561   4.502  16.452  0.4780 -0.0222 -0.9338
  568MPD2     H 8427   0.033   4.690  16.717  1.7377 -1.0273  0.7288
  568MPD2    H1 8428   4.566   4.677  16.333  1.1799  0.7329 -1.1543
  568MPD2    H2 8429   4.541   4.342  16.584 -0.4199  1.0316  1.3285
  568MPD2    H3 8430   4.503   4.444  16.381 -0.8187 -0.8899  0.8186
  568MPD2     N 8431   4.696   0.125  16.503 -0.0942  0.0422 -0.2060
  568MPD2    H5 8432   0.019   0.164  16.586 -2.2277  0.0301  0.9218
  568MPD2    N1 8433   4.670   4.452  16.789 -0.2527  0.2916  0.2312
  568MPD2    H7 8434   4.666   4.351  16.797  0.0951  0.3431  1.0485
  569TMC3    C1 8435   4.695   0.346  16.431 -0.0999  0.1302 -0.2394
  569TMC3    C2 8436   0.003   0.388  16.562  0.7388  0.0228 -0.8538
  569TMC3    C3 8437   0.002   0.517  16.590 -0.4793 -0.6406 -0.4397
  569TMC3    C4 8438   4.683   0.442  16.325  0.5402  0.3905  0.3083
  569TMC3    C5 8439   4.695   0.578  16.361  0.2898 -0.8065 -0.1356
  569TMC3    C6 8440   4.715   0.617  16.492  0.2924  0.4818 -0.7543
  569TMC3     C 8441   4.657   0.210  16.400  0.2881 -0.5208  0.1319
  569TMC3     O 8442   4.605   0.187  16.290  0.0927 -0.2819 -0.7624
  569TMC3     H 8443   4.715   0.312  16.639  0.4529  0.3585 -0.5580
  569TMC3    H1 8444   4.661   0.416  16.222  1.2785 -0.7169  0.4367
  569TMC3    H2 8445   4.689   0.720  16.513  0.1981  0.2385  0.3126
  569TMC3    C7 8446   4.669   0.687  16.271  0.3447 -0.2412  0.2122
  569TMC3    C8 8447   4.718   0.541  16.734 -1.1935  0.4373  0.0846
  569TMC3    O1 8448   4.635   0.650  16.155 -0.3453 -0.3489 -0.4600
  569TMC3    O2 8449   4.672   0.454  16.810 -0.2465 -0.1566  0.2664
  570TMC3    C1 8450   3.851   3.721  16.434  1.2250  0.4870  0.8894
  570TMC3    C2 8451   3.916   3.695  16.315  0.5477  0.1595  0.1279
  570TMC3    C3 8452   4.000   3.784  16.259  0.4637 -0.2446  0.3750
  570TMC3    C4 8453   3.845   3.845  16.485  0.1168 -0.6209 -1.0088
  570TMC3    C5 8454   3.913   3.942  16.420  0.2961  0.4008 -0.9690
  570TMC3    C6 8455   3.990   3.911  16.307 -0.1815 -0.9290  0.1753
  570TMC3     C 8456   3.778   3.615  16.505 -0.0546  0.6409 -0.2239
  570TMC3     O 8457   3.752   3.519  16.437  0.1113 -0.4666 -0.0231
  570TMC3     H 8458   3.904   3.591  16.289 -2.4761  0.3244  0.9019
  570TMC3    H1 8459   3.784   3.873  16.571 -0.8753 -2.7120 -1.0380
  570TMC3    H2 8460   4.055   3.986  16.263  0.0312 -1.1632  0.0895
  570TMC3    C7 8461   3.940   4.064  16.491 -0.1968 -0.4344  0.2737
  570TMC3    C8 8462   4.116   3.750  16.178  0.6128 -0.2562  0.3242
  570TMC3    O1 8463   3.950   4.054  16.616  0.8532 -0.5009 -0.0079
  570TMC3    O2 8464   4.195   3.839  16.155 -0.2323 -0.0675  0.6039
  571MPD2     C 8465   2.219   0.035  17.411  0.0426  0.5342  0.2598
  571MPD2    C1 8466   2.107   0.012  17.493 -0.0311 -0.3339  0.3613
  571MPD2    C2 8467   2.027   0.126  17.514 -0.6847  0.2856 -0.4578
  571MPD2    C3 8468   2.075   0.250  17.467  0.3444  0.1047  0.2418
  571MPD2    C4 8469   2.191   0.273  17.404 -0.6668 -0.2684 -0.3493
  571MPD2    C5 8470   2.255   0.159  17.362  0.0291  0.7457 -0.1045
  571MPD2     H 8471   1.941   0.119  17.580 -0.5633  0.9108 -0.2329
  571MPD2    H1 8472   2.232   0.367  17.368  0.6609 -0.4562  0.6577
  571MPD2    H2 8473   2.284   4.675  17.378  0.7391  0.6215  1.4121
  571MPD2    H3 8474   2.342   0.174  17.298  1.4311 -0.3180  1.5534
  571MPD2     N 8475   2.008   0.368  17.498  0.2134  0.2033  0.1652
  571MPD2    H5 8476   2.033   0.450  17.443  0.9345 -0.1665 -0.0488
  571MPD2    N1 8477   2.078   4.606  17.551 -0.0493  0.2851 -0.2223
  571MPD2    H7 8478   2.146   4.539  17.517 -0.6204 -0.8764  0.9646
  572TMC3    C1 8479   1.853   0.511  17.565  0.0375 -0.8446 -0.2102
  572TMC3    C2 8480   1.726   0.515  17.531  0.3107 -0.3413 -0.3780
  572TMC3    C3 8481   1.657   0.614  17.591 -0.0847 -0.1118 -0.2464
  572TMC3    C4 8482   1.913   0.609  17.640 -0.3547 -0.3089 -0.0675
  572TMC3    C5 8483   1.843   0.708   0.016  0.2645  0.2011  0.6142
  572TMC3    C6 8484   1.707   0.709  17.680  0.3041 -0.1339  0.3390
  572TMC3     C 8485   1.905   0.380  17.582  0.6174  0.8611 -0.1564
  572TMC3     O 8486   1.859   0.298  17.664 -0.5636 -0.1091 -0.4502
  572TMC3     H 8487   1.685   0.426  17.484 -2.3824 -0.2832  1.8480
  572TMC3    H1 8488   2.017   0.589  17.665 -0.6470  0.6641  1.9078
  572TMC3    H2 8489   1.645   0.788   0.035  0.4782  0.2022 -0.0523
  572TMC3    C7 8490   1.897   0.847   0.017 -0.3957 -0.1852  0.3467
  572TMC3    C8 8491   1.539   0.653  17.518  0.2153 -0.0333 -0.2525
  572TMC3    O1 8492   1.811   0.938   0.031 -0.0316 -0.0658  0.0266
  572TMC3    O2 8493   1.529   0.614  17.401  0.1423 -0.3677 -0.1582
  573MPD2     C 8494   2.866   0.729   0.219 -0.2535  0.3892 -0.8641
  573MPD2    C1 8495   2.919   0.845   0.262  0.7467 -0.0010 -0.1129
  573MPD2    C2 8496   3.032   0.893   0.191 -0.4679  0.2995 -0.1940
  573MPD2    C3 8497   3.088   0.811   0.091 -0.8757  0.4510 -0.3331
  573MPD2    C4 8498   3.030   0.692   0.053 -0.0368  0.7590  0.5650
  573MPD2    C5 8499   2.920   0.653   0.117  0.4548 -0.2214  0.5416
  573MPD2     H 8500   3.076   0.987   0.223 -0.7403  1.3282 -2.8656
  573MPD2    H1 8501   3.078   0.619  17.674  0.4005  1.2013  0.3902
  573MPD2    H2 8502   2.773   0.693   0.261  0.3755  1.9695  1.8852
  573MPD2    H3 8503   2.881   0.557   0.087  1.5990  0.0920 -1.9386
  573MPD2     N 8504   3.200   0.858   0.015  0.0417  0.1582 -0.4836
  573MPD2    H5 8505   3.201   0.812  17.611  0.5120 -2.5343  0.9049
  573MPD2    N1 8506   2.865   0.906   0.376 -0.3140 -0.2072 -0.2554
  573MPD2    H7 8507   2.785   0.861   0.419  0.1006 -0.4891  0.2251
  574TMC3    C1 8508   3.369   0.983  17.623  0.0841  0.3588 -0.3240
  574TMC3    C2 8509   3.348   0.935  17.498  0.1703  0.6888  0.1502
  574TMC3    C3 8510   3.443   0.969  17.402  0.6096 -0.2646  0.2936
  574TMC3    C4 8511   3.485   1.066  17.650  0.1958 -0.4748 -0.2742
  574TMC3    C5 8512   3.581   1.087  17.549  0.0249 -0.1378 -0.8560
  574TMC3    C6 8513   3.563   1.029  17.430  0.1339 -0.1995 -0.3354
  574TMC3     C 8514   3.279   0.962   0.042  0.8888  0.4897  0.1339
  574TMC3     O 8515   3.284   1.027   0.145  0.1518 -0.2161 -0.0408
  574TMC3     H 8516   3.253   0.888  17.474  0.8109 -0.4863 -0.0631
  574TMC3    H1 8517   3.486   1.110   0.064 -2.1596 -3.3179  1.0196
  574TMC3    H2 8518   3.619   1.074  17.349  0.4250  0.5961  0.2994
  574TMC3    C7 8519   3.652   1.218  17.554 -0.1869  0.3164  0.1518
  574TMC3    C8 8520   3.443   0.890  17.283  0.4977 -0.3191  0.6675
  574TMC3    O1 8521   3.678   1.283  17.450  0.3926 -0.5968  0.5946
  574TMC3    O2 8522   3.554   0.855  17.240  0.6940  0.8723  0.4794
  575TMC3    C1 8523   0.107   1.014  10.478  0.5623 -0.5029 -0.0039
  575TMC3    C2 8524   0.059   0.887  10.520  0.0528  0.0218  0.1833
  575TMC3    C3 8525   0.047   0.797  10.417 -0.5614  0.5887 -0.6133
  575TMC3    C4 8526   0.130   1.047  10.343  0.1275 -0.5084  0.0928
  575TMC3    C5 8527   0.113   0.952  10.245  0.3368 -0.4571 -0.3743
  575TMC3    C6 8528   0.073   0.828  10.290 -0.1543 -0.1440 -0.1229
  575TMC3     C 8529   0.143   1.113  10.585  0.4697  0.3332 -0.5343
  575TMC3     O 8530   0.186   1.218  10.548  0.1254 -0.0297 -0.1258
  575TMC3     H 8531   0.032   0.851  10.619 -1.1956 -2.2069 -0.9575
  575TMC3    H1 8532   0.153   1.146  10.304  1.3351  0.0221  2.1097
  575TMC3    H2 8533   0.062   0.758  10.208  0.6036  1.6118 -1.7186
  575TMC3    C7 8534   0.076   1.009  10.112 -0.1329  0.1745 -0.9301
  575TMC3    C8 8535   4.699   0.671  10.443 -0.4603 -0.2636 -0.5695
  575TMC3    O1 8536   0.014   1.114  10.124  0.1233  0.3476 -0.0630
  575TMC3    O2 8537   0.015   0.609  10.544 -0.2497  0.0893 -0.5826
  576MPD2     C 8538   4.474   3.638  12.694 -0.0300  0.1938  0.3176
  576MPD2    C1 8539   4.464   3.695  12.571  0.5051 -0.1672  0.1366
  576MPD2    C2 8540   4.372   3.797  12.556 -0.0097 -0.2491  0.4046
  576MPD2    C3 8541   4.293   3.845  12.659  0.3806 -0.4163  0.3628
  576MPD2    C4 8542   4.288   3.777  12.772  0.3774 -0.4638  0.8058
  576MPD2    C5 8543   4.375   3.667  12.784 -0.1811  0.7397 -0.0434
  576MPD2     H 8544   4.362   3.838  12.456  0.1090  1.7003  1.2011
  576MPD2    H1 8545   4.227   3.803  12.858 -1.0708  0.3307 -0.4480
  576MPD2    H2 8546   4.545   3.559  12.717  0.4076  0.2100 -1.0045
  576MPD2    H3 8547   4.368   3.612  12.877  0.2320 -0.4537 -0.7242
  576MPD2     N 8548   4.210   3.955  12.641  0.5319 -0.2498  0.2056
  576MPD2    H5 8549   4.215   3.992  12.547 -1.4047  0.9175  0.5768
  576MPD2    N1 8550   4.548   3.667  12.462 -0.5601 -0.1315 -0.0840
  576MPD2    H7 8551   4.528   3.723  12.380  0.0607 -1.2652 -0.9945
  577TMC3    C1 8552   4.711   3.567  12.331 -0.3440  0.3688  0.2645
  577TMC3    C2 8553   0.062   3.449  12.310 -0.7114  0.4404  0.5574
  577TMC3    C3 8554   0.158   3.456  12.216  0.4806 -0.5226 -0.4901
  577TMC3    C4 8555   0.017   3.686  12.272  0.2152  0.6296 -0.1122
  577TMC3    C5 8556   0.115   3.688  12.174 -0.1003  0.0523  0.1171
  577TMC3    C6 8557   0.187   3.572  12.145  0.1932 -0.1442 -0.3036
  577TMC3     C 8558   4.641   3.568  12.459  0.4001  0.0968 -0.4367
  577TMC3     O 8559   4.681   3.484  12.536  0.7981 -0.2343 -0.3296
  577TMC3     H 8560   0.031   3.363  12.370 -0.2006  0.1071  0.3374
  577TMC3    H1 8561   4.674   3.770  12.296 -0.3507  0.3293 -0.5478
  577TMC3    H2 8562   0.264   3.588  12.071  0.4212 -0.3376 -0.1076
  577TMC3    C7 8563   0.135   3.805  12.081 -0.9626 -0.2593  1.2375
  577TMC3    C8 8564   0.230   3.341  12.187  0.1398  1.0213 -0.2460
  577TMC3    O1 8565   0.133   3.917  12.132 -0.9892 -0.5284 -0.1750
  577TMC3    O2 8566   0.177   3.232  12.205  0.2930  0.3279  0.3558
  578MPD2     C 8567   2.566   4.107   0.902  0.2853 -0.3970 -0.4545
  578MPD2    C1 8568   2.580   3.979   0.868 -0.3027  0.0880  0.2273
  578MPD2    C2 8569   2.645   3.890   0.946 -0.2616 -0.4978 -0.3350
  578MPD2    C3 8570   2.707   3.934   1.059 -0.6138  0.1202  0.0370
  578MPD2    C4 8571   2.695   4.067   1.096 -0.6470  0.6438 -0.3333
  578MPD2    C5 8572   2.620   4.152   1.017 -0.1784  0.1868 -0.5802
  578MPD2     H 8573   2.628   3.784   0.932  1.0813 -0.5980 -1.1860
  578MPD2    H1 8574   2.749   4.108   1.180 -0.7886  1.6077 -0.7170
  578MPD2    H2 8575   2.503   4.179   0.851 -0.2701  0.0428  0.8618
  578MPD2    H3 8576   2.601   4.256   1.042  1.9052  0.8473 -1.7677
  578MPD2     N 8577   2.781   3.835   1.131  0.4723  0.0104 -0.7614
  578MPD2    H5 8578   2.773   3.743   1.088  3.0013 -0.7558  0.4148
  578MPD2    N1 8579   2.512   3.938   0.749  0.5178  0.3310  0.3803
  578MPD2    H7 8580   2.466   4.013   0.698 -0.6875  1.0688  2.5671
  579TMC3    C1 8581   2.966   3.756   1.266  0.7351 -0.0440  0.5439
  579TMC3    C2 8582   3.043   3.773   1.376 -0.0324  0.2345 -0.1866
  579TMC3    C3 8583   3.116   3.666   1.414 -0.1768 -0.3150 -0.5987
  579TMC3    C4 8584   2.958   3.633   1.203  0.1849  0.4026  0.6329
  579TMC3    C5 8585   3.028   3.528   1.253 -0.0297  0.0816 -0.1975
  579TMC3    C6 8586   3.110   3.538   1.360 -0.7797 -0.3929  0.0329
  579TMC3     C 8587   2.878   3.865   1.222  0.2196 -0.1159 -0.6314
  579TMC3     O 8588   2.914   3.973   1.275 -0.2246 -0.3052  0.9039
  579TMC3     H 8589   3.055   3.870   1.422 -0.2380 -1.0103  2.5224
  579TMC3    H1 8590   2.886   3.614   1.124  0.1372 -0.8975  0.9974
  579TMC3    H2 8591   3.157   3.453   1.408  2.4722  0.4355 -1.6983
  579TMC3    C7 8592   3.035   3.395   1.179  0.4713 -0.1575 -0.0880
  579TMC3    C8 8593   3.196   3.680   1.535  0.7979 -0.2116 -0.5482
  579TMC3    O1 8594   3.122   3.322   1.224  0.1821 -0.1209  0.7381
  579TMC3    O2 8595   3.151   3.759   1.619 -0.8085  0.1554 -0.1185
  580TMC3    C1 8596   2.600   2.379  12.282 -0.3615  0.1518  0.6343
  580TMC3    C2 8597   2.713   2.330  12.218  0.1342 -0.0973  0.1686
  580TMC3    C3 8598   2.761   2.201  12.248  0.1617 -0.4595  0.0756
  580TMC3    C4 8599   2.547   2.308  12.389  0.1079  0.5762 -0.0438
  580TMC3    C5 8600   2.589   2.180  12.413 -0.1506 -0.0490 -0.6796
  580TMC3    C6 8601   2.688   2.123  12.332  0.1088 -0.3261 -0.2143
  580TMC3     C 8602   2.532   2.502  12.247 -0.5838  0.7537 -0.1451
  580TMC3     O 8603   2.444   2.554  12.317 -0.0528 -1.0191  0.1965
  580TMC3     H 8604   2.769   2.386  12.144 -0.1008 -0.0253  0.0484
  580TMC3    H1 8605   2.455   2.343  12.434 -0.2236  0.8774 -0.9537
  580TMC3    H2 8606   2.734   2.027  12.352  0.4765  0.0175  0.5891
  580TMC3    C7 8607   2.600   2.133  12.551 -0.4056 -0.7518  0.4340
  580TMC3    C8 8608   2.904   2.196  12.281  0.1593  0.7527 -0.1025
  580TMC3    O1 8609   2.622   2.218  12.637 -0.4475  0.5472 -0.2730
  580TMC3    O2 8610   2.951   2.160  12.385 -0.0284  0.0578 -0.5448
  581MPD2     C 8611   0.694   2.343  14.748 -0.5235 -0.7071  0.4889
  581MPD2    C1 8612   0.675   2.400  14.872  0.4873 -0.3082  0.0512
  581MPD2    C2 8613   0.555   2.450  14.906 -0.0103  0.2583  0.5424
  581MPD2    C3 8614   0.450   2.421  14.822  0.1133  0.2660 -1.0270
  581MPD2    C4 8615   0.463   2.369  14.696 -0.3152 -0.1659 -0.0372
  581MPD2    C5 8616   0.592   2.337  14.662 -0.1862  0.0346  1.2703
  581MPD2     H 8617   0.540   2.502  14.999 -0.5578  0.0618  0.5666
  581MPD2    H1 8618   0.389   2.353  14.619 -1.7254  1.0267  1.0749
  581MPD2    H2 8619   0.792   2.318  14.710  0.1727  1.8385  0.6082
  581MPD2    H3 8620   0.609   2.301  14.562 -1.0960 -0.9484  1.4855
  581MPD2     N 8621   0.317   2.455  14.867 -0.3949 -0.5223 -0.1211
  581MPD2    H5 8622   0.313   2.496  14.959  1.1701 -1.9310  0.5882
  581MPD2    N1 8623   0.789   2.400  14.953  0.4166  0.2024  0.2845
  581MPD2    H7 8624   0.873   2.361  14.910 -0.4562  0.8872 -2.0326
  582TMC3    C1 8625   0.907   2.377  15.147 -0.6489 -0.3883  0.0765
  582TMC3    C2 8626   0.944   2.434  15.263  0.9476 -0.0005  0.0304
  582TMC3    C3 8627   1.009   2.360  15.356  0.4421  0.1100 -0.7276
  582TMC3    C4 8628   0.930   2.241  15.126  0.1236  0.2473 -0.2065
  582TMC3    C5 8629   0.993   2.168  15.225  0.1539  0.1652 -0.4140
  582TMC3    C6 8630   1.042   2.229  15.339 -0.2376  0.5243 -0.2272
  582TMC3     C 8631   0.790   2.428  15.082  0.3248  0.5109 -0.7246
  582TMC3     O 8632   0.696   2.462  15.150 -0.6576  0.0556  0.0026
  582TMC3     H 8633   0.940   2.542  15.269  0.7153 -0.0539  0.8493
  582TMC3    H1 8634   0.887   2.185  15.044 -0.6209 -0.3870  0.6178
  582TMC3    H2 8635   1.078   2.163  15.417 -0.5257  0.9480  0.2634
  582TMC3    C7 8636   0.903   2.067  15.263 -0.2223  1.4200 -0.2210
  582TMC3    C8 8637   1.031   2.410  15.486  0.0726  0.6258  0.2184
  582TMC3    O1 8638   0.946   1.968  15.314 -0.2162 -0.4255 -0.3468
  582TMC3    O2 8639   0.974   2.513  15.518  1.1118 -0.6768 -0.1831
  583MPD2     C 8640   1.352   4.070  17.066  0.4343 -0.0405 -0.1958
  583MPD2    C1 8641   1.363   4.173  16.973  0.3327  0.7811 -0.3808
  583MPD2    C2 8642   1.310   4.293  17.002 -0.1556  0.0458 -0.6952
  583MPD2    C3 8643   1.244   4.318  17.121  0.3011 -0.5364  1.1027
  583MPD2    C4 8644   1.248   4.221  17.218  0.4971  0.5830  0.5518
  583MPD2    C5 8645   1.297   4.094  17.188 -0.5142 -0.6309 -0.4744
  583MPD2     H 8646   1.347   4.377  16.944  1.4916 -0.3173 -0.1717
  583MPD2    H1 8647   1.217   4.233  17.322 -1.5069 -1.5747  0.2055
  583MPD2    H2 8648   1.391   3.971  17.049 -1.1747 -0.8267  0.6780
  583MPD2    H3 8649   1.298   4.024  17.270  0.6905  0.0328  0.0782
  583MPD2     N 8650   1.197   4.445  17.147 -0.1639 -0.7167 -0.0298
  583MPD2    H5 8651   1.207   4.511  17.070  2.7688 -0.5270  0.5087
  583MPD2    N1 8652   1.425   4.168  16.841 -0.3073 -0.3283 -0.0798
  583MPD2    H7 8653   1.411   4.249  16.781  2.9414  0.0116 -0.3693
  584TMC3    C1 8654   1.069   4.616  17.258 -0.3518 -0.3973 -0.3758
  584TMC3    C2 8655   1.142   4.718  17.203  0.3859 -0.0790  0.3461
  584TMC3    C3 8656   1.091   0.128  17.222  1.1629 -0.2711 -0.2631
  584TMC3    C4 8657   0.949   4.635  17.314 -0.5847  0.1573  1.2070
  584TMC3    C5 8658   0.898   0.040  17.325  0.5363  0.1549 -0.2751
  584TMC3    C6 8659   0.972   0.149  17.284  0.3882  0.0302  0.0907
  584TMC3     C 8660   1.131   4.480  17.263 -0.6294 -0.6375 -0.0434
  584TMC3     O 8661   1.086   4.407  17.350 -0.5843 -0.2004  0.6573
  584TMC3     H 8662   1.239   4.699  17.159  0.1890 -3.9255  1.5664
  584TMC3    H1 8663   0.895   4.553  17.360  0.0153 -1.0868 -0.3244
  584TMC3    H2 8664   0.932   0.249  17.281  2.9107  0.9730 -1.5807
  584TMC3    C7 8665   0.786   0.047  17.415  0.2857 -0.2566 -0.1600
  584TMC3    C8 8666   1.122   0.223  17.118  0.6926 -0.4474  0.3989
  584TMC3    O1 8667   0.724   4.665  17.432 -0.1639  0.3016 -0.2462
  584TMC3    O2 8668   1.056   0.211  17.015 -0.4801  0.1750  0.3745
  585MPD2     C 8669   0.050   2.886   0.783  0.3270 -0.2038  0.2159
  585MPD2    C1 8670   0.120   2.983   0.719  0.0762  0.1393 -0.2546
  585MPD2    C2 8671   0.212   2.941   0.623 -0.4710 -0.1491  0.3123
  585MPD2    C3 8672   0.216   2.814   0.569  0.4889  1.2848 -0.6854
  585MPD2    C4 8673   0.143   2.721   0.637 -0.0073 -0.1382  0.0363
  585MPD2    C5 8674   0.068   2.760   0.742 -0.1986  0.0221 -0.0483
  585MPD2     H 8675   0.282   3.020   0.599 -2.6139  1.3189 -1.0875
  585MPD2    H1 8676   0.147   2.618   0.603 -0.7697 -0.6225  1.4317
  585MPD2    H2 8677   4.700   2.911   0.862  0.1905  0.4931 -0.1259
  585MPD2    H3 8678   0.025   2.677   0.797  0.7981 -0.8177 -0.5383
  585MPD2     N 8679   0.286   2.775   0.450  0.2388  0.3969  0.4289
  585MPD2    H5 8680   0.275   2.679   0.419 -0.2279  0.7479 -0.4727
  585MPD2    N1 8681   0.097   3.121   0.735 -0.6028  0.4488 -0.3296
  585MPD2    H7 8682   0.139   3.189   0.672 -0.7566  1.0581  0.2282
  586TMC3    C1 8683   0.391   2.804   0.244 -0.6097  0.3620 -0.1885
  586TMC3    C2 8684   0.511   2.823   0.183  0.1875  0.3250  0.0254
  586TMC3    C3 8685   0.538   2.753   0.064  0.4041  0.4173  0.0933
  586TMC3    C4 8686   0.286   2.746   0.174 -0.0063  0.3113 -0.1679
  586TMC3    C5 8687   0.310   2.677   0.064  0.0688 -0.5133 -0.0790
  586TMC3    C6 8688   0.436   2.680   0.001  0.5287 -0.2478  0.1303
  586TMC3     C 8689   0.367   2.857   0.379  0.3898 -0.3636  0.2172
  586TMC3     O 8690   0.421   2.961   0.416 -0.1038  0.3272  0.5685
  586TMC3     H 8691   0.591   2.882   0.225  1.3836 -0.3124 -1.3656
  586TMC3    H1 8692   0.187   2.738   0.218 -0.0837  0.6125 -0.2916
  586TMC3    H2 8693   0.459   2.627  17.595  0.8650 -0.0876  0.1229
  586TMC3    C7 8694   0.192   2.643  17.670  0.1162  0.5361  0.3381
  586TMC3    C8 8695   0.671   2.774   0.002  0.2995  0.0459 -0.4241
  586TMC3    O1 8696   0.093   2.594   0.034  0.3897 -0.4839  0.3738
  586TMC3    O2 8697   0.762   2.805   0.076 -0.1597 -0.0228 -0.0536
  587TMC3    C1 8698   2.847   2.012  16.490 -0.3967  0.2025 -0.7739
  587TMC3    C2 8699   2.804   2.080  16.385  0.1987 -0.0227  0.8683
  587TMC3    C3 8700   2.890   2.173  16.328  0.2095 -1.0137 -0.1261
  587TMC3    C4 8701   2.978   2.035  16.542  0.3583  0.6103  0.0831
  587TMC3    C5 8702   3.049   2.137  16.481  1.0178  0.7367  0.1973
  587TMC3    C6 8703   3.015   2.199  16.364 -0.5071  0.2551  0.2410
  587TMC3     C 8704   2.783   1.882  16.519  0.2734  0.0509  0.7623
  587TMC3     O 8705   2.860   1.806  16.575  0.2474  0.1460  0.0787
  587TMC3     H 8706   2.707   2.060  16.340 -0.2439  0.6654  1.5103
  587TMC3    H1 8707   3.007   1.992  16.638 -0.6992  1.4941  0.8027
  587TMC3    H2 8708   3.068   2.280  16.314 -1.2408  2.0766  2.4208
  587TMC3    C7 8709   3.186   2.158  16.515  0.2235 -0.4755 -0.2135
  587TMC3    C8 8710   2.826   2.288  16.259 -0.2639 -0.5114 -0.3011
  587TMC3    O1 8711   3.253   2.186  16.418 -0.7254  0.3489 -0.3823
  587TMC3    O2 8712   2.891   2.354  16.177  0.4962 -0.2031  0.0170
  588TMC3    C1 8713   4.132   4.200   9.466  0.4007  0.0377 -0.0153
  588TMC3    C2 8714   4.089   4.084   9.523 -0.5005 -0.1622 -0.4759
  588TMC3    C3 8715   4.113   4.064   9.649  0.3446  0.9345 -0.8587
  588TMC3    C4 8716   4.202   4.292   9.549  0.6177  0.0483 -0.1579
  588TMC3    C5 8717   4.217   4.273   9.680 -0.5737  0.4144 -0.7340
  588TMC3    C6 8718   4.174   4.157   9.738 -0.3980  0.4661  0.1628
  588TMC3     C 8719   4.079   4.251   9.338 -0.1153 -0.0384  1.4011
  588TMC3     O 8720   3.965   4.204   9.311  0.0724  0.2157  0.1032
  588TMC3     H 8721   4.036   4.009   9.465  1.1909 -0.8885 -1.0947
  588TMC3    H1 8722   4.257   4.378   9.512  2.1792 -1.3354 -1.0074
  588TMC3    H2 8723   4.179   4.134   9.844  0.0517  0.2008  0.0834
  588TMC3    C7 8724   4.218   4.394   9.768 -0.0365 -0.0227  0.3519
  588TMC3    C8 8725   4.073   3.938   9.702  0.3585  0.3843 -0.0633
  588TMC3    O1 8726   4.263   4.389   9.882  0.5984 -0.0102 -0.5042
  588TMC3    O2 8727   3.966   3.903   9.660  0.1308 -0.5610 -0.0660
  589TMC3    C1 8728   3.954   2.148   0.982  0.7862  1.1061 -0.3197
  589TMC3    C2 8729   4.033   2.254   1.032 -0.2697 -0.4403 -0.3876
  589TMC3    C3 8730   4.168   2.235   1.027 -0.5306 -0.5913 -0.8658
  589TMC3    C4 8731   3.998   2.027   0.944  0.7511  0.2756 -0.8032
  589TMC3    C5 8732   4.133   2.013   0.951 -0.1548 -0.5498  0.6272
  589TMC3    C6 8733   4.224   2.109   0.996  0.1270 -0.0256 -0.4393
  589TMC3     C 8734   3.809   2.147   1.003 -0.0832 -0.1557 -0.2133
  589TMC3     O 8735   3.747   2.061   0.946  0.4023 -0.9018 -0.1014
  589TMC3     H 8736   3.992   2.354   1.032 -1.0000 -0.7469  1.6654
  589TMC3    H1 8737   3.933   1.948   0.908  0.7076  0.1060 -0.3608
  589TMC3    H2 8738   4.331   2.097   0.983 -0.0667 -1.0415 -1.0511
  589TMC3    C7 8739   4.170   1.879   0.892  0.5660  0.4201  0.7470
  589TMC3    C8 8740   4.249   2.357   1.053  0.2736  0.5208  0.6010
  589TMC3    O1 8741   4.082   1.792   0.866 -0.0258  0.2287 -1.1342
  589TMC3    O2 8742   4.193   2.461   1.025 -0.3803 -0.0510  0.2706
  590MPD2     C 8743   3.976   0.017  16.682 -0.3403  0.2774  0.1750
  590MPD2    C1 8744   3.945   0.016  16.548 -0.1933 -0.3686  0.8115
  590MPD2    C2 8745   4.025   0.077  16.453 -0.2353 -0.3744 -0.0368
  590MPD2    C3 8746   4.137   0.139  16.502  0.0315 -0.5212  0.3663
  590MPD2    C4 8747   4.164   0.149  16.637 -0.2545 -0.0242 -0.2124
  590MPD2    C5 8748   4.085   0.085  16.725 -0.6334  0.6848  0.3637
  590MPD2     H 8749   4.003   0.088  16.347 -0.9892  1.3691  0.2989
  590MPD2    H1 8750   4.257   0.202  16.656  0.8281 -1.8754 -0.3745
  590MPD2    H2 8751   3.918   4.676  16.750 -0.2044  0.3009  0.3130
  590MPD2    H3 8752   4.118   0.077  16.828 -1.4253  0.3147  0.5827
  590MPD2     N 8753   4.211   0.206  16.402 -0.0558  0.8976  0.1939
  590MPD2    H5 8754   4.181   0.177  16.310 -2.5411 -0.3639  1.4027
  590MPD2    N1 8755   3.823   4.679  16.520  0.2643  0.2966 -0.1988
  590MPD2    H7 8756   3.770   4.635  16.595 -0.7071  2.5298  0.4449
  591TMC3    C1 8757   4.345   0.365  16.292 -0.5378  0.2014 -0.1899
  591TMC3    C2 8758   4.329   0.286  16.173 -0.2151 -0.4640 -0.4141
  591TMC3    C3 8759   4.328   0.349  16.059 -0.1113  0.1439  0.3678
  591TMC3    C4 8760   4.342   0.499  16.287 -0.3384  0.1418  0.0281
  591TMC3    C5 8761   4.325   0.558  16.167 -0.7278 -0.0351  0.1368
  591TMC3    C6 8762   4.336   0.486  16.046  0.1012  0.2389 -0.2011
  591TMC3     C 8763   4.306   0.301  16.418  0.1428  0.3188  0.0652
  591TMC3     O 8764   4.335   0.367  16.520 -0.1666 -0.6062  0.4070
  591TMC3     H 8765   4.344   0.179  16.177 -0.8681 -0.5855 -1.3083
  591TMC3    H1 8766   4.347   0.563  16.374  2.0296  1.2468 -0.9206
  591TMC3    H2 8767   4.334   0.546  15.956 -1.8424 -1.6454 -1.4234
  591TMC3    C7 8768   4.290   0.698  16.162 -0.1149 -0.6657  0.0374
  591TMC3    C8 8769   4.339   0.271  15.939  1.0101  0.1668 -0.1574
  591TMC3    O1 8770   4.316   0.774  16.253 -0.2329 -0.4741  0.3038
  591TMC3    O2 8771   4.291   0.163  15.939  0.2022 -0.1900  0.3157
  592MPD2     C 8772   3.576   2.006  11.074 -0.0225 -0.0677 -0.2351
  592MPD2    C1 8773   3.610   1.993  11.210  0.3525  0.7778 -0.4537
  592MPD2    C2 8774   3.515   1.928  11.284  0.2062 -0.5926  0.3173
  592MPD2    C3 8775   3.409   1.855  11.233 -0.5267  0.4843 -0.4594
  592MPD2    C4 8776   3.379   1.871  11.102 -0.0867 -0.2570 -0.0132
  592MPD2    C5 8777   3.470   1.938  11.023  0.2635  1.1055  0.2826
  592MPD2     H 8778   3.535   1.920  11.390  1.7713 -1.7687 -0.0628
  592MPD2    H1 8779   3.291   1.826  11.057  0.1332 -3.1101  2.3706
  592MPD2    H2 8780   3.625   2.081  11.013 -2.3397  3.0122  1.7049
  592MPD2    H3 8781   3.456   1.947  10.916  2.5695 -0.3992 -0.1399
  592MPD2     N 8782   3.327   1.769  11.319  0.4397 -0.3056  0.3332
  592MPD2    H5 8783   3.348   1.751  11.416  2.1506  0.4039  0.1042
  592MPD2    N1 8784   3.712   2.079  11.266  0.2340  0.5732  0.3926
  592MPD2    H7 8785   3.770   2.128  11.198 -0.8027 -0.1496 -1.0062
  593TMC3    C1 8786   3.829   2.204  11.424 -0.2869  0.1136 -0.6686
  593TMC3    C2 8787   3.844   2.247  11.555 -0.1990 -0.9235  0.1880
  593TMC3    C3 8788   3.949   2.330  11.591 -0.0892 -1.0796 -0.7177
  593TMC3    C4 8789   3.910   2.263  11.328 -0.2849 -0.1692  0.1730
  593TMC3    C5 8790   4.012   2.340  11.372  0.1693 -0.0906  0.4540
  593TMC3    C6 8791   4.042   2.373  11.500  0.2407 -0.4842  0.1065
  593TMC3     C 8792   3.729   2.100  11.399  0.0731 -0.0308 -0.0796
  593TMC3     O 8793   3.674   2.047  11.496  0.3654 -0.7786  0.2386
  593TMC3     H 8794   3.771   2.204  11.623  0.9580  0.8207  2.5658
  593TMC3    H1 8795   3.916   2.230  11.225 -0.9495  0.2552 -0.0055
  593TMC3    H2 8796   4.120   2.445  11.518 -0.9348  0.8584 -0.2366
  593TMC3    C7 8797   4.105   2.397  11.272 -0.3273 -0.2101 -0.3514
  593TMC3    C8 8798   3.944   2.387  11.724 -0.7254 -0.4326  1.4057
  593TMC3    O1 8799   4.213   2.426  11.313  0.0916 -0.4781  0.0443
  593TMC3    O2 8800   3.828   2.392  11.771 -0.1856  0.1403  0.4083
  594MPD2     C 8801   2.638   0.959  13.892  0.4592 -0.1636 -0.5750
  594MPD2    C1 8802   2.591   0.986  14.020  0.4504 -0.1568  0.3054
  594MPD2    C2 8803   2.677   1.058  14.102 -0.2948  0.4321  0.6542
  594MPD2    C3 8804   2.807   1.091  14.074  0.0802 -0.4772 -0.0393
  594MPD2    C4 8805   2.858   1.048  13.951 -0.2066 -1.0629 -0.3421
  594MPD2    C5 8806   2.773   0.985  13.866  0.4948  0.6407  1.0261
  594MPD2     H 8807   2.637   1.102  14.192 -2.1969  1.9333 -0.9171
  594MPD2    H1 8808   2.958   1.067  13.913 -0.1896  0.2185  0.3406
  594MPD2    H2 8809   2.566   0.904  13.832 -0.1375 -1.6318  1.4916
  594MPD2    H3 8810   2.817   0.972  13.768  0.3682  1.7919  0.8132
  594MPD2     N 8811   2.881   1.142  14.180 -0.9232 -0.2567  0.1872
  594MPD2    H5 8812   2.826   1.163  14.263 -0.2715  2.3087 -0.0158
  594MPD2    N1 8813   2.452   0.961  14.055  0.9189  0.0953  0.2027
  594MPD2    H7 8814   2.395   0.925  13.980 -0.3300  1.4018  0.5300
  595TMC3    C1 8815   3.240   1.374  14.379  0.2820 -0.2139  0.3537
  595TMC3    C2 8816   3.192   1.282  14.286 -0.0310 -0.0017  0.2609
  595TMC3    C3 8817   3.058   1.240  14.289 -0.2688 -0.7961 -0.0947
  595TMC3    C4 8818   3.167   1.417  14.479 -0.5948  0.1559  0.2927
  595TMC3    C5 8819   3.040   1.371  14.494  0.8222  0.7089 -0.5084
  595TMC3    C6 8820   2.986   1.278  14.402  1.0356 -0.3833  0.2176
  595TMC3     C 8821   3.382   1.377  14.407  0.4033 -0.3660  0.4474
  595TMC3     O 8822   3.415   1.469  14.481  0.0498  0.1979  0.4214
  595TMC3     H 8823   3.261   1.270  14.203  0.0473 -2.0619  0.6185
  595TMC3    H1 8824   3.203   1.502  14.535  1.8003 -0.4210 -0.3573
  595TMC3    H2 8825   2.886   1.241  14.424  0.9270 -0.3242 -0.1848
  595TMC3    C7 8826   2.953   1.427  14.597 -0.6469 -0.0732  0.2069
  595TMC3    C8 8827   3.014   1.165  14.170 -0.5081  0.4520  0.5970
  595TMC3    O1 8828   2.832   1.423  14.580  0.0682 -0.3136 -0.2180
  595TMC3    O2 8829   3.103   1.136  14.085 -0.1057  0.3790  0.3839
  596MPD2     C 8830   2.247   3.921  16.824 -0.4904  0.3577 -0.0556
  596MPD2    C1 8831   2.229   4.032  16.753 -0.2914 -0.2470  0.0567
  596MPD2    C2 8832   2.204   4.022  16.614 -0.1651 -0.1617  0.1639
  596MPD2    C3 8833   2.187   3.895  16.555 -0.2399  0.2819  0.5569
  596MPD2    C4 8834   2.226   3.786  16.626 -0.2952 -0.4802 -0.3263
  596MPD2    C5 8835   2.260   3.803  16.757  0.2222  0.2604 -0.2597
  596MPD2     H 8836   2.204   4.113  16.554 -0.2208 -0.9194 -0.9801
  596MPD2    H1 8837   2.224   3.683  16.593 -0.8868  0.3161 -2.7850
  596MPD2    H2 8838   2.268   3.929  16.930 -0.9632 -0.6555  0.1100
  596MPD2    H3 8839   2.288   3.715  16.814 -0.4889 -0.4232 -0.9625
  596MPD2     N 8840   2.151   3.875  16.418 -0.3835  0.4666  0.1986
  596MPD2    H5 8841   2.161   3.782  16.379  1.5987  0.3257  1.0100
  596MPD2    N1 8842   2.209   4.157  16.813  0.2513 -0.7210  0.1876
  596MPD2    H7 8843   2.189   4.234  16.750 -0.8138  1.1904  2.8683
  597TMC3    C1 8844   2.166   4.330  16.972  0.3571  0.3316 -0.4047
  597TMC3    C2 8845   2.245   4.424  16.909 -0.6389  0.6788 -0.0632
  597TMC3    C3 8846   2.245   4.543  16.961 -0.1351 -0.7748 -0.2312
  597TMC3    C4 8847   2.078   4.368  17.068  0.1067  0.9061 -0.0235
  597TMC3    C5 8848   2.072   4.501  17.107 -0.3815  0.1794 -0.3760
  597TMC3    C6 8849   2.160   4.591  17.054 -0.1840 -0.4760  0.3396
  597TMC3     C 8850   2.181   4.187  16.945  0.2544 -0.0639 -0.2869
  597TMC3     O 8851   2.140   4.112  17.032 -0.2387  0.2532 -0.1932
  597TMC3     H 8852   2.313   4.399  16.829 -0.1877  2.6299 -0.2809
  597TMC3    H1 8853   2.015   4.298  17.122 -1.3956  2.4018  0.1631
  597TMC3    H2 8854   2.158   4.699  17.069 -0.6567 -0.5880  1.0824
  597TMC3    C7 8855   1.954   4.539  17.188  0.1404  0.0667  0.7531
  597TMC3    C8 8856   2.310   4.646  16.884 -0.3400  0.4607  0.0970
  597TMC3    O1 8857   1.873   4.448  17.208  0.5732 -0.0798 -0.0755
  597TMC3    O2 8858   2.363   0.013  16.946  0.7537  0.1274 -0.1983
  598TMC3    C1 8859   0.198   0.820  15.295  0.2257 -0.3390  0.2399
  598TMC3    C2 8860   0.143   0.709  15.231  0.1991 -0.7696  0.2991
  598TMC3    C3 8861   0.204   0.667  15.113  0.2918 -0.3067 -0.6127
  598TMC3    C4 8862   0.296   0.900  15.238 -0.1189 -0.7303 -0.6277
  598TMC3    C5 8863   0.353   0.853  15.124  0.0806 -0.4019  0.2090
  598TMC3    C6 8864   0.320   0.734  15.067 -0.2640 -0.8212 -0.6117
  598TMC3     C 8865   0.134   0.863  15.412 -0.0695  0.5721 -0.0807
  598TMC3     O 8866   0.145   0.981  15.443 -0.1792  0.2187  0.3119
  598TMC3     H 8867   0.053   0.661  15.265 -0.6503  0.4290 -0.2657
  598TMC3    H1 8868   0.342   0.984  15.288  1.4813 -1.9548 -0.0149
  598TMC3    H2 8869   0.366   0.707  14.973  2.5944 -1.8977  1.0903
  598TMC3    C7 8870   0.478   0.915  15.077  0.1373  0.2262  0.0423
  598TMC3    C8 8871   0.132   0.570  15.035  0.1106  0.1699 -0.1557
  598TMC3    O1 8872   0.559   0.859  15.002 -0.2958 -0.0882  0.1090
  598TMC3    O2 8873   0.012   0.580  15.053  0.4128  0.2646 -0.0469
  599MPD2     C 8874   4.391   3.155  15.927 -0.3010 -0.0324 -0.4481
  599MPD2    C1 8875   4.501   3.193  16.003  0.0581  0.1831 -0.1169
  599MPD2    C2 8876   4.473   3.235  16.132 -0.6507  0.3271  0.8966
  599MPD2    C3 8877   4.349   3.269  16.177 -0.9138 -0.2674  0.6644
  599MPD2    C4 8878   4.241   3.241  16.094 -0.2301  0.3338  1.5384
  599MPD2    C5 8879   4.263   3.180  15.973  0.1189  0.0287  0.3133
  599MPD2     H 8880   4.554   3.261  16.199  0.0544 -3.2918  1.4313
  599MPD2    H1 8881   4.139   3.248  16.130 -0.4717  3.1894  0.3529
  599MPD2    H2 8882   4.400   3.097  15.836  1.3601 -0.5697  0.0602
  599MPD2    H3 8883   4.182   3.124  15.927 -0.6566 -0.2321  2.0138
  599MPD2     N 8884   4.323   3.314  16.312  0.1754  0.4394  0.2810
  599MPD2    H5 8885   4.228   3.328  16.344 -0.1098 -1.6243  0.3283
  599MPD2    N1 8886   4.631   3.156  15.956  0.1035 -0.4022  0.0136
  599MPD2    H7 8887   4.644   3.109  15.867 -2.0004 -2.4581  0.7903
  600TMC3    C1 8888   4.366   3.409  16.520  0.0156  0.3923  0.8306
  600TMC3    C2 8889   4.240   3.387  16.567  0.6937 -0.1639 -0.2964
  600TMC3    C3 8890   4.202   3.460  16.679 -0.2748 -0.1475  0.2581
  600TMC3    C4 8891   4.449   3.500  16.579  0.0700  0.0747 -0.5281
  600TMC3    C5 8892   4.408   3.566  16.693 -0.3806 -0.8497  0.2616
  600TMC3    C6 8893   4.284   3.547  16.747 -0.1840  0.2644 -0.3003
  600TMC3     C 8894   4.421   3.351  16.405  0.0131  0.1212 -0.1361
  600TMC3     O 8895   4.544   3.354  16.395  0.6146 -0.0433 -0.2232
  600TMC3     H 8896   4.188   3.294  16.545 -1.2876  0.7765  0.3440
  600TMC3    H1 8897   4.544   3.529  16.536 -0.1155 -0.4038 -1.2583
  600TMC3    H2 8898   4.263   3.591  16.844  3.6119 -0.5578  0.8826
  600TMC3    C7 8899   4.501   3.650  16.759 -0.6108 -0.5703 -0.2365
  600TMC3    C8 8900   4.095   3.401  16.762 -0.3339  0.1283  0.5371
  600TMC3    O1 8901   4.619   3.644  16.735  0.1519 -0.3344  0.1455
  600TMC3    O2 8902   4.113   3.409  16.885  0.3050  0.4837  0.7268
  601MPD2     C 8903   2.260   1.205  17.650  0.1226 -0.2333 -0.2595
  601MPD2    C1 8904   2.118   1.201  17.629 -0.6213 -0.2982 -0.0467
  601MPD2    C2 8905   2.054   1.081  17.638 -0.2181 -0.0967 -0.0958
  601MPD2    C3 8906   2.110   0.968   0.011 -0.6467  0.2565  0.2009
  601MPD2    C4 8907   2.247   0.977   0.046  0.1648  0.3758 -0.2035
  601MPD2    C5 8908   2.322   1.091   0.018  0.0127  0.0520 -0.1492
  601MPD2     H 8909   1.947   1.087  17.619 -0.2214 -0.6859 -0.2851
  601MPD2    H1 8910   2.303   0.898   0.094  3.3730  2.9302  0.2192
  601MPD2    H2 8911   2.315   1.297  17.637 -0.4538  0.3771  1.5769
  601MPD2    H3 8912   2.425   1.099   0.052 -0.1043  0.6847  0.0540
  601MPD2     N 8913   2.033   0.846   0.020 -0.6123  0.0691 -0.1126
  601MPD2    H5 8914   2.087   0.762   0.037 -1.1966 -0.1905  0.4398
  601MPD2    N1 8915   2.032   1.298  17.574  0.3230 -0.5787  0.4348
  601MPD2    H7 8916   1.938   1.278  17.542  0.7804 -1.8090 -0.1487
  602TMC3    C1 8917   1.968   1.505  17.499  0.3943  0.0960 -0.2852
  602TMC3    C2 8918   1.926   1.612  17.567  0.2820 -0.1590  0.3717
  602TMC3    C3 8919   1.802   1.673  17.533 -0.1701  0.0328  0.2071
  602TMC3    C4 8920   1.885   1.446  17.407  0.7030 -0.4473 -0.6140
  602TMC3    C5 8921   1.764   1.504  17.372  0.1567 -0.0195  0.2083
  602TMC3    C6 8922   1.722   1.619  17.434 -0.4426 -0.1134 -0.0630
  602TMC3     C 8923   2.069   1.430  17.574  0.4334  0.1426 -0.5859
  602TMC3     O 8924   2.172   1.479  17.626 -0.1902 -0.0009 -0.2460
  602TMC3     H 8925   1.978   1.652  17.654  1.0427 -0.7592  0.1889
  602TMC3    H1 8926   1.915   1.354  17.357  0.3925 -0.4605 -0.7739
  602TMC3    H2 8927   1.632   1.670  17.402 -1.6164 -2.5183 -0.6194
  602TMC3    C7 8928   1.686   1.452  17.263 -0.0821 -0.3704 -0.3932
  602TMC3    C8 8929   1.757   1.792  17.597 -0.3151  0.1169  0.2505
  602TMC3    O1 8930   1.735   1.420  17.152  0.4036  0.3843  0.1785
  602TMC3    O2 8931   1.840   1.859  17.656 -0.0169  0.3501 -0.1603
  603TMC3    C1 8932   4.286   1.766  11.152  0.6104  0.9340 -0.8077
  603TMC3    C2 8933   4.318   1.734  11.283 -0.5966  0.2570  0.9654
  603TMC3    C3 8934   4.454   1.731  11.313  0.1985  0.3807  0.3374
  603TMC3    C4 8935   4.384   1.796  11.060  0.5535  0.8171  0.4597
  603TMC3    C5 8936   4.517   1.780  11.090 -0.1616  0.4172  0.4302
  603TMC3    C6 8937   4.552   1.754  11.219 -0.0454 -0.1425 -0.0276
  603TMC3     C 8938   4.147   1.756  11.127 -0.0088 -0.2683 -0.6213
  603TMC3     O 8939   4.064   1.720  11.210 -0.1003 -0.1345  0.3006
  603TMC3     H 8940   4.254   1.738  11.371  0.2630  1.3775  1.5464
  603TMC3    H1 8941   4.352   1.829  10.962 -1.5112  1.8959  1.5008
  603TMC3    H2 8942   4.656   1.723  11.228  0.2069  0.9710  0.7808
  603TMC3    C7 8943   4.609   1.859  11.003  0.0333  0.1752  0.0347
  603TMC3    C8 8944   4.499   1.705  11.449  0.4939 -0.2342  1.2403
  603TMC3    O1 8945   4.701   1.909  11.066 -0.1820  0.2633  0.0937
  603TMC3    O2 8946   4.424   1.646  11.527 -0.5057 -0.3115  0.4073
  604MPD2     C 8947   1.690   0.714  16.590 -0.3370  0.5481 -0.2192
  604MPD2    C1 8948   1.553   0.726  16.559 -0.3047  0.0676 -0.2670
  604MPD2    C2 8949   1.522   0.712  16.421 -0.2014  0.5390  1.1725
  604MPD2    C3 8950   1.621   0.673  16.331  0.3604  0.7569  0.1619
  604MPD2    C4 8951   1.747   0.656  16.368 -0.0838  0.7090  0.3159
  604MPD2    C5 8952   1.781   0.673  16.499  0.1276  0.6433  1.0111
  604MPD2     H 8953   1.422   0.713  16.380  0.9356 -0.5711 -1.5963
  604MPD2    H1 8954   1.829   0.630  16.303  0.5264  0.8746  1.0167
  604MPD2    H2 8955   1.729   0.734  16.689  2.4722  1.2550 -1.4926
  604MPD2    H3 8956   1.887   0.663  16.522  0.3880  0.4472 -0.2984
  604MPD2     N 8957   1.572   0.663  16.198  0.4122 -0.2154  0.0891
  604MPD2    H5 8958   1.479   0.699  16.183  0.6079  0.6866  1.0051
  604MPD2    N1 8959   1.461   0.761  16.663  0.2639 -0.3821 -0.4154
  604MPD2    H7 8960   1.506   0.779  16.752  0.6039  2.5925 -1.2099
  605TMC3    C1 8961   1.249   0.847  16.744  0.3606 -1.2355 -0.7449
  605TMC3    C2 8962   1.317   0.855  16.863  0.5654 -0.3517  0.2490
  605TMC3    C3 8963   1.289   0.954  16.946 -0.5458 -0.1927 -0.1132
  605TMC3    C4 8964   1.139   0.918  16.716 -0.0949 -0.1321  0.7667
  605TMC3    C5 8965   1.110   1.025  16.798  0.7695  0.2850  0.4228
  605TMC3    C6 8966   1.183   1.043  16.915  0.5733 -0.7088  0.3383
  605TMC3     C 8967   1.328   0.795  16.634  0.2438 -0.2464 -0.0502
  605TMC3     O 8968   1.264   0.768  16.538  0.6748  0.1140 -0.0721
  605TMC3     H 8969   1.405   0.797  16.888  0.1161 -0.5740  1.2810
  605TMC3    H1 8970   1.072   0.892  16.635  3.2690 -0.5000 -1.8692
  605TMC3    H2 8971   1.174   1.134  16.973  2.2555  1.2348 -2.5301
  605TMC3    C7 8972   1.000   1.106  16.753  0.0492  0.5140  0.7382
  605TMC3    C8 8973   1.405   1.011  17.006 -0.2237 -0.1975 -0.8071
  605TMC3    O1 8974   0.969   1.091  16.635  0.0548  0.7439 -0.3921
  605TMC3    O2 8975   1.448   0.965  17.110 -0.0386 -0.2217  0.4427
  606TMC3    C1 8976   2.326   2.957  17.098  0.3298 -0.4241  0.2652
  606TMC3    C2 8977   2.325   3.093  17.120 -0.2628 -0.0790  0.4181
  606TMC3    C3 8978   2.218   3.155  17.183 -0.1336 -0.6309  0.1372
  606TMC3    C4 8979   2.221   2.888  17.139  0.0347 -0.4821 -0.3599
  606TMC3    C5 8980   2.108   2.951  17.186  0.1696 -0.6189  0.0223
  606TMC3    C6 8981   2.109   3.084  17.223 -0.3126 -0.5501  0.4521
  606TMC3     C 8982   2.449   2.892  17.054  0.8043  0.4320 -0.1124
  606TMC3     O 8983   2.524   2.952  16.979  0.4465 -0.4451  0.2333
  606TMC3     H 8984   2.410   3.152  17.086 -2.2431  1.6841 -1.4278
  606TMC3    H1 8985   2.209   2.782  17.119  0.2370 -0.7405  0.8492
  606TMC3    H2 8986   2.027   3.143  17.264  1.7350  2.1911  0.6274
  606TMC3    C7 8987   1.990   2.869  17.222 -0.4786  0.0717 -0.3352
  606TMC3    C8 8988   2.234   3.288  17.241 -0.1652  0.3603 -0.2839
  606TMC3    O1 8989   2.000   2.749  17.230 -0.0683  0.1160 -0.4269
  606TMC3    O2 8990   2.162   3.307  17.338 -0.8787  0.1464 -0.3832
  607MPD2     C 8991   3.628   1.428  11.715 -0.3350  1.1234 -0.2169
  607MPD2    C1 8992   3.717   1.490  11.801 -0.4048  0.5943 -1.4762
  607MPD2    C2 8993   3.730   1.440  11.929 -0.2492  0.4316 -0.1249
  607MPD2    C3 8994   3.671   1.323  11.975  0.7769 -0.0683  0.4763
  607MPD2    C4 8995   3.584   1.256  11.887 -0.1149 -0.6219 -0.5079
  607MPD2    C5 8996   3.573   1.308  11.761 -0.3377 -0.5467 -0.6690
  607MPD2     H 8997   3.786   1.487  12.008 -2.4378 -0.5956  2.0475
  607MPD2    H1 8998   3.538   1.160  11.907  2.4782 -2.0424 -1.4599
  607MPD2    H2 8999   3.620   1.456  11.611  0.0862 -2.4201 -1.2009
  607MPD2    H3 9000   3.507   1.253  11.694 -0.3870 -1.2350 -0.0489
  607MPD2     N 9001   3.696   1.288  12.110  0.0491  0.5891  1.2548
  607MPD2    H5 9002   3.740   1.362  12.164  0.1878 -0.0057  1.9622
  607MPD2    N1 9003   3.803   1.596  11.763  0.2566 -0.3781  0.1878
  607MPD2    H7 9004   3.866   1.624  11.837 -0.9969  4.3342 -0.4877
  608TMC3    C1 9005   3.905   1.783  11.657  0.2887  0.8470  0.1393
  608TMC3    C2 9006   3.929   1.814  11.787  0.1598 -0.4755 -0.2238
  608TMC3    C3 9007   4.033   1.905  11.809  0.3796  0.2845  0.2751
  608TMC3    C4 9008   3.966   1.844  11.551 -0.4409  0.3437  0.5602
  608TMC3    C5 9009   4.076   1.922  11.580  0.5732  0.6064 -0.5700
  608TMC3    C6 9010   4.113   1.954  11.709 -0.1926 -0.9024 -0.1819
  608TMC3     C 9011   3.813   1.662  11.642 -0.7577  0.1845 -0.0529
  608TMC3     O 9012   3.755   1.652  11.535  0.1081  0.3094 -0.1270
  608TMC3     H 9013   3.853   1.802  11.863  0.0593 -0.9289 -0.3952
  608TMC3    H1 9014   3.941   1.824  11.448  0.0990 -0.1890  0.5306
  608TMC3    H2 9015   4.193   2.023  11.733 -0.9240 -0.7065  1.6240
  608TMC3    C7 9016   4.151   1.976  11.467  0.6008 -1.2075  0.1351
  608TMC3    C8 9017   4.077   1.934  11.947 -0.0395 -0.6083 -0.2488
  608TMC3    O1 9018   4.098   1.989  11.358 -0.2217  0.3525 -0.2444
  608TMC3    O2 9019   4.163   2.021  11.966  0.2040  0.4412  0.6278
  609TMC3    C1 9020   2.163   1.073   9.248 -0.9235  0.2564  0.4033
  609TMC3    C2 9021   2.071   0.993   9.184  0.5628 -0.0899 -0.1777
  609TMC3    C3 9022   2.105   0.942   9.071 -0.4944 -0.0371  0.1655
  609TMC3    C4 9023   2.295   1.089   9.205  0.0804  0.3187 -0.0968
  609TMC3    C5 9024   2.328   1.021   9.091 -0.3882  0.6820  0.4139
  609TMC3    C6 9025   2.234   0.951   9.020  0.2680  0.2436  0.4722
  609TMC3     C 9026   2.145   1.090   9.392 -0.0101 -0.6588  0.4429
  609TMC3     O 9027   2.049   1.028   9.437 -0.0948  0.2883  0.1956
  609TMC3     H 9028   1.974   0.970   9.227 -0.0490 -0.3152 -1.6729
  609TMC3    H1 9029   2.378   1.133   9.260  0.6600 -0.6562 -0.2115
  609TMC3    H2 9030   2.251   0.908   8.922 -2.0678  0.1590  0.0923
  609TMC3    C7 9031   2.470   1.004   9.056 -0.0868 -0.3910  0.6125
  609TMC3    C8 9032   2.024   0.840   9.008  0.0277  0.5700  0.0826
  609TMC3    O1 9033   2.551   1.056   9.129 -0.6426  0.1806  0.3742
  609TMC3    O2 9034   2.081   0.748   8.950  0.7258 -0.1214 -0.3026
  610TMC3    C1 9035   4.199   1.449  12.744  0.7868  0.1529 -0.2950
  610TMC3    C2 9036   4.253   1.529  12.648 -0.8058 -0.2696 -0.2662
  610TMC3    C3 9037   4.383   1.563  12.657 -0.4458 -0.8466 -0.1123
  610TMC3    C4 9038   4.275   1.404  12.847 -0.0831  0.0485  0.7892
  610TMC3    C5 9039   4.395   1.475  12.864 -0.1067 -0.3521  0.7467
  610TMC3    C6 9040   4.461   1.543  12.771 -0.2242  0.3609  0.1191
  610TMC3     C 9041   4.056   1.427  12.745 -0.0279 -0.3985  0.1293
  610TMC3     O 9042   3.993   1.520  12.702 -0.6888  0.0088 -0.3013
  610TMC3     H 9043   4.192   1.557  12.563 -0.8427 -0.7226 -0.3883
  610TMC3    H1 9044   4.248   1.330  12.921 -0.7920 -1.1725 -0.6828
  610TMC3    H2 9045   4.562   1.575  12.793  0.1038  1.6112 -3.1475
  610TMC3    C7 9046   4.483   1.414  12.963  0.6412  0.2518  0.2534
  610TMC3    C8 9047   4.439   1.600  12.527  0.3413  0.3392 -0.2326
  610TMC3    O1 9048   4.602   1.401  12.936 -0.0291 -0.0272  0.5069
  610TMC3    O2 9049   4.372   1.568  12.430  0.6824  0.4933 -0.1433
  611MPD2     C 9050   4.176   1.365  10.212  0.2361  0.2407  0.5923
  611MPD2    C1 9051   4.101   1.453  10.138  0.0070  0.8707 -0.0767
  611MPD2    C2 9052   4.163   1.569  10.122  0.1475  0.4755  0.1216
  611MPD2    C3 9053   4.295   1.598  10.159  0.1311  0.3925  0.0862
  611MPD2    C4 9054   4.365   1.508  10.232 -0.4783  0.2437  0.2308
  611MPD2    C5 9055   4.302   1.387  10.259  0.0932 -0.2896 -0.6239
  611MPD2     H 9056   4.104   1.649  10.079  0.0155 -0.0440 -0.6736
  611MPD2    H1 9057   4.463   1.527  10.274 -0.6082 -0.4678  0.8581
  611MPD2    H2 9058   4.131   1.269  10.237  0.8428 -0.4467 -0.9534
  611MPD2    H3 9059   4.356   1.312  10.316 -0.0666  0.0975  0.0486
  611MPD2     N 9060   4.349   1.725  10.150 -0.3077 -0.0853 -0.1641
  611MPD2    H5 9061   4.431   1.745  10.207 -0.7357  0.3883  0.2837
  611MPD2    N1 9062   3.968   1.412  10.105 -0.0995 -0.1214 -0.3865
  611MPD2    H7 9063   3.952   1.315  10.130 -0.4826  0.5601  2.0339
  612TMC3    C1 9064   4.376   1.946  10.080  0.4526  0.4475  0.3958
  612TMC3    C2 9065   4.416   1.981  10.205 -0.0036 -0.2761 -0.2279
  612TMC3    C3 9066   4.507   2.084  10.214 -0.0241  0.8269 -0.0346
  612TMC3    C4 9067   4.421   1.999   9.969 -0.3378 -0.0970 -0.9779
  612TMC3    C5 9068   4.510   2.099   9.979 -0.2100 -0.4480 -0.7349
  612TMC3    C6 9069   4.547   2.146  10.102  0.3202  0.8706 -1.0525
  612TMC3     C 9070   4.309   1.822  10.062  0.0717 -0.0818  0.3136
  612TMC3     O 9071   4.223   1.823   9.975  0.1215 -0.4758  0.6729
  612TMC3     H 9072   4.382   1.931  10.295 -1.9230 -1.1487 -1.4456
  612TMC3    H1 9073   4.392   1.965   9.871 -0.3807  0.8560 -1.2928
  612TMC3    H2 9074   4.620   2.223  10.123  1.5740 -0.2304 -1.4100
  612TMC3    C7 9075   4.502   2.194   9.868  0.5684  0.2835  0.5936
  612TMC3    C8 9076   4.554   2.131  10.340 -0.1595 -0.3559  0.3041
  612TMC3    O1 9077   4.427   2.171   9.769 -0.8046  0.1227  0.2702
  612TMC3    O2 9078   4.612   2.237  10.338  0.0219 -0.1592 -0.1630
  613MPD2     C 9079   2.998   4.449  16.324  0.8982 -0.3444 -0.3684
  613MPD2    C1 9080   2.972   4.384  16.210 -0.0542  0.3659  0.2646
  613MPD2    C2 9081   2.913   4.261  16.217  0.0073 -0.3622  0.3882
  613MPD2    C3 9082   2.875   4.202  16.337 -0.4364 -0.2157  0.0533
  613MPD2    C4 9083   2.896   4.275  16.447 -0.6147  0.5343  0.4380
  613MPD2    C5 9084   2.960   4.396  16.439  0.7279  0.0759 -0.2009
  613MPD2     H 9085   2.919   4.197  16.129 -0.4534 -1.2798  1.0261
  613MPD2    H1 9086   2.864   4.234  16.543 -1.1476  1.8366  0.8248
  613MPD2    H2 9087   3.045   4.546  16.336 -2.3981  1.3145 -0.8329
  613MPD2    H3 9088   2.967   4.455  16.530  0.9154  0.1226 -0.2459
  613MPD2     N 9089   2.833   4.072  16.351  0.0059 -0.2221 -0.2269
  613MPD2    H5 9090   2.836   4.025  16.441  2.0927  0.4355  0.0636
  613MPD2    N1 9091   3.023   4.439  16.093 -0.9639 -0.2769 -0.2379
  613MPD2    H7 9092   3.089   4.514  16.111  0.3529 -1.7646  1.1994
  614TMC3    C1 9093   3.103   4.422  15.879 -0.6454  0.6898 -0.4275
  614TMC3    C2 9094   3.201   4.334  15.909  0.5185 -0.6110  0.2671
  614TMC3    C3 9095   3.263   4.264  15.815  0.1191 -0.6220 -0.0195
  614TMC3    C4 9096   3.070   4.446  15.748  0.4758  0.4493  0.9871
  614TMC3    C5 9097   3.136   4.373  15.646 -0.3377  0.2753 -0.1341
  614TMC3    C6 9098   3.225   4.276  15.678 -0.9863 -0.0051 -0.2976
  614TMC3     C 9099   2.992   4.401  15.964 -0.2070  0.1167 -0.0666
  614TMC3     O 9100   2.900   4.331  15.927 -0.0443  0.2617 -0.2786
  614TMC3     H 9101   3.234   4.308  16.009  0.3769  2.6468  1.1493
  614TMC3    H1 9102   2.984   4.510  15.730 -1.9691 -2.4505  2.3912
  614TMC3    H2 9103   3.268   4.212  15.602 -0.1538 -1.2839  1.2387
  614TMC3    C7 9104   3.057   4.347  15.530  0.8457  0.4308 -0.2821
  614TMC3    C8 9105   3.315   4.138  15.861  0.9922  0.2197 -0.5973
  614TMC3    O1 9106   3.070   4.237  15.474  0.0077  0.7966  0.2889
  614TMC3    O2 9107   3.337   4.125  15.980 -0.0414 -0.2742 -0.2843
  615MPD2     C 9108   2.823   0.119  15.726 -0.0051 -0.2248  0.3531
  615MPD2    C1 9109   2.795   0.255  15.763 -0.1758  0.3641 -0.3080
  615MPD2    C2 9110   2.721   0.329  15.677 -0.0855  0.1790  0.0290
  615MPD2    C3 9111   2.664   0.275  15.564 -0.2106 -0.1219  0.1160
  615MPD2    C4 9112   2.692   0.138  15.534 -0.5130  0.3613 -0.0668
  615MPD2    C5 9113   2.769   0.066  15.612  0.6399 -0.4174 -0.1351
  615MPD2     H 9114   2.704   0.431  15.711  1.1261  0.8869 -1.5023
  615MPD2    H1 9115   2.651   0.097  15.442 -0.6320  0.9943 -0.2992
  615MPD2    H2 9116   2.872   0.043  15.785 -0.3894 -0.5641  0.2382
  615MPD2    H3 9117   2.791   4.686  15.579  0.4392 -1.3174  2.4388
  615MPD2     N 9118   2.568   0.339  15.488 -0.5920  0.0857  0.7152
  615MPD2    H5 9119   2.542   0.297  15.399 -0.5357 -1.6307  1.5088
  615MPD2    N1 9120   2.856   0.318  15.871  0.2908  0.2504  0.0431
  615MPD2    H7 9121   2.829   0.414  15.890 -0.0221 -0.2727  2.2207
  616TMC3    C1 9122   3.001   0.339  16.058  0.1797  0.0997 -0.2411
  616TMC3    C2 9123   2.987   0.475  16.054 -0.0194 -0.2800 -0.4292
  616TMC3    C3 9124   3.072   0.536  16.139 -0.0466 -0.0342 -0.0334
  616TMC3    C4 9125   3.090   0.268  16.132  0.0349  0.6630 -0.7175
  616TMC3    C5 9126   3.159   0.330  16.227  0.7598 -0.4456  0.0535
  616TMC3    C6 9127   3.155   0.468  16.226  0.1757  0.1330  0.4819
  616TMC3     C 9128   2.956   0.259  15.943  0.3245  0.3419 -0.4935
  616TMC3     O 9129   3.003   0.146  15.935 -0.2387  0.1344 -0.2889
  616TMC3     H 9130   2.923   0.531  15.988  0.2221 -1.1824 -1.4348
  616TMC3    H1 9131   3.105   0.160  16.130 -2.9209  0.2210  0.0855
  616TMC3    H2 9132   3.226   0.515  16.293 -0.2813 -1.6860  2.2405
  616TMC3    C7 9133   3.292   0.276  16.268  0.1849 -0.5055  1.0613
  616TMC3    C8 9134   3.081   0.683  16.141  0.2042  0.9639  0.3819
  616TMC3    O1 9135   3.381   0.244  16.186  0.4339 -0.3807  0.7991
  616TMC3    O2 9136   2.969   0.728  16.114  0.4420  0.8457 -0.3943
  617MPD2     C 9137   0.265   3.262  13.692 -0.3859 -0.5073  0.0314
  617MPD2    C1 9138   0.271   3.219  13.820  0.0406  0.1578  0.4250
  617MPD2    C2 9139   0.154   3.219  13.893 -0.6133  0.1718 -0.8378
  617MPD2    C3 9140   0.034   3.240  13.833  0.1257 -0.0900 -0.0660
  617MPD2    C4 9141   0.034   3.261  13.699  0.0755  0.4601 -0.1884
  617MPD2    C5 9142   0.148   3.282  13.631 -0.4091 -0.4876 -0.1569
  617MPD2     H 9143   0.146   3.175  13.991  2.3566 -0.0736 -0.7056
  617MPD2    H1 9144   4.661   3.273  13.647  0.4824  1.6754 -0.6505
  617MPD2    H2 9145   0.355   3.272  13.632 -1.6135 -3.1505 -2.2178
  617MPD2    H3 9146   0.143   3.314  13.527 -1.8965  1.0409  0.3900
  617MPD2     N 9147   4.629   3.227  13.901 -0.1946 -0.4239 -0.1853
  617MPD2    H5 9148   4.545   3.227  13.845 -0.4722  0.3232  0.2331
  617MPD2    N1 9149   0.397   3.181  13.865 -0.3205 -0.0586  0.2131
  617MPD2    H7 9150   0.469   3.172  13.794 -0.1523 -0.4292  0.4322
  618TMC3    C1 9151   0.578   3.155  14.021 -0.1073  0.6873  0.1294
  618TMC3    C2 9152   0.646   3.052  13.958  0.2955  0.2840 -0.4304
  618TMC3    C3 9153   0.778   3.076  13.939  0.0910 -0.4952  0.5870
  618TMC3    C4 9154   0.635   3.276  14.045  0.2211 -0.4049 -0.5568
  618TMC3    C5 9155   0.769   3.293  14.008  0.1441  0.1615  0.3606
  618TMC3    C6 9156   0.844   3.191  13.966  0.5768 -0.0857  0.1790
  618TMC3     C 9157   0.432   3.160  13.999 -0.5108 -0.0414  0.8667
  618TMC3     O 9158   0.366   3.183  14.102 -0.8196  0.0418  0.5546
  618TMC3     H 9159   0.601   2.953  13.947  0.1124  0.1760  1.3877
  618TMC3    H1 9160   0.580   3.365  14.074  0.3552 -0.6937  0.5946
  618TMC3    H2 9161   0.944   3.214  13.931  1.0694  1.4130  2.5691
  618TMC3    C7 9162   0.817   3.428  14.003 -0.0448  0.4135  0.8063
  618TMC3    C8 9163   0.844   2.969  13.868 -0.3623  0.0792 -0.1728
  618TMC3    O1 9164   0.785   3.502  14.094 -0.9134 -0.7491 -0.3220
  618TMC3    O2 9165   0.791   2.859  13.881  0.1209  0.1880  0.5424
  619MPD2     C 9166   1.325   0.209  13.827  0.4859  0.4286 -0.1086
  619MPD2    C1 9167   1.270   0.134  13.723 -0.0956  0.2119 -0.6436
  619MPD2    C2 9168   1.135   0.094  13.731  1.0091  0.7395  0.9076
  619MPD2    C3 9169   1.052   0.129  13.831  0.7767 -0.2313  0.3875
  619MPD2    C4 9170   1.108   0.198  13.935  0.2183 -0.4764 -0.4276
  619MPD2    C5 9171   1.241   0.227  13.935 -0.6221 -0.3727  0.3397
  619MPD2     H 9172   1.096   0.031  13.651  0.4042  1.9282  0.2683
  619MPD2    H1 9173   1.044   0.225  14.019  1.8795  1.2054  0.3143
  619MPD2    H2 9174   1.422   0.257  13.829  0.3935  0.6150 -0.1363
  619MPD2    H3 9175   1.276   0.283  14.021  2.2586  0.4950 -1.4036
  619MPD2     N 9176   0.912   0.102  13.828 -0.2155 -0.4815  0.6444
  619MPD2    H5 9177   0.853   0.141  13.900  0.5136  0.2317  0.8582
  619MPD2    N1 9178   1.337   0.096  13.606  0.1764  0.7349  0.4755
  619MPD2    H7 9179   1.289   0.053  13.529  1.6470 -1.7798  0.9621
  620TMC3    C1 9180   1.516   0.113  13.444 -0.4445  0.5559  0.9827
  620TMC3    C2 9181   1.430   0.032  13.370  0.8749 -0.0409 -0.0026
  620TMC3    C3 9182   1.437   0.035  13.232 -0.2316  0.4217  0.2334
  620TMC3    C4 9183   1.604   0.199  13.378 -0.1788 -0.1432  1.0378
  620TMC3    C5 9184   1.609   0.205  13.239  0.5935 -0.0792  0.8239
  620TMC3    C6 9185   1.530   0.118  13.171  0.3486  0.3932 -0.0002
  620TMC3     C 9186   1.465   0.146  13.573  0.2633  0.3059 -0.6173
  620TMC3     O 9187   1.527   0.239  13.624 -0.2061 -0.1254 -0.0054
  620TMC3     H 9188   1.381   4.673  13.424 -2.4441 -0.2820 -3.4445
  620TMC3    H1 9189   1.663   0.264  13.442  0.0629  1.6510 -1.0246
  620TMC3    H2 9190   1.533   0.130  13.063 -0.7183  0.4973 -0.0183
  620TMC3    C7 9191   1.670   0.312  13.168  0.3715 -0.3723 -0.1452
  620TMC3    C8 9192   1.344   4.687  13.155  0.5260 -1.0911 -0.6040
  620TMC3    O1 9193   1.689   0.296  13.047 -0.6739  0.0184 -0.3465
  620TMC3    O2 9194   1.394   4.652  13.050  0.4426  0.1607 -0.3470
  621MPD2     C 9195   2.238   4.412  10.581  0.2261 -0.1024  0.1767
  621MPD2    C1 9196   2.172   4.459  10.468  0.7022 -0.2940  0.5265
  621MPD2    C2 9197   2.235   4.537  10.371 -0.4256  0.3010 -0.8148
  621MPD2    C3 9198   2.371   4.550  10.375  0.2691  1.2816 -0.3901
  621MPD2    C4 9199   2.441   4.490  10.485 -0.1103  0.3078  0.3784
  621MPD2    C5 9200   2.377   4.421  10.584  0.0923  0.7778  0.2040
  621MPD2     H 9201   2.174   4.572  10.288 -1.0694  2.0852  0.4127
  621MPD2    H1 9202   2.548   4.481  10.495  0.0279  1.1849 -0.2612
  621MPD2    H2 9203   2.193   4.349  10.656  0.4746  0.3905  0.7422
  621MPD2    H3 9204   2.438   4.373  10.661  0.7739 -0.5171 -1.1501
  621MPD2     N 9205   2.438   4.627  10.276  0.0495 -0.7139  0.3371
  621MPD2    H5 9206   2.374   4.675  10.213  2.0314  0.9276 -0.3955
  621MPD2    N1 9207   2.032   4.442  10.441 -0.2906  0.5359 -0.0463
  621MPD2    H7 9208   1.992   4.472  10.352 -1.2336  0.0180  0.2001
  622TMC3    C1 9209   1.805   4.365  10.492  0.1756  0.1910  0.1688
  622TMC3    C2 9210   1.702   4.353  10.582 -0.3751 -0.1884  0.3256
  622TMC3    C3 9211   1.599   4.267  10.553  0.3539 -0.3408  0.1622
  622TMC3    C4 9212   1.804   4.290  10.371  0.1767 -0.4138 -0.0766
  622TMC3    C5 9213   1.691   4.208  10.353 -0.4917  0.5050  0.5905
  622TMC3    C6 9214   1.591   4.193  10.442 -0.9435 -0.0321 -0.9335
  622TMC3     C 9215   1.942   4.393  10.536 -0.1747  1.0379 -0.0190
  622TMC3     O 9216   1.964   4.375  10.656 -0.5104  0.2961  0.3550
  622TMC3     H 9217   1.712   4.403  10.678  0.8695  0.3620 -0.0831
  622TMC3    H1 9218   1.886   4.279  10.301  0.7495 -0.9541  0.6719
  622TMC3    H2 9219   1.503   4.133  10.422 -0.4539 -1.4763  1.2426
  622TMC3    C7 9220   1.671   4.140  10.231  0.2705 -0.0197  0.1106
  622TMC3    C8 9221   1.464   4.292  10.609  0.2996  0.0173 -0.6766
  622TMC3    O1 9222   1.641   4.021  10.230  0.0301 -0.4682  0.8932
  622TMC3    O2 9223   1.397   4.195  10.636 -0.0142  0.3181 -0.4600
  623MPD2     C 9224   1.648   1.018  15.693  0.4173  0.5750  0.5932
  623MPD2    C1 9225   1.635   1.123  15.782  0.4920 -0.2903  0.4601
  623MPD2    C2 9226   1.697   1.118  15.907 -1.5789  0.5782  0.3655
  623MPD2    C3 9227   1.788   1.019  15.937  0.2427 -0.2832  0.1261
  623MPD2    C4 9228   1.808   0.918  15.843  0.2004  0.7795  0.0301
  623MPD2    C5 9229   1.729   0.908  15.724 -0.0262  0.3287 -0.5850
  623MPD2     H 9230   1.683   1.202  15.975 -3.5562  0.9102 -0.4561
  623MPD2    H1 9231   1.891   0.851  15.864 -0.7118  0.1057  1.4706
  623MPD2    H2 9232   1.595   1.022  15.599  1.5540 -0.5935 -0.0987
  623MPD2    H3 9233   1.736   0.820  15.661 -1.0175  0.2460 -0.5769
  623MPD2     N 9234   1.860   1.029  16.055 -0.0700 -0.6435  0.2446
  623MPD2    H5 9235   1.859   1.115  16.109  0.8105 -0.7605  0.4538
  623MPD2    N1 9236   1.547   1.232  15.769 -0.2967  0.1879 -0.0692
  623MPD2    H7 9237   1.538   1.298  15.846  1.8703  0.2630  0.1269
  624TMC3    C1 9238   2.128   0.915  16.421  0.1488 -0.8757  0.3647
  624TMC3    C2 9239   2.057   0.992  16.501 -0.3132  0.6398  0.4862
  624TMC3    C3 9240   1.956   1.057  16.441 -0.4315  0.4562 -1.1884
  624TMC3    C4 9241   2.111   0.911  16.279 -0.5992  0.1829  0.0037
  624TMC3    C5 9242   2.004   0.981  16.231 -0.1439 -0.1273 -0.0123
  624TMC3    C6 9243   1.922   1.058  16.312 -0.8613  0.3234 -0.2490
  624TMC3     C 9244   2.240   0.842  16.473  0.6856 -0.3078  0.5739
  624TMC3     O 9245   2.239   0.815  16.593 -0.3297  0.2548  0.0442
  624TMC3     H 9246   2.071   0.988  16.609  1.6214  0.4714  0.2356
  624TMC3    H1 9247   2.179   0.855  16.217  1.2481  0.6599  1.5993
  624TMC3    H2 9248   1.830   1.109  16.287  1.1239  3.3250 -1.4485
  624TMC3    C7 9249   1.963   0.945  16.096 -0.0446  0.0093  0.2541
  624TMC3    C8 9250   1.842   1.071  16.531  0.6672 -0.5825 -0.1432
  624TMC3    O1 9251   2.002   0.840  16.048  0.0874 -0.6105 -0.0259
  624TMC3    O2 9252   1.727   1.060  16.494 -0.1896  0.3603 -0.6869
  625MPD2     C 9253   1.642   1.869   0.697 -0.4435 -0.0691 -0.2583
  625MPD2    C1 9254   1.757   1.940   0.666  0.7530  0.2902  0.1731
  625MPD2    C2 9255   1.877   1.872   0.660 -0.1610 -0.2503 -0.3850
  625MPD2    C3 9256   1.885   1.736   0.682 -0.3694  0.1343  0.1678
  625MPD2    C4 9257   1.772   1.659   0.715 -0.4244  0.3673 -0.2250
  625MPD2    C5 9258   1.652   1.731   0.722 -0.0608  0.1791 -0.2254
  625MPD2     H 9259   1.964   1.932   0.637 -0.1484  0.0953  0.5744
  625MPD2    H1 9260   1.764   1.552   0.732  0.2804  0.2378 -0.6824
  625MPD2    H2 9261   1.541   1.908   0.699 -0.7511 -0.8694 -0.4378
  625MPD2    H3 9262   1.559   1.678   0.741  0.3099 -0.0083  1.0734
  625MPD2     N 9263   2.012   1.673   0.675 -0.3713 -0.1407  0.3790
  625MPD2    H5 9264   2.093   1.734   0.666 -0.1759 -0.1894  1.7256
  625MPD2    N1 9265   1.761   2.079   0.643 -0.1402  0.1886 -0.0936
  625MPD2    H7 9266   1.845   2.118   0.603  0.0473  1.1694  1.2741
  626TMC3    C1 9267   1.675   2.292   0.597  0.5010  0.7276 -0.0989
  626TMC3    C2 9268   1.579   2.364   0.531 -0.1413 -0.4143 -0.2435
  626TMC3    C3 9269   1.606   2.481   0.472  0.4840  0.2017 -0.6323
  626TMC3    C4 9270   1.805   2.337   0.609  0.1235 -0.1224 -0.0141
  626TMC3    C5 9271   1.829   2.461   0.561  0.1202 -0.4063  0.3437
  626TMC3    C6 9272   1.732   2.537   0.488  0.1092  0.6624  0.0294
  626TMC3     C 9273   1.648   2.162   0.642 -0.6445  0.3400  0.5496
  626TMC3     O 9274   1.535   2.124   0.669 -0.8733 -0.2737  0.0473
  626TMC3     H 9275   1.482   2.320   0.513 -1.1555  2.2399 -1.3439
  626TMC3    H1 9276   1.882   2.281   0.660  1.3671  1.9726  0.3932
  626TMC3    H2 9277   1.748   2.633   0.438  3.9656 -0.0359 -0.0873
  626TMC3    C7 9278   1.910   2.542   0.656  0.0545 -0.2322  0.0929
  626TMC3    C8 9279   1.520   2.524   0.359 -0.8080 -0.2795  0.0013
  626TMC3    O1 9280   1.989   2.486   0.731 -0.2162  0.2368 -0.6114
  626TMC3    O2 9281   1.467   2.433   0.295 -0.2765 -0.2811 -0.2184
  627MPD2     C 9282   4.257   2.253  15.111  0.0454  0.7134 -0.1567
  627MPD2    C1 9283   4.359   2.200  15.037 -0.9957 -0.0956 -0.2851
  627MPD2    C2 9284   4.373   2.060  15.035 -0.2085 -0.3580  0.1167
  627MPD2    C3 9285   4.290   1.973  15.099  0.4137  0.2133 -0.4792
  627MPD2    C4 9286   4.180   2.030  15.171  0.2235 -0.1114 -0.3842
  627MPD2    C5 9287   4.179   2.167  15.187  0.2976 -0.1859 -0.6424
  627MPD2     H 9288   4.460   2.017  14.985  0.6318  3.0069 -1.3168
  627MPD2    H1 9289   4.109   1.976  15.232  0.4447 -0.2100 -0.2150
  627MPD2    H2 9290   4.235   2.358  15.123 -1.3907  0.1454  2.2505
  627MPD2    H3 9291   4.105   2.209  15.254 -0.4258 -0.9848 -0.9464
  627MPD2     N 9292   4.300   1.832  15.090 -0.7527 -0.4334  1.3819
  627MPD2    H5 9293   4.370   1.795  15.027 -0.2408 -1.3898  2.5212
  627MPD2    N1 9294   4.459   2.282  14.977  0.0861  0.2003  0.0979
  627MPD2    H7 9295   4.542   2.242  14.933 -1.6995 -1.0684 -2.1202
  628TMC3    C1 9296   4.579   2.486  14.904 -0.1608  1.2603 -0.1156
  628TMC3    C2 9297   4.688   2.410  14.883 -0.0726 -0.2280  0.3019
  628TMC3    C3 9298   0.088   2.478  14.883 -0.2319 -0.2483  0.1804
  628TMC3    C4 9299   4.586   2.623  14.915  0.0787 -0.1853  0.3834
  628TMC3    C5 9300   4.708   2.684  14.912  0.2346 -0.0073 -0.1795
  628TMC3    C6 9301   0.103   2.613  14.901  0.2416  0.1307 -0.8077
  628TMC3     C 9302   4.456   2.420  14.959 -0.5858 -0.4360 -0.5252
  628TMC3     O 9303   4.362   2.494  14.983  0.0792  0.1252 -0.4188
  628TMC3     H 9304   4.692   2.302  14.881  0.6573 -0.2107  1.0139
  628TMC3    H1 9305   4.493   2.674  14.936 -0.9561 -0.7890 -2.7836
  628TMC3    H2 9306   0.193   2.670  14.885 -0.3465  1.3371  0.2089
  628TMC3    C7 9307   4.719   2.821  14.880 -0.5502 -0.7040  0.4617
  628TMC3    C8 9308   0.198   2.406  14.817  0.1620  0.1965 -0.2283
  628TMC3    O1 9309   0.091   2.889  14.925  0.2987  0.0584  0.4130
  628TMC3    O2 9310   0.172   2.346  14.716  0.4921  0.1620 -0.3642
  629MPD2     C 9311   3.332   1.126  16.136  0.1087 -0.3682  0.0239
  629MPD2    C1 9312   3.419   1.028  16.164  0.1880 -0.7780 -0.4815
  629MPD2    C2 9313   3.373   0.896  16.177  0.9497  0.3327  0.1201
  629MPD2    C3 9314   3.240   0.878  16.168 -0.0813 -0.3810  0.4910
  629MPD2    C4 9315   3.151   0.982  16.149 -0.3297  0.3895 -0.2106
  629MPD2    C5 9316   3.199   1.110  16.133  0.0104 -0.3656  0.6220
  629MPD2     H 9317   3.434   0.807  16.187  0.2052 -0.1813  0.0112
  629MPD2    H1 9318   3.045   0.961  16.141 -0.2031  0.0603 -1.1007
  629MPD2    H2 9319   3.367   1.225  16.111  2.1961 -1.1296 -0.0246
  629MPD2    H3 9320   3.137   1.199  16.126 -2.2379 -2.1401 -1.7217
  629MPD2     N 9321   3.198   0.740  16.176  0.0738 -0.5912 -0.0205
  629MPD2    H5 9322   3.273   0.673  16.185  1.6051  0.8680 -1.7806
  629MPD2    N1 9323   3.554   1.064  16.171  0.2976  0.3636  0.0224
  629MPD2    H7 9324   3.576   1.162  16.186 -0.0093  0.2401  1.2703
  630TMC3    C1 9325   3.791   1.030  16.197  0.3005  0.5317 -0.1531
  630TMC3    C2 9326   3.831   1.158  16.171  0.4288  0.6536  0.0482
  630TMC3    C3 9327   3.950   1.204  16.225 -0.3494 -0.7365  0.3697
  630TMC3    C4 9328   3.874   0.944  16.263 -0.2146  0.3708  0.2105
  630TMC3    C5 9329   3.984   0.997  16.325 -0.0517 -0.1232  0.7244
  630TMC3    C6 9330   4.020   1.124  16.310  0.3674  0.0769 -0.4845
  630TMC3     C 9331   3.660   0.976  16.161 -1.2354  0.6809  0.6297
  630TMC3     O 9332   3.655   0.854  16.156  0.3505  0.3217 -0.0289
  630TMC3     H 9333   3.757   1.215  16.115  0.0514 -0.9633 -1.1278
  630TMC3    H1 9334   3.826   0.850  16.289 -3.0685  2.0950  1.0792
  630TMC3    H2 9335   4.117   1.156  16.345  0.0071  1.6649 -0.9205
  630TMC3    C7 9336   4.036   0.928  16.441 -0.2936 -0.3700  0.3014
  630TMC3    C8 9337   4.007   1.332  16.184  0.8541 -0.3656  0.0351
  630TMC3    O1 9338   4.116   0.984  16.514  0.1554 -0.0246  0.2012
  630TMC3    O2 9339   4.099   1.372  16.256  0.0075 -0.5956 -0.1719
  631MPD2     C 9340   2.001   1.229  15.625 -0.4006 -0.2638  0.5604
  631MPD2    C1 9341   2.010   1.221  15.487  0.4566 -0.0468  0.0933
  631MPD2    C2 9342   2.030   1.093  15.433 -0.5751 -0.6464  0.2993
  631MPD2    C3 9343   2.060   0.982  15.512  0.4260 -0.2034 -0.1393
  631MPD2    C4 9344   2.059   0.995  15.652  0.2142  0.3392 -0.8961
  631MPD2    C5 9345   2.023   1.119  15.703  0.1302 -0.6522  0.4269
  631MPD2     H 9346   2.041   1.081  15.326 -1.4024  1.4997 -0.0229
  631MPD2    H1 9347   2.092   0.918  15.721 -0.6540 -0.6111 -1.5566
  631MPD2    H2 9348   1.974   1.319  15.679 -0.1428 -0.9343  1.8138
  631MPD2    H3 9349   1.995   1.122  15.808  2.7307 -1.1629  1.1269
  631MPD2     N 9350   2.100   0.861  15.450  0.2541  0.2272  0.5486
  631MPD2    H5 9351   2.112   0.859  15.349 -0.1624 -1.2636  0.5286
  631MPD2    N1 9352   1.993   1.340  15.411  0.2578 -1.1332 -0.1729
  631MPD2    H7 9353   1.967   1.419  15.470  0.4754  2.2028 -4.5048
  632TMC3    C1 9354   1.997   1.488  15.220  0.5999  0.4243 -0.3417
  632TMC3    C2 9355   1.886   1.556  15.266 -0.2630 -0.1510 -1.2214
  632TMC3    C3 9356   1.802   1.608  15.178  0.5749  0.1668  0.3819
  632TMC3    C4 9357   2.018   1.482  15.083 -0.3334  0.3713  0.1738
  632TMC3    C5 9358   1.926   1.534  14.992 -0.4756  0.8620  0.2093
  632TMC3    C6 9359   1.814   1.604  15.042  0.5029 -0.3674 -0.4675
  632TMC3     C 9360   2.011   1.359  15.271 -0.1627  0.5903 -0.5077
  632TMC3     O 9361   2.039   1.277  15.187  0.2743 -0.2409  0.3931
  632TMC3     H 9362   1.865   1.562  15.372  1.3813 -3.6786 -0.7206
  632TMC3    H1 9363   2.104   1.433  15.038 -1.5142 -0.6090 -0.9958
  632TMC3    H2 9364   1.740   1.642  14.973  0.9873  0.4868 -0.5105
  632TMC3    C7 9365   1.905   1.458  14.866 -0.1378  0.2785  0.5959
  632TMC3    C8 9366   1.678   1.657  15.242  0.9307  0.2528  0.2423
  632TMC3    O1 9367   1.811   1.490  14.792  0.1303  0.6804 -0.1484
  632TMC3    O2 9368   1.689   1.698  15.354 -0.0813  0.2031  0.2261
  633MPD2     C 9369   1.517   3.911  17.419  0.2084  0.4734  0.1328
  633MPD2    C1 9370   1.529   3.855  17.292 -0.0194  0.4494  0.0004
  633MPD2    C2 9371   1.455   3.742  17.254 -0.4356  0.1083 -0.8703
  633MPD2    C3 9372   1.373   3.688  17.345 -0.2178  0.3068  0.1793
  633MPD2    C4 9373   1.355   3.745  17.466  0.1285 -0.0546 -0.5955
  633MPD2    C5 9374   1.421   3.862  17.497 -0.2146 -0.5483 -0.2424
  633MPD2     H 9375   1.473   3.704  17.154  0.1999 -1.1633 -0.2840
  633MPD2    H1 9376   1.285   3.703  17.537  0.6822 -0.8094 -0.5049
  633MPD2    H2 9377   1.567   4.001  17.451  0.8240  0.2711 -0.2721
  633MPD2    H3 9378   1.402   3.919  17.587 -4.2374  0.7283 -1.8633
  633MPD2     N 9379   1.305   3.562  17.326 -0.2384 -0.5025 -0.4824
  633MPD2    H5 9380   1.229   3.538  17.388 -0.4583 -0.9349 -0.9264
  633MPD2    N1 9381   1.618   3.917  17.206 -0.1472 -0.1448 -0.3732
  633MPD2    H7 9382   1.628   3.873  17.115  0.9557  2.1870 -1.3791
  634TMC3    C1 9383   1.749   4.069  17.098 -0.0332  0.2459 -0.2757
  634TMC3    C2 9384   1.796   3.970  17.019  0.6218 -0.0225  0.0515
  634TMC3    C3 9385   1.855   4.009  16.900  0.8981 -0.9726 -0.4331
  634TMC3    C4 9386   1.740   4.202  17.053  0.5208 -0.1095  0.3084
  634TMC3    C5 9387   1.800   4.241  16.941  0.0916  0.1349  0.3332
  634TMC3    C6 9388   1.861   4.145  16.863 -0.4047  0.0016 -0.4573
  634TMC3     C 9389   1.678   4.035  17.216 -0.1632 -0.4824  0.0003
  634TMC3     O 9390   1.670   4.124  17.301 -0.1229 -0.2337  0.3818
  634TMC3     H 9391   1.812   3.868  17.051  0.0674 -0.3486 -0.7082
  634TMC3    H1 9392   1.675   4.270  17.108 -0.0878 -0.8149  0.4608
  634TMC3    H2 9393   1.905   4.163  16.766  2.3992  2.0445  1.1779
  634TMC3    C7 9394   1.741   4.353  16.877  0.4121  0.2724 -0.2881
  634TMC3    C8 9395   1.861   3.899  16.801 -0.0976  0.2758  0.7544
  634TMC3    O1 9396   1.755   4.364  16.757  0.2565  0.3526 -0.2571
  634TMC3    O2 9397   1.872   3.786  16.847 -0.0760 -0.3094 -0.6512
  635TMC3    C1 9398   1.985   4.429  17.654 -0.1247 -0.1957  0.6252
  635TMC3    C2 9399   1.925   4.388   0.086 -0.0882  0.3578  0.4653
  635TMC3    C3 9400   1.898   4.257   0.100  0.0056 -0.2639 -0.4492
  635TMC3    C4 9401   1.983   4.356  17.537 -0.8350  0.6356  0.6489
  635TMC3    C5 9402   1.944   4.225  17.556 -0.3139 -0.5507 -0.0924
  635TMC3    C6 9403   1.906   4.166  17.678  0.2387  0.0847 -0.0984
  635TMC3     C 9404   1.980   4.570  17.636 -0.0577  0.4943 -0.4163
  635TMC3     O 9405   1.895   4.639   0.003 -0.2603  0.3587 -0.0550
  635TMC3     H 9406   1.905   4.454   0.170 -0.0991 -0.5428  1.1706
  635TMC3    H1 9407   2.005   4.397  17.439  0.0117 -1.6317 -0.1228
  635TMC3    H2 9408   1.911   4.059   0.009  2.4671  0.5959  2.5014
  635TMC3    C7 9409   1.986   4.137  17.445  0.1253  0.3496  0.0585
  635TMC3    C8 9410   1.864   4.196   0.232 -0.5337 -0.9517  0.5603
  635TMC3    O1 9411   2.066   4.185  17.367 -0.6564  0.4648  0.1088
  635TMC3    O2 9412   1.807   4.090   0.235 -0.0649  0.2908  0.0542
  636MPD2     C 9413   2.552   4.108  15.582 -0.3394  0.1541  0.5963
  636MPD2    C1 9414   2.575   4.161  15.707  0.5722  0.4704  0.5479
  636MPD2    C2 9415   2.625   4.081  15.810 -0.5088 -0.1933  0.4375
  636MPD2    C3 9416   2.651   3.947  15.790  0.1480  0.0148 -0.6629
  636MPD2    C4 9417   2.627   3.891  15.666 -0.3565  0.1236 -0.5674
  636MPD2    C5 9418   2.578   3.973  15.566 -0.4818  0.3018 -0.5988
  636MPD2     H 9419   2.649   4.124  15.906  1.5458  0.3026 -0.2985
  636MPD2    H1 9420   2.653   3.789  15.641 -0.8612 -0.0142 -0.5299
  636MPD2    H2 9421   2.510   4.162  15.498  1.0437  0.8627  0.3627
  636MPD2    H3 9422   2.550   3.932  15.469  1.7324 -0.1349 -1.0601
  636MPD2     N 9423   2.695   3.879  15.911  0.3974  0.7496  0.0553
  636MPD2    H5 9424   2.714   3.936  15.992 -0.2673  0.6814  0.2568
  636MPD2    N1 9425   2.557   4.296  15.745 -0.1618  0.3127 -0.6995
  636MPD2    H7 9426   2.590   4.318  15.839  0.0810 -0.4915 -0.5908
  637TMC3    C1 9427   2.780   3.736  16.061  0.3831 -0.1696  0.1860
  637TMC3    C2 9428   2.726   3.812  16.161  0.8469  0.4051 -0.2763
  637TMC3    C3 9429   2.805   3.867  16.255 -0.7476  0.0067 -0.8663
  637TMC3    C4 9430   2.906   3.681  16.071 -0.6481  0.3204  0.9575
  637TMC3    C5 9431   2.984   3.734  16.167  0.4801 -0.3133  0.5342
  637TMC3    C6 9432   2.935   3.826  16.263 -0.1137  0.7226  0.0296
  637TMC3     C 9433   2.728   3.747  15.928 -0.4071  0.3805  0.8830
  637TMC3     O 9434   2.737   3.652  15.853 -0.1756  0.3300  0.4912
  637TMC3     H 9435   2.626   3.849  16.143  1.3650  1.8179 -0.2468
  637TMC3    H1 9436   2.939   3.624  15.985  2.3307  1.6244  1.2499
  637TMC3    H2 9437   2.990   3.855  16.352  0.3019  0.5229 -0.1621
  637TMC3    C7 9438   3.120   3.765  16.124  0.1288  0.0646 -0.0300
  637TMC3    C8 9439   2.784   4.005  16.244  0.0571  0.1185 -0.4729
  637TMC3    O1 9440   3.178   3.852  16.187  0.5312 -0.1218  0.3379
  637TMC3    O2 9441   2.759   4.048  16.134 -0.2071 -0.5232 -0.5039
  638MPD2     C 9442   1.793   2.601  14.409  0.9902 -1.1697  0.6842
  638MPD2    C1 9443   1.857   2.632  14.531  0.2691  0.2356  0.2026
  638MPD2    C2 9444   1.786   2.638  14.645  0.2029  0.3589  0.1211
  638MPD2    C3 9445   1.649   2.629  14.650  0.4104 -0.7011 -0.4127
  638MPD2    C4 9446   1.585   2.622  14.527  0.4349 -0.0923 -0.4677
  638MPD2    C5 9447   1.651   2.606  14.406 -0.4660 -0.2342  0.2076
  638MPD2     H 9448   1.843   2.638  14.737 -1.8192 -2.7377  1.3648
  638MPD2    H1 9449   1.480   2.599  14.537  0.8386 -1.7510 -0.0966
  638MPD2    H2 9450   1.849   2.583  14.318  0.7894  0.2699  0.2809
  638MPD2    H3 9451   1.592   2.570  14.323  1.8550 -0.2917 -1.4127
  638MPD2     N 9452   1.578   2.631  14.772  0.6289  1.0167 -0.2252
  638MPD2    H5 9453   1.478   2.609  14.770  0.7640  0.3120  0.4560
  638MPD2    N1 9454   1.998   2.638  14.530  0.0539 -0.3843  0.0647
  638MPD2    H7 9455   2.044   2.612  14.444 -0.9694  0.0366 -0.6034
  639TMC3    C1 9456   1.517   2.628  14.997 -0.0679  0.3808 -0.1657
  639TMC3    C2 9457   1.414   2.549  14.962  0.6373 -0.2640  0.2288
  639TMC3    C3 9458   1.347   2.483  15.063 -1.2063 -0.6127  0.4833
  639TMC3    C4 9459   1.558   2.640  15.126 -0.0293  0.6139 -0.0763
  639TMC3    C5 9460   1.470   2.596  15.222 -0.2074  0.0688 -0.0385
  639TMC3    C6 9461   1.364   2.516  15.187  0.3676  0.1177  0.0034
  639TMC3     C 9462   1.620   2.657  14.900  0.8310  0.2382 -0.0341
  639TMC3     O 9463   1.732   2.695  14.933 -0.4822 -0.2103 -0.6503
  639TMC3     H 9464   1.381   2.528  14.861 -1.8188  0.5429  0.8490
  639TMC3    H1 9465   1.637   2.708  15.155  1.6894 -0.7365 -1.5840
  639TMC3    H2 9466   1.286   2.488  15.257  1.3704 -2.0835  0.2507
  639TMC3    C7 9467   1.516   2.563  15.353  0.4505 -0.0597  0.1136
  639TMC3    C8 9468   1.338   2.340  15.044  0.3686  0.4382 -0.5902
  639TMC3    O1 9469   1.438   2.531  15.441 -0.1359 -0.0733  0.3916
  639TMC3    O2 9470   1.329   2.305  14.927  0.5796  0.4111 -0.2546
  640MPD2     C 9471   2.590   1.695   9.320 -0.2001  0.1374 -0.5414
  640MPD2    C1 9472   2.684   1.790   9.350 -0.4998  0.7641 -0.2408
  640MPD2    C2 9473   2.646   1.928   9.350 -0.2065 -0.5758 -0.3399
  640MPD2    C3 9474   2.531   1.975   9.294 -0.1091  0.4658 -0.2819
  640MPD2    C4 9475   2.443   1.879   9.256 -0.5330 -0.1739  0.2195
  640MPD2    C5 9476   2.471   1.741   9.269 -0.1952  0.3717 -0.0931
  640MPD2     H 9477   2.721   1.995   9.392 -0.2111 -1.1515  0.5812
  640MPD2    H1 9478   2.347   1.907   9.216  1.8940  3.5747 -2.9239
  640MPD2    H2 9479   2.612   1.589   9.328 -3.2070 -0.3817  0.8196
  640MPD2    H3 9480   2.388   1.677   9.241  1.3039 -1.9120  0.7077
  640MPD2     N 9481   2.497   2.111   9.287 -0.5205 -0.6370 -0.1152
  640MPD2    H5 9482   2.401   2.131   9.263 -0.4796 -1.7803 -1.2602
  640MPD2    N1 9483   2.816   1.752   9.397 -0.1586 -0.4720 -0.1482
  640MPD2    H7 9484   2.819   1.659   9.436 -1.4623 -1.0627 -1.4796
  641TMC3    C1 9485   3.048   1.787   9.436  0.0416  0.4706 -0.3501
  641TMC3    C2 9486   3.059   1.673   9.508 -0.0468  0.3108 -0.4118
  641TMC3    C3 9487   3.177   1.620   9.549 -0.2393 -0.2824 -0.1983
  641TMC3    C4 9488   3.162   1.854   9.398 -0.4353  1.2508  0.1908
  641TMC3    C5 9489   3.278   1.803   9.451  0.4090 -0.6447  0.1644
  641TMC3    C6 9490   3.292   1.693   9.530 -0.5245  0.4358 -0.6889
  641TMC3     C 9491   2.931   1.833   9.369 -0.3944 -0.5896  0.0358
  641TMC3     O 9492   2.943   1.928   9.291 -0.0313  0.1112  0.2786
  641TMC3     H 9493   2.968   1.614   9.513  0.7790 -0.9547 -0.1067
  641TMC3    H1 9494   3.169   1.938   9.329 -0.6253  2.0504  1.1458
  641TMC3    H2 9495   3.393   1.662   9.553 -0.9341 -0.2990  0.1613
  641TMC3    C7 9496   3.404   1.863   9.417  0.2010 -0.1723 -0.0521
  641TMC3    C8 9497   3.187   1.474   9.551  0.3556 -0.8718  0.3062
  641TMC3    O1 9498   3.481   1.891   9.511 -0.6187 -0.0323  0.3725
  641TMC3    O2 9499   3.092   1.411   9.509 -0.1359  0.2200 -0.1276
  642TMC3    C1 9500   3.703   2.075  12.261 -1.6076  0.3595  0.0711
  642TMC3    C2 9501   3.708   2.036  12.395 -0.2576 -0.1327  0.1165
  642TMC3    C3 9502   3.681   1.901  12.421 -0.5665 -0.5166 -0.0583
  642TMC3    C4 9503   3.660   1.998  12.163  0.0012 -0.1107 -0.6806
  642TMC3    C5 9504   3.626   1.873  12.199  0.1158  0.5086 -0.1998
  642TMC3    C6 9505   3.644   1.821  12.326 -0.2544  1.2216 -0.0983
  642TMC3     C 9506   3.721   2.216  12.230  0.2107  0.0085 -0.2157
  642TMC3     O 9507   3.751   2.243  12.111  0.6807 -0.2309 -0.6076
  642TMC3     H 9508   3.764   2.101  12.462 -2.0559  1.3596  0.1709
  642TMC3    H1 9509   3.642   2.030  12.061 -1.9712 -0.4127 -0.4271
  642TMC3    H2 9510   3.629   1.716  12.345 -0.1315  1.0916 -0.7239
  642TMC3    C7 9511   3.558   1.795  12.103 -0.6372 -0.5195 -0.3424
  642TMC3    C8 9512   3.717   1.858  12.548 -0.0010  0.5063  0.4473
  642TMC3    O1 9513   3.563   1.845  11.990 -0.4107 -0.6321  0.4784
  642TMC3    O2 9514   3.712   1.737  12.569 -0.5408  0.2573  0.0586
  643TMC3    C1 9515   2.830   2.394   0.205 -0.5033  0.1162 -0.3558
  643TMC3    C2 9516   2.770   2.494   0.135  0.1062  0.3889 -0.1879
  643TMC3    C3 9517   2.784   2.498  17.685 -0.0156  0.1691  0.4287
  643TMC3    C4 9518   2.908   2.299   0.143 -0.4887 -0.5126 -0.7335
  643TMC3    C5 9519   2.912   2.310   0.002  0.4291  0.2488 -0.0933
  643TMC3    C6 9520   2.849   2.407  17.615 -0.0227  0.1917 -0.2500
  643TMC3     C 9521   2.828   2.401   0.350  0.1545 -0.0481 -0.3958
  643TMC3     O 9522   2.732   2.451   0.403  0.2513 -0.2719  0.4150
  643TMC3     H 9523   2.710   2.570   0.183 -2.4476 -2.0147  0.3825
  643TMC3    H1 9524   2.964   2.217   0.187  0.7612  1.5797  1.5667
  643TMC3    H2 9525   2.853   2.409  17.507 -1.5533  1.7436 -0.2762
  643TMC3    C7 9526   2.975   2.207  17.617 -0.1621 -0.4149 -0.8027
  643TMC3    C8 9527   2.704   2.590  17.607  0.1138 -0.4376  0.5018
  643TMC3    O1 9528   2.955   2.094  17.666  0.3457 -0.0671  0.0787
  643TMC3    O2 9529   2.652   2.543  17.507  0.8192  0.0982 -0.7175
  644MPD2     C 9530   3.900   2.114   9.595  0.1823  0.5554  0.2063
  644MPD2    C1 9531   3.769   2.063   9.608 -0.2093  0.7622  0.1915
  644MPD2    C2 9532   3.668   2.154   9.627 -0.2208  0.1404  0.3665
  644MPD2    C3 9533   3.688   2.291   9.613  0.4153 -0.4004  0.5011
  644MPD2    C4 9534   3.823   2.331   9.615  0.2290  0.0540  0.3045
  644MPD2    C5 9535   3.923   2.246   9.602  0.8612 -0.3653  0.3679
  644MPD2     H 9536   3.564   2.122   9.623 -0.4905  1.0956 -0.2850
  644MPD2    H1 9537   3.853   2.435   9.613  0.8417 -0.1253  0.0803
  644MPD2    H2 9538   3.984   2.048   9.574 -0.1687  1.0607 -2.7189
  644MPD2    H3 9539   4.023   2.280   9.575  1.1790 -1.0950  0.6362
  644MPD2     N 9540   3.576   2.379   9.603  0.2625 -0.4502 -0.1804
  644MPD2    H5 9541   3.484   2.339   9.589 -0.5183  1.2168  0.0844
  644MPD2    N1 9542   3.741   1.926   9.602  0.4267  0.2696 -0.1677
  644MPD2    H7 9543   3.644   1.896   9.613  0.1458  0.8837 -0.9848
  645TMC3    C1 9544   3.456   2.586   9.573  0.2907  0.5435 -0.1815
  645TMC3    C2 9545   3.445   2.709   9.625 -1.1096 -0.2597  0.3853
  645TMC3    C3 9546   3.337   2.777   9.572 -0.7792 -0.5824 -0.2702
  645TMC3    C4 9547   3.385   2.541   9.463 -0.3138 -0.2594 -0.0358
  645TMC3    C5 9548   3.273   2.612   9.423  0.2020 -0.1673  0.4432
  645TMC3    C6 9549   3.249   2.735   9.473 -0.3751  0.0071  0.5444
  645TMC3     C 9550   3.578   2.519   9.608  0.6025  0.2287  1.2861
  645TMC3     O 9551   3.674   2.590   9.634 -0.1015  0.0877 -0.0367
  645TMC3     H 9552   3.520   2.752   9.691 -0.8025  1.1329 -0.8798
  645TMC3    H1 9553   3.401   2.440   9.428  1.1594 -0.5311  1.3979
  645TMC3    H2 9554   3.164   2.795   9.444 -1.7083 -2.6887 -1.0934
  645TMC3    C7 9555   3.190   2.548   9.322 -0.2337 -0.1172  0.0106
  645TMC3    C8 9556   3.322   2.915   9.612 -0.5159  0.0462  0.4523
  645TMC3    O1 9557   3.239   2.451   9.266 -0.3116  0.4496 -0.2570
  645TMC3    O2 9558   3.265   2.987   9.531  0.2060 -0.2485 -0.0934
  646MPD2     C 9559   2.303   1.215  14.493  1.2448 -0.1637  0.5081
  646MPD2    C1 9560   2.330   1.292  14.595  0.2752  0.8368 -0.0666
  646MPD2    C2 9561   2.249   1.406  14.623  0.2348  0.0049 -0.6790
  646MPD2    C3 9562   2.138   1.424  14.539  0.0442 -0.1743 -0.5223
  646MPD2    C4 9563   2.120   1.342  14.434  0.1526 -0.2755 -0.7001
  646MPD2    C5 9564   2.206   1.243  14.402  1.0564 -0.0467 -0.7384
  646MPD2     H 9565   2.276   1.468  14.708  0.7299 -0.2346 -0.6608
  646MPD2    H1 9566   2.033   1.347  14.370 -0.2386 -2.9758 -0.3545
  646MPD2    H2 9567   2.364   1.127  14.477  2.2549  0.3525  1.5265
  646MPD2    H3 9568   2.192   1.190  14.308  2.9433  0.6125 -1.3994
  646MPD2     N 9569   2.066   1.545  14.570 -0.3848  0.2381 -1.0391
  646MPD2    H5 9570   2.107   1.607  14.640  1.8203  0.8871 -2.9378
  646MPD2    N1 9571   2.431   1.250  14.683  0.0935  0.0834  0.4801
  646MPD2    H7 9572   2.497   1.183  14.643  0.9905  1.1592  0.1472
  647TMC3    C1 9573   2.576   1.253  14.861  0.2438  0.3730  0.0198
  647TMC3    C2 9574   2.593   1.233  14.996 -0.5095  0.5431  0.0557
  647TMC3    C3 9575   2.709   1.197  15.052  0.2588  0.4687 -0.2425
  647TMC3    C4 9576   2.678   1.225  14.781 -0.3295 -0.3471 -0.5280
  647TMC3    C5 9577   2.793   1.175  14.830 -0.2685 -0.1494  0.0225
  647TMC3    C6 9578   2.816   1.177  14.964 -0.2663 -0.0262  0.5584
  647TMC3     C 9579   2.452   1.293  14.809 -0.2129  0.2450 -0.6874
  647TMC3     O 9580   2.380   1.358  14.883  0.1769 -0.1952  0.3585
  647TMC3     H 9581   2.516   1.266  15.066  0.3558  2.1880  0.2322
  647TMC3    H1 9582   2.665   1.247  14.676 -2.4838 -2.1415 -0.6434
  647TMC3    H2 9583   2.906   1.142  15.012  0.5122 -2.5850 -2.7730
  647TMC3    C7 9584   2.864   1.068  14.755 -0.0282 -0.5731  0.2827
  647TMC3    C8 9585   2.711   1.086  15.149  0.1127  0.0912 -0.4844
  647TMC3    O1 9586   2.968   1.023  14.799 -0.2205 -0.3170 -0.5225
  647TMC3    O2 9587   2.789   1.086  15.241 -0.1561 -0.1927 -0.1692
  648TMC3    C1 9588   2.067   3.925  16.200 -0.5314 -0.2039  0.2539
  648TMC3    C2 9589   2.087   3.800  16.152  0.0326 -0.0114 -0.5578
  648TMC3    C3 9590   2.032   3.774  16.030  0.6191 -0.2610  0.6415
  648TMC3    C4 9591   1.983   4.016  16.135 -0.3273  0.2247 -0.2554
  648TMC3    C5 9592   1.925   3.976  16.013  0.6292  0.3060  0.2889
  648TMC3    C6 9593   1.960   3.857  15.948  0.3401  0.6402  0.3191
  648TMC3     C 9594   2.115   3.977  16.329  0.3531 -0.6494 -0.3494
  648TMC3     O 9595   2.098   4.097  16.347  0.2793 -0.3896 -0.0152
  648TMC3     H 9596   2.151   3.733  16.208 -1.2361  0.5306  1.5417
  648TMC3    H1 9597   1.972   4.119  16.165  0.2896  0.5064 -0.9969
  648TMC3    H2 9598   1.930   3.818  15.851  3.6104 -1.6782  0.2572
  648TMC3    C7 9599   1.869   4.080  15.930 -0.1626 -0.1631 -0.3996
  648TMC3    C8 9600   2.059   3.640  15.978  0.2280 -0.4081  0.1366
  648TMC3    O1 9601   1.846   4.055  15.812 -0.2898 -0.7318  0.2853
  648TMC3    O2 9602   2.149   3.579  16.036  0.0988  0.8303  1.0140
  649TMC3    C1 9603   0.383   4.716  12.942 -0.8173 -0.7416  0.5669
  649TMC3    C2 9604   0.501   0.069  12.946  0.6133 -0.3778 -0.3190
  649TMC3    C3 9605   0.519   0.140  13.058  0.3592 -0.5658 -0.2492
  649TMC3    C4 9606   0.299   4.703  13.046 -0.4401 -0.4187  0.7247
  649TMC3    C5 9607   0.315   0.066  13.149  0.4101  0.1311 -0.3230
  649TMC3    C6 9608   0.425   0.146  13.159  0.2907  1.0934 -0.3784
  649TMC3     C 9609   0.328   4.683  12.816  0.0486  0.0321 -0.0337
  649TMC3     O 9610   0.209   4.666  12.809 -0.4230  0.2202  0.1647
  649TMC3     H 9611   0.574   0.088  12.868 -0.5428 -0.8374 -1.5179
  649TMC3    H1 9612   0.213   4.639  13.036 -0.5155  0.1935 -2.4214
  649TMC3    H2 9613   0.438   0.205  13.249  0.9563  0.4852 -0.0822
  649TMC3    C7 9614   0.241   0.044  13.276 -0.0929 -0.0015 -0.0013
  649TMC3    C8 9615   0.644   0.217  13.085 -0.3069 -0.9761  0.3719
  649TMC3    O1 9616   0.249   0.129  13.363 -0.2234  0.3938  0.2108
  649TMC3    O2 9617   0.641   0.305  13.176 -0.8883  0.5019 -0.0205
  650TMC3    C1 9618   3.139   1.781  13.280  0.2933  0.2806  0.2774
  650TMC3    C2 9619   3.150   1.914  13.310  0.1559 -0.6291  0.6207
  650TMC3    C3 9620   3.073   1.996  13.238 -0.4279 -0.6049  0.7514
  650TMC3    C4 9621   3.035   1.728  13.204  0.4993 -0.0799  0.3835
  650TMC3    C5 9622   2.951   1.817  13.135 -0.2695 -0.2339  0.3007
  650TMC3    C6 9623   2.981   1.948  13.149 -0.2965 -0.6059 -0.5590
  650TMC3     C 9624   3.240   1.693  13.350  0.3678  0.7073  1.1282
  650TMC3     O 9625   3.325   1.750  13.418  0.1556 -0.0178 -0.6783
  650TMC3     H 9626   3.228   1.950  13.376 -0.4113  1.1780  0.2944
  650TMC3    H1 9627   3.019   1.621  13.201 -1.2071  0.1609  0.5258
  650TMC3    H2 9628   2.902   2.013  13.113 -1.6284 -1.2139  1.2249
  650TMC3    C7 9629   2.852   1.764  13.054  0.0228  0.0366 -0.7950
  650TMC3    C8 9630   3.116   2.131  13.217  0.1950 -0.3246  0.4225
  650TMC3    O1 9631   2.832   1.645  13.069  1.0079 -0.0158  0.0510
  650TMC3    O2 9632   3.094   2.177  13.107  0.2156  0.8283 -0.0559
  651MPD2     C 9633   1.786   3.906  10.543 -0.2858 -0.6946  0.0529
  651MPD2    C1 9634   1.850   3.980  10.640  0.1453  0.1822  0.2383
  651MPD2    C2 9635   1.983   4.012  10.633 -0.2728 -0.2849  0.9470
  651MPD2    C3 9636   2.067   3.951  10.545 -0.4868 -0.1809  0.5888
  651MPD2    C4 9637   2.004   3.874  10.446 -0.1706 -0.3534  0.2142
  651MPD2    C5 9638   1.866   3.841  10.448  0.2046  0.9479 -0.0264
  651MPD2     H 9639   2.025   4.089  10.697 -0.1603  0.8936 -0.5493
  651MPD2    H1 9640   2.058   3.828  10.364 -1.2931  1.0175 -1.3084
  651MPD2    H2 9641   1.680   3.886  10.536 -0.7970  2.4017 -1.3950
  651MPD2    H3 9642   1.819   3.784  10.368  0.6859 -1.8314  1.6656
  651MPD2     N 9643   2.207   3.974  10.544  0.6844  0.4948  0.0692
  651MPD2    H5 9644   2.238   4.040  10.614  0.8160  0.2952  0.1991
  651MPD2    N1 9645   1.775   4.029  10.752 -0.2290 -0.0423 -0.0951
  651MPD2    H7 9646   1.805   4.111  10.804  1.0686 -0.0124 -0.8931
  652TMC3    C1 9647   2.652   3.930  10.404 -0.4434 -0.2325  0.7778
  652TMC3    C2 9648   2.531   3.868  10.429  0.8929  0.0572 -0.8140
  652TMC3    C3 9649   2.433   3.940  10.487 -0.2948  0.4337 -0.4726
  652TMC3    C4 9650   2.686   4.054  10.452 -0.6147  0.6262  0.6016
  652TMC3    C5 9651   2.592   4.122  10.518 -0.8529  1.5557  0.0696
  652TMC3    C6 9652   2.463   4.068  10.525  0.4375 -0.0932 -0.6600
  652TMC3     C 9653   2.768   3.832  10.404 -0.1877 -0.7131  0.7160
  652TMC3     O 9654   2.785   3.761  10.503 -0.2449 -0.1394 -0.5881
  652TMC3     H 9655   2.528   3.760  10.423 -2.9551  0.0660  1.6018
  652TMC3    H1 9656   2.791   4.082  10.453 -0.0507 -1.4931  2.4566
  652TMC3    H2 9657   2.391   4.120  10.588 -1.8430 -2.3761 -1.4078
  652TMC3    C7 9658   2.630   4.169  10.647 -0.4670  0.0366 -0.0205
  652TMC3    C8 9659   2.297   3.900  10.474  0.6082  0.3185 -0.0084
  652TMC3    O1 9660   2.565   4.129  10.740  0.0145 -0.2632 -0.5163
  652TMC3    O2 9661   2.276   3.809  10.396 -0.1449  0.0705  0.2480
  653MPD2     C 9662   1.261   4.120   0.089 -0.8905 -0.3732 -0.1470
  653MPD2    C1 9663   1.151   4.164   0.013  0.2065  0.4980  0.2236
  653MPD2    C2 9664   1.053   4.074  17.658 -0.4437  0.4838 -0.0164
  653MPD2    C3 9665   1.073   3.945   0.002 -0.1461  0.2278  0.5452
  653MPD2    C4 9666   1.185   3.894   0.064  0.6269  0.5536  0.2025
  653MPD2    C5 9667   1.278   3.983   0.110  0.2625  0.1801 -0.0712
  653MPD2     H 9668   0.956   4.107  17.622 -0.0453  2.2813  0.5948
  653MPD2    H1 9669   1.201   3.790   0.091 -3.2577  0.0508  0.5598
  653MPD2    H2 9670   1.333   4.188   0.132 -1.0309 -0.4056  0.1434
  653MPD2    H3 9671   1.364   3.955   0.169  1.2281  0.6439 -1.2758
  653MPD2     N 9672   0.959   3.858  17.657  1.2286  0.6040  0.1714
  653MPD2    H5 9673   0.886   3.897  17.598  1.1440 -1.0061 -0.7899
  653MPD2    N1 9674   1.134   4.299  17.668  0.3744  0.2082 -0.3290
  653MPD2    H7 9675   1.046   4.327  17.626 -0.1767 -3.0644 -1.3836
  654TMC3    C1 9676   0.834   3.648  17.640  0.0325 -0.1219  0.2361
  654TMC3    C2 9677   0.728   3.729  17.625  0.1334  0.2010  0.2769
  654TMC3    C3 9678   0.609   3.677  17.595 -0.0325  0.1863  0.6722
  654TMC3    C4 9679   0.822   3.511  17.633 -0.1816 -0.1367 -0.2056
  654TMC3    C5 9680   0.698   3.462  17.596  0.0055  0.7560  0.7362
  654TMC3    C6 9681   0.593   3.540  17.583 -0.5940  0.1122  0.2914
  654TMC3     C 9682   0.959   3.716  17.670  0.6196 -0.1976  0.2704
  654TMC3     O 9683   1.052   3.645   0.017 -0.5925 -0.1502  0.2926
  654TMC3     H 9684   0.731   3.837  17.615 -0.2735  0.2591  0.7883
  654TMC3    H1 9685   0.902   3.441  17.654  0.6604  1.0752  0.6130
  654TMC3    H2 9686   0.494   3.496  17.582 -1.2911  1.6864 -0.1579
  654TMC3    C7 9687   0.689   3.371  17.478 -0.0628  0.0361  0.3072
  654TMC3    C8 9688   0.518   3.747  17.505 -0.8615 -0.2999 -0.2651
  654TMC3    O1 9689   0.621   3.423  17.389  0.1538  0.1329 -0.3002
  654TMC3    O2 9690   0.465   3.849  17.539  0.2450 -0.0795  0.0383
  655MPD2     C 9691   2.239   3.873  15.736 -0.5083  0.3522 -0.1151
  655MPD2    C1 9692   2.144   3.958  15.679  0.0736  0.2077  0.5557
  655MPD2    C2 9693   2.062   3.911  15.578  0.6463 -0.1101 -1.0305
  655MPD2    C3 9694   2.071   3.783  15.533 -0.4025  0.6412  0.5638
  655MPD2    C4 9695   2.155   3.695  15.602  0.2011 -0.0068  0.3800
  655MPD2    C5 9696   2.233   3.737  15.705  1.1064 -0.1670  0.1956
  655MPD2     H 9697   1.995   3.981  15.528  0.3347  1.1091  1.1057
  655MPD2    H1 9698   2.166   3.593  15.565 -1.6711 -0.3001  0.6418
  655MPD2    H2 9699   2.309   3.900  15.814 -1.6407  4.4348 -0.4843
  655MPD2    H3 9700   2.306   3.667  15.743  0.2856 -0.9299  0.3539
  655MPD2     N 9701   1.983   3.737  15.438 -0.4620 -0.0224  0.6396
  655MPD2    H5 9702   1.998   3.641  15.407  1.3278  0.5058 -0.0967
  655MPD2    N1 9703   2.139   4.100  15.714  0.4475 -0.4368  0.3772
  655MPD2    H7 9704   2.068   4.144  15.656  0.1394 -1.7568 -0.2509
  656TMC3    C1 9705   2.185   4.307  15.795  0.6912  0.1211 -0.3822
  656TMC3    C2 9706   2.202   4.374  15.907  0.3736  1.1872 -0.3733
  656TMC3    C3 9707   2.162   4.504  15.915  0.4866  0.7385 -0.2651
  656TMC3    C4 9708   2.138   4.369  15.679  0.3072 -0.3606  0.2397
  656TMC3    C5 9709   2.099   4.501  15.691  0.2263  0.0937 -0.1978
  656TMC3    C6 9710   2.114   4.574  15.812 -0.6718 -0.0986  0.3081
  656TMC3     C 9711   2.211   4.168  15.804  0.0430 -1.0265  0.5560
  656TMC3     O 9712   2.279   4.129  15.899  0.3030  0.1062  0.6889
  656TMC3     H 9713   2.237   4.318  15.992 -0.2766  1.7780  0.2796
  656TMC3    H1 9714   2.122   4.313  15.588  1.2086  1.8276 -1.2567
  656TMC3    H2 9715   2.080   4.675  15.828  1.3458 -0.0154  4.0252
  656TMC3    C7 9716   2.003   4.548  15.596  0.8983 -0.2212  0.4503
  656TMC3    C8 9717   2.125   4.566  16.039  0.7351  0.4110 -0.0860
  656TMC3    O1 9718   1.960   4.464  15.517  0.3217  0.2873  0.3306
  656TMC3    O2 9719   2.152   4.685  16.058 -0.6750  0.2545  0.5693
  657TMC3    C1 9720   0.944   3.371  14.720 -1.1863  1.0586  0.4954
  657TMC3    C2 9721   0.907   3.301  14.829 -0.4385  0.4613  0.7042
  657TMC3    C3 9722   0.778   3.317  14.874  0.4282  0.6996 -0.7663
  657TMC3    C4 9723   0.865   3.452  14.652  0.1516  0.7060 -0.3576
  657TMC3    C5 9724   0.742   3.472  14.710 -0.7088 -0.1779  0.1826
  657TMC3    C6 9725   0.695   3.413  14.823  0.0498 -0.1918 -0.0653
  657TMC3     C 9726   1.082   3.383  14.681  0.3969 -0.0024  0.3456
  657TMC3     O 9727   1.100   3.432  14.571  0.1695 -0.3680 -0.4296
  657TMC3     H 9728   0.971   3.220  14.861 -1.1202 -0.2276  0.3238
  657TMC3    H1 9729   0.895   3.497  14.558 -2.0915 -1.6561 -2.2197
  657TMC3    H2 9730   0.593   3.421  14.860 -0.3977 -0.6951 -1.1850
  657TMC3    C7 9731   0.657   3.550  14.629 -0.4336 -1.0562  0.7572
  657TMC3    C8 9732   0.730   3.257  15.001 -0.0978 -0.1632  0.0173
  657TMC3    O1 9733   0.691   3.568  14.512  0.1832 -0.2689  0.0373
  657TMC3    O2 9734   0.611   3.269  15.031 -0.3256  0.5635  0.0631
  658MPD2     C 9735   2.275   3.525  14.927 -0.3391 -0.8401  0.2273
  658MPD2    C1 9736   2.151   3.555  14.882  0.2579  0.1399 -0.0352
  658MPD2    C2 9737   2.126   3.562  14.748  0.3393 -0.3383  0.1616
  658MPD2    C3 9738   2.230   3.565  14.659 -0.2167 -0.0680 -1.0184
  658MPD2    C4 9739   2.362   3.553  14.703 -0.2870 -0.6323 -0.0584
  658MPD2    C5 9740   2.378   3.523  14.838  0.2736 -0.7689  0.2206
  658MPD2     H 9741   2.026   3.582  14.711  0.4324  0.0690  0.1300
  658MPD2    H1 9742   2.452   3.566  14.644  0.5685 -0.1060  1.3637
  658MPD2    H2 9743   2.299   3.505  15.031 -0.7395  0.2957  0.5383
  658MPD2    H3 9744   2.477   3.518  14.882  0.0799  0.2637  0.7763
  658MPD2     N 9745   2.193   3.598  14.526  0.5073 -0.3000  0.2014
  658MPD2    H5 9746   2.096   3.618  14.501  0.0563 -2.0334  0.5505
  658MPD2    N1 9747   2.046   3.570  14.980 -0.3489  0.9275  0.3845
  658MPD2    H7 9748   2.072   3.559  15.077  1.6506  0.2231 -0.2346
  659TMC3    C1 9749   1.835   3.617  15.078 -0.5362 -0.3639 -0.5700
  659TMC3    C2 9750   1.896   3.662  15.189  0.1129 -0.4849  0.1369
  659TMC3    C3 9751   1.816   3.733  15.274 -0.1074  0.7042  0.4959
  659TMC3    C4 9752   1.701   3.609  15.069  0.1783  0.3133 -0.1687
  659TMC3    C5 9753   1.624   3.677  15.162  0.4401 -0.4566  0.7423
  659TMC3    C6 9754   1.678   3.736  15.269  1.1498 -0.4757  0.3081
  659TMC3     C 9755   1.913   3.583  14.956 -0.6602  1.1220  0.1683
  659TMC3     O 9756   1.846   3.560  14.855  0.9605 -0.2282 -0.6134
  659TMC3     H 9757   2.003   3.669  15.201 -0.1027  0.4855  1.6084
  659TMC3    H1 9758   1.649   3.555  14.991 -1.8818  0.2409  1.2273
  659TMC3    H2 9759   1.619   3.776  15.351 -0.6611 -1.4559 -0.5333
  659TMC3    C7 9760   1.481   3.657  15.162 -0.0369  0.0915  0.3728
  659TMC3    C8 9761   1.884   3.812  15.374 -0.9576  0.8381 -0.3563
  659TMC3    O1 9762   1.423   3.675  15.268 -0.3734  0.0786  0.1276
  659TMC3    O2 9763   1.836   3.921  15.402 -0.2960 -0.0220 -0.1945
  660MPD2     C 9764   0.170   2.201  12.750  0.0118 -0.8950  0.3346
  660MPD2    C1 9765   0.055   2.279  12.749 -0.2631 -0.3936  0.7235
  660MPD2    C2 9766   4.680   2.261  12.855 -0.4245 -0.1486 -0.8372
  660MPD2    C3 9767   4.713   2.181  12.964 -0.7982  0.6141 -0.4113
  660MPD2    C4 9768   0.117   2.117  12.966 -0.6541 -0.4253  0.7274
  660MPD2    C5 9769   0.203   2.134  12.864  0.3601 -0.0628 -0.1806
  660MPD2     H 9770   4.588   2.318  12.862 -1.1371 -1.4308  0.0936
  660MPD2    H1 9771   0.151   2.063  13.054 -0.2336 -1.9740 -0.3683
  660MPD2    H2 9772   0.245   2.231  12.678 -2.3978  1.0767 -1.3496
  660MPD2    H3 9773   0.297   2.081  12.861 -0.2806 -1.2715  0.9319
  660MPD2     N 9774   4.625   2.158  13.079  0.5112  0.4041 -0.5453
  660MPD2    H5 9775   4.663   2.100  13.153  1.4178  0.7417 -0.7480
  660MPD2    N1 9776   0.036   2.368  12.638 -0.1477  0.6034  0.0295
  660MPD2    H7 9777   0.114   2.366  12.573 -0.9650  0.0660 -0.9284
  661TMC3    C1 9778   4.656   2.511  12.473  0.1885 -0.4178  0.6206
  661TMC3    C2 9779   0.046   2.483  12.389  0.9503 -0.0229 -0.4519
  661TMC3    C3 9780   0.021   2.506  12.256  0.0965  0.4306 -0.3301
  661TMC3    C4 9781   4.542   2.570  12.437 -0.2744  0.7056  0.0351
  661TMC3    C5 9782   4.525   2.582  12.298 -0.0946 -0.2135 -0.2294
  661TMC3    C6 9783   4.620   2.551  12.208  0.2552 -0.4966  0.1333
  661TMC3     C 9784   4.654   2.453  12.608 -0.0887  0.0845  1.0992
  661TMC3     O 9785   4.562   2.488  12.680  0.5241  0.5700 -0.0074
  661TMC3     H 9786   0.139   2.440  12.423  1.2928 -1.3835 -3.1218
  661TMC3    H1 9787   4.454   2.586  12.498  1.0750 -3.2978  3.0732
  661TMC3    H2 9788   4.599   2.548  12.101  0.2768  0.6790  0.0960
  661TMC3    C7 9789   4.391   2.612  12.254 -0.4268 -0.2585 -0.2715
  661TMC3    C8 9790   0.124   2.499  12.153  0.4139  0.4847 -0.1034
  661TMC3    O1 9791   4.333   2.690  12.327  0.4399  0.6533 -0.3764
  661TMC3    O2 9792   0.082   2.473  12.041  0.4436  0.1977 -0.3526
  662MPD2     C 9793   0.921   2.372  17.513 -0.6435  0.5380  0.3344
  662MPD2    C1 9794   0.940   2.443  17.634  0.4639 -0.0870 -0.3627
  662MPD2    C2 9795   0.861   2.556  17.656 -0.1784  0.5234  0.0037
  662MPD2    C3 9796   0.774   2.598  17.553 -0.4641 -0.3357  0.1687
  662MPD2    C4 9797   0.770   2.538  17.426 -0.1984 -0.1928 -0.4339
  662MPD2    C5 9798   0.843   2.426  17.413  0.2350 -0.9172  0.7057
  662MPD2     H 9799   0.863   2.594   0.072  0.5051 -1.5856  0.7875
  662MPD2    H1 9800   0.698   2.566  17.350 -0.7760 -0.9709 -0.1802
  662MPD2    H2 9801   0.966   2.275  17.497  0.5161  0.8708  1.6825
  662MPD2    H3 9802   0.834   2.367  17.323  0.9329  1.2739 -0.7819
  662MPD2     N 9803   0.684   2.704  17.568  0.2158 -0.6735  0.2076
  662MPD2    H5 9804   0.608   2.717  17.502 -0.0938 -0.4977  0.5970
  662MPD2    N1 9805   1.015   2.404   0.060 -0.9299 -0.5067 -0.5126
  662MPD2    H7 9806   1.023   2.478   0.129 -0.3077 -1.1512  0.1170
  663TMC3    C1 9807   1.089   2.282   0.235 -0.8197 -0.5191 -0.4794
  663TMC3    C2 9808   1.169   2.390   0.261  0.1663  0.1792 -1.4356
  663TMC3    C3 9809   1.145   2.455   0.382  0.1700  0.3294 -0.1840
  663TMC3    C4 9810   0.993   2.231   0.319  0.1860  0.8054 -0.3222
  663TMC3    C5 9811   0.976   2.298   0.436 -0.0749 -0.0880  0.2022
  663TMC3    C6 9812   1.054   2.402   0.470  0.0023 -0.1542  0.1843
  663TMC3     C 9813   1.044   2.274   0.096  0.0870 -0.3085  0.4960
  663TMC3     O 9814   1.025   2.165   0.044  0.0653 -0.5074 -0.1041
  663TMC3     H 9815   1.226   2.436   0.181 -0.4712 -0.7619 -2.4283
  663TMC3    H1 9816   0.927   2.149   0.293 -1.6833  1.8387  1.2513
  663TMC3    H2 9817   1.013   2.480   0.534 -0.5208  0.1467 -0.5203
  663TMC3    C7 9818   0.861   2.257   0.521  0.3534 -0.0700  0.1866
  663TMC3    C8 9819   1.112   2.602   0.353  0.6596 -0.7503  0.0152
  663TMC3    O1 9820   0.877   2.271   0.644  0.0950 -0.0713  0.1799
  663TMC3    O2 9821   1.057   2.627   0.246  0.3661 -0.0223  0.2976
  664MPD2     C 9822   3.631   0.556  17.566  0.1217  0.3130  0.7501
  664MPD2    C1 9823   3.690   0.679  17.580 -0.3686  0.0618  0.4039
  664MPD2    C2 9824   3.657   0.758  17.683  0.3731 -0.4528  0.2713
  664MPD2    C3 9825   3.566   0.721   0.089  0.2685 -0.1265 -0.0461
  664MPD2    C4 9826   3.524   0.591   0.089  0.2869 -0.9600  0.3935
  664MPD2    C5 9827   3.557   0.509  17.667  1.0641  0.3376  0.3788
  664MPD2     H 9828   3.699   0.857   0.006 -2.2883  0.7108 -0.1775
  664MPD2    H1 9829   3.461   0.555   0.169  0.4984 -0.9606  0.5602
  664MPD2    H2 9830   3.656   0.493  17.481 -0.2708  0.1847  0.7316
  664MPD2    H3 9831   3.508   0.412  17.663  1.5621  0.0351  1.4694
  664MPD2     N 9832   3.537   0.809   0.193 -0.8697 -0.1460  0.5243
  664MPD2    H5 9833   3.590   0.896   0.184 -0.3436 -0.4969  0.2428
  664MPD2    N1 9834   3.777   0.735  17.483  0.1955  0.0946  0.0076
  664MPD2    H7 9835   3.820   0.826  17.498 -2.5084  1.4792 -0.7342
  665TMC3    C1 9836   3.466   0.881   0.411  0.0760 -0.7693 -0.8179
  665TMC3    C2 9837   3.362   0.900   0.496 -0.3328 -0.1573  0.4109
  665TMC3    C3 9838   3.363   1.008   0.584  0.2493 -0.2713 -0.2447
  665TMC3    C4 9839   3.570   0.970   0.419 -0.1778 -0.3044  0.3932
  665TMC3    C5 9840   3.570   1.073   0.505  0.3502 -1.1116 -0.3872
  665TMC3    C6 9841   3.472   1.094   0.595 -0.7050  0.5839  0.3072
  665TMC3     C 9842   3.463   0.785   0.308  0.2161 -0.1828 -0.4373
  665TMC3     O 9843   3.379   0.696   0.325 -0.0895 -0.3369 -0.1707
  665TMC3     H 9844   3.280   0.833   0.477  0.4424 -0.7611 -0.8383
  665TMC3    H1 9845   3.666   0.938   0.381 -0.0093 -1.6762  1.9565
  665TMC3    H2 9846   3.476   1.145   0.691 -0.0342  3.7398 -1.3920
  665TMC3    C7 9847   3.693   1.150   0.505 -0.1814 -0.6378  0.2611
  665TMC3    C8 9848   3.251   1.036   0.664  0.2486 -0.3207 -0.1971
  665TMC3    O1 9849   3.767   1.147   0.409  0.0152  0.1732 -0.3008
  665TMC3    O2 9850   3.237   1.148   0.714 -0.8013  0.1212 -0.0315
  666TMC3    C1 9851   2.591   0.011  10.144 -0.4320 -0.3258  0.5990
  666TMC3    C2 9852   2.714   4.706  10.080  0.4630 -0.0029 -0.1708
  666TMC3    C3 9853   2.770   0.081  10.005  0.6155 -0.5417  0.3437
  666TMC3    C4 9854   2.524   0.126  10.127  0.1317  0.2012  0.7840
  666TMC3    C5 9855   2.584   0.210  10.031 -0.1880 -0.2336  0.8352
  666TMC3    C6 9856   2.705   0.194   9.966 -0.1882  0.8712  0.4491
  666TMC3     C 9857   2.566   4.656  10.265 -0.4722 -0.2062  0.1065
  666TMC3     O 9858   2.661   4.603  10.322 -0.1468 -0.0657  0.3478
  666TMC3     H 9859   2.764   4.612  10.101  0.4181 -0.3996 -1.8214
  666TMC3    H1 9860   2.429   0.145  10.176 -0.2272 -1.3842  0.7224
  666TMC3    H2 9861   2.743   0.272   9.901 -1.1701  1.2684  0.3451
  666TMC3    C7 9862   2.523   0.345  10.025  1.0558  0.2953 -0.1951
  666TMC3    C8 9863   2.910   0.099  10.044  0.0472  0.5684  0.7188
  666TMC3    O1 9864   2.493   0.380  10.137 -0.2428 -0.3623 -0.1857
  666TMC3    O2 9865   2.965   0.001  10.097  0.4998  0.0716  0.1132
  667MPD2     C 9866   4.202   0.436  14.542 -0.0945 -0.2924  0.6850
  667MPD2    C1 9867   4.139   0.329  14.595  0.1662  0.5722 -0.3792
  667MPD2    C2 9868   4.087   0.237  14.506 -0.4193 -0.3570  0.8398
  667MPD2    C3 9869   4.080   0.267  14.372  0.4553  0.3116 -0.4077
  667MPD2    C4 9870   4.141   0.376  14.327 -0.2544  0.2368 -0.1364
  667MPD2    C5 9871   4.203   0.461  14.410  0.1105 -0.2507 -0.0828
  667MPD2     H 9872   4.040   0.150  14.551  1.2668 -0.5263  2.2671
  667MPD2    H1 9873   4.134   0.409  14.224  0.0084  1.5799  0.2841
  667MPD2    H2 9874   4.249   0.510  14.606 -0.5858 -1.2058  2.0938
  667MPD2    H3 9875   4.248   0.550  14.367  1.1120 -0.8634 -0.2963
  667MPD2     N 9876   4.007   0.188  14.282  0.4509  0.2056  0.0630
  667MPD2    H5 9877   3.974   0.227  14.194 -1.5569  2.0457  1.6374
  667MPD2    N1 9878   4.141   0.302  14.732 -0.0341  0.1998 -0.4577
  667MPD2    H7 9879   4.082   0.226  14.763 -1.2621  1.2400 -0.2859
  668TMC3    C1 9880   4.170   0.331  14.971  0.0409  0.2728  0.0353
  668TMC3    C2 9881   4.200   0.423  15.071 -0.2826  0.1364 -0.5347
  668TMC3    C3 9882   4.177   0.385  15.201  0.2801 -0.8168 -0.1452
  668TMC3    C4 9883   4.126   0.204  15.001  0.0840 -0.2361 -0.1133
  668TMC3    C5 9884   4.096   0.178  15.133 -0.3710 -0.0072 -0.3046
  668TMC3    C6 9885   4.122   0.265  15.238 -0.8428 -0.0096 -0.5246
  668TMC3     C 9886   4.210   0.362  14.832  0.0055 -0.1090  0.1362
  668TMC3     O 9887   4.284   0.455  14.817  0.2028  0.0636 -0.5436
  668TMC3     H 9888   4.235   0.522  15.042 -1.2821  0.1959 -1.5657
  668TMC3    H1 9889   4.103   0.129  14.926 -2.4693  0.8533 -0.4166
  668TMC3    H2 9890   4.115   0.240  15.343  1.5181  1.9744  0.1172
  668TMC3    C7 9891   4.055   0.042  15.160  0.0928  0.1835 -0.2081
  668TMC3    C8 9892   4.164   0.481  15.308  0.7736  0.4504  0.2665
  668TMC3    O1 9893   4.049   4.695  15.061 -0.6452  0.4732 -0.1971
  668TMC3    O2 9894   4.103   0.449  15.411  0.0913 -0.1909 -0.0339
  669TMC3    C1 9895   2.152   0.732  14.293 -0.1507  0.1431  0.3600
  669TMC3    C2 9896   2.059   0.754  14.202 -0.1688  0.2257  0.3542
  669TMC3    C3 9897   2.069   0.850  14.101 -0.3809 -0.6630  0.3209
  669TMC3    C4 9898   2.266   0.810  14.292 -0.6064  0.1125 -0.1158
  669TMC3    C5 9899   2.274   0.911  14.197  0.4327  0.2906  0.0601
  669TMC3    C6 9900   2.177   0.932  14.101 -0.5264  0.0278  0.1916
  669TMC3     C 9901   2.153   0.607  14.369  0.2079  0.6517  0.4575
  669TMC3     O 9902   2.046   0.561  14.410 -0.0687 -0.4184 -0.6440
  669TMC3     H 9903   1.968   0.695  14.208  0.2762 -0.2993  1.9716
  669TMC3    H1 9904   2.335   0.801  14.375 -0.7160  0.7883  0.0490
  669TMC3    H2 9905   2.203   1.012  14.032 -0.3921 -0.2589 -0.0883
  669TMC3    C7 9906   2.401   0.976  14.182  0.5308 -0.4603 -0.1405
  669TMC3    C8 9907   1.982   0.825  13.984 -0.3601 -0.9614  0.0324
  669TMC3    O1 9908   2.458   0.997  14.287  0.3317 -0.1083  0.2341
  669TMC3    O2 9909   1.903   0.734  13.999 -0.2146  0.0499 -0.2286
  670MPD2     C 9910   0.015   2.889  13.665 -0.0837 -0.2149  0.2111
  670MPD2    C1 9911   0.144   2.896  13.711 -0.2031  0.0698  0.4147
  670MPD2    C2 9912   0.159   2.888  13.847 -0.3255 -0.0101  0.0132
  670MPD2    C3 9913   0.057   2.877  13.936  0.4841  0.8754  0.5317
  670MPD2    C4 9914   4.651   2.888  13.887  0.1347  0.2341  0.7294
  670MPD2    C5 9915   4.633   2.894  13.751 -0.0708  0.2295  0.7568
  670MPD2     H 9916   0.261   2.900  13.882  0.1842 -0.5867 -1.2356
  670MPD2    H1 9917   4.558   2.869  13.940  0.2719  1.3160  1.3615
  670MPD2    H2 9918   4.717   2.892  13.558  0.5937  0.2320  0.1079
  670MPD2    H3 9919   4.533   2.906  13.710  0.6982 -0.6263 -1.3810
  670MPD2     N 9920   0.078   2.837  14.074 -0.0132 -0.4126 -0.5950
  670MPD2    H5 9921   0.173   2.837  14.108  0.8130  0.5735 -2.9047
  670MPD2    N1 9922   0.263   2.901  13.632  0.3207  0.1439  0.0419
  670MPD2    H7 9923   0.358   2.902  13.667 -0.7878 -2.6592  3.1288
  671TMC3    C1 9924   0.033   2.776  14.295  0.3956 -0.1683  0.6892
  671TMC3    C2 9925   0.170   2.760  14.296 -0.3011 -0.4764 -0.0190
  671TMC3    C3 9926   0.218   2.685  14.401  0.7865 -0.1779 -0.0915
  671TMC3    C4 9927   4.667   2.714  14.384  0.0409 -0.1029  0.7361
  671TMC3    C5 9928   0.001   2.612  14.462 -0.0765 -0.4995  0.2443
  671TMC3    C6 9929   0.138   2.609  14.480 -0.3556 -0.2254  0.0174
  671TMC3     C 9930   4.702   2.812  14.167 -0.9546 -0.4932 -0.8044
  671TMC3     O 9931   4.583   2.805  14.162 -0.4042  0.2325  0.0235
  671TMC3     H 9932   0.238   2.822  14.239 -1.2780 -0.6219 -1.3458
  671TMC3    H1 9933   4.560   2.721  14.376 -0.1068 -1.7263  1.2600
  671TMC3    H2 9934   0.180   2.538  14.550  3.3343  2.3492  0.4478
  671TMC3    C7 9935   4.669   2.491  14.411 -0.2665  0.2146  0.1796
  671TMC3    C8 9936   0.357   2.650  14.404  0.2534  0.0965  0.1354
  671TMC3    O1 9937   4.587   2.498  14.321  0.5212  0.6660 -0.5650
  671TMC3    O2 9938   0.394   2.606  14.296  0.6823 -0.1938 -0.3813
  672MPD2     C 9939   0.241   4.009   1.508 -0.6419  0.6299  0.5702
  672MPD2    C1 9940   0.317   4.076   1.413 -0.0193  0.0569 -0.4759
  672MPD2    C2 9941   0.392   4.180   1.462 -0.2685  0.0047  0.8929
  672MPD2    C3 9942   0.373   4.223   1.594 -0.1603 -0.7799 -0.1604
  672MPD2    C4 9943   0.287   4.161   1.675  0.0059 -0.7082  0.2077
  672MPD2    C5 9944   0.233   4.049   1.635 -0.1552 -0.5243 -1.0026
  672MPD2     H 9945   0.468   4.216   1.394 -1.0602  0.3114  0.1739
  672MPD2    H1 9946   0.276   4.198   1.776 -0.6863 -1.5769  0.4507
  672MPD2    H2 9947   0.190   3.916   1.488  2.4333 -1.0439  0.6026
  672MPD2    H3 9948   0.175   3.988   1.703 -1.4013  1.2096 -0.5179
  672MPD2     N 9949   0.434   4.332   1.641  1.0286 -0.5536  0.0069
  672MPD2    H5 9950   0.437   4.355   1.739 -2.0534 -0.6124  0.1247
  672MPD2    N1 9951   0.330   4.032   1.279  0.4855 -0.0214  0.3088
  672MPD2    H7 9952   0.404   4.080   1.229  0.4249  0.2690  0.5009
  673TMC3    C1 9953   0.281   3.922   1.079 -0.3822  0.2791  0.3133
  673TMC3    C2 9954   0.413   3.922   1.052 -0.0552  0.6887 -0.5298
  673TMC3    C3 9955   0.451   3.894   0.922  0.1236 -0.4942  0.0550
  673TMC3    C4 9956   0.184   3.895   0.994  0.3514 -0.7390 -0.0938
  673TMC3    C5 9957   0.223   3.871   0.861 -0.1638 -1.1854 -0.3621
  673TMC3    C6 9958   0.357   3.873   0.827 -0.4604 -0.4038 -0.2708
  673TMC3     C 9959   0.239   3.953   1.213 -0.2177  0.9187  0.4757
  673TMC3     O 9960   0.136   3.911   1.256  0.3443 -0.2413  0.1417
  673TMC3     H 9961   0.486   3.934   1.132  0.5463 -0.4961 -0.9030
  673TMC3    H1 9962   0.080   3.906   1.020 -0.1724 -0.4176 -2.3020
  673TMC3    H2 9963   0.385   3.883   0.723 -2.0536  1.0365 -0.5714
  673TMC3    C7 9964   0.108   3.875   0.773 -0.0846  0.3611 -0.1254
  673TMC3    C8 9965   0.588   3.864   0.888 -0.3286  0.1599 -0.8417
  673TMC3    O1 9966   4.719   3.839   0.814 -0.1683 -0.3721 -0.4243
  673TMC3    O2 9967   0.618   3.856   0.770 -0.1225 -0.8982  0.4582
  674MPD2     C 9968   0.332   3.903   0.184 -0.1172  0.4927 -0.6753
  674MPD2    C1 9969   0.414   3.833   0.275 -0.3918 -0.9175 -0.4196
  674MPD2    C2 9970   0.351   3.749   0.369  0.4405  0.0038  0.2725
  674MPD2    C3 9971   0.214   3.741   0.372 -0.6071 -0.0959 -0.2427
  674MPD2    C4 9972   0.139   3.813   0.280 -0.3779 -0.4841 -0.1044
  674MPD2    C5 9973   0.199   3.877   0.174  0.7598  0.1500 -0.5555
  674MPD2     H 9974   0.407   3.692   0.441 -0.2330  1.4437  1.9453
  674MPD2    H1 9975   0.032   3.801   0.267  0.0137 -1.3073 -2.5552
  674MPD2    H2 9976   0.375   3.959   0.102 -1.0839  0.2357 -1.3534
  674MPD2    H3 9977   0.142   3.932   0.101 -0.6985 -1.1701 -0.3934
  674MPD2     N 9978   0.147   3.661   0.467  0.0608  0.0455  0.3461
  674MPD2    H5 9979   0.046   3.667   0.455  0.0893  1.8078  0.9484
  674MPD2    N1 9980   0.554   3.835   0.288  0.1146  0.0068  0.5328
  674MPD2    H7 9981   0.597   3.770   0.353 -2.7304 -1.3011  1.1045
  675TMC3    C1 9982   0.773   3.903   0.271 -0.0489 -0.1909 -0.8508
  675TMC3    C2 9983   0.819   3.772   0.293  0.4429 -0.6852 -0.3098
  675TMC3    C3 9984   0.945   3.757   0.350  0.5175  0.0320 -0.4584
  675TMC3    C4 9985   0.852   4.011   0.292 -0.4387 -0.1534 -0.4666
  675TMC3    C5 9986   0.976   3.994   0.347  0.4415 -0.2825  0.3606
  675TMC3    C6 9987   1.027   3.866   0.384 -0.0899 -0.1543  0.0703
  675TMC3     C 9988   0.635   3.917   0.220 -0.1051 -0.4525 -0.8956
  675TMC3     O 9989   0.609   4.003   0.139 -0.3859 -0.2897  0.3372
  675TMC3     H 9990   0.753   3.685   0.295 -1.3042  0.6367 -0.6400
  675TMC3    H1 9991   0.822   4.107   0.251 -2.5881  0.4175  2.4874
  675TMC3    H2 9992   1.128   3.854   0.422 -0.0317 -0.5523 -0.2017
  675TMC3    C7 9993   1.060   4.110   0.382  0.5628  0.2662  0.0216
  675TMC3    C8 9994   0.997   3.616   0.374  0.1033 -0.7936  1.2410
  675TMC3    O1 9995   1.166   4.086   0.435 -0.0740  0.2307  0.1831
  675TMC3    O2 9996   0.927   3.517   0.343  0.0651  0.0542 -0.4519
  676MPD2     C 9997   2.884   1.592  10.665 -0.8298  1.0220 -0.1475
  676MPD2    C1 9998   2.826   1.518  10.766  0.2166 -0.0392  0.0285
  676MPD2    C2 9999   2.839   1.379  10.762  0.3296  0.0513  0.0545
  676MPD2    C310000   2.908   1.314  10.662  0.7215 -0.1599 -0.0394
  676MPD2    C410001   2.944   1.391  10.555  0.0291 -0.3531 -0.1596
  676MPD2    C510002   2.938   1.533  10.559 -0.0859  0.0002  0.2433
  676MPD2     H10003   2.799   1.321  10.845 -5.0661  0.0767 -2.5300
  676MPD2    H110004   2.977   1.339  10.465 -2.3799  0.2440 -1.3726
  676MPD2    H210005   2.885   1.701  10.663 -0.3633  1.0130 -0.6175
  676MPD2    H310006   2.965   1.601  10.479 -1.1731  0.3695  0.1902
  676MPD2     N10007   2.930   1.174  10.651 -0.6950 -0.0422  0.4068
  676MPD2    H510008   2.972   1.146  10.563  1.3105 -0.2530  1.4465
  676MPD2    N110009   2.762   1.582  10.876  0.2230 -0.9435 -0.0141
  676MPD2    H710010   2.706   1.520  10.934 -1.0564  0.4767  0.2754
  677TMC3    C110011   2.706   1.747  11.035  0.5491 -0.1218 -0.5333
  677TMC3    C210012   2.573   1.708  11.049  0.9796 -0.3774 -0.0252
  677TMC3    C310013   2.506   1.751  11.158  0.2360  0.4031 -0.0825
  677TMC3    C410014   2.772   1.823  11.128  0.3601 -0.0948 -0.0898
  677TMC3    C510015   2.698   1.858  11.244  0.2940 -0.4648  0.1319
  677TMC3    C610016   2.569   1.822  11.254  0.3169 -0.2899 -0.2840
  677TMC3     C10017   2.784   1.709  10.913  0.4859  1.3392 -0.7422
  677TMC3     O10018   2.890   1.771  10.896 -0.4239  0.3618  0.1083
  677TMC3     H10019   2.517   1.661  10.969  1.5373  0.4080 -0.8780
  677TMC3    H110020   2.876   1.849  11.112 -0.3702  1.5238 -2.1410
  677TMC3    H210021   2.513   1.857  11.341  1.3959  0.2529  0.1854
  677TMC3    C710022   2.763   1.844  11.371 -0.7562  0.1297  0.3214
  677TMC3    C810023   2.370   1.696  11.168 -0.4029 -1.0012  0.1286
  677TMC3    O110024   2.695   1.842  11.470 -0.3386  0.1760 -0.2176
  677TMC3    O210025   2.309   1.674  11.062 -0.0633 -0.1920 -0.5700
  678MPD2     C10026   4.678   2.619   1.131 -0.8082 -0.5583 -0.1881
  678MPD2    C110027   4.685   2.488   1.181 -0.1311 -0.6345  0.1233
  678MPD2    C210028   4.592   2.393   1.157  0.3486 -0.0230 -0.3855
  678MPD2    C310029   4.478   2.427   1.084 -0.6635 -0.1081 -1.3541
  678MPD2    C410030   4.463   2.554   1.041 -0.5997 -0.5463  0.1931
  678MPD2    C510031   4.562   2.646   1.061 -0.2243  0.2006  0.8352
  678MPD2     H10032   4.602   2.291   1.192 -1.0391  0.1666  0.5590
  678MPD2    H110033   4.378   2.593   0.986 -0.5211  2.3129  2.0800
  678MPD2    H210034   0.035   2.694   1.135 -2.1937  0.7320  2.4417
  678MPD2    H310035   4.550   2.749   1.027 -1.2273 -0.6199 -1.3155
  678MPD2     N10036   4.381   2.328   1.073 -0.3400 -0.5793  0.2357
  678MPD2    H510037   4.403   2.232   1.098  0.2607 -0.1224  1.4269
  678MPD2    N110038   0.081   2.443   1.243 -0.0059  0.1130  0.2341
  678MPD2    H710039   0.075   2.345   1.268 -0.0013  0.0255 -0.1136
  679TMC3    C110040   0.450   2.240   1.318  0.1366 -0.2297 -0.0276
  679TMC3    C210041   0.317   2.295   1.302 -0.2490 -0.8702  0.0933
  679TMC3    C310042   0.315   2.434   1.314  1.0122  0.3553 -0.9531
  679TMC3    C410043   0.557   2.323   1.329 -0.0058 -0.0875  0.4085
  679TMC3    C510044   0.541   2.453   1.351  0.2235 -0.2268  0.6668
  679TMC3    C610045   0.415   2.515   1.355  0.2871  0.5364  0.1042
  679TMC3     C10046   0.463   2.090   1.306  0.4727 -0.2057  0.0927
  679TMC3     O10047   0.364   2.036   1.261  0.0420 -0.2090 -0.2443
  679TMC3     H10048   0.236   2.235   1.263  1.3571 -1.9378 -1.5851
  679TMC3    H110049   0.653   2.284   1.296 -0.4106 -1.1583  0.4954
  679TMC3    H210050   0.411   2.623   1.363  2.0609  0.6239 -0.2416
  679TMC3    C710051   0.656   2.539   1.345  0.2105  0.0496 -0.0167
  679TMC3    C810052   0.193   2.517   1.280  0.6842  0.4262 -0.2505
  679TMC3    O110053   0.636   2.657   1.327  0.1819  0.7886  0.2880
  679TMC3    O210054   0.204   2.639   1.288 -0.3501 -0.2537 -0.0624
  680MPD2     C10055   0.068   0.809  13.941 -0.8427 -0.1306  0.2914
  680MPD2    C110056   0.149   0.721  14.008  0.2350  0.3228 -0.3032
  680MPD2    C210057   0.280   0.754  14.043 -0.4531  0.9977 -0.4985
  680MPD2    C310058   0.330   0.870  13.992  0.1333 -0.2182  0.0251
  680MPD2    C410059   0.250   0.960  13.920 -0.0328  0.3277 -0.3340
  680MPD2    C510060   0.122   0.930  13.902  0.7626  0.6288 -0.1521
  680MPD2     H10061   0.336   0.677  14.096  0.4725 -0.4223 -3.5517
  680MPD2    H110062   0.283   1.056  13.883 -0.2915 -0.2150 -1.9656
  680MPD2    H210063   4.686   0.787  13.913 -0.8891 -1.0779  1.2353
  680MPD2    H310064   0.060   1.003  13.852 -0.5062 -1.5139 -1.6657
  680MPD2     N10065   0.467   0.891  13.999 -0.7422  0.4570  0.0152
  680MPD2    H510066   0.495   0.984  13.973  1.1714  0.0481  0.5908
  680MPD2    N110067   0.118   0.582  14.023  0.2741 -0.1780  0.2527
  680MPD2    H710068   0.200   0.531  14.056  1.4757  2.2407  1.0051
  681TMC3    C110069   0.022   0.372  13.978 -0.4880  0.7207 -0.1245
  681TMC3    C210070   0.107   0.310  14.067  0.1277 -0.7903 -0.3113
  681TMC3    C310071   0.128   0.177  14.045 -0.1703 -0.3879 -0.5516
  681TMC3    C410072   4.684   0.299  13.877  0.0706  0.0010 -0.1920
  681TMC3    C510073   4.696   0.167  13.868  0.0924  0.3488  0.3434
  681TMC3    C610074   0.065   0.109  13.951  0.5588  0.6838  0.1761
  681TMC3     C10075   0.009   0.518  13.970 -0.2295 -0.4148  0.1905
  681TMC3     O10076   4.642   0.562  13.901 -0.0027  1.2273 -0.2768
  681TMC3     H10077   0.142   0.355  14.160 -0.2502 -1.3505  0.1025
  681TMC3    H110078   4.614   0.350  13.812  2.1992  0.0137 -2.4562
  681TMC3    H210079   0.091   0.005  13.939 -0.1939  0.5404 -0.2758
  681TMC3    C710080   4.698   0.114  13.732 -0.3917 -0.2688  1.0149
  681TMC3    C810081   0.208   0.111  14.151 -0.6575  0.7573 -0.1267
  681TMC3    O110082   4.694   0.194  13.637 -0.5657  0.0870  0.4170
  681TMC3    O210083   0.195   4.708  14.162  0.2836 -0.2068 -0.3243
  682MPD2     C10084   2.172   1.607  10.422 -0.0684  0.4244  0.0798
  682MPD2    C110085   2.141   1.492  10.495 -0.8289 -1.0734  0.2441
  682MPD2    C210086   2.050   1.500  10.594  0.0332 -0.0010  0.1212
  682MPD2    C310087   2.001   1.622  10.640 -0.1039  0.3450  0.6316
  682MPD2    C410088   2.027   1.737  10.569  0.1603  0.9267 -0.2196
  682MPD2    C510089   2.109   1.730  10.456 -0.3035 -0.4257 -1.6440
  682MPD2     H10090   2.028   1.411  10.651  1.9563 -0.3546  0.2979
  682MPD2    H110091   1.989   1.834  10.600 -2.1258  0.3813 -1.3304
  682MPD2    H210092   2.225   1.607  10.327  0.2915 -0.9097  0.2884
  682MPD2    H310093   2.129   1.822  10.401  0.8490 -0.0239 -0.5494
  682MPD2     N10094   1.910   1.622  10.749 -0.4572 -0.7136 -0.5319
  682MPD2    H510095   1.889   1.529  10.783 -1.4052 -0.9640 -1.7894
  682MPD2    N110096   2.193   1.361  10.469 -0.0401 -0.0624  0.7297
  682MPD2    H710097   2.149   1.286  10.520 -1.5288 -0.7832 -1.6429
  683TMC3    C110098   1.907   1.718  11.163  0.6833 -0.2314  0.9937
  683TMC3    C210099   1.903   1.581  11.190 -0.0208 -0.2838 -0.9547
  683TMC3    C310100   1.865   1.499  11.088 -0.6344 -0.7472  0.0439
  683TMC3    C410101   1.857   1.772  11.046 -0.6848 -0.4372  0.8748
  683TMC3    C510102   1.820   1.688  10.948  0.5526  0.1113 -0.4719
  683TMC3    C610103   1.818   1.554  10.969 -0.0325  0.3846  0.1952
  683TMC3     C10104   2.016   1.785  11.237  0.1087  0.0551 -0.1820
  683TMC3     O10105   2.060   1.738  11.340 -0.3464 -0.3647 -0.2897
  683TMC3     H10106   1.959   1.538  11.273 -0.7028 -2.1713 -1.4665
  683TMC3    H110107   1.861   1.880  11.035  2.9064 -0.6997 -0.7266
  683TMC3    H210108   1.782   1.486  10.893 -0.8084  1.7231 -0.6161
  683TMC3    C710109   1.877   1.730  10.819 -0.0615  0.2198  0.6147
  683TMC3    C810110   1.917   1.365  11.073 -0.3316 -0.3907  0.3084
  683TMC3    O110111   1.891   1.852  10.810  0.4269  0.1596 -0.3294
  683TMC3    O210112   1.983   1.357  10.973 -0.4671 -0.4176  0.0378
  684MPD2     C10113   1.339   1.673  16.230 -0.0120 -0.9186  0.0941
  684MPD2    C110114   1.246   1.715  16.135  0.4115  0.0063 -0.2198
  684MPD2    C210115   1.143   1.799  16.178  0.4037 -0.2368  0.2052
  684MPD2    C310116   1.135   1.847  16.309  0.4624  0.1200 -0.0362
  684MPD2    C410117   1.234   1.813  16.396 -0.5026 -0.2315 -0.1166
  684MPD2    C510118   1.335   1.733  16.350  0.6824 -0.5991 -0.4158
  684MPD2     H10119   1.084   1.837  16.096 -3.2130  0.1827  3.0135
  684MPD2    H110120   1.242   1.858  16.495  1.5641  1.2472 -0.9734
  684MPD2    H210121   1.430   1.619  16.203  1.2765  0.6064  1.4229
  684MPD2    H310122   1.419   1.710  16.415  1.5592  0.1340 -1.2730
  684MPD2     N10123   1.047   1.938  16.365  0.0415  1.0468 -0.3304
  684MPD2    H510124   1.063   1.957  16.463 -1.9572  0.0745  0.1955
  684MPD2    N110125   1.252   1.687  15.993 -0.1434  0.4422  0.2029
  684MPD2    H710126   1.166   1.699  15.940 -1.1982 -1.1553  1.5433
  685TMC3    C110127   1.325   1.555  15.808 -0.5049  0.3477  0.6679
  685TMC3    C210128   1.199   1.535  15.774 -0.7929 -0.1735 -0.4721
  685TMC3    C310129   1.178   1.453  15.666  0.3958 -0.7507  0.0301
  685TMC3    C410130   1.424   1.477  15.753 -0.2428  0.4050  0.3310
  685TMC3    C510131   1.392   1.378  15.665 -0.3017  1.0283 -0.1193
  685TMC3    C610132   1.266   1.365  15.604  0.1771 -0.5782  0.1678
  685TMC3     C10133   1.351   1.610  15.938  0.1494 -0.0103  0.1993
  685TMC3     O10134   1.465   1.591  15.988  0.2883  0.3632 -0.6797
  685TMC3     H10135   1.121   1.588  15.828  0.6361 -0.5309  1.9488
  685TMC3    H110136   1.526   1.499  15.782 -0.2456  0.8537  0.0119
  685TMC3    H210137   1.238   1.282  15.541  0.3122 -1.1802  0.8968
  685TMC3    C710138   1.474   1.260  15.656 -0.0109 -0.0841 -0.5880
  685TMC3    C810139   1.037   1.423  15.626 -0.6778  0.1172  0.6045
  685TMC3    O110140   1.463   1.199  15.551  0.2549  0.3409 -0.0163
  685TMC3    O210141   1.001   1.433  15.503  0.5051 -0.3992  0.0093
  686MPD2     C10142   2.339   1.115  15.274  0.2958 -0.1282  0.2697
  686MPD2    C110143   2.399   1.007  15.337 -0.4100  0.2238 -0.1235
  686MPD2    C210144   2.408   0.887  15.273  0.3975  0.0783  0.0219
  686MPD2    C310145   2.348   0.871  15.148  0.4005 -0.0713 -0.4832
  686MPD2    C410146   2.301   0.977  15.080 -0.2991 -1.3275 -0.3611
  686MPD2    C510147   2.289   1.097  15.149 -0.0389  0.5801  0.6193
  686MPD2     H10148   2.458   0.801  15.316  2.3563 -0.1393 -2.7164
  686MPD2    H110149   2.270   0.968  14.977 -1.8224 -1.2275  0.0867
  686MPD2    H210150   2.321   1.211  15.321  0.3068  0.0682 -0.1307
  686MPD2    H310151   2.244   1.184  15.101 -0.2201 -0.6602 -1.4911
  686MPD2     N10152   2.340   0.745  15.080 -0.2929 -0.6189 -0.7333
  686MPD2    H510153   2.329   0.760  14.980 -1.8089 -3.1180 -0.9417
  686MPD2    N110154   2.442   1.031  15.471  0.0576 -0.2152  0.5467
  686MPD2    H710155   2.408   1.116  15.515 -2.9182 -0.7958 -0.6015
  687TMC3    C110156   2.334   0.587  15.262  0.2582 -0.3448  0.4132
  687TMC3    C210157   2.223   0.649  15.314 -0.9881  0.6214  0.5333
  687TMC3    C310158   2.202   0.640  15.446  0.0656 -0.9454  0.4990
  687TMC3    C410159   2.417   0.496  15.323 -0.0239 -0.5871  0.0374
  687TMC3    C510160   2.400   0.497  15.455 -0.2546  0.1922  0.5581
  687TMC3    C610161   2.297   0.568  15.512 -0.0624 -0.8140 -0.4699
  687TMC3     C10162   2.361   0.616  15.125 -0.4655 -0.1300  0.6636
  687TMC3     O10163   2.380   0.516  15.057  0.0303 -0.3654  0.5863
  687TMC3     H10164   2.157   0.700  15.245  0.0944 -0.3627 -1.2281
  687TMC3    H110165   2.490   0.435  15.271 -0.6756 -1.3868  0.0705
  687TMC3    H210166   2.298   0.584  15.619  3.2141  0.6534 -0.7099
  687TMC3    C710167   2.500   0.444  15.540  0.5316  0.4808 -0.7114
  687TMC3    C810168   2.139   0.746  15.520  0.1345 -0.5507  0.1471
  687TMC3    O110169   2.502   0.486  15.657  0.2758  0.2435 -0.7850
  687TMC3    O210170   2.126   0.727  15.639 -0.0457 -0.1285  0.1201
  688MPD2     C10171   1.617   0.200  17.325  0.8542 -0.3962  0.1595
  688MPD2    C110172   1.620   0.071  17.373  0.2129 -0.3733  0.4468
  688MPD2    C210173   1.724   4.703  17.328  0.6003  1.0343  0.4393
  688MPD2    C310174   1.825   0.030  17.246  0.3910 -0.5098  0.0600
  688MPD2    C410175   1.814   0.162  17.205 -0.6585  0.0849  0.0203
  688MPD2    C510176   1.707   0.246  17.233 -0.0860  0.0584  0.0653
  688MPD2     H10177   1.731   4.601  17.366  1.3140  0.6078 -0.8635
  688MPD2    H110178   1.891   0.200  17.138 -0.0276  0.1658  0.7935
  688MPD2    H210179   1.540   0.270  17.354  0.5152 -1.2913  1.4123
  688MPD2    H310180   1.701   0.345  17.190  1.6979  0.4459  0.7183
  688MPD2     N10181   1.939   4.677  17.203  0.2610  0.3426 -0.0040
  688MPD2    H510182   2.003   0.004  17.139 -2.2144  3.8578  0.1606
  688MPD2    N110183   1.507   0.015  17.447 -0.3382  0.5756  0.2851
  688MPD2    H710184   1.532   4.644  17.482  2.0870  1.3597  0.6479
  689TMC3    C110185   1.291   4.718  17.545  0.0683 -0.0940  0.1422
  689TMC3    C210186   1.182   0.073  17.588 -0.1970 -0.0473 -0.2327
  689TMC3    C310187   1.076   0.007  17.649  0.0862 -0.0412 -0.2640
  689TMC3    C410188   1.302   4.588  17.556 -0.7424 -0.2377  0.4192
  689TMC3    C510189   1.202   4.526  17.621 -0.5589  0.1550  0.6254
  689TMC3    C610190   1.094   4.591  17.670  0.5795  0.4895  0.9191
  689TMC3     C10191   1.386   0.075  17.466 -0.0238 -0.4803  0.3853
  689TMC3     O10192   1.349   0.172  17.405  0.2573 -0.6661 -0.5052
  689TMC3     H10193   1.171   0.178  17.562 -0.8563 -0.5183 -1.8198
  689TMC3    H110194   1.388   4.530  17.526 -0.6590  1.2713 -2.2638
  689TMC3    H210195   1.028   4.533   0.048 -0.1100  1.4117  1.0569
  689TMC3    C710196   1.237   4.396  17.675  0.1285  0.3425 -0.5310
  689TMC3    C810197   0.984   0.086   0.040 -0.3384 -0.0310 -0.1533
  689TMC3    O110198   1.353   4.384   0.025 -0.1101  0.3515 -0.1781
  689TMC3    O210199   0.901   0.020   0.106 -0.2085 -0.2970 -0.1973
  690MPD2     C10200   3.721   1.586  16.238 -0.0448  0.6579 -0.2953
  690MPD2    C110201   3.684   1.641  16.114  0.2138 -0.7541  0.9674
  690MPD2    C210202   3.761   1.737  16.057 -0.1093 -0.2645  0.0400
  690MPD2    C310203   3.872   1.777  16.121 -0.0705 -0.0528 -0.4648
  690MPD2    C410204   3.909   1.729  16.247 -0.5215 -0.5837 -0.4671
  690MPD2    C510205   3.827   1.638  16.308  0.6524  0.7002  0.0439
  690MPD2     H10206   3.733   1.775  15.959  1.5724  0.5354 -0.1301
  690MPD2    H110207   3.994   1.766  16.304 -1.2213  0.5144 -0.1444
  690MPD2    H210208   3.661   1.510  16.289 -2.4978  1.9246 -1.2893
  690MPD2    H310209   3.853   1.598  16.405 -0.0266 -0.9008 -0.4431
  690MPD2     N10210   3.946   1.883  16.060  0.0395  0.1386 -0.3315
  690MPD2    H510211   3.902   1.929  15.980  0.6681  0.3419 -0.5566
  690MPD2    N110212   3.571   1.605  16.045 -0.0239  0.1946 -0.6483
  690MPD2    H710213   3.576   1.628  15.946  0.7172 -0.0539 -0.6669
  691TMC3    C110214   3.361   1.527  16.007  0.4305 -0.0083 -0.5897
  691TMC3    C210215   3.223   1.528  16.051 -0.6903 -0.0279 -0.7286
  691TMC3    C310216   3.139   1.449  15.979 -0.8063  0.6318 -0.1713
  691TMC3    C410217   3.404   1.444  15.911  0.4925  0.1903  0.1018
  691TMC3    C510218   3.317   1.375  15.832 -0.4630  0.6251  0.6093
  691TMC3    C610219   3.180   1.373  15.864  0.1602 -0.3480  0.9088
  691TMC3     C10220   3.452   1.565  16.105  0.0623  0.4274 -0.6873
  691TMC3     O10221   3.419   1.583  16.222 -0.4877  0.0791  0.0538
  691TMC3     H10222   3.190   1.560  16.149  0.3942  0.3847 -0.4883
  691TMC3    H110223   3.508   1.449  15.880  0.0504 -2.2215 -1.6705
  691TMC3    H210224   3.102   1.322  15.809  2.3912 -2.0598 -0.6638
  691TMC3    C710225   3.382   1.268  15.761  0.1578  0.1511 -0.3247
  691TMC3    C810226   3.003   1.421  16.030 -0.2408  0.5136 -0.0662
  691TMC3    O110227   3.503   1.244  15.765  0.0030  0.3293  0.2761
  691TMC3    O210228   2.960   1.305  16.021 -0.4453 -0.1994  0.2360
  692TMC3    C110229   0.146   3.109  15.994 -0.4281 -0.3874 -0.1229
  692TMC3    C210230   0.264   3.171  16.018  0.3952 -0.2090  0.5800
  692TMC3    C310231   0.378   3.094  16.009  0.7746  0.3359 -1.0283
  692TMC3    C410232   0.131   2.980  15.965  0.8351  0.8538  0.2755
  692TMC3    C510233   0.245   2.902  15.962 -0.0030  0.1873 -0.4572
  692TMC3    C610234   0.363   2.958  15.993  0.4989  0.6044  0.4198
  692TMC3     C10235   0.026   3.183  16.033 -0.0065 -0.3874 -0.3132
  692TMC3     O10236   0.047   3.258  16.128  0.0410 -0.3357  0.1370
  692TMC3     H10237   0.254   3.267  16.068  0.9281 -0.2701  0.8105
  692TMC3    H110238   0.031   2.938  15.960  0.8728  0.8279 -0.2806
  692TMC3    H210239   0.450   2.905  15.956 -0.2103  1.0468 -1.8758
  692TMC3    C710240   0.239   2.759  15.954  0.2791  0.5455  0.2006
  692TMC3    C810241   0.483   3.112  16.111  0.3013 -0.4443 -0.3313
  692TMC3    O110242   0.136   2.703  15.927 -0.1247 -0.1043  0.4412
  692TMC3    O210243   0.531   3.015  16.164  0.0698  0.1196  0.1647
  693MPD2     C10244   4.156   0.640  10.594  0.0644 -0.5280 -0.1857
  693MPD2    C110245   4.106   0.622  10.717 -0.2874  0.2022  0.6072
  693MPD2    C210246   4.199   0.601  10.819  0.0756  0.8203 -0.1813
  693MPD2    C310247   4.338   0.590  10.795  0.0783  0.5364 -0.1029
  693MPD2    C410248   4.381   0.627  10.671 -0.5393  0.3598 -0.0217
  693MPD2    C510249   4.291   0.658  10.574  0.7785  0.1041  0.3916
  693MPD2     H10250   4.171   0.577  10.921  0.6636 -2.9265 -0.9171
  693MPD2    H110251   4.486   0.634  10.643 -0.1446 -3.3761  0.6201
  693MPD2    H210252   4.091   0.655  10.508 -2.0609  2.3007  1.9240
  693MPD2    H310253   4.334   0.687  10.479  0.0592 -1.8912 -0.5418
  693MPD2     N10254   4.429   0.528  10.883 -0.0503 -0.8199 -0.3461
  693MPD2    H510255   4.524   0.508  10.854  0.5720  0.5845  0.7015
  693MPD2    N110256   3.965   0.611  10.737  0.5039  0.1308 -0.3057
  693MPD2    H710257   3.904   0.610  10.656  1.5479 -0.4225 -1.0903
  694TMC3    C110258   3.762   0.541  10.841  0.4122  0.9498 -0.5546
  694TMC3    C210259   3.726   0.510  10.708 -0.3149  0.0519  0.7997
  694TMC3    C310260   3.592   0.480  10.696  0.0948  0.2101  0.4969
  694TMC3    C410261   3.687   0.527  10.956 -0.0738  0.0294 -0.0247
  694TMC3    C510262   3.559   0.488  10.937  0.1099  0.3933  0.0785
  694TMC3    C610263   3.511   0.472  10.802 -0.1333 -0.1759  0.9325
  694TMC3     C10264   3.897   0.590  10.856  0.2865 -0.8409 -0.5024
  694TMC3     O10265   3.945   0.605  10.964 -0.0471  0.2216  0.2030
  694TMC3     H10266   3.786   0.534  10.621  0.5431 -2.1854  0.7754
  694TMC3    H110267   3.721   0.557  11.054  0.3848 -1.8520  0.3864
  694TMC3    H210268   3.410   0.436  10.787 -0.8258  1.2315  2.2094
  694TMC3    C710269   3.537   0.358  11.006  0.1427  0.1072  0.0882
  694TMC3    C810270   3.530   0.471  10.564 -0.1910  0.0000 -0.1425
  694TMC3    O110271   3.492   0.272  10.935 -0.2042 -0.0341  0.8014
  694TMC3    O210272   3.422   0.409  10.555 -0.5146 -0.1102  0.1303
  695MPD2     C10273   0.700   2.143  13.592  0.2458  0.3552 -0.2798
  695MPD2    C110274   0.649   2.200  13.708  0.0932  0.8578 -0.2137
  695MPD2    C210275   0.515   2.206  13.731 -1.4436  0.6586 -0.8693
  695MPD2    C310276   0.428   2.166  13.630  0.3864 -0.2816 -0.1940
  695MPD2    C410277   0.474   2.101  13.513  0.8207  0.1449  0.2692
  695MPD2    C510278   0.609   2.098  13.496 -0.1674  0.3076 -0.4052
  695MPD2     H10279   0.474   2.246  13.823 -2.2699  0.2958 -1.0800
  695MPD2    H110280   0.412   2.054  13.437  1.8024 -1.9649  0.7701
  695MPD2    H210281   0.805   2.133  13.570  0.3090  1.1524 -0.3202
  695MPD2    H310282   0.654   2.066  13.402 -2.3583 -0.4567 -1.1998
  695MPD2     N10283   0.295   2.188  13.661 -0.1569  0.4099  0.2242
  695MPD2    H510284   0.276   2.228  13.752 -0.3153 -1.2420  0.9106
  695MPD2    N110285   0.732   2.240  13.822  0.0912 -0.1899 -0.1201
  695MPD2    H710286   0.686   2.265  13.909 -1.3857 -3.0756 -0.0700
  696TMC3    C110287   0.062   2.180  13.636 -0.4722  0.6115 -0.4770
  696TMC3    C210288   0.034   2.136  13.764 -0.3318  0.5002 -0.3788
  696TMC3    C310289   4.630   2.161  13.818  0.1114 -0.0853 -0.2631
  696TMC3    C410290   4.692   2.232  13.551 -0.4080 -0.3965  0.0808
  696TMC3    C510291   4.574   2.264  13.605 -0.1920 -0.4745  0.2274
  696TMC3    C610292   4.537   2.229  13.742  0.2338  0.1280  0.3940
  696TMC3     C10293   0.193   2.171  13.575 -0.4929 -0.0469 -0.7383
  696TMC3     O10294   0.206   2.144  13.453  0.4555 -0.4021  0.5292
  696TMC3     H10295   0.119   2.087  13.811  2.1009  3.7013 -1.4730
  696TMC3    H110296   4.715   2.269  13.451  1.3835 -1.7630 -0.0168
  696TMC3    H210297   4.444   2.261  13.787 -0.8484 -0.6754 -1.2776
  696TMC3    C710298   4.500   2.375  13.547 -0.2448 -0.0127  0.2266
  696TMC3    C810299   4.635   2.196  13.955  0.3752  0.8502  0.4360
  696TMC3    O110300   4.515   2.393  13.429  0.9587  0.5233  0.0697
  696TMC3    O210301   4.568   2.285  13.995 -0.0211  0.0736  0.1483
  697MPD2     C10302   4.696   4.559  15.765 -0.3957 -0.1924 -0.1292
  697MPD2    C110303   0.004   4.477  15.652 -0.1783  0.3405  0.6468
  697MPD2    C210304   0.028   4.542  15.531  0.0333 -0.0743 -0.1217
  697MPD2    C310305   0.013   4.679  15.518 -0.3936 -0.7391  0.5839
  697MPD2    C410306   4.688   0.028  15.629  0.0163  0.4141  0.2944
  697MPD2    C510307   4.673   4.688  15.745  0.3858 -0.4925 -0.1789
  697MPD2     H10308   0.063   4.478  15.452  0.9403 -0.1858  0.3681
  697MPD2    H110309   4.670   0.135  15.624 -0.5677  0.4261  2.5002
  697MPD2    H210310   4.683   4.516  15.863  2.0885  0.0613  0.3149
  697MPD2    H310311   4.642   0.032  15.826 -1.7082 -1.5835 -0.1074
  697MPD2     N10312   0.030   0.015  15.392 -0.0278 -0.3549 -0.1710
  697MPD2    H510313   0.070   4.676  15.321 -2.0372 -2.4070  0.4201
  697MPD2    N110314   0.017   4.333  15.656 -0.2130 -0.3399 -0.1646
  697MPD2    H710315   0.010   4.280  15.570 -0.0363  0.9410 -0.9600
  698TMC3    C110316   0.065   0.173  15.234  0.1492 -1.2194  0.5116
  698TMC3    C210317   0.176   0.251  15.233 -0.0464 -0.7646  0.5537
  698TMC3    C310318   0.271   0.228  15.137 -0.2090  0.4030 -0.2945
  698TMC3    C410319   0.054   0.071  15.151 -0.2692 -0.0720  0.1009
  698TMC3    C510320   0.144   0.050  15.054  0.2468 -0.3595 -0.3654
  698TMC3    C610321   0.258   0.130  15.045 -0.3862 -0.6199  0.1698
  698TMC3     C10322   0.026   0.145  15.366  0.0584  0.2978  0.2109
  698TMC3     O10323   0.030   0.238  15.443 -0.2284  0.1003 -0.1491
  698TMC3     H10324   0.164   0.343  15.289 -2.8278 -1.1704  0.6261
  698TMC3    H110325   4.680   0.021  15.139  0.8907 -1.9675 -1.1883
  698TMC3    H210326   0.340   0.112  14.977  1.5410  3.8534  1.3486
  698TMC3    C710327   0.114   4.679  14.940  0.5448 -0.1877 -0.5667
  698TMC3    C810328   0.396   0.300  15.156 -0.5199  0.7010  0.5999
  698TMC3    O110329   4.715   4.652  14.930  0.1073 -0.0524 -0.0041
  698TMC3    O210330   0.477   0.305  15.063  0.2355 -0.1793 -0.1284
  699TMC3    C110331   4.423   2.148  13.206 -0.8012 -0.3477 -0.5838
  699TMC3    C210332   4.466   2.047  13.293  0.2796 -0.5462 -0.3443
  699TMC3    C310333   4.404   2.034  13.413  0.6337  0.2019  0.1524
  699TMC3    C410334   4.317   2.227  13.239 -0.1668 -0.6306 -0.2462
  699TMC3    C510335   4.254   2.211  13.358  0.7091 -0.5455  0.2203
  699TMC3    C610336   4.297   2.108  13.444  0.2973 -0.2146 -0.4109
  699TMC3     C10337   4.490   2.188  13.080  0.3307  0.0776 -0.4875
  699TMC3     O10338   4.422   2.249  12.994  0.2906 -0.2485  0.0678
  699TMC3     H10339   4.552   1.989  13.260  0.3832 -1.1270  0.9464
  699TMC3    H110340   4.286   2.301  13.167  0.7770 -1.1962 -1.2295
  699TMC3    H210341   4.240   2.096  13.535 -0.7609  0.0653 -1.0386
  699TMC3    C710342   4.163   2.305  13.418  0.3620  0.6853 -0.4596
  699TMC3    C810343   4.435   1.925  13.497  0.2996 -1.3031  0.7040
  699TMC3    O110344   4.115   2.281  13.530 -0.1290 -0.4857 -0.6079
  699TMC3    O210345   4.354   1.906  13.588 -0.0402 -0.0056  0.1416
  700TMC3    C110346   4.185   0.393  17.335 -0.5074  0.5759 -0.5680
  700TMC3    C210347   4.271   0.314  17.400 -0.6884  0.2491  0.4139
  700TMC3    C310348   4.294   0.344  17.536 -0.4325  0.2366  0.1045
  700TMC3    C410349   4.130   0.504  17.399  0.4164  0.2186 -0.4936
  700TMC3    C510350   4.161   0.535  17.523  0.2489  0.1958 -0.6486
  700TMC3    C610351   4.241   0.450  17.596 -0.1610 -0.6743  0.1969
  700TMC3     C10352   4.211   0.420  17.198 -0.1514  1.0132 -0.1475
  700TMC3     O10353   4.213   0.333  17.117 -0.4732 -0.3613 -0.4290
  700TMC3     H10354   4.326   0.234  17.352 -1.6774  0.0683 -0.4206
  700TMC3    H110355   4.060   0.562  17.340 -0.8884  0.2636  1.1022
  700TMC3    H210356   4.273   0.483   0.009  2.7197 -2.1507 -0.2608
  700TMC3    C710357   4.139   0.679  17.559 -0.5033  0.1181  0.1237
  700TMC3    C810358   4.414   0.296  17.599  0.2693 -0.7771 -0.7492
  700TMC3    O110359   4.123   0.755  17.468  0.4643 -0.5478 -0.1092
  700TMC3    O210360   4.459   0.359   0.007  0.2814  0.2220  0.8219
  701TMC3    C110361   3.815   3.716  15.771 -0.0123 -0.3183  0.2978
  701TMC3    C210362   3.731   3.725  15.662 -0.0355 -0.4254 -0.3724
  701TMC3    C310363   3.786   3.754  15.539 -0.2948  0.3605 -0.0949
  701TMC3    C410364   3.940   3.755  15.768 -0.0255 -0.3863 -0.6526
  701TMC3    C510365   3.992   3.787  15.644  0.4979  0.5449  0.3332
  701TMC3    C610366   3.916   3.777  15.532  0.6060  0.3718 -0.2512
  701TMC3     C10367   3.751   3.672  15.891  0.1860 -0.1433  0.6188
  701TMC3     O10368   3.799   3.709  15.997  0.5270  0.4206  0.0965
  701TMC3     H10369   3.623   3.718  15.673 -0.0620 -0.6309 -0.7741
  701TMC3    H110370   3.994   3.754  15.862  0.9188 -0.9544 -1.2119
  701TMC3    H210371   3.949   3.808  15.433 -1.8517 -0.4181 -1.3163
  701TMC3    C710372   4.095   3.881  15.629 -0.0092 -0.5534 -0.2267
  701TMC3    C810373   3.710   3.822  15.436 -0.9946  0.5190 -0.1220
  701TMC3    O110374   4.143   3.900  15.521 -0.0367 -0.3312 -0.0708
  701TMC3    O210375   3.768   3.900  15.370  0.6771  0.4816  0.6033
  702MPD2     C10376   3.564   0.919  10.697 -0.0077 -0.1949  0.2496
  702MPD2    C110377   3.464   0.929  10.599  0.1063  0.2947 -0.2989
  702MPD2    C210378   3.499   0.991  10.477 -0.2784  0.1842 -0.0277
  702MPD2    C310379   3.621   1.056  10.463  0.0665 -0.1767 -0.0149
  702MPD2    C410380   3.714   1.055  10.574 -0.0537 -0.8660  0.5948
  702MPD2    C510381   3.686   0.974  10.679 -0.0875  0.1256 -0.3172
  702MPD2     H10382   3.420   0.986  10.404 -1.1961 -3.8348  1.2753
  702MPD2    H110383   3.816   1.089  10.564 -0.0646 -0.9540  0.1855
  702MPD2    H210384   3.548   0.860  10.787 -0.9795 -0.2307  0.0582
  702MPD2    H310385   3.762   0.956  10.753 -0.6516 -0.3280  0.1536
  702MPD2     N10386   3.647   1.140  10.345  0.2054 -0.3409 -0.8409
  702MPD2    H510387   3.739   1.182  10.346 -0.0822  0.2994 -1.0219
  702MPD2    N110388   3.332   0.875  10.598  0.2762 -0.0891 -0.0028
  702MPD2    H710389   3.284   0.900  10.512  0.0247  2.2429  0.7967
  703TMC3    C110390   3.591   1.273  10.151 -0.6714  0.2721 -1.0863
  703TMC3    C210391   3.500   1.309  10.055  0.1415 -0.3181  0.0057
  703TMC3    C310392   3.535   1.403   9.957  0.3803  0.4013  0.0177
  703TMC3    C410393   3.719   1.323  10.147 -0.0344  0.1628 -0.1258
  703TMC3    C510394   3.748   1.415  10.049 -0.4791  0.0642  0.7627
  703TMC3    C610395   3.660   1.446   9.952 -0.9571  0.0436 -1.1330
  703TMC3     C10396   3.551   1.177  10.250 -0.3534  0.3905 -0.0984
  703TMC3     O10397   3.434   1.143  10.242 -0.2593 -0.5393  0.1625
  703TMC3     H10398   3.405   1.260  10.040 -0.0828 -0.1679  0.9391
  703TMC3    H110399   3.796   1.287  10.215 -0.4708  0.3120  0.4439
  703TMC3    H210400   3.693   1.518   9.878  0.7084  3.0623  2.5401
  703TMC3    C710401   3.874   1.489  10.040  0.3397 -0.0662 -0.1217
  703TMC3    C810402   3.431   1.484   9.903 -0.4508 -0.0871 -0.6411
  703TMC3    O110403   3.874   1.605  10.006 -0.0955  0.3529 -0.5748
  703TMC3    O210404   3.453   1.554   9.806  0.2634  0.1171 -0.3410
  704TMC3    C110405   0.564   3.958  12.327 -1.0210 -0.7890 -0.0128
  704TMC3    C210406   0.673   3.962  12.407  0.7452  0.5332 -0.2617
  704TMC3    C310407   0.687   3.891  12.521 -0.3109  0.5621 -0.3985
  704TMC3    C410408   0.460   3.877  12.360 -0.1310 -0.0505  0.6528
  704TMC3    C510409   0.475   3.805  12.482  0.1492 -0.2811  0.2169
  704TMC3    C610410   0.589   3.805  12.557  0.2731 -0.0198 -0.7374
  704TMC3     C10411   0.556   4.020  12.204  0.6786 -0.4720 -0.3800
  704TMC3     O10412   0.445   4.060  12.175 -0.2124  0.1328 -0.8017
  704TMC3     H10413   0.753   4.029  12.378  1.6072 -0.6032 -0.5299
  704TMC3    H110414   0.382   3.851  12.290 -0.0029  1.1515  0.0599
  704TMC3    H210415   0.598   3.736  12.641 -1.2373 -0.1869 -0.7195
  704TMC3    C710416   0.419   3.675  12.470 -0.1618  0.5186 -0.2044
  704TMC3    C810417   0.821   3.878  12.576 -0.1116  0.3216  0.0851
  704TMC3    O110418   0.297   3.650  12.468  0.3464 -0.6817 -0.2210
  704TMC3    O210419   0.908   3.927  12.500  0.4149  0.1509 -0.5752
  705MPD2     C10420   0.893   2.548  16.849 -0.0210  0.5694  0.5046
  705MPD2    C110421   0.834   2.629  16.752  0.1341 -0.5642  0.0735
  705MPD2    C210422   0.712   2.675  16.785 -0.0418 -0.6402  0.6195
  705MPD2    C310423   0.663   2.672  16.917 -0.1931  0.3996  0.0172
  705MPD2    C410424   0.742   2.611  17.017  0.2346  0.8426 -0.1285
  705MPD2    C510425   0.853   2.531  16.974  0.4519  0.5986  0.2020
  705MPD2     H10426   0.649   2.719  16.709  1.3754 -0.4757 -0.4485
  705MPD2    H110427   0.714   2.613  17.121 -2.8153  0.5249 -0.9261
  705MPD2    H210428   0.980   2.488  16.826 -1.2176 -1.7052  1.9138
  705MPD2    H310429   0.919   2.489  17.049 -1.3055  1.0356  2.0226
  705MPD2     N10430   0.545   2.733  16.961  0.1120  0.8169  0.0143
  705MPD2    H510431   0.524   2.714  17.058  0.1120  0.6531 -0.0186
  705MPD2    N110432   0.880   2.661  16.628 -0.3354 -0.4177  0.6085
  705MPD2    H710433   0.824   2.725  16.573 -0.4171  0.3422  1.5688
  706TMC3    C110434   1.060   2.628  16.208  0.2337  0.6518 -0.0045
  706TMC3    C210435   1.001   2.743  16.176 -0.0875 -0.3660 -1.1059
  706TMC3    C310436   0.966   2.830  16.277 -0.6622 -0.9858 -0.8855
  706TMC3    C410437   1.074   2.590  16.341  0.0214 -0.2996  0.3714
  706TMC3    C510438   1.017   2.672  16.438  0.2050 -0.0633  0.2050
  706TMC3    C610439   0.971   2.796  16.410 -0.0341 -0.3340  0.0600
  706TMC3     C10440   1.164   2.569  16.123  0.0830 -0.2453  0.4543
  706TMC3     O10441   1.267   2.535  16.182 -0.0229 -0.5601 -0.0651
  706TMC3     H10442   1.006   2.787  16.077 -0.4939 -1.3112 -1.5411
  706TMC3    H110443   1.139   2.506  16.365 -1.9658 -1.3868  1.8841
  706TMC3    H210444   0.947   2.863  16.492  0.5630 -0.6936  0.5257
  706TMC3    C710445   0.989   2.610  16.566 -0.1520  0.2917  0.2195
  706TMC3    C810446   0.939   2.971  16.248 -0.1418  0.3021  0.0504
  706TMC3    O110447   1.051   2.514  16.600  0.0792  0.0440 -0.1009
  706TMC3    O210448   0.883   2.989  16.141 -0.3227 -0.3487 -0.1087
  707TMC3    C110449   2.012   0.935   1.155  1.1372  0.3429 -0.1001
  707TMC3    C210450   2.036   1.066   1.194 -0.8802  0.7000 -0.5004
  707TMC3    C310451   1.950   1.116   1.283  0.9294 -0.2224  0.2159
  707TMC3    C410452   1.902   0.859   1.194 -0.0459  0.3486 -0.2734
  707TMC3    C510453   1.815   0.917   1.280  0.2573  0.2350 -0.7627
  707TMC3    C610454   1.838   1.047   1.328 -0.1297  0.2351 -0.0425
  707TMC3     C10455   2.132   0.873   1.106 -0.3311  0.3709  0.0131
  707TMC3     O10456   2.237   0.927   1.137  0.2846  0.2337  0.1957
  707TMC3     H10457   2.120   1.115   1.145 -1.4397  0.5160 -1.6361
  707TMC3    H110458   1.895   0.755   1.163 -0.6699  0.2129  0.3299
  707TMC3    H210459   1.777   1.088   1.408 -3.0328  1.1651 -2.7241
  707TMC3    C710460   1.681   0.888   1.249  0.1249  0.0747  0.3472
  707TMC3    C810461   1.981   1.238   1.345  0.5900  0.1313  0.0791
  707TMC3    O110462   1.640   0.776   1.222 -0.6636 -0.4751  0.5912
  707TMC3    O210463   1.911   1.284   1.435 -0.3326  0.2374 -0.3201
  708MPD2     C10464   3.389   0.991  14.042  0.1999 -0.4864 -0.2431
  708MPD2    C110465   3.357   0.892  14.128 -0.1150  0.0813 -0.4308
  708MPD2    C210466   3.452   0.807  14.173  0.2800  0.0996 -0.5701
  708MPD2    C310467   3.583   0.814  14.139  0.4534  0.5693 -0.5733
  708MPD2    C410468   3.622   0.929  14.065  0.5371 -0.3362 -0.5072
  708MPD2    C510469   3.522   1.011  14.015 -0.5409 -0.9799  0.7352
  708MPD2     H10470   3.418   0.720  14.229 -3.4011  1.7440 -0.2029
  708MPD2    H110471   3.725   0.951  14.040  0.5157  1.1387  0.7296
  708MPD2    H210472   3.327   1.080  14.039  2.6408  1.1973 -0.7814
  708MPD2    H310473   3.555   1.100  13.962 -1.7808  0.7950  2.9365
  708MPD2     N10474   3.680   0.724  14.186  0.2420 -0.5827 -0.5187
  708MPD2    H510475   3.776   0.736  14.156 -0.3426  0.4885 -1.9443
  708MPD2    N110476   3.224   0.887  14.168  0.2699  0.5224 -0.3470
  708MPD2    H710477   3.165   0.955  14.122 -2.8172 -0.3140  2.4268
  709TMC3    C110478   3.030   0.788  14.252 -0.4939 -0.3793 -0.1905
  709TMC3    C210479   2.990   0.764  14.122  1.0361 -0.4416  0.3291
  709TMC3    C310480   2.906   0.653  14.100  0.0071  0.0110 -0.4519
  709TMC3    C410481   2.987   0.706  14.352 -0.7379  0.0560 -0.2892
  709TMC3    C510482   2.905   0.600  14.327 -0.0478 -0.5537  0.3247
  709TMC3    C610483   2.858   0.572  14.200 -0.2759 -0.9732 -0.2878
  709TMC3     C10484   3.175   0.805  14.264  0.3837 -0.0730  0.5385
  709TMC3     O10485   3.230   0.749  14.358  0.3869  0.0152  0.6126
  709TMC3     H10486   3.012   0.827  14.037 -2.3806  1.4649  0.8720
  709TMC3    H110487   3.027   0.725  14.452  0.2672  0.0929 -0.6950
  709TMC3    H210488   2.813   0.475  14.182  0.0047 -1.4463  1.5599
  709TMC3    C710489   2.949   0.483  14.394 -0.1143 -0.4139  0.3056
  709TMC3    C810490   2.837   0.631  13.967  0.6513 -0.4087  0.3180
  709TMC3    O110491   2.868   0.387  14.388  0.3292 -0.1442 -0.1991
  709TMC3    O210492   2.725   0.584  13.974 -0.1332  0.5323 -0.4627
  710TMC3    C110493   0.966   3.251   1.005 -0.1390 -0.9584  0.1022
  710TMC3    C210494   1.081   3.227   0.933  0.3922  1.3734  0.3295
  710TMC3    C310495   1.156   3.118   0.963  0.2278 -0.1664  0.1925
  710TMC3    C410496   0.932   3.162   1.103 -0.1916 -0.9340 -0.2998
  710TMC3    C510497   1.014   3.056   1.133  0.2945 -0.4745  0.0547
  710TMC3    C610498   1.134   3.039   1.071  0.5165  0.4050  0.5787
  710TMC3     C10499   0.858   3.320   0.938 -0.0313  0.9205  0.2615
  710TMC3     O10500   0.858   3.324   0.816 -0.0069  0.1661 -0.3177
  710TMC3     H10501   1.114   3.296   0.856 -0.7313 -0.3624 -1.7124
  710TMC3    H110502   0.833   3.162   1.148  1.2021 -1.9952  2.7771
  710TMC3    H210503   1.196   2.950   1.076 -0.2340 -0.0917  1.0887
  710TMC3    C710504   0.976   2.942   1.220 -0.3389  0.2988 -0.1615
  710TMC3    C810505   1.191   3.037   0.846 -0.4292 -0.3665 -0.1449
  710TMC3    O110506   0.853   2.935   1.232 -0.3531 -0.1920  0.0812
  710TMC3    O210507   1.280   2.956   0.855  0.0816 -0.1251  0.4136
  711TMC3    C110508   4.353   3.450  15.182 -0.0851 -0.2015  0.0572
  711TMC3    C210509   4.415   3.540  15.273  0.1082 -0.6204  0.4387
  711TMC3    C310510   4.547   3.538  15.295  0.6692  0.2974  0.0221
  711TMC3    C410511   4.427   3.349  15.133  0.5558 -0.2554  0.3140
  711TMC3    C510512   4.562   3.348  15.163 -0.2922 -0.1093  0.4336
  711TMC3    C610513   4.625   3.447  15.229 -0.9600 -0.4962 -0.3880
  711TMC3     C10514   4.209   3.423  15.184  0.1043 -0.3407 -0.5392
  711TMC3     O10515   4.170   3.309  15.166 -0.1247 -0.4363 -0.1103
  711TMC3     H10516   4.353   3.617  15.317  0.0559 -0.3646 -0.0746
  711TMC3    H110517   4.382   3.268  15.077 -1.7021  0.9990  0.3281
  711TMC3    H210518   0.010   3.435  15.249 -0.2447  1.1673 -3.0787
  711TMC3    C710519   4.628   3.220  15.170 -0.2154  0.4180 -0.0919
  711TMC3    C810520   4.580   3.570  15.433 -0.1177 -0.2861  0.5030
  711TMC3    O110521   0.026   3.219  15.200 -0.0247 -0.6739 -0.0057
  711TMC3    O210522   4.488   3.609  15.510 -0.5826  0.2371 -0.2937
  712MPD2     C10523   0.449   3.988  13.854 -0.1899  0.0276  0.1258
  712MPD2    C110524   0.376   4.053  13.754  0.3364  0.2284  0.8294
  712MPD2    C210525   0.388   4.189  13.735 -0.7463  0.6933 -0.1968
  712MPD2    C310526   0.481   4.257  13.819 -0.5323  0.1390 -0.2739
  712MPD2    C410527   0.553   4.186  13.915  0.5839 -0.1117 -0.0292
  712MPD2    C510528   0.537   4.054  13.938 -0.4564 -0.2606 -0.6087
  712MPD2     H10529   0.340   4.237  13.651 -2.2260 -0.0160  0.2403
  712MPD2    H110530   0.624   4.229  13.985 -0.9461 -0.5684  1.8073
  712MPD2    H210531   0.443   3.880  13.860 -1.2178  0.0463 -0.4895
  712MPD2    H310532   0.599   4.005  14.012  1.8033  3.1350 -0.2723
  712MPD2     N10533   0.508   4.390  13.813 -0.3216  0.3035 -0.5984
  712MPD2    H510534   0.585   4.419  13.873  0.7608 -0.4854 -1.6071
  712MPD2    N110535   0.284   3.981  13.678 -0.3733 -0.1764 -0.6340
  712MPD2    H710536   0.258   3.891  13.719 -0.2457 -0.4213 -1.0891
  713TMC3    C110537   0.510   4.609  13.729 -0.2019 -0.0012  0.2609
  713TMC3    C210538   0.645   4.620  13.762  0.0343 -0.8700 -0.0191
  713TMC3    C310539   0.700   0.022  13.773  0.4906 -0.2836 -0.8261
  713TMC3    C410540   0.434   4.719  13.691 -0.3192  0.2594  0.3661
  713TMC3    C510541   0.498   0.118  13.704 -0.4140 -0.4078  1.0453
  713TMC3    C610542   0.628   0.134  13.741 -0.6087 -0.0107 -0.2012
  713TMC3     C10543   0.442   4.479  13.739  0.3643 -0.2767 -0.1138
  713TMC3     O10544   0.335   4.484  13.682 -0.0404 -0.3950  0.3383
  713TMC3     H10545   0.714   4.539  13.784  0.7814  1.0754  4.7102
  713TMC3    H110546   0.330   4.718  13.660  0.2433 -2.9098 -1.3509
  713TMC3    H210547   0.667   0.235  13.754  0.2379 -0.4276  0.4630
  713TMC3    C710548   0.418   0.245  13.719  0.0335 -0.8432 -0.4663
  713TMC3    C810549   0.845   0.018  13.737  0.1075 -0.1367  0.0065
  713TMC3    O110550   0.444   0.316  13.815 -0.2512 -0.2672  0.0875
  713TMC3    O210551   0.893   4.655  13.659  0.0253 -0.2917 -0.0703
  714MPD2     C10552   2.906   3.416   1.611  0.2598 -0.1150 -0.4200
  714MPD2    C110553   2.907   3.302   1.535  0.0075  0.1829  0.0079
  714MPD2    C210554   2.814   3.283   1.435 -0.1309  0.6418 -0.0302
  714MPD2    C310555   2.737   3.390   1.394 -0.6194 -0.3492  0.0960
  714MPD2    C410556   2.740   3.512   1.464 -0.2779 -0.5416 -0.0945
  714MPD2    C510557   2.828   3.522   1.569  0.9750 -0.3153  0.6123
  714MPD2     H10558   2.805   3.187   1.386  1.2950 -1.3872  3.6882
  714MPD2    H110559   2.681   3.599   1.436 -0.7007 -0.0596  2.2846
  714MPD2    H210560   2.983   3.428   1.687 -0.8833  1.4135  0.5133
  714MPD2    H310561   2.832   3.615   1.626  1.7625  0.1561 -0.2123
  714MPD2     N10562   2.639   3.374   1.290  0.8996 -0.1112  0.0758
  714MPD2    H510563   2.616   3.279   1.259 -1.9625  0.2808  1.0367
  714MPD2    N110564   3.010   3.207   1.566 -0.1898  0.0024  0.1025
  714MPD2    H710565   3.066   3.221   1.649 -1.5597  2.4511  0.6048
  715TMC3    C110566   3.158   3.034   1.534 -0.9868  0.8113 -0.0191
  715TMC3    C210567   3.212   2.967   1.426 -0.5841  0.2828  1.0153
  715TMC3    C310568   3.347   2.965   1.412  0.1463 -0.4569  0.1452
  715TMC3    C410569   3.237   3.094   1.632  0.6318  0.2775 -0.1268
  715TMC3    C510570   3.373   3.084   1.615 -0.2517  0.2638  1.1645
  715TMC3    C610571   3.428   3.017   1.508  0.3169  0.4978  0.0174
  715TMC3     C10572   3.026   3.083   1.510 -0.2700  0.5315  0.2943
  715TMC3     O10573   2.962   3.027   1.421 -0.4400  0.5800 -0.0434
  715TMC3     H10574   3.155   2.937   1.339  0.6305  2.6567 -0.6026
  715TMC3    H110575   3.192   3.137   1.721 -0.5661 -0.7913 -0.2126
  715TMC3    H210576   3.529   2.983   1.524  0.3205  0.1152 -0.8368
  715TMC3    C710577   3.471   3.153   1.705 -0.1667  0.8890  0.3807
  715TMC3    C810578   3.404   2.889   1.311  0.3291 -0.1697  0.8008
  715TMC3    O110579   3.586   3.133   1.674 -0.0393 -0.4442 -0.0875
  715TMC3    O210580   3.335   2.810   1.251 -0.5346  0.0056  0.1172
  716MPD2     C10581   3.481   1.272   9.655  0.6887  0.1043 -0.5204
  716MPD2    C110582   3.356   1.307   9.599 -0.3839  0.2297 -0.0953
  716MPD2    C210583   3.284   1.197   9.547  0.1731  0.5116 -0.4153
  716MPD2    C310584   3.330   1.067   9.552 -0.2127  0.3637 -0.1870
  716MPD2    C410585   3.449   1.041   9.611 -0.1781  0.3111  0.7893
  716MPD2    C510586   3.521   1.137   9.666 -0.0857  0.3144  0.2465
  716MPD2     H10587   3.196   1.223   9.491 -0.7994  1.5800  1.6092
  716MPD2    H110588   3.483   0.940   9.636 -2.3606 -0.4197  0.7588
  716MPD2    H210589   3.549   1.345   9.697  1.1232 -0.8882  0.4581
  716MPD2    H310590   3.612   1.112   9.719 -0.0192  0.8246  0.3771
  716MPD2     N10591   3.260   0.959   9.494 -0.2417  0.4829 -0.6598
  716MPD2    H510592   3.167   0.988   9.467 -0.4098  0.7186  0.1733
  716MPD2    N110593   3.309   1.439   9.595 -0.0972 -0.5597  0.0518
  716MPD2    H710594   3.366   1.508   9.644  0.1058 -0.6382 -0.0745
  717TMC3    C110595   3.208   0.748   9.395 -0.3376 -1.2750  0.2791
  717TMC3    C210596   3.118   0.802   9.318  0.1723 -0.3594 -0.0702
  717TMC3    C310597   3.048   0.729   9.227  0.0597  0.6933  0.4012
  717TMC3    C410598   3.248   0.622   9.361 -0.3730  0.4444  0.2116
  717TMC3    C510599   3.169   0.543   9.285  0.8468  0.1755  0.1157
  717TMC3    C610600   3.067   0.594   9.211 -0.2050  0.3313  0.0948
  717TMC3     C10601   3.305   0.826   9.473  0.0223 -0.6069  0.1077
  717TMC3     O10602   3.401   0.761   9.515  0.4023  0.1118  0.0432
  717TMC3     H10603   3.100   0.908   9.308 -0.3181 -0.3689  0.7246
  717TMC3    H110604   3.326   0.568   9.413  0.1364  1.5822  0.6294
  717TMC3    H210605   2.994   0.529   9.164 -2.6291  1.3252  2.4623
  717TMC3    C710606   3.225   0.415   9.255  0.3164 -0.8365  0.2228
  717TMC3    C810607   2.943   0.790   9.150  0.3173  0.1842 -0.1115
  717TMC3    O110608   3.323   0.385   9.320  0.1484  0.0304 -0.6970
  717TMC3    O210609   2.894   0.894   9.198 -0.8564 -0.3661 -0.3105
  718MPD2     C10610   2.473   4.283  13.089 -0.3493 -0.3320 -0.1254
  718MPD2    C110611   2.381   4.259  12.985 -0.3321 -0.0402  0.0818
  718MPD2    C210612   2.248   4.251  13.028  0.5875  0.0388  0.4909
  718MPD2    C310613   2.196   4.286  13.143  0.1113 -0.0032  0.2850
  718MPD2    C410614   2.289   4.311  13.241  0.1630 -0.0503 -0.5606
  718MPD2    C510615   2.423   4.306  13.214 -0.4612 -0.3235 -0.6917
  718MPD2     H10616   2.172   4.226  12.955  2.3811 -2.4225 -0.5222
  718MPD2    H110617   2.260   4.339  13.342 -1.9542  0.2522 -1.2411
  718MPD2    H210618   2.579   4.302  13.072 -0.4781 -0.5291 -1.1439
  718MPD2    H310619   2.500   4.334  13.287  0.4512 -2.9826 -0.6450
  718MPD2     N10620   2.056   4.279  13.157 -0.4608 -0.0528  0.3054
  718MPD2    H510621   2.011   4.240  13.075 -0.9250  1.0812  0.0248
  718MPD2    N110622   2.424   4.229  12.855 -0.6354 -0.4364  0.6542
  718MPD2    H710623   2.524   4.230  12.837 -0.4871 -3.4794  1.3862
  719TMC3    C110624   2.400   4.166  12.633 -0.1862 -0.4561 -0.2914
  719TMC3    C210625   2.305   4.128  12.537  0.3821 -0.3997  1.4045
  719TMC3    C310626   2.305   4.198  12.420  0.0555 -0.2210  1.2392
  719TMC3    C410627   2.497   4.261  12.613 -0.0275 -0.0002  0.3361
  719TMC3    C510628   2.504   4.303  12.483 -0.2943  0.1868 -0.8247
  719TMC3    C610629   2.412   4.277  12.385  0.4042  0.1355  0.5682
  719TMC3     C10630   2.342   4.174  12.763  0.1806 -0.4832 -0.3291
  719TMC3     O10631   2.220   4.145  12.766 -0.2184 -0.2736  0.0651
  719TMC3     H10632   2.227   4.057  12.560  0.7238 -0.6642  1.7502
  719TMC3    H110633   2.579   4.296  12.675 -1.0121  2.1617  0.4304
  719TMC3    H210634   2.407   4.354  12.309  1.9360 -0.6942 -0.3598
  719TMC3    C710635   2.609   4.384  12.443 -0.2256 -0.5744 -0.0941
  719TMC3    C810636   2.187   4.267  12.389  0.3529 -0.3051  0.4351
  719TMC3    O110637   2.646   4.367  12.328 -0.3494 -0.1854  0.1904
  719TMC3    O210638   2.181   4.335  12.288 -0.0332 -0.0095  0.3409
  720MPD2     C10639   0.915   1.510  14.211 -0.0180 -0.4976 -0.0576
  720MPD2    C110640   0.966   1.484  14.080 -0.1808  0.0815  0.4162
  720MPD2    C210641   1.097   1.435  14.075 -0.1370  0.4761 -0.0151
  720MPD2    C310642   1.163   1.392  14.190  0.1743 -0.6471 -0.0565
  720MPD2    C410643   1.105   1.412  14.314 -0.1605  0.5550  0.9234
  720MPD2    C510644   0.983   1.476  14.322  0.5389 -0.5573 -0.0941
  720MPD2     H10645   1.148   1.415  13.982 -1.3686  2.7537 -1.1754
  720MPD2    H110646   1.161   1.399  14.406  2.4752 -0.9031 -0.9320
  720MPD2    H210647   0.824   1.567  14.223 -1.3163 -2.7223  0.8441
  720MPD2    H310648   0.938   1.507  14.415  0.9002  0.5756 -0.2962
  720MPD2     N10649   1.297   1.360  14.180  0.1046 -0.3521  0.1974
  720MPD2    H510650   1.347   1.400  14.102 -0.3275  0.1077  0.1510
  720MPD2    N110651   0.904   1.531  13.961 -0.0011  0.1770  0.9407
  720MPD2    H710652   0.954   1.495  13.881  0.2020  0.1883  1.0619
  721TMC3    C110653   1.488   1.229  14.230  0.7594  0.4215  0.1800
  721TMC3    C210654   1.552   1.154  14.325  0.7602  0.0852 -0.3085
  721TMC3    C310655   1.674   1.101  14.286  0.5307 -0.2389  0.0410
  721TMC3    C410656   1.537   1.263  14.102  0.2053 -0.3837 -0.2116
  721TMC3    C510657   1.668   1.222  14.080  0.6155 -0.2719  0.0048
  721TMC3    C610658   1.727   1.134  14.167 -0.5684 -0.0639  0.1609
  721TMC3     C10659   1.356   1.265  14.267  0.8134  0.3519  0.3754
  721TMC3     O10660   1.303   1.189  14.349 -0.2688 -0.0802  0.6470
  721TMC3     H10661   1.509   1.129  14.421 -0.2812 -0.7416 -0.9848
  721TMC3    H110662   1.477   1.320  14.032 -0.0315  0.7305  0.9011
  721TMC3    H210663   1.808   1.077  14.124 -0.2069  0.0062  0.7567
  721TMC3    C710664   1.739   1.256  13.961 -0.5285 -0.7609 -0.1219
  721TMC3    C810665   1.757   1.034  14.382 -0.2685  0.2127  0.2205
  721TMC3    O110666   1.862   1.242  13.958  0.3696  0.5947 -0.2198
  721TMC3    O210667   1.829   0.941  14.335 -0.1683  0.2848  0.0002
  722MPD2     C10668   4.109   0.009  13.231  0.2386 -0.1894  0.8709
  722MPD2    C110669   4.084   0.123  13.162  0.4713 -0.4629  0.4805
  722MPD2    C210670   3.961   0.130  13.103  0.0448 -0.3160 -0.5104
  722MPD2    C310671   3.863   0.028  13.102 -0.7553  0.4876  0.7131
  722MPD2    C410672   3.894   4.629  13.167 -0.0558  0.4634  0.7904
  722MPD2    C510673   4.016   4.629  13.231 -0.4126  0.0371  0.1749
  722MPD2     H10674   3.934   0.224  13.057 -1.9819 -0.1517  1.0107
  722MPD2    H110675   3.820   4.550  13.174  0.7621 -0.4184 -0.6482
  722MPD2    H210676   4.204   4.704  13.275  1.7335  3.4510 -0.3026
  722MPD2    H310677   4.049   4.537  13.279  2.9400  0.8003 -0.6539
  722MPD2     N10678   3.741   0.058  13.037 -0.0040  0.0590  0.1966
  722MPD2    H510679   3.744   0.153  13.000  0.3313  0.7938  2.0906
  722MPD2    N110680   4.168   0.231  13.156 -0.5014  0.4477  0.1057
  722MPD2    H710681   4.135   0.297  13.086  1.2284  2.7459  1.4228
  723TMC3    C110682   3.563   0.016  12.887  0.4089  0.6095  0.7858
  723TMC3    C210683   3.527   4.647  12.794 -0.3956 -0.5661 -0.5551
  723TMC3    C310684   3.457   4.692  12.684  0.0646 -0.1815  0.4999
  723TMC3    C410685   3.544   0.153  12.872  0.5846  0.0004 -0.2898
  723TMC3    C510686   3.465   0.193  12.771  0.2217 -0.3580  0.4186
  723TMC3    C610687   3.418   0.102  12.677  0.2404 -0.1159  0.8845
  723TMC3     C10688   3.649   4.687  12.997  0.8959 -0.4113  0.6098
  723TMC3     O10689   3.642   4.567  13.036 -0.1762  0.0097  0.3037
  723TMC3     H10690   3.554   4.541  12.793 -1.4155 -0.8230 -0.6489
  723TMC3    H110691   3.550   0.216  12.960 -0.5531  1.6724 -1.4203
  723TMC3    H210692   3.376   0.137  12.584  0.7527  0.3178  0.8169
  723TMC3    C710693   3.407   0.323  12.767  0.0473 -0.0096  0.0264
  723TMC3    C810694   3.410   4.600  12.585 -0.6087  0.6637 -0.3910
  723TMC3    O110695   3.348   0.338  12.665  0.0795 -0.3026 -0.0790
  723TMC3    O210696   3.317   4.633  12.512  0.1884 -0.0240 -0.2137
  724TMC3    C110697   4.619   2.745  10.180 -0.1720  0.3383  0.1683
  724TMC3    C210698   4.593   2.825  10.073  0.4239  0.0474 -0.3112
  724TMC3    C310699   4.677   2.924  10.035 -0.1845 -0.0380  0.3921
  724TMC3    C410700   0.011   2.765  10.252  0.0534 -0.5037 -0.0672
  724TMC3    C510701   0.097   2.860  10.204 -0.3905  0.0194  0.7277
  724TMC3    C610702   0.074   2.938  10.093  0.4252 -0.9050 -0.2060
  724TMC3     C10703   4.539   2.625  10.209 -0.2448  0.7235  0.1977
  724TMC3     O10704   4.577   2.558  10.308 -0.0843 -0.4644  0.9011
  724TMC3     H10705   4.491   2.841  10.041 -0.2310 -1.0167  1.2606
  724TMC3    H110706   0.040   2.703  10.336  0.4482  1.1342  0.9922
  724TMC3    H210707   0.144   3.016  10.065 -0.4968 -1.2190 -3.3654
  724TMC3    C710708   0.229   2.873  10.262 -0.6475 -0.9313 -0.4160
  724TMC3    C810709   4.645   2.996   9.913  0.2181 -0.6734  0.6661
  724TMC3    O110710   0.318   2.903  10.182 -0.4428  0.0684  0.3602
  724TMC3    O210711   4.525   2.996   9.878  0.3797 -0.1328 -0.3707
  725TMC3    C110712   1.594   1.729  12.882 -0.2974  0.6990  0.1346
  725TMC3    C210713   1.528   1.775  12.771  0.0722 -0.1310 -0.3679
  725TMC3    C310714   1.398   1.728  12.742 -1.2426 -0.0487  0.2477
  725TMC3    C410715   1.530   1.654  12.977  0.5841  0.3814 -0.5636
  725TMC3    C510716   1.393   1.620  12.955 -0.5078 -0.7097 -0.4950
  725TMC3    C610717   1.332   1.653  12.836 -0.3767  0.3252 -0.0735
  725TMC3     C10718   1.697   1.818  12.924  0.2929  0.1796 -0.1285
  725TMC3     O10719   1.706   1.921  12.862 -0.5975 -0.3525  0.2327
  725TMC3     H10720   1.575   1.826  12.688  1.2228 -1.0658 -0.2878
  725TMC3    H110721   1.573   1.623  13.072  2.3020  0.3834 -1.3522
  725TMC3    H210722   1.231   1.623  12.811 -1.2073  0.6609  2.9025
  725TMC3    C710723   1.352   1.504  13.029 -0.3769  0.3921 -0.0970
  725TMC3    C810724   1.387   1.676  12.606  0.1704  0.0911 -0.6812
  725TMC3    O110725   1.417   1.472  13.124 -0.4221  0.2013  0.7383
  725TMC3    O210726   1.312   1.577  12.597  0.1599  0.6139 -0.0882
  726MPD2     C10727   4.449   3.436  10.496 -0.8194  0.5067  0.1934
  726MPD2    C110728   4.485   3.361  10.612  0.1109  0.1185 -0.7448
  726MPD2    C210729   4.421   3.243  10.638  0.5524  0.4523 -0.6856
  726MPD2    C310730   4.312   3.200  10.567 -0.3100 -0.3812  0.1313
  726MPD2    C410731   4.266   3.278  10.464 -0.1000 -0.0135 -0.4852
  726MPD2    C510732   4.336   3.394  10.439 -0.2719 -0.4433 -0.1073
  726MPD2     H10733   4.455   3.179  10.719  0.8555  1.1833 -0.2416
  726MPD2    H110734   4.178   3.248  10.408 -0.7789 -0.0124  0.5815
  726MPD2    H210735   4.495   3.530  10.468 -2.6659  1.5512  0.6687
  726MPD2    H310736   4.316   3.450  10.348 -1.1908  0.6826  0.8029
  726MPD2     N10737   4.223   3.096  10.595  0.5464 -0.0708 -0.3243
  726MPD2    H510738   4.132   3.098  10.550  1.0135  0.5306 -1.2589
  726MPD2    N110739   4.592   3.400  10.694  0.2327 -0.4928 -0.2580
  726MPD2    H710740   4.607   3.349  10.780 -1.6955  0.5338  0.6767
  727TMC3    C110741   0.042   3.533  10.789  0.5478 -0.3449  0.4604
  727TMC3    C210742   0.119   3.428  10.823 -0.2809 -0.2856  0.2782
  727TMC3    C310743   0.249   3.460  10.864 -1.0620 -0.6697  0.1077
  727TMC3    C410744   0.093   3.658  10.788  0.9711 -0.4130 -0.1221
  727TMC3    C510745   0.222   3.680  10.840 -0.2677  0.9159  0.5183
  727TMC3    C610746   0.303   3.583  10.884  0.0434  0.0231 -0.1717
  727TMC3     C10747   4.661   3.513  10.683 -0.3597  0.3602  0.2356
  727TMC3     O10748   4.674   3.602  10.596 -0.0694  0.6904  0.1566
  727TMC3     H10749   0.091   3.324  10.818  0.0949 -0.2955 -1.9159
  727TMC3    H110750   0.031   3.741  10.756 -0.2219 -0.0142  3.2263
  727TMC3    H210751   0.409   3.603  10.892 -0.1483  0.5986  0.8000
  727TMC3    C710752   0.291   3.786  10.768  0.2588 -0.5551 -0.6405
  727TMC3    C810753   0.345   3.361  10.835 -0.9733  0.0591 -0.8310
  727TMC3    O110754   0.398   3.821  10.823  0.1768  0.3093 -0.0125
  727TMC3    O210755   0.323   3.294  10.735  0.2228 -0.6882 -0.0028
  728TMC3    C110756   4.114   2.034  15.998  0.0639 -0.5915 -0.1841
  728TMC3    C210757   4.175   2.143  16.048 -0.4719  0.7208 -0.1575
  728TMC3    C310758   4.208   2.241  15.962  0.9007 -0.0941  0.5968
  728TMC3    C410759   4.060   2.021  15.869  0.4826  0.0807 -0.2080
  728TMC3    C510760   4.096   2.128  15.784  1.1291  0.1508  0.1741
  728TMC3    C610761   4.165   2.236  15.830 -0.3061 -0.2851 -0.9860
  728TMC3     C10762   4.064   1.940  16.098  0.3357  0.6779 -0.1234
  728TMC3     O10763   4.128   1.933  16.201  0.3571  0.4098  0.0388
  728TMC3     H10764   4.192   2.147  16.155 -0.0372 -1.2379 -0.1530
  728TMC3    H110765   4.019   1.926  15.835 -1.4524  0.8008  0.1131
  728TMC3    H210766   4.197   2.308  15.756  0.6408 -1.8502 -2.0704
  728TMC3    C710767   4.013   2.138  15.665  0.8447 -0.0593  0.7715
  728TMC3    C810768   4.270   2.355  16.014 -0.3579 -0.0593 -0.4476
  728TMC3    O110769   3.972   2.030  15.627 -0.4179  0.2343 -0.7677
  728TMC3    O210770   4.322   2.340  16.125 -0.1594 -0.1476  0.0078
  729MPD2     C10771   1.457   2.782  16.715  0.5039 -0.0786 -0.8669
  729MPD2    C110772   1.469   2.918  16.714 -0.3325 -0.0662  0.1077
  729MPD2    C210773   1.378   2.999  16.784  0.1588  0.6056 -0.9360
  729MPD2    C310774   1.279   2.940  16.860  0.0800  0.0666 -0.3062
  729MPD2    C410775   1.261   2.807  16.853  0.0159 -0.3565 -0.0459
  729MPD2    C510776   1.344   2.739  16.768  0.2639  1.1122 -0.4116
  729MPD2     H10777   1.396   3.105  16.798  0.0048  0.6170 -0.8217
  729MPD2    H110778   1.174   2.757  16.894  0.7630 -3.1270 -1.8419
  729MPD2    H210779   1.510   2.721  16.643  2.1190  0.3329 -0.0328
  729MPD2    H310780   1.303   2.643  16.739 -0.0224  1.6245 -1.6844
  729MPD2     N10781   1.187   3.010  16.943  0.6365  0.4346  0.2759
  729MPD2    H510782   1.106   2.965  16.985  0.2450  2.1238  1.3418
  729MPD2    N110783   1.577   2.976  16.648  0.1561  0.2863  0.3880
  729MPD2    H710784   1.642   2.917  16.596 -0.0352  0.5431 -0.1508
  730TMC3    C110785   1.143   3.190  17.084  0.2262  0.0814  0.6804
  730TMC3    C210786   1.152   3.105  17.193 -0.1184 -0.0325  0.7488
  730TMC3    C310787   1.212   3.158  17.303 -0.2568 -0.4775  0.5948
  730TMC3    C410788   1.176   3.321  17.098  0.3529 -0.1508  0.7022
  730TMC3    C510789   1.243   3.364  17.207 -0.0984 -0.0076  0.7420
  730TMC3    C610790   1.268   3.278  17.315 -0.2556 -0.2140 -0.3373
  730TMC3     C10791   1.192   3.143  16.961 -0.9031 -0.1730 -0.3884
  730TMC3     O10792   1.263   3.230  16.917  0.0709 -0.6951  0.0334
  730TMC3     H10793   1.144   2.997  17.186 -0.2533  0.0214  0.0937
  730TMC3    H110794   1.164   3.396  17.020 -1.7392 -0.1998  0.9907
  730TMC3    H210795   1.316   3.317  17.404 -1.8387  1.7572 -0.3482
  730TMC3    C710796   1.316   3.486  17.209  0.3465 -0.2658  0.2413
  730TMC3    C810797   1.297   3.052  17.360 -0.1241  0.9651 -0.1599
  730TMC3    O110798   1.359   3.516  17.103 -0.3555  0.6214  0.2919
  730TMC3    O210799   1.238   2.948  17.388  0.3247 -0.6476 -0.1143
  731MPD2     C10800   1.287   0.604  11.156 -0.5677 -0.4262 -0.6195
  731MPD2    C110801   1.253   0.663  11.277  0.5025  0.2192  0.0043
  731MPD2    C210802   1.274   0.593  11.397 -0.1326  0.1393  0.0026
  731MPD2    C310803   1.337   0.473  11.395  0.5523 -0.0426 -0.4972
  731MPD2    C410804   1.382   0.414  11.274 -0.4194 -0.6884  0.5152
  731MPD2    C510805   1.362   0.484  11.159 -0.2274 -0.5822 -0.3538
  731MPD2     H10806   1.246   0.638  11.491 -1.4374  0.3242 -0.4737
  731MPD2    H110807   1.433   0.319  11.273 -0.0513 -0.4903  1.0002
  731MPD2    H210808   1.253   0.653  11.065  0.0846 -1.8695 -1.6517
  731MPD2    H310809   1.399   0.434  11.070  0.2789  0.9042 -0.9795
  731MPD2     N10810   1.365   0.417  11.520 -0.0121 -0.3880  0.2222
  731MPD2    H510811   1.349   0.479  11.598  0.3582 -0.4745  0.3649
  731MPD2    N110812   1.171   0.777  11.270  0.0344 -0.0485 -0.1820
  731MPD2    H710813   1.146   0.817  11.180  0.6158  0.4580 -0.1184
  732TMC3    C110814   1.042   0.951  11.346  1.2789  0.4145  0.2288
  732TMC3    C210815   0.930   0.904  11.279 -0.4391 -0.2550 -0.3325
  732TMC3    C310816   0.810   0.961  11.301 -0.5555 -1.1527 -0.2630
  732TMC3    C410817   1.036   1.050  11.438 -0.2753  0.0199  0.9312
  732TMC3    C510818   0.913   1.108  11.454  0.3874 -0.1168 -0.5292
  732TMC3    C610819   0.797   1.065  11.385 -0.5623 -0.4085  0.2829
  732TMC3     C10820   1.153   0.856  11.376  0.1543 -0.5528 -0.7088
  732TMC3     O10821   1.178   0.843  11.494  0.3080 -0.3651  0.2153
  732TMC3     H10822   0.942   0.824  11.207 -1.5733  1.0044 -1.9159
  732TMC3    H110823   1.129   1.081  11.483  0.1682 -0.6166  0.4539
  732TMC3    H210824   0.702   1.107  11.416 -0.8867 -0.4650 -0.6273
  732TMC3    C710825   0.877   1.187  11.575 -0.1615 -0.8598  0.7700
  732TMC3    C810826   0.695   0.876  11.282  0.4470  0.2871 -0.0322
  732TMC3    O110827   0.826   1.296  11.546 -0.1276  0.2763 -0.4972
  732TMC3    O210828   0.698   0.801  11.185 -0.4897 -0.2900 -0.1847
  733TMC3    C110829   1.620   4.317  13.215 -0.1087 -0.0059  0.3242
  733TMC3    C210830   1.744   4.308  13.287 -0.1388  0.0162 -0.4917
  733TMC3    C310831   1.851   4.363  13.222 -0.3257  0.6537  0.3580
  733TMC3    C410832   1.612   4.385  13.093  0.4911  0.1751  0.1288
  733TMC3    C510833   1.724   4.444  13.046 -0.8388 -0.5412  0.0269
  733TMC3    C610834   1.850   4.421  13.105  0.4503 -0.0751 -0.7449
  733TMC3     C10835   1.494   4.293  13.272  0.3782 -0.1891  0.4845
  733TMC3     O10836   1.416   4.386  13.264 -1.0426 -0.0610 -0.2473
  733TMC3     H10837   1.752   4.257  13.382 -0.5212 -1.0221 -1.0198
  733TMC3    H110838   1.518   4.379  13.040  1.3469  0.2329 -1.3845
  733TMC3    H210839   1.937   4.476  13.070  1.9496 -2.9697 -1.5386
  733TMC3    C710840   1.723   4.444  12.897 -0.1007  0.2638 -0.7292
  733TMC3    C810841   1.986   4.335  13.266 -0.2611 -0.4145  0.3065
  733TMC3    O110842   1.615   4.462  12.837  0.3202  0.2406 -0.8528
  733TMC3    O210843   2.021   4.386  13.375  0.4125 -0.3670  0.3915
  734MPD2     C10844   4.047   1.796  12.450 -0.2891  0.1461 -0.8346
  734MPD2    C110845   3.987   1.703  12.372 -0.4407 -0.0178 -0.0298
  734MPD2    C210846   3.993   1.716  12.234  0.9116 -0.4553 -0.0809
  734MPD2    C310847   4.045   1.837  12.183  0.9064 -0.0274  1.4463
  734MPD2    C410848   4.106   1.931  12.263  0.0894  0.1384 -0.2136
  734MPD2    C510849   4.107   1.903  12.398 -0.2625 -0.4441 -0.4533
  734MPD2     H10850   3.967   1.638  12.163 -0.2038  0.6602 -0.8857
  734MPD2    H110851   4.138   2.024  12.217 -0.7869  0.2806 -0.5309
  734MPD2    H210852   4.052   1.775  12.556 -3.6093  0.5489 -0.5920
  734MPD2    H310853   4.145   1.980  12.464 -0.6463 -0.1505 -0.5742
  734MPD2     N10854   4.031   1.839  12.039  0.1623 -0.9690 -0.4025
  734MPD2    H510855   3.986   1.758  11.998  0.3293 -2.1302  1.6636
  734MPD2    N110856   3.924   1.589  12.430  0.7673 -0.4154  0.3451
  734MPD2    H710857   3.927   1.568  12.529  2.3617  1.9172  0.7871
  735TMC3    C110858   3.824   1.378  12.395  0.0519  0.3184  0.5092
  735TMC3    C210859   3.709   1.317  12.365 -0.0361  0.2725 -0.1150
  735TMC3    C310860   3.707   1.189  12.318 -0.7545  0.2435 -0.2659
  735TMC3    C410861   3.946   1.312  12.396 -0.0951  0.5297  0.5561
  735TMC3    C510862   3.936   1.179  12.381  0.1240  0.1841 -0.1081
  735TMC3    C610863   3.817   1.119  12.339 -0.1994  0.1606 -0.5401
  735TMC3     C10864   3.827   1.513  12.366  0.0541  0.1808 -0.4300
  735TMC3     O10865   3.781   1.538  12.253 -0.1043  0.2236 -0.5118
  735TMC3     H10866   3.621   1.377  12.346  0.6165  1.1594 -0.3459
  735TMC3    H110867   4.039   1.366  12.410  0.7580 -0.6018 -0.8467
  735TMC3    H210868   3.810   1.015  12.311  2.8983 -0.6997  1.8465
  735TMC3    C710869   4.052   1.120  12.319  0.2622  0.3254 -0.4701
  735TMC3    C810870   3.657   1.177  12.183  1.0151  0.8445 -0.6201
  735TMC3    O110871   4.130   1.197  12.268 -0.6452 -0.4353 -0.4413
  735TMC3    O210872   3.617   1.067  12.144  0.2242  0.0206 -0.1838
  736MPD2     C10873   4.149   0.768  12.261 -0.6399 -0.2208 -0.1661
  736MPD2    C110874   4.172   0.906  12.267  0.1396  0.1569  0.2513
  736MPD2    C210875   4.297   0.957  12.216  0.4109  0.4758  0.4907
  736MPD2    C310876   4.378   0.877  12.134  0.3694  0.3062 -0.3116
  736MPD2    C410877   4.338   0.747  12.124  0.8854  0.2889  0.6066
  736MPD2    C510878   4.233   0.691  12.190 -0.5513 -0.4240  0.1139
  736MPD2     H10879   4.314   1.064  12.209 -3.3777  0.9643 -1.3423
  736MPD2    H110880   4.398   0.673  12.073  0.1747  1.0493 -1.3303
  736MPD2    H210881   4.070   0.713  12.312 -0.3690 -0.9869 -0.5889
  736MPD2    H310882   4.223   0.584  12.183 -0.1247 -0.5364  1.2893
  736MPD2     N10883   4.492   0.923  12.065  0.0109  0.3630 -0.7260
  736MPD2    H510884   4.542   0.847  12.019 -0.0828 -1.4959  2.2622
  736MPD2    N110885   4.069   0.984  12.328  0.2636  0.4064 -0.3760
  736MPD2    H710886   3.997   0.934  12.378  0.8753 -0.8769 -0.7793
  737TMC3    C110887   4.633   1.084  11.955 -0.6534 -0.5308 -0.2255
  737TMC3    C210888   4.710   1.196  11.972  0.9657 -0.4500 -0.2696
  737TMC3    C310889   0.092   1.219  11.883 -0.1485  0.3982 -0.1816
  737TMC3    C410890   4.669   0.986  11.859 -0.2931  0.9202 -0.2214
  737TMC3    C510891   0.049   1.017  11.770  0.4043 -0.2220 -0.0298
  737TMC3    C610892   0.122   1.128  11.781 -0.1741 -0.0764 -0.4368
  737TMC3     C10893   4.522   1.056  12.042  0.0318  0.0044 -0.5123
  737TMC3     O10894   4.465   1.160  12.076  0.6802  0.0581  0.2563
  737TMC3     H10895   4.677   1.269  12.044 -0.4633 -1.3699  0.0065
  737TMC3    H110896   4.621   0.892  11.838 -1.8269  1.8993 -1.0431
  737TMC3    H210897   0.212   1.146  11.723  0.1912  0.5978  0.3250
  737TMC3    C710898   0.091   0.915  11.671 -0.3558 -0.3344 -0.1930
  737TMC3    C810899   0.142   1.354  11.858 -0.1848  0.3334 -0.1996
  737TMC3    O110900   0.070   0.800  11.705 -0.0953 -0.6248  0.2341
  737TMC3    O210901   0.259   1.376  11.874 -0.1284 -0.1077  0.0577
  738MPD2     C10902   0.460   0.523  15.439  0.0697  0.2928 -0.3774
  738MPD2    C110903   0.479   0.475  15.312  0.2225  0.2587 -0.1694
  738MPD2    C210904   0.593   0.512  15.239 -0.3342  0.6513  0.5438
  738MPD2    C310905   0.687   0.599  15.284  0.6785  0.2162  0.2289
  738MPD2    C410906   0.659   0.649  15.407 -0.8571 -0.4010 -0.8529
  738MPD2    C510907   0.551   0.618  15.483 -0.4943  0.2073  0.7907
  738MPD2     H10908   0.619   0.459  15.148 -0.9423 -1.6072  1.6715
  738MPD2    H110909   0.731   0.714  15.454 -0.7511 -2.1974  1.4697
  738MPD2    H210910   0.381   0.491  15.506  1.4736  2.2731  2.2474
  738MPD2    H310911   0.553   0.657  15.584  0.2713  1.2624  0.3584
  738MPD2     N10912   0.805   0.642  15.224 -0.5713 -0.3200 -0.4640
  738MPD2    H510913   0.857   0.709  15.279 -0.0131 -0.8264 -0.3799
  738MPD2    N110914   0.396   0.368  15.274  0.3316  0.3337 -0.5060
  738MPD2    H710915   0.322   0.337  15.336  0.1392 -3.3990 -2.5616
  739TMC3    C110916   0.957   0.669  15.044 -0.5522  0.1683  0.1317
  739TMC3    C210917   0.982   0.706  14.919  0.2657  0.0389  0.6858
  739TMC3    C310918   1.108   0.730  14.879 -0.5241  0.3045 -0.1938
  739TMC3    C410919   1.061   0.646  15.135 -0.6553 -0.3588 -0.5375
  739TMC3    C510920   1.191   0.681  15.094  0.8071  0.2370 -0.5667
  739TMC3    C610921   1.215   0.706  14.961 -0.1594 -0.1278  0.3102
  739TMC3     C10922   0.826   0.620  15.087 -0.2746 -0.1390 -0.4130
  739TMC3     O10923   0.744   0.577  15.003 -0.1245 -0.3505 -0.5577
  739TMC3     H10924   0.899   0.716  14.850  0.8909 -0.0538 -0.0694
  739TMC3    H110925   1.045   0.614  15.238  2.2537 -2.4917 -0.7327
  739TMC3    H210926   1.321   0.706  14.940 -0.5702  0.0431 -1.7103
  739TMC3    C710927   1.297   0.654  15.179  0.0304 -0.2141  0.4047
  739TMC3    C810928   1.129   0.728  14.733 -0.9622 -0.0959 -0.2712
  739TMC3    O110929   1.291   0.557  15.246  0.1034  0.4889 -0.3458
  739TMC3    O210930   1.035   0.687  14.670 -0.0724  0.1857 -0.0956
  740TMC3    C110931   1.148   1.833  14.258 -0.4307  0.0231 -0.1490
  740TMC3    C210932   1.208   1.796  14.376  0.2307  0.1052  0.0870
  740TMC3    C310933   1.326   1.719  14.368 -0.0672 -0.2638  0.7064
  740TMC3    C410934   1.195   1.800  14.136  0.3736  0.6145  0.5013
  740TMC3    C510935   1.306   1.723  14.133 -1.2236  0.5334 -0.0370
  740TMC3    C610936   1.379   1.679  14.245 -0.3573 -0.4830 -0.4569
  740TMC3     C10937   1.012   1.894  14.260 -0.1526 -0.2589 -0.2892
  740TMC3     O10938   0.949   1.891  14.158 -0.1180 -0.3346 -0.0931
  740TMC3     H10939   1.173   1.822  14.476 -2.3374 -2.9780 -0.0051
  740TMC3    H110940   1.131   1.825  14.052 -2.5999  1.8396  3.1145
  740TMC3    H210941   1.476   1.634  14.229 -0.0212 -0.9223  2.9266
  740TMC3    C710942   1.326   1.648  14.005 -0.1495  0.3792 -0.2225
  740TMC3    C810943   1.376   1.648  14.476  0.6949  0.2882 -0.6206
  740TMC3    O110944   1.400   1.552  14.011 -0.5225  0.7007  0.1831
  740TMC3    O210945   1.495   1.611  14.468 -0.1045  0.2691  0.0173
  741TMC3    C110946   0.897   1.100  14.278 -0.5566  0.8116 -0.2584
  741TMC3    C210947   0.757   1.097  14.294  0.4428 -0.1207 -0.7282
  741TMC3    C310948   0.710   1.072  14.417  0.4304 -0.5365  0.8934
  741TMC3    C410949   0.985   1.083  14.379 -0.2646  0.6521  0.1700
  741TMC3    C510950   0.935   1.057  14.503 -0.2900  0.1868  0.3300
  741TMC3    C610951   0.797   1.048  14.524 -0.5380  0.1566 -0.3820
  741TMC3     C10952   0.950   1.116  14.144  0.2800  0.8085 -0.2963
  741TMC3     O10953   0.874   1.152  14.055  0.0805  0.4108  0.0722
  741TMC3     H10954   0.699   1.102  14.203 -3.1341  1.4883  1.6253
  741TMC3    H110955   1.093   1.085  14.367 -0.0110 -1.3117  2.1062
  741TMC3    H210956   0.758   1.030  14.623  0.6140 -3.9009 -0.6665
  741TMC3    C710957   1.018   1.054  14.627  0.7862 -0.3158  0.3603
  741TMC3    C810958   0.591   0.990  14.404 -0.5294 -0.2865  0.3012
  741TMC3    O110959   0.966   0.996  14.725  1.4450  0.1311 -0.0382
  741TMC3    O210960   0.508   1.020  14.318  0.4204  0.1973 -0.3657
  742TMC3    C110961   0.343   4.376  15.190 -0.9869  0.0843 -0.2445
  742TMC3    C210962   0.236   4.332  15.119 -0.6323 -0.1716  0.7404
  742TMC3    C310963   0.227   4.194  15.097  0.1650 -0.0070 -0.3443
  742TMC3    C410964   0.405   4.291  15.274  0.3929  0.5425 -1.3088
  742TMC3    C510965   0.390   4.152  15.255  0.8990  0.5637 -0.3153
  742TMC3    C610966   0.303   4.103  15.158 -0.2683  0.1673 -0.2964
  742TMC3     C10967   0.337   4.509  15.247  0.6180  0.7239  0.3303
  742TMC3     O10968   0.225   4.564  15.257  0.1894  0.3270  0.3153
  742TMC3     H10969   0.197   4.405  15.048  0.1183 -2.3149 -1.8785
  742TMC3    H110970   0.463   4.339  15.352  0.5156 -0.8395 -0.5540
  742TMC3    H210971   0.300   3.996  15.140  1.2716  0.1289 -0.3247
  742TMC3    C710972   0.498   4.069  15.298  0.0870  0.1620  0.1427
  742TMC3    C810973   0.160   4.147  14.976 -0.1204 -0.1674  0.3687
  742TMC3    O110974   0.486   3.949  15.290  0.2936 -0.1690  0.0801
  742TMC3    O210975   0.195   4.041  14.935 -0.1337 -0.1698 -0.4456
  743MPD2     C10976   2.990   1.861   1.529 -0.2171 -0.3155 -0.8340
  743MPD2    C110977   3.065   1.751   1.499  0.7489  0.4114  0.2227
  743MPD2    C210978   3.191   1.749   1.546 -0.3825  0.5559  0.3973
  743MPD2    C310979   3.243   1.846   1.625 -0.5766 -0.4465  0.0566
  743MPD2    C410980   3.174   1.955   1.662  0.0044 -0.0055  0.3850
  743MPD2    C510981   3.038   1.955   1.620  0.4475 -0.2359 -0.1323
  743MPD2     H10982   3.257   1.670   1.513 -1.4218  0.2022 -0.7913
  743MPD2    H110983   3.200   2.045   1.716  0.9253 -1.2131  1.9664
  743MPD2    H210984   2.886   1.862   1.497 -0.5387  1.2400  0.2479
  743MPD2    H310985   2.983   2.044   1.649 -0.3767 -1.5318  2.2317
  743MPD2     N10986   3.385   1.835   1.652 -0.7136 -0.0886  0.8314
  743MPD2    H510987   3.429   1.749   1.620 -0.1723  0.4079  0.2331
  743MPD2    N110988   3.001   1.648   1.423  0.3286 -0.2589 -1.0041
  743MPD2    H710989   2.909   1.661   1.383  0.4057 -1.4963 -1.5933
  744TMC3    C110990   2.951   1.441   1.336 -0.0872 -0.7504  0.3584
  744TMC3    C210991   2.818   1.467   1.336 -0.8943 -0.0476  0.5962
  744TMC3    C310992   2.745   1.397   1.242 -0.0718  0.4901  0.6059
  744TMC3    C410993   3.009   1.347   1.259  0.2333 -0.2270 -0.1898
  744TMC3    C510994   2.930   1.276   1.182 -0.2000  0.2424  0.3104
  744TMC3    C610995   2.801   1.299   1.159 -0.2089  0.0648  0.5946
  744TMC3     C10996   3.044   1.518   1.407 -0.4545 -0.0632  0.7171
  744TMC3     O10997   3.156   1.473   1.419 -0.0179  0.1944  0.1080
  744TMC3     H10998   2.766   1.525   1.411  0.4546  0.1475  1.3755
  744TMC3    H110999   3.116   1.330   1.256  0.6604  2.3708  0.8394
  744TMC3    H211000   2.748   1.257   1.075 -1.5342  2.6149  0.1593
  744TMC3    C711001   2.996   1.178   1.096  0.1664  0.0476 -0.3279
  744TMC3    C811002   2.601   1.388   1.248  0.0595  0.2995  0.6869
  744TMC3    O111003   3.117   1.191   1.079 -0.2072 -0.1180 -0.0228
  744TMC3    O211004   2.553   1.302   1.172 -0.1755 -0.9315  0.3904
  745TMC3    C111005   0.093   3.952  13.552  0.2690  0.5402  0.2078
  745TMC3    C211006   0.028   3.987  13.665  0.0651  1.0162 -0.4705
  745TMC3    C311007   4.620   4.034  13.641 -0.2711 -0.0238 -0.3425
  745TMC3    C411008   0.045   3.956  13.424 -0.4461  0.5151  0.1809
  745TMC3    C511009   4.645   4.022  13.409  0.0678  0.2092 -0.1162
  745TMC3    C611010   4.568   4.060  13.517  0.1246  0.4607 -0.3526
  745TMC3     C11011   0.219   4.014  13.563  0.9181  0.4743  0.6428
  745TMC3     O11012   0.260   4.086  13.474 -0.1260  0.9215  0.3670
  745TMC3     H11013   0.060   3.951  13.762 -4.6198 -1.5305  0.1200
  745TMC3    H111014   0.102   3.904  13.348 -2.8272 -2.4945  0.4867
  745TMC3    H211015   4.470   4.105  13.505  0.6069  1.8402  0.9370
  745TMC3    C711016   4.649   4.114  13.299  0.1785 -0.2722  0.1728
  745TMC3    C811017   4.577   4.140  13.742 -0.4726 -0.2942  0.2871
  745TMC3    O111018   4.564   4.202  13.292 -0.2108  0.6165 -0.0285
  745TMC3    O211019   4.481   4.208  13.706  0.4687  0.3855  0.2173
  746TMC3    C111020   2.941   0.951  10.703 -0.8572  0.1945  0.3379
  746TMC3    C211021   3.069   0.926  10.664  0.4594  0.0799 -0.6758
  746TMC3    C311022   3.133   0.812  10.716 -0.2546 -0.3071 -0.0799
  746TMC3    C411023   2.871   0.853  10.771 -0.5966  0.0356  0.5747
  746TMC3    C511024   2.934   0.748  10.819 -0.6257  0.2432 -0.4118
  746TMC3    C611025   3.070   0.730  10.806  0.0092 -0.4386  0.1564
  746TMC3     C11026   2.904   1.083  10.747  0.6498 -0.1295  0.5130
  746TMC3     O11027   2.866   1.094  10.862 -0.4559 -0.0293  0.2018
  746TMC3     H11028   3.128   0.999  10.608  1.7636 -2.4697 -2.6176
  746TMC3    H111029   2.763   0.864  10.775 -0.5266  0.4786  1.3825
  746TMC3    H211030   3.123   0.647  10.852 -0.5123 -0.6558  0.3764
  746TMC3    C711031   2.843   0.638  10.840 -0.4514  0.1157 -0.5371
  746TMC3    C811032   3.278   0.808  10.704  0.0288  0.5935  0.1378
  746TMC3    O111033   2.750   0.636  10.761  0.3162 -0.0595  0.0291
  746TMC3    O211034   3.338   0.749  10.795  0.3027  0.0380  0.0025
  747TMC3    C111035   0.572   1.140  10.734  0.0045 -0.1719  0.2084
  747TMC3    C211036   0.472   1.073  10.799 -0.0003  0.6020 -0.2842
  747TMC3    C311037   0.468   1.068  10.938 -0.3213  0.7974 -0.0855
  747TMC3    C411038   0.681   1.182  10.808 -0.0864  0.1848  0.1295
  747TMC3    C511039   0.678   1.168  10.947  0.1204 -0.0349  0.5794
  747TMC3    C611040   0.565   1.123  11.021 -0.7269 -0.5670  0.4890
  747TMC3     C11041   0.572   1.135  10.594 -0.1693 -0.2538 -0.3648
  747TMC3     O11042   0.616   1.230  10.529 -0.2172 -0.3774  0.0493
  747TMC3     H11043   0.382   1.056  10.741 -0.0850  2.0063 -0.5586
  747TMC3    H111044   0.763   1.237  10.763  1.2477 -2.2309 -0.3669
  747TMC3    H211045   0.567   1.117  11.130 -4.0699 -2.0507  0.4652
  747TMC3    C711046   0.786   1.218  11.020  0.1608 -0.0881 -0.5373
  747TMC3    C811047   0.377   0.975  11.000  0.2347 -0.6976  0.4376
  747TMC3    O111048   0.756   1.265  11.133  0.0293 -0.0216 -0.3840
  747TMC3    O211049   0.349   0.876  10.938  0.3960  0.1243  0.0602
  748MPD2     C11050   2.185   1.672   1.047  0.1275  0.0568  1.0625
  748MPD2    C111051   2.150   1.800   1.043  1.0200 -0.3755  0.0193
  748MPD2    C211052   2.246   1.899   1.045  0.5550 -0.3612 -0.6920
  748MPD2    C311053   2.381   1.864   1.052  0.1523  0.7989  0.1084
  748MPD2    C411054   2.411   1.728   1.038  0.4863 -0.3349 -0.4345
  748MPD2    C511055   2.315   1.634   1.046 -0.4383  0.5978 -0.1909
  748MPD2     H11056   2.220   2.003   1.055  3.6255  0.3306  0.1927
  748MPD2    H111057   2.512   1.689   1.033  0.8187  0.4576 -0.0364
  748MPD2    H211058   2.114   1.590   1.048 -0.0207  0.1741  0.2531
  748MPD2    H311059   2.339   1.528   1.039 -2.2243  0.3030 -1.8709
  748MPD2     N11060   2.473   1.968   1.063 -0.2596  0.1078 -0.1515
  748MPD2    H511061   2.445   2.065   1.058  1.3530  0.5313 -1.0181
  748MPD2    N111062   2.010   1.825   1.040  0.0601 -0.1494  0.1266
  748MPD2    H711063   1.940   1.752   1.050 -0.0759 -0.1019 -0.5260
  749TMC3    C111064   2.686   2.072   1.038  0.4969 -0.9063 -0.2991
  749TMC3    C211065   2.804   2.087   1.107  0.3151 -0.0869 -0.0152
  749TMC3    C311066   2.859   2.211   1.097  0.4596 -0.6083 -0.2986
  749TMC3    C411067   2.630   2.170   0.960  0.3991 -1.0377 -0.3459
  749TMC3    C511068   2.685   2.294   0.967  0.6105  0.0584  0.3767
  749TMC3    C611069   2.798   2.314   1.035  0.4479  0.1387 -0.2274
  749TMC3     C11070   2.609   1.958   1.078  0.4750 -0.9935  0.0435
  749TMC3     O11071   2.661   1.855   1.108 -0.3959 -0.5700  0.3218
  749TMC3     H11072   2.845   2.006   1.166  0.3231 -0.8998 -1.1301
  749TMC3    H111073   2.539   2.146   0.907 -0.5907  1.4163  0.2324
  749TMC3    H211074   2.834   2.415   1.048 -0.9630  0.6967 -0.6570
  749TMC3    C711075   2.634   2.405   0.880  0.0620 -0.0494  0.5655
  749TMC3    C811076   2.952   2.243   1.205  0.1436  0.2604  0.5543
  749TMC3    O111077   2.650   2.513   0.931  0.0790  0.3009 -0.3474
  749TMC3    O211078   2.952   2.355   1.253  0.3309 -0.5653 -0.2718
  750MPD2     C11079   3.324   2.714  11.256 -0.0049 -0.5277 -0.9967
  750MPD2    C111080   3.190   2.691  11.267 -0.7813 -0.1409  0.4203
  750MPD2    C211081   3.128   2.597  11.184  0.5728  0.4139  0.3811
  750MPD2    C311082   3.203   2.520  11.101  0.3532 -1.2868  0.2359
  750MPD2    C411083   3.335   2.546  11.092  0.2788 -0.8323  0.2953
  750MPD2    C511084   3.398   2.637  11.172 -0.7214 -0.6364 -0.4752
  750MPD2     H11085   3.023   2.572  11.190  0.6849 -0.0721  0.2730
  750MPD2    H111086   3.390   2.488  11.019 -0.5294 -1.5679  0.2698
  750MPD2    H211087   3.378   2.790  11.311 -1.3530 -0.6356  0.4605
  750MPD2    H311088   3.503   2.661  11.164 -0.5144 -1.3916 -0.0093
  750MPD2     N11089   3.152   2.427  11.007  0.2406 -0.0210 -0.2692
  750MPD2    H511090   3.213   2.391  10.934  0.9429  1.2928 -0.3176
  750MPD2    N111091   3.112   2.767  11.362  0.2413  0.3620  0.1966
  750MPD2    H711092   3.154   2.849  11.405  0.1782 -0.0624  1.0638
  751TMC3    C111093   2.993   2.316  10.871 -0.6828  0.3961 -0.7279
  751TMC3    C211094   2.868   2.255  10.861 -0.3008 -0.2732  0.0154
  751TMC3    C311095   2.830   2.216  10.735  0.0509  0.1054  0.1717
  751TMC3    C411096   3.079   2.335  10.766  0.0586 -0.3064  0.2630
  751TMC3    C511097   3.035   2.285  10.652 -0.2842  0.2828  0.2731
  751TMC3    C611098   2.914   2.237  10.628  0.9114 -0.2523  0.1938
  751TMC3     C11099   3.021   2.380  10.997  0.2568 -0.9210  0.3803
  751TMC3     O11100   2.935   2.400  11.086  1.1320 -0.1426 -0.1460
  751TMC3     H11101   2.809   2.248  10.951 -0.6570 -1.7499 -0.3416
  751TMC3    H111102   3.181   2.371  10.769  0.5921 -1.7242 -0.7347
  751TMC3    H211103   2.885   2.212  10.527  1.8418  0.6801 -0.3014
  751TMC3    C711104   3.151   2.219  10.578  0.7081 -0.3540  0.4025
  751TMC3    C811105   2.751   2.095  10.712 -0.0348 -0.2123 -0.9144
  751TMC3    O111106   3.248   2.286  10.543  0.5333 -0.0372  0.5628
  751TMC3    O211107   2.790   2.031  10.614  0.1427 -0.5355  0.2358
  752TMC3    C111108   2.057   2.271  17.061 -0.0317 -0.1815 -0.5976
  752TMC3    C211109   2.050   2.132  17.036  0.1251 -0.0542 -0.0111
  752TMC3    C311110   1.974   2.059  17.125 -0.0757 -0.0009  0.6508
  752TMC3    C411111   1.993   2.322  17.173  0.3702 -0.3403 -0.5499
  752TMC3    C511112   1.907   2.249  17.244 -0.9273  0.1900  0.8456
  752TMC3    C611113   1.901   2.116  17.232 -0.9114  0.2905 -0.0693
  752TMC3     C11114   2.147   2.353  16.978  0.7653  0.1803  0.7540
  752TMC3     O11115   2.237   2.288  16.925 -0.2184 -0.1632 -0.5918
  752TMC3     H11116   2.094   2.092  16.946 -0.0937 -1.5685  0.5505
  752TMC3    H111117   2.014   2.426  17.196 -0.1923 -0.4848  0.6267
  752TMC3    H211118   1.840   2.061  17.303  1.9373 -1.5477  0.9605
  752TMC3    C711119   1.832   2.312  17.343  0.0986  0.2551 -0.7777
  752TMC3    C811120   1.973   1.912  17.119 -0.0942  0.0150 -0.2075
  752TMC3    O111121   1.714   2.278  17.358  0.1872  0.5267  0.0157
  752TMC3    O211122   1.888   1.864  17.192 -0.7125 -0.3795 -0.1309
  753TMC3    C111123   3.885   3.963  13.460  0.4147 -0.7856  0.0115
  753TMC3    C211124   3.900   3.932  13.592 -0.4472  0.4819  0.2903
  753TMC3    C311125   3.920   3.796  13.612  0.1688 -0.3677 -0.1661
  753TMC3    C411126   3.879   3.875  13.353 -0.7588 -0.0690 -0.2282
  753TMC3    C511127   3.903   3.742  13.386 -0.2681 -0.7550  0.4960
  753TMC3    C611128   3.918   3.699  13.513 -0.1539  0.0845 -0.1680
  753TMC3     C11129   3.832   4.088  13.417  0.0873  0.5290  0.2253
  753TMC3     O11130   3.770   4.084  13.310 -0.1404 -0.8817  1.3539
  753TMC3     H11131   3.880   3.998  13.676  3.4682  0.5393  1.1640
  753TMC3    H111132   3.885   3.908  13.251 -2.3422  1.0706  0.0450
  753TMC3    H211133   3.945   3.596  13.532 -1.2538 -0.5801 -2.2093
  753TMC3    C711134   3.901   3.635  13.285 -0.6331 -0.5536  0.1167
  753TMC3    C811135   3.975   3.750  13.732 -0.0080 -0.2275  0.8079
  753TMC3    O111136   3.874   3.523  13.333  0.4676 -0.3235 -0.5462
  753TMC3    O211137   3.973   3.632  13.751  0.2406  0.4258  0.5109
  754MPD2     C11138   2.851   2.768  13.325 -0.1550 -0.0565  0.5322
  754MPD2    C111139   2.820   2.635  13.326 -0.5984  0.2762  0.5647
  754MPD2    C211140   2.711   2.586  13.258  0.2188  0.2910  0.6895
  754MPD2    C311141   2.630   2.669  13.188 -0.1279 -0.2183 -0.4903
  754MPD2    C411142   2.668   2.801  13.179 -0.1689  0.4101 -0.2830
  754MPD2    C511143   2.776   2.846  13.249  0.1311  0.1834 -0.1482
  754MPD2     H11144   2.681   2.484  13.279  1.8206 -0.7836 -2.1783
  754MPD2    H111145   2.612   2.872  13.120 -0.0957  1.1841  0.5818
  754MPD2    H211146   2.921   2.815  13.392 -0.3039  1.5280 -0.4205
  754MPD2    H311147   2.784   2.954  13.259 -1.3712  0.3170 -0.3404
  754MPD2     N11148   2.513   2.619  13.119 -0.7637 -0.1904 -0.1527
  754MPD2    H511149   2.455   2.687  13.071 -2.0191  1.2784  3.4125
  754MPD2    N111150   2.880   2.560  13.429 -0.0145  0.2188 -0.1599
  754MPD2    H711151   2.900   2.616  13.511 -0.0458  2.1389 -1.4529
  755MPD2     C11152   1.608   2.939  12.934  0.3654 -0.2645 -0.9465
  755MPD2    C111153   1.714   2.963  13.015  0.1630 -0.0955 -0.0259
  755MPD2    C211154   1.828   2.892  13.009 -0.2375 -0.4589  0.2967
  755MPD2    C311155   1.834   2.775  12.933 -1.0731 -0.3476  0.4665
  755MPD2    C411156   1.722   2.752  12.856  0.0529  0.4470 -0.4883
  755MPD2    C511157   1.617   2.837  12.844 -0.6998  0.0413  0.1432
  755MPD2     H11158   1.916   2.928  13.063  1.9429 -1.2990 -2.7449
  755MPD2    H111159   1.722   2.665  12.792  0.4143  0.9723 -1.1971
  755MPD2    H211160   1.523   3.006  12.929  0.5810  0.0631 -0.1166
  755MPD2    H311161   1.544   2.819  12.767 -2.0197  1.0749  1.1556
  755MPD2     N11162   1.941   2.686  12.920 -0.2424 -0.3367  0.5268
  755MPD2    H511163   1.942   2.610  12.853 -0.9596 -0.9353  1.1907
  755MPD2    N111164   1.705   3.073  13.112  0.1881  0.2847 -0.2397
  755MPD2    H711165   1.787   3.084  13.170 -1.0512  1.6071  1.2827
  756MPD2     C11166   2.700   3.623   9.795  0.9741  0.0526 -0.3255
  756MPD2    C111167   2.610   3.594   9.894  0.6292  0.6790  0.3699
  756MPD2    C211168   2.476   3.611   9.870 -0.2381  0.2157  0.4537
  756MPD2    C311169   2.432   3.652   9.747  0.6532  0.4364  0.1113
  756MPD2    C411170   2.523   3.692   9.654  0.3088 -0.8131 -0.1899
  756MPD2    C511171   2.658   3.682   9.681  0.0016 -0.2657  0.2520
  756MPD2     H11172   2.397   3.599   9.942 -0.3963 -0.9248  0.0851
  756MPD2    H111173   2.498   3.719   9.553 -0.0307  2.4885  0.7872
  756MPD2    H211174   2.805   3.602   9.808  0.7788 -0.2795  0.6911
  756MPD2    H311175   2.737   3.719   9.617 -1.6264  1.4167 -0.7822
  756MPD2     N11176   2.293   3.662   9.723  0.0530  0.3477 -0.4735
  756MPD2    H511177   2.226   3.624   9.789  0.6162 -1.8998 -1.2099
  756MPD2    N111178   2.654   3.565  10.026  0.4156 -0.3507  0.3374
  756MPD2    H711179   2.594   3.581  10.106  1.1647  1.0280  0.6333
  757MPD2     C11180   1.868   2.924   9.826  0.9708  0.6704 -0.0144
  757MPD2    C111181   1.994   2.969   9.792 -0.8870 -0.0394  0.5210
  757MPD2    C211182   2.009   3.105   9.774 -0.5235 -0.0251  0.1928
  757MPD2    C311183   1.903   3.190   9.781  0.2140  1.1115 -0.3713
  757MPD2    C411184   1.781   3.143   9.814 -0.1812  0.1488  0.1199
  757MPD2    C511185   1.762   3.008   9.841 -0.5583  0.2351 -0.9754
  757MPD2     H11186   2.105   3.149   9.749  0.5409 -2.8753 -0.7857
  757MPD2    H111187   1.697   3.210   9.823 -0.3461 -0.1396  0.7098
  757MPD2    H211188   1.860   2.818   9.846 -1.4518  0.7142 -0.6761
  757MPD2    H311189   1.666   2.963   9.865  0.4910 -1.1067  0.6858
  757MPD2     N11190   1.928   3.326   9.760  0.3236  0.9815  0.6919
  757MPD2    H511191   2.024   3.357   9.747 -0.0218  2.0556  0.6553
  757MPD2    N111192   2.103   2.876   9.782 -0.2344  0.0931 -0.0230
  757MPD2    H711193   2.081   2.780   9.808 -0.7857  0.1648 -0.2273
  758MPD2     C11194   3.319   2.575  15.597 -0.3687  0.2641 -0.0977
  758MPD2    C111195   3.397   2.489  15.672  0.6742 -0.0601 -0.2398
  758MPD2    C211196   3.391   2.492  15.810  0.0953  0.2856 -0.2659
  758MPD2    C311197   3.320   2.582  15.876 -0.5279 -1.0946  0.4414
  758MPD2    C411198   3.256   2.685  15.800 -0.0476 -1.0069 -0.7231
  758MPD2    C511199   3.246   2.672  15.667  0.1214  0.1029 -0.4639
  758MPD2     H11200   3.450   2.415  15.859  0.9523 -0.3240 -2.2385
  758MPD2    H111201   3.200   2.769  15.839 -2.2428 -1.7565 -2.3187
  758MPD2    H211202   3.325   2.566  15.490  1.9940  1.6944 -0.0831
  758MPD2    H311203   3.184   2.744  15.614 -0.7320  0.2558  0.7383
  758MPD2     N11204   3.316   2.594  16.019 -0.9892 -0.2233  0.0287
  758MPD2    H511205   3.247   2.657  16.058 -1.1960 -0.2087 -0.3545
  758MPD2    N111206   3.466   2.387  15.601 -0.2547  0.0709  0.2166
  758MPD2    H711207   3.445   2.369  15.503 -2.1912  1.0234  0.4557
  759MPD2     C11208   1.312   0.931  10.610  0.2607 -0.8181 -0.1505
  759MPD2    C111209   1.352   0.836  10.520  0.2858 -0.1201  0.1196
  759MPD2    C211210   1.473   0.859  10.454  0.6585 -0.3168  0.0079
  759MPD2    C311211   1.540   0.982  10.467 -0.4423 -0.2957  0.7189
  759MPD2    C411212   1.479   1.081  10.538 -0.1008 -0.1699 -0.8433
  759MPD2    C511213   1.371   1.057  10.612  0.3463 -0.5809  0.3473
  759MPD2     H11214   1.504   0.779  10.387 -1.3490  0.2462 -1.5879
  759MPD2    H111215   1.525   1.180  10.534  1.6458 -0.9138  0.8170
  759MPD2    H211216   1.232   0.908  10.680 -0.7670 -2.1392 -1.7615
  759MPD2    H311217   1.339   1.133  10.683 -1.0345 -1.1421  0.3284
  759MPD2     N11218   1.658   0.985  10.391 -0.1945  0.0767  0.0178
  759MPD2    H511219   1.682   0.898  10.345  2.0906  1.4264 -1.3008
  759MPD2    N111220   1.292   0.710  10.497  0.2205  0.0250 -0.3558
  759MPD2    H711221   1.342   0.644  10.438  3.2887  0.9136  1.2218
  760MPD2     C11222   1.192   2.867  11.911  0.2084 -0.1703  0.0887
  760MPD2    C111223   1.326   2.836  11.934 -0.1149  0.1154  1.0151
  760MPD2    C211224   1.362   2.696  11.923  0.4076 -0.5681 -1.4239
  760MPD2    C311225   1.270   2.599  11.882 -0.3442 -0.4381  1.0458
  760MPD2    C411226   1.139   2.637  11.854 -0.1881 -0.2104 -0.4212
  760MPD2    C511227   1.102   2.768  11.872 -0.2087 -0.3001  0.0748
  760MPD2     H11228   1.469   2.686  11.934  0.6145  2.0425 -1.0405
  760MPD2    H111229   1.070   2.562  11.819  0.7591 -0.7588 -1.1179
  760MPD2    H211230   1.144   2.964  11.923  0.2096 -0.1744  0.1258
  760MPD2    H311231   1.001   2.802  11.852 -0.7454 -1.3507  0.9700
  760MPD2     N11232   1.309   2.469  11.854  0.3197  0.1272 -0.4310
  760MPD2    H511233   1.237   2.404  11.825 -0.0731  1.1606 -1.7872
  760MPD2    N111234   1.416   2.945  11.955 -0.3304  0.5023 -0.2718
  760MPD2    H711235   1.513   2.917  11.954 -0.7348 -0.8547 -2.3057
  761MPD2     C11236   2.360   1.770  10.755 -0.4356 -0.0092  0.3063
  761MPD2    C111237   2.478   1.767  10.684 -0.5730 -0.5887 -0.4006
  761MPD2    C211238   2.575   1.861  10.694 -0.0901  0.0415  0.0321
  761MPD2    C311239   2.548   1.979  10.769  0.2257 -0.3905  0.1300
  761MPD2    C411240   2.435   1.978  10.842 -0.0883 -0.9701  0.2482
  761MPD2    C511241   2.344   1.882  10.828  0.4332  0.1502  0.3353
  761MPD2     H11242   2.675   1.845  10.656  1.2119  0.0879  3.4494
  761MPD2    H111243   2.409   2.066  10.901 -0.9542 -0.5145 -0.8190
  761MPD2    H211244   2.289   1.688  10.751 -0.4595  0.0366 -0.1499
  761MPD2    H311245   2.246   1.886  10.873  0.7924 -1.8081  1.2475
  761MPD2     N11246   2.640   2.083  10.790  0.0158 -0.3576 -0.6460
  761MPD2    H511247   2.612   2.154  10.857  0.4848  0.3267 -1.1756
  761MPD2    N111248   2.505   1.651  10.600 -0.1585  0.5074  0.1191
  761MPD2    H711249   2.449   1.569  10.621 -0.0916  0.7646  1.2784
  762MPD2     C11250   2.964   1.689   9.981  0.2486 -0.0636  0.5404
  762MPD2    C111251   2.966   1.557  10.023 -1.1133  0.5448  0.3460
  762MPD2    C211252   3.083   1.483  10.019  0.3768  0.2738  0.4326
  762MPD2    C311253   3.186   1.541   9.958 -0.3582  0.6406 -0.3371
  762MPD2    C411254   3.191   1.671   9.913 -0.2795  0.4424 -0.0059
  762MPD2    C511255   3.076   1.747   9.930  0.4869 -0.0623  0.1945
  762MPD2     H11256   3.089   1.380  10.053 -0.9843 -0.3355 -1.1725
  762MPD2    H111257   3.284   1.712   9.875  1.9220 -1.8161  2.9382
  762MPD2    H211258   2.879   1.755   9.995 -0.8698 -0.6612 -3.2932
  762MPD2    H311259   3.083   1.849   9.895  0.0287 -0.2244 -0.3722
  762MPD2     N11260   3.312   1.459   9.962 -0.4389  0.3039  0.2402
  762MPD2    H511261   3.308   1.374  10.018 -0.6600  0.3116  0.2379
  762MPD2    N111262   2.845   1.514  10.090 -0.3195 -0.1791  0.5452
  762MPD2    H711263   2.773   1.584  10.099 -0.3941 -0.1847 -0.0084
  763MPD2     C11264   4.656   2.466  16.353  0.0249 -0.5071 -0.0689
  763MPD2    C111265   0.015   2.529  16.260 -0.9251 -0.8717 -0.4073
  763MPD2    C211266   0.082   2.645  16.297 -0.3056  0.0657 -0.1262
  763MPD2    C311267   0.076   2.687  16.427  0.0498  0.4302  0.5135
  763MPD2    C411268   0.000   2.619  16.523 -0.2145 -0.4057  0.4610
  763MPD2    C511269   4.642   2.513  16.483  0.5131  0.4194 -0.1057
  763MPD2     H11270   0.141   2.699  16.224  1.7566  0.5610  1.9266
  763MPD2    H111271   4.716   2.649  16.627  0.7892 -0.2008  0.4482
  763MPD2    H211272   4.602   2.374  16.331 -0.7712 -0.6429  2.5212
  763MPD2    H311273   4.585   2.448  16.549  1.4593 -2.3901 -2.0657
  763MPD2     N11274   0.161   2.794  16.468  0.4020  0.7775  0.3466
  763MPD2    H511275   0.142   2.839  16.557 -1.8475  2.5635 -1.0276
  763MPD2    N111276   0.030   2.480  16.129  0.3077 -0.2469 -0.4629
  763MPD2    H711277   0.073   2.542  16.061  0.7364  0.5036  0.5006
  764MPD2     C11278   2.487   4.594  17.559  0.0178  0.2422 -0.3572
  764MPD2    C111279   2.531   4.488  17.487  0.5445  0.2968  0.0573
  764MPD2    C211280   2.478   4.360  17.513 -0.3619  0.4346 -0.2479
  764MPD2    C311281   2.384   4.342  17.611 -0.3924  0.2013 -0.0173
  764MPD2    C411282   2.336   4.454  17.679 -0.1503  0.3701 -0.2753
  764MPD2    C511283   2.386   4.578  17.647  0.8396  0.8975 -0.3191
  764MPD2     H11284   2.512   4.280  17.449  0.8687 -0.2785  1.2987
  764MPD2    H111285   2.253   4.459   0.062 -1.6527 -1.1971 -1.9658
  764MPD2    H211286   2.530   4.693  17.553 -0.1624  0.3629  0.3627
  764MPD2    H311287   2.350   4.667   0.011  3.6433  1.5782  0.4982
  764MPD2     N11288   2.336   4.213  17.635 -0.4178  0.0201  0.0593
  764MPD2    H511289   2.396   4.143  17.592  0.4064  2.5424 -2.9689
  764MPD2    N111290   2.613   4.504  17.380 -0.0781  0.7026 -0.4620
  764MPD2    H711291   2.647   4.419  17.334 -0.8541 -0.3468  0.9020
  765MPD2     C11292   2.540   1.538  16.216 -0.4316 -0.3165  0.0088
  765MPD2    C111293   2.604   1.648  16.163 -0.5457  0.1295  0.7128
  765MPD2    C211294   2.735   1.640  16.118 -0.6655 -0.4461 -0.3347
  765MPD2    C311295   2.805   1.525  16.113  0.6056 -0.9572 -0.0151
  765MPD2    C411296   2.731   1.413  16.155  0.9096  0.1812  0.5331
  765MPD2    C511297   2.604   1.418  16.199 -0.4373 -0.5503  0.3764
  765MPD2     H11298   2.777   1.728  16.070 -1.8921  0.5164  0.3598
  765MPD2    H111299   2.770   1.311  16.154 -0.3226 -0.2382 -3.6412
  765MPD2    H211300   2.444   1.544  16.264 -0.3717 -0.4943  0.1517
  765MPD2    H311301   2.555   1.330  16.239  2.5467 -1.5315  1.8798
  765MPD2     N11302   2.936   1.528  16.068  0.2887  0.4265  0.0294
  765MPD2    H511303   2.985   1.617  16.058 -1.6768  1.5899  0.6649
  765MPD2    N111304   2.526   1.765  16.158 -0.5324  0.4317 -0.3598
  765MPD2    H711305   2.427   1.752  16.173 -0.5042  0.8426  0.1690
  766MPD2     C11306   1.982   2.140  15.610  0.4383  0.2494  0.4260
  766MPD2    C111307   2.070   2.042  15.640  0.9324 -0.0018 -0.8020
  766MPD2    C211308   2.113   1.942  15.551  0.7194 -0.6512  0.7604
  766MPD2    C311309   2.083   1.956  15.418 -0.1483 -0.1345  0.0227
  766MPD2    C411310   1.999   2.062  15.386  0.0433  0.3242 -0.0808
  766MPD2    C511311   1.952   2.154  15.478 -0.3762 -0.3705 -0.7603
  766MPD2     H11312   2.174   1.856  15.579  0.5232 -1.2105 -0.5214
  766MPD2    H111313   1.972   2.085  15.284  0.0644 -0.5935 -0.2996
  766MPD2    H211314   1.950   2.222  15.673  1.0926  1.4884 -0.8793
  766MPD2    H311315   1.890   2.237  15.443  0.3781 -0.1670 -1.6363
  766MPD2     N11316   2.120   1.870  15.312  0.3522  0.4828  0.2150
  766MPD2    H511317   2.088   1.899  15.220  0.9912 -0.2899 -0.2531
  766MPD2    N111318   2.127   2.041  15.770 -0.0236 -0.6186  0.2088
  766MPD2    H711319   2.113   2.129  15.818 -2.2541 -0.4326 -0.7586
  767MPD2     C11320   1.596   2.156  15.208  0.1034 -0.5035  0.1287
  767MPD2    C111321   1.511   2.178  15.107  0.3724 -0.0381 -0.6299
  767MPD2    C211322   1.535   2.112  14.985  0.3341  0.0308  0.8032
  767MPD2    C311323   1.636   2.016  14.986 -0.2723 -0.3300  0.5548
  767MPD2    C411324   1.708   1.986  15.101 -0.1035  0.3240 -0.5353
  767MPD2    C511325   1.688   2.060  15.215  0.0793 -0.2183 -0.1514
  767MPD2     H11326   1.485   2.136  14.892  3.6747 -0.5545 -1.1563
  767MPD2    H111327   1.784   1.909  15.106 -0.4855  0.0293  0.6642
  767MPD2    H211328   1.591   2.222  15.294 -0.4910  0.0445 -0.3269
  767MPD2    H311329   1.744   2.038  15.306  1.7674 -1.5728 -1.5108
  767MPD2     N11330   1.669   1.950  14.866  0.1963 -0.3091 -0.7864
  767MPD2    H511331   1.605   1.940  14.788 -2.0130 -1.8674  1.2681
  767MPD2    N111332   1.413   2.279  15.135 -0.1841 -0.4869 -0.5517
  767MPD2    H711333   1.426   2.314  15.230 -0.1491  0.0358 -0.7537
  768MPD2     C11334   2.698   0.270  10.445  0.2256  0.7178 -0.2031
  768MPD2    C111335   2.680   0.195  10.560  0.5478 -0.2093 -0.5995
  768MPD2    C211336   2.774   0.203  10.661  0.5332 -0.3410  0.2799
  768MPD2    C311337   2.894   0.273  10.647 -0.3110  1.0441 -0.4825
  768MPD2    C411338   2.916   0.330  10.525  0.4620  0.3999  0.5490
  768MPD2    C511339   2.817   0.334  10.431 -0.0890  0.9431 -0.0063
  768MPD2     H11340   2.749   0.150  10.752 -0.2960  0.2498  0.3978
  768MPD2    H111341   3.008   0.384  10.506 -0.2218  1.4394  0.2475
  768MPD2    H211342   2.628   0.271  10.362  0.5721  0.7684 -0.4937
  768MPD2    H311343   2.839   0.390  10.341 -1.3255  2.6534  0.7429
  768MPD2     N11344   2.997   0.276  10.740  0.0812 -0.7945  0.2729
  768MPD2    H511345   3.073   0.341  10.723 -0.7048 -0.5255 -2.1873
  768MPD2    N111346   2.559   0.130  10.604 -0.4041 -0.3471  0.1377
  768MPD2    H711347   2.556   0.091  10.697  1.0646 -1.8740 -0.4489
  769MPD2     C11348   3.314   3.816  15.115 -0.0860 -0.4365  0.3847
  769MPD2    C111349   3.307   3.701  15.184 -0.0968 -0.1990 -0.0479
  769MPD2    C211350   3.415   3.681  15.266 -0.5959 -0.5076 -0.2732
  769MPD2    C311351   3.509   3.776  15.291  0.2130 -0.3382 -0.2521
  769MPD2    C411352   3.505   3.902  15.229 -0.8410  0.4024 -0.0633
  769MPD2    C511353   3.399   3.922  15.143 -0.4920 -0.5424  0.4175
  769MPD2     H11354   3.430   3.591  15.323 -0.5903  0.1282  0.7258
  769MPD2    H111355   3.583   3.973  15.252 -1.3318  1.3664 -1.3718
  769MPD2    H211356   3.226   3.849  15.060 -0.8313 -2.3137  0.4567
  769MPD2    H311357   3.382   4.012  15.085  0.2308 -0.4700  0.3216
  769MPD2     N11358   3.596   3.748  15.401  0.2829  0.7101  0.3439
  769MPD2    H511359   3.593   3.653  15.438  1.4976 -0.6044 -2.8922
  769MPD2    N111360   3.196   3.609  15.169 -0.2054 -0.6260 -0.1295
  769MPD2    H711361   3.125   3.640  15.104  0.3112 -1.3047 -1.0184
  770MPD2     C11362   2.959   2.587  15.362  0.5487  0.1020  0.1873
  770MPD2    C111363   2.829   2.634  15.373 -0.9762 -0.2328  0.4248
  770MPD2    C211364   2.804   2.768  15.351 -0.3157 -0.3534  0.8354
  770MPD2    C311365   2.909   2.862  15.324 -0.0659  0.2853 -0.4388
  770MPD2    C411366   3.040   2.811  15.326 -0.5632  0.1877  0.0957
  770MPD2    C511367   3.061   2.676  15.343 -0.5460  0.2079  0.3285
  770MPD2     H11368   2.701   2.801  15.359 -1.0287 -1.8603 -2.4493
  770MPD2    H111369   3.125   2.868  15.291  2.1531 -1.2731  4.3516
  770MPD2    H211370   2.981   2.483  15.384 -0.3587  0.1048  1.0965
  770MPD2    H311371   3.162   2.639  15.325 -2.1607 -1.8290 -4.7110
  770MPD2     N11372   2.869   2.998  15.307 -0.0145  0.1681 -0.5986
  770MPD2    H511373   2.771   3.019  15.289 -0.3317  0.0825  1.0283
  770MPD2    N111374   2.724   2.544  15.410 -0.1817 -0.4226  0.0895
  770MPD2    H711375   2.745   2.445  15.416  0.6710 -0.2642 -0.2894
  771MPD2     C11376   4.298   0.936  13.497 -0.0215  0.5150 -0.1375
  771MPD2    C111377   4.224   1.047  13.548  1.3426 -0.5694 -0.0296
  771MPD2    C211378   4.130   1.095  13.469  0.1564 -0.0372 -0.0252
  771MPD2    C311379   4.106   1.043  13.343  0.2840 -0.0166 -0.8914
  771MPD2    C411380   4.185   0.948  13.283 -0.3210  0.1901 -0.1483
  771MPD2    C511381   4.281   0.898  13.362 -0.0639  0.1757 -0.4032
  771MPD2     H11382   4.066   1.173  13.508  1.4103  0.7597  0.4607
  771MPD2    H111383   4.185   0.913  13.181  1.0088  0.5936 -0.2805
  771MPD2    H211384   4.379   0.892  13.554  0.9328  0.7203 -1.3321
  771MPD2    H311385   4.353   0.830  13.317 -1.8412 -1.5892 -0.5868
  771MPD2     N11386   3.992   1.102  13.280 -0.8058 -0.6501  0.2953
  771MPD2    H511387   3.948   1.180  13.328 -2.6832  0.0148 -2.5480
  771MPD2    N111388   4.247   1.105  13.678  0.0632  0.1029 -0.1936
  771MPD2    H711389   4.181   1.177  13.704  1.0917  1.7857 -2.2329
  772MPD2     C11390   3.908   1.515  14.174  0.2090 -0.2193  0.1092
  772MPD2    C111391   3.906   1.427  14.065 -0.0104 -0.1981  0.0899
  772MPD2    C211392   3.783   1.379  14.023 -0.2767  0.3741 -0.3940
  772MPD2    C311393   3.666   1.445  14.043 -0.9207  0.0855  0.4193
  772MPD2    C411394   3.674   1.544  14.132  0.1067  0.1290  0.4081
  772MPD2    C511395   3.788   1.560  14.215 -1.0048  0.0797  0.0530
  772MPD2     H11396   3.779   1.294  13.956 -2.8304  0.4697 -0.3295
  772MPD2    H111397   3.582   1.591  14.164  0.7191  0.2258  2.0228
  772MPD2    H211398   3.989   1.555  14.233  0.3489 -2.3455  1.3698
  772MPD2    H311399   3.781   1.636  14.292 -1.5032  0.2258 -0.1336
  772MPD2     N11400   3.540   1.425  13.982  0.5883 -0.2755 -0.1856
  772MPD2    H511401   3.461   1.477  14.020  1.0509  0.0781  0.2895
  772MPD2    N111402   4.023   1.369  14.022  0.0473  0.0286  0.5192
  772MPD2    H711403   4.009   1.281  13.973  1.9260 -0.7972  1.4539
  773MPD2     C11404   3.068   3.367   0.424  0.0158 -0.1069  0.4578
  773MPD2    C111405   2.999   3.292   0.326 -0.9599  0.5791 -0.0533
  773MPD2    C211406   3.053   3.168   0.298  0.3235 -0.3028  0.4986
  773MPD2    C311407   3.179   3.134   0.343  0.3438 -0.2704  0.1909
  773MPD2    C411408   3.239   3.208   0.441 -0.1862 -0.2883 -0.4833
  773MPD2    C511409   3.177   3.314   0.492  0.4830 -0.7560 -0.0806
  773MPD2     H11410   3.003   3.101   0.229 -0.8881  0.6688  0.4360
  773MPD2    H111411   3.332   3.186   0.494 -0.9575 -2.2029  0.0902
  773MPD2    H211412   3.029   3.460   0.463  1.6968  0.8486 -0.1472
  773MPD2    H311413   3.220   3.368   0.576 -1.7045 -0.0605  0.5840
  773MPD2     N11414   3.238   3.028   0.274  0.0458  0.5807  0.1014
  773MPD2    H511415   3.185   3.007   0.190  0.1685  1.6528 -0.2517
  773MPD2    N111416   2.894   3.330   0.241  0.0254 -0.1831  0.5407
  773MPD2    H711417   2.872   3.256   0.174  1.4636 -0.3807  0.3024
  774MPD2     C11418   2.807   1.544  13.465 -0.3687  0.2836  0.2194
  774MPD2    C111419   2.690   1.608  13.419  0.5041  0.3041  0.0800
  774MPD2    C211420   2.667   1.739  13.455  0.4291 -0.3348  0.3355
  774MPD2    C311421   2.761   1.811  13.529  0.3382 -0.4589  0.0968
  774MPD2    C411422   2.875   1.745  13.567  0.0195  0.0056 -0.3799
  774MPD2    C511423   2.892   1.614  13.537  0.0474 -0.0127 -0.0240
  774MPD2     H11424   2.567   1.778  13.439  1.1629  1.4086  0.0563
  774MPD2    H111425   2.958   1.787  13.623  1.0598  0.2368 -2.0814
  774MPD2    H211426   2.824   1.439  13.449 -2.6747 -0.2272  1.0578
  774MPD2    H311427   2.981   1.568  13.577 -0.1064 -2.0679 -2.0424
  774MPD2     N11428   2.737   1.949  13.545  0.0920 -0.3782 -0.5898
  774MPD2    H511429   2.654   1.988  13.503  0.6747 -0.4498 -1.8156
  774MPD2    N111430   2.587   1.526  13.365 -0.4083 -0.0894  0.1519
  774MPD2    H711431   2.615   1.430  13.345  1.2307  0.3571  0.2866
  775MPD2     C11432   4.134   3.501  15.900  0.1578 -0.7692  0.0732
  775MPD2    C111433   4.173   3.608  15.986 -0.6137 -0.5343  0.4848
  775MPD2    C211434   4.272   3.687  15.937  0.4744  0.5708  0.2830
  775MPD2    C311435   4.335   3.657  15.819 -1.0529  0.2082 -0.5048
  775MPD2    C411436   4.292   3.551  15.744  0.4781 -0.6198 -1.3042
  775MPD2    C511437   4.187   3.473  15.782 -0.0104 -0.0304 -0.1606
  775MPD2     H11438   4.302   3.781  15.980 -1.3256  1.9135 -1.3805
  775MPD2    H111439   4.331   3.524  15.646 -0.2876  0.7145 -1.9697
  775MPD2    H211440   4.051   3.432  15.914 -1.2388  0.9816  0.4847
  775MPD2    H311441   4.155   3.385  15.727  0.2963 -0.5060  0.4218
  775MPD2     N11442   4.435   3.736  15.761  0.5495  0.2867 -1.1330
  775MPD2    H511443   4.455   3.723  15.662  2.8076 -0.5099 -0.5884
  775MPD2    N111444   4.102   3.640  16.098 -0.0009 -0.0168 -0.0717
  775MPD2    H711445   4.019   3.584  16.110 -1.1812  0.7750 -4.5932
  776MPD2     C11446   2.799   3.542  11.375  0.0239  0.2343  0.9021
  776MPD2    C111447   2.913   3.464  11.374  0.1450  0.0319  0.3623
  776MPD2    C211448   3.023   3.515  11.304  0.8256 -0.2411  0.0882
  776MPD2    C311449   3.017   3.632  11.241 -0.4656 -0.0484  0.7112
  776MPD2    C411450   2.900   3.705  11.234  0.3013 -0.1144 -1.0432
  776MPD2    C511451   2.790   3.662  11.302  0.2593 -0.2989 -0.3543
  776MPD2     H11452   3.109   3.449  11.293  1.3309  0.6531 -1.3558
  776MPD2    H111453   2.892   3.797  11.177  0.0519 -1.0235 -2.4541
  776MPD2    H211454   2.714   3.515  11.436  0.6667 -2.0803  0.7493
  776MPD2    H311455   2.708   3.733  11.300  1.1287  0.6840 -0.8572
  776MPD2     N11456   3.134   3.691  11.191  0.5037 -0.2668 -0.0979
  776MPD2    H511457   3.115   3.779  11.142  0.2537 -0.7718 -0.9122
  776MPD2    N111458   2.895   3.332  11.416  0.1525 -0.0466  0.3294
  776MPD2    H711459   2.805   3.309  11.457 -0.4548  0.2986 -0.8100
  777MPD2     C11460   3.983   1.528   0.711 -0.2130 -0.0504 -0.2917
  777MPD2    C111461   3.870   1.507   0.784 -0.0462 -0.4600 -1.0394
  777MPD2    C211462   3.781   1.410   0.748 -0.3241 -0.3192 -0.6899
  777MPD2    C311463   3.800   1.325   0.640  0.1974  0.0627  0.1583
  777MPD2    C411464   3.915   1.340   0.573 -0.5909 -0.0153 -0.5498
  777MPD2    C511465   4.006   1.435   0.608  0.0412  0.7969 -0.2824
  777MPD2     H11466   3.689   1.388   0.800 -0.2118 -0.1970 -0.4405
  777MPD2    H111467   3.942   1.268   0.496  2.5989 -1.1428  1.5935
  777MPD2    H211468   4.062   1.595   0.743 -0.9314 -0.3853  2.1301
  777MPD2    H311469   4.103   1.436   0.562  0.7300  1.2548  1.1594
  777MPD2     N11470   3.689   1.240   0.609 -0.5750  0.5231  0.0159
  777MPD2    H511471   3.604   1.251   0.663  0.3871  0.2093  1.6004
  777MPD2    N111472   3.845   1.585   0.903 -0.0536 -0.1626  0.5941
  777MPD2    H711473   3.925   1.646   0.920  1.3931 -1.2762 -2.1781
  778MPD2     C11474   4.195   0.700  15.504  0.2843 -0.5025 -0.1153
  778MPD2    C111475   4.258   0.694  15.377  0.6890 -0.4667  0.4047
  778MPD2    C211476   4.343   0.799  15.346 -0.1390  0.4042 -0.4374
  778MPD2    C311477   4.369   0.905  15.434  0.2945 -0.6563  0.3287
  778MPD2    C411478   4.311   0.901  15.557 -0.1401 -0.4251 -0.4874
  778MPD2    C511479   4.220   0.803  15.592 -0.0282  0.6519  0.2178
  778MPD2     H11480   4.396   0.807  15.252  0.2347 -1.4083 -0.3826
  778MPD2    H111481   4.322   0.982  15.629 -1.5648 -0.8331  0.1882
  778MPD2    H211482   4.125   0.626  15.541 -1.4039  0.1136 -2.0428
  778MPD2    H311483   4.174   0.791  15.690 -1.7782  1.8275 -0.4794
  778MPD2     N11484   4.451   1.011  15.395  0.0516  0.1605  0.0075
  778MPD2    H511485   4.478   1.005  15.297 -1.4076  3.3921 -0.6093
  778MPD2    N111486   4.240   0.591  15.285 -0.1513 -0.6211 -0.4838
  778MPD2    H711487   4.306   0.600  15.209 -0.7976 -0.5776 -1.0442
  779MPD2     C11488   4.331   0.133  13.996 -0.1709  0.2073 -0.0479
  779MPD2    C111489   4.381   0.129  14.129 -0.1166  0.1835 -0.0238
  779MPD2    C211490   4.430   0.248  14.180 -0.5484  0.5104 -0.0837
  779MPD2    C311491   4.405   0.370  14.111 -0.4905  0.3996 -0.4045
  779MPD2    C411492   4.358   0.370  13.980 -0.7663  0.6139  0.0265
  779MPD2    C511493   4.309   0.252  13.935  0.2172 -0.2191 -0.0435
  779MPD2     H11494   4.477   0.246  14.277  2.1859 -1.2394 -1.4649
  779MPD2    H111495   4.367   0.456  13.914  1.2114  0.1513 -0.3139
  779MPD2    H211496   4.287   0.045  13.950 -0.7143  0.0297  0.8034
  779MPD2    H311497   4.249   0.252  13.845 -0.4569  0.1116  0.4058
  779MPD2     N11498   4.444   0.489  14.179 -0.1486  0.1005 -0.9813
  779MPD2    H511499   4.498   0.485  14.266  1.4045 -1.9715 -2.0339
  779MPD2    N111500   4.374   0.013  14.218 -1.1080 -0.3597  0.1653
  779MPD2    H711501   4.432   0.021  14.300 -1.5872 -1.6671  0.6295
  780MPD2     C11502   3.491   0.057   1.049  0.4169  0.6209  0.1660
  780MPD2    C111503   3.472   0.054   0.916  0.2000  0.5441  0.1780
  780MPD2    C211504   3.559   0.125   0.832 -0.4491  0.4285 -0.4402
  780MPD2    C311505   3.677   0.178   0.878  0.1799 -0.0678  0.3872
  780MPD2    C411506   3.698   0.170   1.009  0.0615  0.3109  0.1275
  780MPD2    C511507   3.604   0.111   1.097  0.4886 -0.3177 -0.1326
  780MPD2     H11508   3.551   0.134   0.724 -2.1739 -1.9956 -0.5253
  780MPD2    H111509   3.794   0.196   1.053 -0.3272  2.0484 -0.0314
  780MPD2    H211510   3.427   0.008   1.122  0.9808 -0.8191 -0.3006
  780MPD2    H311511   3.620   0.104   1.204 -2.4722 -0.7773  0.2771
  780MPD2     N11512   3.755   0.244   0.778  0.0367  0.1164  0.2537
  780MPD2    H511513   3.719   0.255   0.684  2.5835 -2.3289 -0.9876
  780MPD2    N111514   3.363   4.701   0.863  0.2688  0.5895 -0.5651
  780MPD2    H711515   3.311   4.644   0.928  1.6297 -1.1106 -0.9414
  781MPD2     C11516   0.572   1.695  11.776  0.0585 -0.7037  0.4093
  781MPD2    C111517   0.663   1.679  11.876 -0.3959 -0.2265 -0.2464
  781MPD2    C211518   0.795   1.640  11.847  0.0287  0.1336 -0.4037
  781MPD2    C311519   0.831   1.614  11.718 -0.2204 -0.3929 -0.1571
  781MPD2    C411520   0.742   1.627  11.620 -0.1181  0.1005 -0.2644
  781MPD2    C511521   0.616   1.677  11.645  0.5749  0.0103  0.0034
  781MPD2     H11522   0.868   1.620  11.925  2.1623  0.1009 -2.4072
  781MPD2    H111523   0.763   1.611  11.515 -2.1387 -1.7607 -0.3891
  781MPD2    H211524   0.469   1.724  11.793  1.3669  3.5664  0.9748
  781MPD2    H311525   0.556   1.697  11.557  1.1397  2.2380  0.1299
  781MPD2     N11526   0.965   1.587  11.679 -0.6193  0.1422 -0.2883
  781MPD2    H511527   0.990   1.568  11.582 -5.8477 -1.4764 -1.3157
  781MPD2    N111528   0.627   1.700  12.012 -0.1371  0.1603  0.1480
  781MPD2    H711529   0.697   1.686  12.085  0.9893  0.4922 -0.8575
  782MPD2     C11530   3.539   2.765  10.137  0.6184  0.5353  0.4417
  782MPD2    C111531   3.664   2.703  10.140  0.4336 -0.4869 -0.2268
  782MPD2    C211532   3.749   2.739  10.234  0.0317 -0.1986 -0.0497
  782MPD2    C311533   3.718   2.841  10.323 -0.5058 -0.1123  0.1401
  782MPD2    C411534   3.601   2.905  10.323 -0.3429  0.0650 -0.1564
  782MPD2    C511535   3.508   2.867  10.230 -0.0363  0.4050  0.3667
  782MPD2     H11536   3.841   2.682  10.234  1.0650  1.4901 -1.0199
  782MPD2    H111537   3.565   2.980  10.392  0.0254 -1.2904  1.5076
  782MPD2    H211538   3.463   2.732  10.066 -0.0783 -1.0283  1.9142
  782MPD2    H311539   3.406   2.902  10.236  0.3000  1.3069  0.7998
  782MPD2     N11540   3.807   2.866  10.425 -0.8007  0.2810 -0.1310
  782MPD2    H511541   3.900   2.826  10.425 -0.5222  0.9304 -0.6585
  782MPD2    N111542   3.694   2.581  10.064  0.6302 -0.5901 -0.2583
  782MPD2    H711543   3.784   2.537  10.081 -0.5847 -2.9191  0.1820
  783MPD2     C11544   3.114   1.923  10.363  0.4095  0.2917  0.8898
  783MPD2    C111545   3.160   2.047  10.404  0.0997 -1.0114 -0.5964
  783MPD2    C211546   3.267   2.101  10.330 -0.4615 -0.2356 -0.7554
  783MPD2    C311547   3.312   2.048  10.208 -0.2858 -0.8068 -0.1655
  783MPD2    C411548   3.249   1.930  10.165  0.1386 -0.3701 -0.1815
  783MPD2    C511549   3.150   1.872  10.239  0.0847  0.1647 -0.1883
  783MPD2     H11550   3.321   2.191  10.358  1.3521 -1.3492 -0.6558
  783MPD2    H111551   3.277   1.881  10.072 -2.6664 -0.6465 -0.8939
  783MPD2    H211552   3.037   1.872  10.419 -0.1009  1.2573  1.0638
  783MPD2    H311553   3.103   1.778  10.213 -0.9907  0.8717 -0.8256
  783MPD2     N11554   3.419   2.114  10.138 -0.0511  0.5254  0.0207
  783MPD2    H511555   3.471   2.191  10.180  0.4027  0.6208 -0.7015
  783MPD2    N111556   3.105   2.104  10.517  0.3483 -0.0208  0.1826
  783MPD2    H711557   3.028   2.050  10.557  2.5555 -1.9103  1.9380
  784MPD2     C11558   1.030   3.629   1.006  0.0522 -0.3482  0.2113
  784MPD2    C111559   0.969   3.667   1.126 -0.3066 -0.0451 -0.7318
  784MPD2    C211560   0.849   3.735   1.121 -0.2357 -0.6303  0.0077
  784MPD2    C311561   0.787   3.761   1.000  0.0703  0.9059 -0.1157
  784MPD2    C411562   0.856   3.731   0.884  0.6848 -0.1552 -0.4549
  784MPD2    C511563   0.970   3.655   0.891  0.0723  0.2311 -0.4811
  784MPD2     H11564   0.804   3.769   1.214  0.6503 -0.5976  0.4250
  784MPD2    H111565   0.825   3.767   0.786  0.3766  2.0048  0.4307
  784MPD2    H211566   1.128   3.583   0.997 -0.0418 -0.5104  0.0269
  784MPD2    H311567   1.027   3.634   0.801 -0.6490 -0.1703 -0.8425
  784MPD2     N11568   0.660   3.826   0.999 -0.6808  0.0855  0.1585
  784MPD2    H511569   0.611   3.815   1.087  0.2763 -0.8971  0.5786
  784MPD2    N111570   1.018   3.645   1.259  0.0456 -0.3317 -0.2147
  784MPD2    H711571   0.952   3.661   1.334  1.8963  0.2536  1.2865
  785MPD2     C11572   0.853   0.930   9.841  0.0377  0.6160  0.0291
  785MPD2    C111573   0.839   1.028   9.939  1.0310 -0.1428  0.5387
  785MPD2    C211574   0.753   1.133   9.913 -0.4364 -0.7491  0.0475
  785MPD2    C311575   0.689   1.142   9.795 -0.5920 -0.1138 -0.3236
  785MPD2    C411576   0.715   1.052   9.693  0.9171  0.7244  0.0387
  785MPD2    C511577   0.800   0.949   9.717 -0.0284 -0.3829  0.0077
  785MPD2     H11578   0.757   1.209   9.990  0.2630 -0.7842  0.0430
  785MPD2    H111579   0.685   1.070   9.590  1.9806 -0.5801 -0.4919
  785MPD2    H211580   0.908   0.838   9.856  0.4239  0.5866 -1.5978
  785MPD2    H311581   0.823   0.886   9.631  1.0853  0.7485 -0.5133
  785MPD2     N11582   0.595   1.244   9.772  0.3629  0.2136 -0.0138
  785MPD2    H511583   0.573   1.301   9.854 -0.0220  0.2536 -0.1441
  785MPD2    N111584   0.905   1.019  10.067 -0.0216 -0.7488 -0.5397
  785MPD2    H711585   0.902   1.100  10.128  0.0854 -0.6473 -0.6684
  786MPD2     C11586   4.499   4.138  14.627  0.4439 -0.0322  0.8999
  786MPD2    C111587   4.612   4.059  14.640 -0.6262 -0.7685  0.2893
  786MPD2    C211588   4.703   4.085  14.735  0.5056  0.2720  0.2289
  786MPD2    C311589   4.691   4.197  14.819  0.2207  0.5611 -0.0621
  786MPD2    C411590   4.577   4.281  14.805  0.4858 -0.2822 -0.6934
  786MPD2    C511591   4.485   4.247  14.709 -0.0057  0.3342  0.8041
  786MPD2     H11592   0.062   4.015  14.751 -0.3159 -0.3480  1.6547
  786MPD2    H111593   4.545   4.358  14.875  1.2388 -1.0278  0.4767
  786MPD2    H211594   4.423   4.110  14.555  0.7439 -1.4053  1.1285
  786MPD2    H311595   4.396   4.306  14.726 -0.8837 -0.6786 -0.3180
  786MPD2     N11596   0.063   4.233  14.921 -0.0748  0.4385 -0.3944
  786MPD2    H511597   0.028   4.304  14.985  0.5631  0.2337  0.1863
  786MPD2    N111598   4.631   3.944  14.558  0.4689 -0.1624 -0.3813
  786MPD2    H711599   4.720   3.896  14.568 -1.0333 -3.0942 -1.1899
  787MPD2     C11600   0.170   3.397  14.799  0.1844 -0.2097 -0.0032
  787MPD2    C111601   0.191   3.398  14.667 -0.4972 -0.1215 -0.1168
  787MPD2    C211602   0.298   3.330  14.614 -0.0682 -0.1232 -0.7224
  787MPD2    C311603   0.383   3.252  14.691  0.8290 -0.6553  0.3093
  787MPD2    C411604   0.351   3.253  14.826 -0.0302  0.1543 -0.2821
  787MPD2    C511605   0.244   3.324  14.881  0.4768 -0.7895 -0.6523
  787MPD2     H11606   0.316   3.340  14.508  1.9048  0.4180 -0.3339
  787MPD2    H111607   0.415   3.201  14.897 -0.3953  0.7043  0.4598
  787MPD2    H211608   0.085   3.450  14.843 -1.1650 -1.8077 -0.6851
  787MPD2    H311609   0.225   3.313  14.987  0.1247 -0.9433 -0.7320
  787MPD2     N11610   0.492   3.181  14.636 -0.2197  0.0631 -0.3677
  787MPD2    H511611   0.515   3.206  14.540  0.1639 -0.1428 -0.3283
  787MPD2    N111612   0.101   3.471  14.587 -0.4225  0.2598  0.1347
  787MPD2    H711613   0.024   3.514  14.638 -1.2328  0.8852 -1.6375
  788MPD2     C11614   2.836   1.698   0.652  0.3355  0.3218  0.7800
  788MPD2    C111615   2.703   1.712   0.625  0.8455 -0.6540 -0.1707
  788MPD2    C211616   2.667   1.799   0.522 -0.4995  0.5633 -0.1119
  788MPD2    C311617   2.765   1.869   0.454  0.1172  0.4421  0.4906
  788MPD2    C411618   2.900   1.836   0.470 -0.4872  0.0040  0.6706
  788MPD2    C511619   2.933   1.751   0.576 -0.4203  0.8404  0.4202
  788MPD2     H11620   2.562   1.816   0.503 -0.8655 -1.6621 -0.0771
  788MPD2    H111621   2.980   1.885   0.416 -1.5793  1.2719  0.2088
  788MPD2    H211622   2.862   1.636   0.737 -0.1399  0.0871  0.7581
  788MPD2    H311623   3.036   1.728   0.600  0.2325  1.5725 -1.6616
  788MPD2     N11624   2.726   1.967   0.360 -0.4766  0.3780  0.0399
  788MPD2    H511625   2.802   1.995   0.299 -0.4040 -2.3679 -1.1188
  788MPD2    N111626   2.615   1.640   0.702  0.0268 -0.5457 -0.2378
  788MPD2    H711627   2.639   1.563   0.765  0.7015 -0.7643 -0.7576
  789MPD2     C11628   2.657   2.537  16.199 -0.6908  0.0467 -0.1654
  789MPD2    C111629   2.617   2.427  16.270  0.1659 -0.0422  1.0309
  789MPD2    C211630   2.495   2.430  16.326  0.7206  0.1066 -0.5831
  789MPD2    C311631   2.406   2.537  16.299  0.3495 -0.1083  0.2343
  789MPD2    C411632   2.443   2.639  16.218 -0.3411 -0.2517 -0.5058
  789MPD2    C511633   2.574   2.644  16.174  0.2365 -1.3897 -1.2067
  789MPD2     H11634   2.476   2.354  16.401 -2.1682  0.8908 -0.5273
  789MPD2    H111635   2.384   2.729  16.203 -1.5585 -1.0180 -0.3810
  789MPD2    H211636   2.741   2.528  16.131  0.0198 -0.8775  0.8327
  789MPD2    H311637   2.603   2.720  16.102 -0.0073  0.5931  0.7898
  789MPD2     N11638   2.275   2.547  16.355  0.0668  0.0951  0.1264
  789MPD2    H511639   2.216   2.618  16.313 -0.1500 -0.1411  0.0326
  789MPD2    N111640   2.694   2.310  16.293 -0.1555  0.3448 -0.4172
  789MPD2    H711641   2.663   2.250  16.369  0.0576  0.2382 -0.4149
  790MPD2     C11642   3.163   3.878  13.660 -0.2435 -0.0053  0.1308
  790MPD2    C111643   3.164   3.740  13.671  0.3742  0.2366 -0.6597
  790MPD2    C211644   3.112   3.665  13.562 -0.3388 -0.8444  0.3670
  790MPD2    C311645   3.068   3.736  13.454 -0.1816  1.0581 -0.4124
  790MPD2    C411646   3.075   3.873  13.437  0.2410  0.2652 -0.2820
  790MPD2    C511647   3.127   3.942  13.544  0.2445 -0.0371 -0.5173
  790MPD2     H11648   3.096   3.558  13.570  0.4460 -0.9504  0.5367
  790MPD2    H111649   3.046   3.927  13.347 -1.9537  0.0015  0.2794
  790MPD2    H211650   3.187   3.950  13.737 -1.3678  1.6477 -1.0574
  790MPD2    H311651   3.117   4.050  13.536  1.8991  0.2025  0.6559
  790MPD2     N11652   3.021   3.645  13.349 -0.4242 -0.3376  0.2072
  790MPD2    H511653   3.018   3.545  13.369  0.8013  0.0252  2.1913
  790MPD2    N111654   3.215   3.683  13.791  0.1274  0.4540  0.1345
  790MPD2    H711655   3.212   3.737  13.876 -0.0264 -0.3159  0.6226
  791MPD2     C11656   2.450   3.428  12.992  0.8051  0.1720 -0.0166
  791MPD2    C111657   2.544   3.379  12.917 -0.3567 -0.4609  0.5936
  791MPD2    C211658   2.508   3.287  12.824 -0.1878 -0.2061 -0.1884
  791MPD2    C311659   2.371   3.264  12.796 -0.0255 -0.7451 -0.6338
  791MPD2    C411660   2.282   3.313  12.887  0.3554 -0.7816  0.1628
  791MPD2    C511661   2.322   3.396  12.989  0.7289  0.3862 -0.5711
  791MPD2     H11662   2.586   3.242  12.764 -1.2115 -0.9534 -0.9575
  791MPD2    H111663   2.175   3.297  12.880  0.6375 -1.6447 -2.0591
  791MPD2    H211664   2.469   3.512  13.058 -2.0109  1.7793 -1.2587
  791MPD2    H311665   2.252   3.435  13.062  0.5028 -0.2685 -0.4378
  791MPD2     N11666   2.327   3.173  12.696 -0.0095  0.0189 -0.1523
  791MPD2    H511667   2.386   3.097  12.664 -1.9957 -2.3968  2.0399
  791MPD2    N111668   2.681   3.433  12.938  0.8396  0.1519 -0.2174
  791MPD2    H711669   2.694   3.485  13.024 -0.3079 -2.7015  1.6708
  792MPD2     C11670   2.911   3.421  10.872 -0.2073  0.4596  0.0492
  792MPD2    C111671   3.026   3.343  10.882 -0.4572  0.4182  0.5641
  792MPD2    C211672   3.025   3.220  10.943  0.0947 -0.5483 -0.3672
  792MPD2    C311673   2.900   3.178  10.994 -0.0723  0.1207  0.4818
  792MPD2    C411674   2.789   3.256  10.984  0.1276  0.0544  0.5746
  792MPD2    C511675   2.792   3.379  10.931  0.2519  0.2162  0.1211
  792MPD2     H11676   3.112   3.158  10.958  1.2279  1.2814  0.5458
  792MPD2    H111677   2.696   3.223  11.030  1.1584 -0.2446  2.4284
  792MPD2    H211678   2.923   3.518  10.826  1.9971 -0.4486 -1.2891
  792MPD2    H311679   2.702   3.438  10.928  0.7582  1.0038  0.3361
  792MPD2     N11680   2.877   3.056  11.062  0.1449 -0.0027  0.7783
  792MPD2    H511681   2.779   3.043  11.083 -0.3718  1.0040 -1.0193
  792MPD2    N111682   3.143   3.402  10.837 -0.1242 -0.2712  0.6244
  792MPD2    H711683   3.134   3.495  10.799 -0.0774 -0.6590 -0.3190
  793MPD2     C11684   2.462   3.330  10.741 -0.2203 -1.1292 -0.1941
  793MPD2    C111685   2.563   3.257  10.680  0.0006 -0.1378  0.4133
  793MPD2    C211686   2.590   3.127  10.735  0.2070 -0.1100  0.2366
  793MPD2    C311687   2.523   3.073  10.845  0.3804  0.3639  0.5314
  793MPD2    C411688   2.428   3.155  10.903  0.0255  0.5876  0.3335
  793MPD2    C511689   2.399   3.278  10.850  0.0481  0.0642  0.5230
  793MPD2     H11690   2.673   3.065  10.702 -0.8244 -1.3235 -0.0705
  793MPD2    H111691   2.370   3.137  10.993 -0.0639 -1.7857 -0.1935
  793MPD2    H211692   2.436   3.433  10.721 -1.5835 -1.7301 -1.4823
  793MPD2    H311693   2.327   3.339  10.903  0.0920  0.0186  0.6330
  793MPD2     N11694   2.565   2.949  10.894  0.6317 -0.0488 -0.5428
  793MPD2    H511695   2.646   2.917  10.842  0.8560  1.6439 -1.2375
  793MPD2    N111696   2.635   3.307  10.568 -0.0860  0.0324 -0.3843
  793MPD2    H711697   2.713   3.250  10.536  1.0282  1.3625 -0.0944
  794MPD2     C11698   2.847   3.882  17.339 -0.2503 -0.1786  0.0228
  794MPD2    C111699   2.784   3.761  17.321 -0.3402 -0.0021 -0.1479
  794MPD2    C211700   2.753   3.719  17.190  0.0333 -0.3313 -0.4211
  794MPD2    C311701   2.788   3.794  17.075 -0.0474 -0.4126 -0.1419
  794MPD2    C411702   2.857   3.912  17.098 -0.3244  0.1164 -0.8339
  794MPD2    C511703   2.884   3.951  17.227  0.1547 -0.1328  0.3392
  794MPD2     H11704   2.688   3.634  17.176 -0.2091 -0.1517 -0.3930
  794MPD2    H111705   2.885   3.971  17.012 -2.7612  0.8685 -1.1085
  794MPD2    H211706   2.879   3.922  17.434  3.7430 -1.6034 -0.6945
  794MPD2    H311707   2.941   4.042  17.242  0.0463 -0.2207  1.3249
  794MPD2     N11708   2.750   3.760  16.945 -0.5386 -0.3069 -0.0673
  794MPD2    H511709   2.757   3.832  16.874  1.4475  0.2392  0.6717
  794MPD2    N111710   2.727   3.684  17.426  0.1341 -0.0052  0.0035
  794MPD2    H711711   2.695   3.591  17.402 -0.7639 -0.3361  2.4989
  795MPD2     C11712   0.109   0.620  13.540 -0.3741  0.6346  0.8017
  795MPD2    C111713   0.076   0.502  13.481 -0.4260 -0.1010  0.0337
  795MPD2    C211714   0.143   0.384  13.515 -0.5165 -0.0012  0.5561
  795MPD2    C311715   0.251   0.387  13.609  0.5233 -0.4590  0.0272
  795MPD2    C411716   0.283   0.510  13.672  0.1955 -0.8741  0.3973
  795MPD2    C511717   0.210   0.620  13.632 -0.3277  0.2804  0.1713
  795MPD2     H11718   0.111   0.292  13.468 -2.2443 -0.0490  1.8522
  795MPD2    H111719   0.367   0.523  13.739 -0.0687  1.0578  0.3703
  795MPD2    H211720   0.066   0.716  13.515 -0.8691  0.5716  1.4114
  795MPD2    H311721   0.244   0.711  13.679 -0.5973  1.0655 -1.1627
  795MPD2     N11722   0.325   0.267  13.619  0.2264 -0.1529 -0.1305
  795MPD2    H511723   0.310   0.190  13.554  0.6730 -1.1142  0.8910
  795MPD2    N111724   4.689   0.484  13.393 -0.8789 -0.9514  0.1126
  795MPD2    H711725   4.668   0.387  13.372 -3.9114  0.3043 -2.5566
  796MPD2     C11726   0.476   2.307  16.011 -0.0025 -0.0999 -0.0441
  796MPD2    C111727   0.528   2.399  16.105 -0.2020  1.0556 -0.5301
  796MPD2    C211728   0.494   2.530  16.095  0.2141  0.5338 -0.0335
  796MPD2    C311729   0.391   2.565  16.008  0.5669 -0.3831 -0.0055
  796MPD2    C411730   0.332   2.475  15.919  0.1652 -1.3133 -0.9090
  796MPD2    C511731   0.376   2.347  15.925 -0.2890 -0.6307  0.5293
  796MPD2     H11732   0.533   2.603  16.166  1.4887  0.2452 -0.4445
  796MPD2    H111733   0.247   2.501  15.858 -0.4506  0.9899  0.9418
  796MPD2    H211734   0.516   2.207  15.999 -1.6628 -0.8792  0.9964
  796MPD2    H311735   0.349   2.267  15.857 -0.7487 -0.6182  0.7001
  796MPD2     N11736   0.349   2.702  16.012 -0.2336  0.0722  0.4105
  796MPD2    H511737   0.417   2.765  16.054  0.9911 -0.2589 -1.0842
  796MPD2    N111738   0.633   2.348  16.185 -1.1572 -0.1535 -0.1543
  796MPD2    H711739   0.650   2.249  16.173  1.0978  0.1016  0.8391
  797MPD2     C11740   1.427   1.381  17.118 -0.7858 -0.1026 -0.1762
  797MPD2    C111741   1.446   1.461  17.230  0.0861 -0.6406 -0.1530
  797MPD2    C211742   1.334   1.516  17.287  0.2685  0.4846  0.0133
  797MPD2    C311743   1.210   1.511  17.232  0.0204 -0.1995  0.6549
  797MPD2    C411744   1.197   1.444  17.111  0.0491  0.0974  0.4771
  797MPD2    C511745   1.306   1.376  17.056 -0.3004  0.4518  0.1172
  797MPD2     H11746   1.346   1.564  17.384  0.1771 -0.1499  0.3425
  797MPD2    H111747   1.097   1.436  17.069 -0.9146 -1.9435  3.1361
  797MPD2    H211748   1.511   1.327  17.074 -0.4694 -0.8968  1.3823
  797MPD2    H311749   1.299   1.322  16.962 -0.2519  1.2653 -0.3535
  797MPD2     N11750   1.107   1.571  17.309 -0.3456  0.4016 -0.5715
  797MPD2    H511751   1.131   1.605  17.401  2.3010 -1.1963 -0.6777
  797MPD2    N111752   1.561   1.476  17.298  0.7475  0.3901  0.3337
  797MPD2    H711753   1.547   1.518  17.390  2.7327 -2.4370  1.9096
  798MPD2     C11754   1.337   2.074  17.685  0.3785 -0.2493 -0.3041
  798MPD2    C111755   1.300   1.949  17.653 -0.1228 -0.1623 -0.2900
  798MPD2    C211756   1.402   1.855  17.625 -0.3266 -0.6898  0.0054
  798MPD2    C311757   1.535   1.893  17.632 -0.5459 -0.2601  0.3469
  798MPD2    C411758   1.572   2.018  17.673 -0.1074 -0.4415 -0.1282
  798MPD2    C511759   1.469   2.109   0.018  0.9841  0.0038  0.2348
  798MPD2     H11760   1.379   1.755  17.590 -2.4370 -0.1331 -0.1967
  798MPD2    H111761   1.677   2.042  17.676 -0.0542 -0.4633 -1.6045
  798MPD2    H211762   1.261   2.152   0.005 -1.2036 -1.7611 -0.7221
  798MPD2    H311763   1.496   2.208   0.054  2.8532  0.2232 -1.7352
  798MPD2     N11764   1.623   1.795  17.596  0.5974 -0.2334 -0.4556
  798MPD2    H511765   1.587   1.711  17.553 -0.9111 -0.5777  1.4646
  798MPD2    N111766   1.171   1.921  17.624 -0.3262 -0.2197 -0.1151
  798MPD2    H711767   1.098   1.989  17.645  0.1439  0.6392 -1.2646
  799MPD2     C11768   4.647   3.107  14.796  0.3775  0.3405 -0.1598
  799MPD2    C111769   4.592   2.986  14.743  0.1995 -0.3516  0.6290
  799MPD2    C211770   4.510   2.995  14.637 -0.6144  0.1043 -0.6625
  799MPD2    C311771   4.482   3.124  14.580 -0.2906  0.5212  0.2582
  799MPD2    C411772   4.522   3.242  14.641 -0.4311 -0.0656  0.0944
  799MPD2    C511773   4.598   3.229  14.753  0.8078 -0.3804 -0.0823
  799MPD2     H11774   4.483   2.900  14.591 -0.6406 -0.4444  0.4933
  799MPD2    H111775   4.522   3.331  14.578  0.2835 -0.3498 -0.3094
  799MPD2    H211776   4.704   3.115  14.887  0.3392  0.9312 -0.1899
  799MPD2    H311777   4.633   3.316  14.807 -1.7967  1.5487 -1.5326
  799MPD2     N11778   4.417   3.136  14.455  0.0539 -0.1459 -0.1112
  799MPD2    H511779   4.422   3.229  14.415 -2.4738  0.0574  0.0833
  799MPD2    N111780   4.620   2.853  14.788  0.4642 -0.3705  0.7473
  799MPD2    H711781   4.570   2.778  14.742  1.9291  0.1515 -1.6569
  800MPD2     C11782   4.718   4.486  14.073  0.2346 -0.0344 -0.0504
  800MPD2    C111783   0.086   4.386  14.088  0.4986 -0.5670  0.6034
  800MPD2    C211784   0.060   4.272  14.004 -1.2089 -0.5360  0.1139
  800MPD2    C311785   4.669   4.262  13.926 -0.2254  0.3820 -1.0990
  800MPD2    C411786   4.582   4.370  13.923 -0.5471 -0.2251  0.3523
  800MPD2    C511787   4.614   4.482  13.987 -0.7904  0.1768  0.2122
  800MPD2     H11788   0.138   4.197  14.003  0.4254  1.1434 -0.1617
  800MPD2    H111789   4.500   4.370  13.853 -0.9887  0.7596  0.8736
  800MPD2    H211790   0.006   4.585  14.118 -0.8037  0.3798 -0.7622
  800MPD2    H311791   4.541   4.561  13.993 -2.3068 -1.1212 -0.8495
  800MPD2     N11792   4.657   4.149  13.849 -0.0133  0.1803 -0.2312
  800MPD2    H511793   0.007   4.079  13.868 -1.5416 -1.3667 -0.3172
  800MPD2    N111794   0.206   4.405  14.159  0.7763 -0.0515 -0.1455
  800MPD2    H711795   0.219   4.500  14.192 -1.4052  0.6713 -1.3224
  801MPD2     C11796   0.693   0.216  14.040  0.0653  0.2042  0.2109
  801MPD2    C111797   0.750   0.151  14.143 -0.0480 -0.1344 -1.2270
  801MPD2    C211798   0.843   0.213  14.216 -0.3147 -0.2375 -0.2110
  801MPD2    C311799   0.875   0.348  14.196 -0.8054 -0.0418  0.4052
  801MPD2    C411800   0.817   0.412  14.086  0.2611  0.0547 -0.1459
  801MPD2    C511801   0.727   0.348  14.006  0.3370  0.8507 -0.1642
  801MPD2     H11802   0.887   0.157  14.298 -1.3867 -1.8504 -0.7215
  801MPD2    H111803   0.838   0.514  14.058  0.1165  0.5704  1.6400
  801MPD2    H211804   0.612   0.174  13.982  0.2376 -0.3619  0.3764
  801MPD2    H311805   0.678   0.394  13.921  2.1162 -1.1078 -2.2771
  801MPD2     N11806   0.961   0.418  14.287 -0.0255 -0.2147  0.0925
  801MPD2    H511807   0.968   0.519  14.294  0.8423 -0.4219  2.3313
  801MPD2    N111808   0.710   0.021  14.178 -0.3539 -0.0551  0.0656
  801MPD2    H711809   0.755   4.698  14.258  1.5536  0.8856 -0.5123
  802MPD2     C11810   4.569   0.395  17.231 -0.2058  0.4128 -0.2322
  802MPD2    C111811   4.659   0.438  17.326  0.0313  0.1125 -0.4926
  802MPD2    C211812   0.063   0.376  17.323 -0.0807 -0.0089 -0.3618
  802MPD2    C311813   0.089   0.256  17.254  0.8326  0.2767 -0.1972
  802MPD2    C411814   4.718   0.219  17.160 -0.1586  0.0032 -0.0711
  802MPD2    C511815   4.601   0.288  17.146 -0.6337 -0.3742 -0.6229
  802MPD2     H11816   0.142   0.419  17.384 -0.7618  2.1210 -0.9934
  802MPD2    H111817   0.012   0.137  17.091 -0.7632 -1.6503  1.7879
  802MPD2    H211818   4.481   0.452  17.205 -1.2295 -1.4658 -0.8750
  802MPD2    H311819   4.531   0.260  17.068 -0.7779 -0.6528 -0.3960
  802MPD2     N11820   0.224   0.206  17.260 -0.5297 -0.1771  0.1072
  802MPD2    H511821   0.281   0.256  17.327 -0.6569  0.4701 -0.2649
  802MPD2    N111822   4.643   0.542  17.415  0.1507 -0.0075 -0.0023
  802MPD2    H711823   0.006   0.558  17.471 -0.1942 -1.2694  0.8805
  803MPD2     C11824   1.381   3.666  12.088  0.5481  0.0181 -0.5998
  803MPD2    C111825   1.425   3.599  12.199 -0.1657  0.2968 -0.0511
  803MPD2    C211826   1.384   3.469  12.221  0.4823 -0.5816 -0.0960
  803MPD2    C311827   1.286   3.411  12.142  0.3533 -0.0368  0.1541
  803MPD2    C411828   1.231   3.490  12.045  0.2252 -0.6948  0.7766
  803MPD2    C511829   1.280   3.611  12.019  0.3005 -0.7768  0.1853
  803MPD2     H11830   1.410   3.414  12.311 -0.4115 -1.5676 -0.4563
  803MPD2    H111831   1.155   3.464  11.972  2.1201 -1.5922 -0.8410
  803MPD2    H211832   1.401   3.771  12.071  1.9814  0.0511  1.2523
  803MPD2    H311833   1.213   3.671  11.958 -0.7276  0.7007  2.7721
  803MPD2     N11834   1.231   3.288  12.179 -0.2699 -0.1588  0.4366
  803MPD2    H511835   1.280   3.225  12.242  1.7176  1.0084  0.0601
  803MPD2    N111836   1.513   3.659  12.288 -0.5521 -0.0482  0.0742
  803MPD2    H711837   1.552   3.595  12.357 -1.3275 -1.9437 -1.2387
  804MPD2     C11838   1.271   0.384  16.933  0.1455  1.0579 -0.6833
  804MPD2    C111839   1.299   0.384  17.065  0.1403  0.1083 -0.7102
  804MPD2    C211840   1.399   0.462  17.126 -0.2658 -0.3024 -0.1073
  804MPD2    C311841   1.482   0.531  17.040  0.1673 -0.3290  0.2590
  804MPD2    C411842   1.465   0.517  16.906  0.2282 -0.0674 -0.3054
  804MPD2    C511843   1.361   0.443  16.852  0.0085 -0.4480  0.3740
  804MPD2     H11844   1.408   0.461  17.234 -0.8626 -0.7434 -0.0566
  804MPD2    H111845   1.532   0.565  16.835 -2.0965 -0.1223 -2.5646
  804MPD2    H211846   1.187   0.331  16.890  0.0629 -1.3768  2.4361
  804MPD2    H311847   1.354   0.444  16.744  0.7112 -1.6934  0.3202
  804MPD2     N11848   1.570   0.620  17.103 -0.0994  0.0894 -0.1387
  804MPD2    H511849   1.557   0.619  17.204  1.0059 -0.2082  0.0028
  804MPD2    N111850   1.224   0.303  17.156  0.5978 -0.6394 -0.4009
  804MPD2    H711851   1.250   0.311  17.254  2.6778 -0.5433 -0.9750
  805MPD2     C11852   4.679   3.496  15.691 -0.8224  0.0537 -0.1331
  805MPD2    C111853   0.036   3.536  15.590 -0.3169  1.0616  0.1266
  805MPD2    C211854   0.172   3.558  15.614  1.5462 -0.8834  0.3619
  805MPD2    C311855   0.229   3.538  15.737 -0.5407  0.4991  0.6063
  805MPD2    C411856   0.153   3.481  15.837  0.5375 -0.4373 -0.3177
  805MPD2    C511857   0.017   3.466  15.814  0.6467  0.3076  0.7196
  805MPD2     H11858   0.232   3.607  15.538 -0.8501  0.4060 -0.6977
  805MPD2    H111859   0.185   3.448  15.935 -3.2182  0.4757  1.2227
  805MPD2    H211860   4.573   3.473  15.682 -0.6108 -0.1699 -1.9951
  805MPD2    H311861   4.681   3.440  15.902  0.1686 -0.2264  0.2493
  805MPD2     N11862   0.364   3.574  15.753 -0.0143 -1.1852  0.7533
  805MPD2    H511863   0.408   3.622  15.676  2.0512 -3.2596  0.6353
  805MPD2    N111864   4.710   3.551  15.459 -0.1862 -0.3566 -0.2713
  805MPD2    H711865   0.055   3.552  15.382 -1.0646  1.1843 -1.0072
  806MPD2     C11866   1.322   3.253   0.505  0.0812 -0.2311 -0.1595
  806MPD2    C111867   1.326   3.345   0.606  0.3034 -0.1865 -0.4113
  806MPD2    C211868   1.252   3.462   0.582 -0.6438  0.2732 -0.2375
  806MPD2    C311869   1.180   3.489   0.463  0.2132  0.1822  0.0689
  806MPD2    C411870   1.175   3.389   0.374  0.4938  0.4735 -0.7094
  806MPD2    C511871   1.247   3.277   0.391 -0.2796  0.3761  0.5535
  806MPD2     H11872   1.243   3.532   0.664 -0.1827 -1.2764  1.1508
  806MPD2    H111873   1.113   3.388   0.285  0.0129  1.1690 -0.3878
  806MPD2    H211874   1.378   3.161   0.519  1.8458  0.7840 -0.5876
  806MPD2    H311875   1.239   3.207   0.308  2.5503 -0.2178  0.7549
  806MPD2     N11876   1.112   3.610   0.447  0.0701 -0.2610 -0.1989
  806MPD2    H511877   1.142   3.690   0.502  2.2720  0.4926 -2.4691
  806MPD2    N111878   1.395   3.311   0.727 -0.3897 -0.4680  0.2559
  806MPD2    H711879   1.451   3.226   0.729  1.0044  0.4679  0.6182
  807MPD2     C11880   1.262   3.138   1.493 -0.2347 -0.7981  0.2188
  807MPD2    C111881   1.215   3.231   1.399  1.0757  0.1560  0.2248
  807MPD2    C211882   1.082   3.261   1.399 -0.2700 -1.0301 -0.2586
  807MPD2    C311883   1.000   3.206   1.494 -0.6491 -0.4853 -0.0132
  807MPD2    C411884   1.050   3.108   1.579  0.7711  0.2265 -0.1702
  807MPD2    C511885   1.179   3.072   1.579 -0.0715 -0.4288  0.0184
  807MPD2     H11886   1.053   3.341   1.332 -1.6423 -0.2303  1.3017
  807MPD2    H111887   0.985   3.065   1.656 -2.3300 -0.2962 -3.0793
  807MPD2    H211888   1.363   3.098   1.496  0.7271  1.6652  0.7324
  807MPD2    H311889   1.216   2.993   1.642 -2.7484 -0.3840  1.6506
  807MPD2     N11890   0.863   3.233   1.508  0.7083  0.0200 -0.1335
  807MPD2    H511891   0.809   3.187   1.581  2.5783  0.2729  1.4193
  807MPD2    N111892   1.302   3.300   1.309  0.3835  0.0683  0.1687
  807MPD2    H711893   1.271   3.379   1.254  3.6243 -0.5043 -2.4890
  808MPD2     C11894   0.479   4.111   9.370 -0.4909 -0.0862 -0.3120
  808MPD2    C111895   0.508   4.124   9.504 -0.0220  0.0180 -0.8300
  808MPD2    C211896   0.543   4.243   9.552 -0.2686  0.6015 -0.4878
  808MPD2    C311897   0.544   4.357   9.473  0.3667  0.1696 -0.3413
  808MPD2    C411898   0.502   4.349   9.341  0.5732  0.7272  0.2957
  808MPD2    C511899   0.474   4.220   9.295  0.6911 -0.2101 -0.3841
  808MPD2     H11900   0.576   4.238   9.655  0.5750 -2.7069 -0.9319
  808MPD2    H111901   0.480   4.435   9.279 -0.8980  1.3622  1.7139
  808MPD2    H211902   0.472   4.015   9.320  0.5252 -0.5372  0.3975
  808MPD2    H311903   0.450   4.204   9.191  2.3035 -1.0180 -0.6185
  808MPD2     N11904   0.592   4.481   9.522 -0.1615 -0.2088  0.4370
  808MPD2    H511905   0.603   4.559   9.458 -0.7344 -1.4635 -1.1763
  808MPD2    N111906   0.530   4.007   9.585  0.7384 -0.0028 -0.0602
  808MPD2    H711907   0.578   4.022   9.673 -0.7512  2.1565  0.4047
  809MPD2     C11908   1.305   4.678   9.111  0.0596  0.5510 -0.2146
  809MPD2    C111909   1.326   4.702   9.244  0.6579 -0.0903 -0.2699
  809MPD2    C211910   1.214   0.005   9.324 -0.2193 -0.0827  0.0874
  809MPD2    C311911   1.087   0.001   9.269  0.1510  0.5193 -0.7904
  809MPD2    C411912   1.074   4.681   9.140  0.0258 -0.0789 -0.2959
  809MPD2    C511913   1.183   4.663   9.062 -0.3176 -0.8070  0.3485
  809MPD2     H11914   1.230   0.030   9.428  0.5579  0.4536 -0.1590
  809MPD2    H111915   0.977   4.682   9.091  0.0956 -0.7533 -0.4518
  809MPD2    H211916   1.387   4.653   9.044  0.5302  1.1238  0.1390
  809MPD2    H311917   1.160   4.639   8.959 -0.8932  0.2317  0.2287
  809MPD2     N11918   0.971   0.018   9.353  0.1002 -0.0086  0.4507
  809MPD2    H511919   0.886   4.710   9.306 -0.8174  0.5429  1.7706
  809MPD2    N111920   1.453   4.686   9.306  0.3162  0.0454 -0.3245
  809MPD2    H711921   1.450   4.684   9.407  2.1563 -1.8354 -0.3152
  810MPD2     C11922   0.410   3.599  10.049 -0.2111 -0.6509  0.7565
  810MPD2    C111923   0.383   3.472  10.092  0.5886  0.7069  1.2726
  810MPD2    C211924   0.478   3.381  10.135 -0.0225 -0.9763 -0.0388
  810MPD2    C311925   0.610   3.414  10.122  0.3000 -0.3537 -0.7002
  810MPD2    C411926   0.640   3.544  10.083 -0.0308  0.6228  0.7577
  810MPD2    C511927   0.542   3.638  10.050  0.0646  0.2269 -0.0310
  810MPD2     H11928   0.449   3.288  10.181 -2.6216 -1.4518 -2.6545
  810MPD2    H111929   0.741   3.583  10.076  0.4022 -0.6092  0.0570
  810MPD2    H211930   0.339   3.662   9.996 -0.4200  0.2673  2.1429
  810MPD2    H311931   0.576   3.734  10.013  0.9257  0.3281  1.0106
  810MPD2     N11932   0.720   3.334  10.169  0.4594 -0.9606 -0.2049
  810MPD2    H511933   0.808   3.384  10.176 -1.5270  2.4348  0.6464
  810MPD2    N111934   0.244   3.446  10.084  0.4861  0.2781  0.8214
  810MPD2    H711935   0.185   3.526  10.063  1.8950  0.8657 -0.9539
  811MPD2     C11936   4.104   3.490   9.956  0.4627 -0.8819  0.3516
  811MPD2    C111937   4.238   3.530   9.936  0.3652 -0.2810  0.4665
  811MPD2    C211938   4.251   3.664   9.884  0.8077  0.5990 -0.8690
  811MPD2    C311939   4.148   3.748   9.844  0.2492 -0.0086 -0.7482
  811MPD2    C411940   4.016   3.698   9.864 -0.7901 -0.1118  0.9405
  811MPD2    C511941   4.000   3.574   9.920  0.4376  0.3086 -0.7808
  811MPD2     H11942   4.350   3.707   9.875  0.8317  0.3966 -1.5174
  811MPD2    H111943   3.930   3.761   9.850 -0.8429  0.0988  2.2402
  811MPD2    H211944   4.080   3.396  10.004  0.0085 -1.1747 -0.4657
  811MPD2    H311945   3.903   3.535   9.951  0.6334  0.4850  0.0661
  811MPD2     N11946   4.163   3.879   9.788 -0.0164  0.0627  0.2958
  811MPD2    H511947   4.256   3.920   9.790  0.0971 -0.0519 -2.5246
  811MPD2    N111948   4.343   3.438   9.990 -0.4729 -0.5757 -1.0762
  811MPD2    H711949   4.314   3.342  10.003 -2.5315  0.3236  1.0610
  812MPD2     C11950   3.365   3.279  12.084  0.2490  0.2971  0.0613
  812MPD2    C111951   3.477   3.353  12.115  0.8653  0.3282  0.7477
  812MPD2    C211952   3.569   3.298  12.205 -0.2087 -0.4427 -0.0505
  812MPD2    C311953   3.549   3.172  12.262  0.5640  0.2485 -0.0783
  812MPD2    C411954   3.429   3.110  12.237 -0.2741 -0.3698 -0.0233
  812MPD2    C511955   3.342   3.158  12.146 -0.2017  0.3045  0.0120
  812MPD2     H11956   3.658   3.346  12.244 -1.0684  1.1137 -0.0258
  812MPD2    H111957   3.414   3.012  12.280  1.3126 -0.7319 -0.2686
  812MPD2    H211958   3.304   3.322  12.004  3.0356  1.1499 -1.5885
  812MPD2    H311959   3.252   3.101  12.126  0.7714 -0.9488 -0.8055
  812MPD2     N11960   3.646   3.130  12.352 -0.0758  0.4882  0.1410
  812MPD2    H511961   3.714   3.203  12.370  0.1714  0.9826 -2.8414
  812MPD2    N111962   3.492   3.477  12.053  0.4936  0.1848  0.6200
  812MPD2    H711963   3.425   3.506  11.982  0.8792  2.6407  1.2418
  813MPD2     C11964   3.068   0.302  12.892 -0.5447  0.6544  0.8347
  813MPD2    C111965   3.004   0.413  12.942  0.0086  0.3118  0.1999
  813MPD2    C211966   2.869   0.420  12.948 -0.0321 -0.5379 -1.0099
  813MPD2    C311967   2.796   0.309  12.909 -0.1436 -0.0073  0.3047
  813MPD2    C411968   2.855   0.200  12.844 -0.1076  0.7759  0.0501
  813MPD2    C511969   2.992   0.197  12.838 -0.3026  0.0013 -0.0797
  813MPD2     H11970   2.833   0.505  13.005  2.3765 -0.3522  0.2323
  813MPD2    H111971   2.807   0.110  12.806 -1.6718  1.3593  0.6385
  813MPD2    H211972   3.176   0.296  12.895 -0.4088  1.4591 -2.6345
  813MPD2    H311973   3.036   0.105  12.801 -0.6954  0.9302 -2.8800
  813MPD2     N11974   2.658   0.317  12.922  0.5125  0.1269 -0.2555
  813MPD2    H511975   2.615   0.409  12.929 -0.4311 -0.3524  0.2091
  813MPD2    N111976   3.096   0.506  12.998 -0.2099 -0.1871 -0.1678
  813MPD2    H711977   3.191   0.470  12.999 -0.6917 -1.5681 -2.5531
  814MPD2     C11978   3.273   1.388  11.956  0.4303 -0.0794  0.3440
  814MPD2    C111979   3.305   1.506  11.887 -0.0092 -0.5488  0.5483
  814MPD2    C211980   3.389   1.593  11.945 -0.0884 -0.0722 -0.0121
  814MPD2    C311981   3.427   1.576  12.077  0.0863  0.1327  0.2040
  814MPD2    C411982   3.386   1.462  12.143  0.1166 -0.0896 -0.2224
  814MPD2    C511983   3.320   1.364  12.074  0.1809  0.1055 -0.0968
  814MPD2     H11984   3.416   1.687  11.897  0.0805  0.1187  0.4507
  814MPD2    H111985   3.412   1.442  12.246  0.3198 -0.2095 -0.2966
  814MPD2    H211986   3.214   1.305  11.917  0.4460  0.5947 -1.1397
  814MPD2    H311987   3.275   1.278  12.122  1.7698 -0.2003  0.8561
  814MPD2     N11988   3.500   1.676  12.153 -0.0617 -0.7077  0.5632
  814MPD2    H511989   3.514   1.653  12.250  1.0466 -1.8278  0.1362
  814MPD2    N111990   3.262   1.529  11.751 -0.3038  0.4750  0.0990
  814MPD2    H711991   3.301   1.612  11.708  0.8888  0.3304  0.8991
  815MPD2     C11992   3.829   0.250  11.638  0.0264  0.1581 -0.1743
  815MPD2    C111993   3.831   0.111  11.646 -0.4218 -0.7109  1.2708
  815MPD2    C211994   3.759   0.049  11.747 -0.1652  0.0460 -0.2457
  815MPD2    C311995   3.680   0.122  11.836 -0.2193 -0.3886  0.3266
  815MPD2    C411996   3.685   0.259  11.823 -0.2309 -0.0694 -0.3772
  815MPD2    C511997   3.764   0.328  11.732 -0.3661  0.6205 -0.3276
  815MPD2     H11998   3.757   4.662  11.761  0.3671  0.0709  0.0288
  815MPD2    H111999   3.626   0.324  11.887  0.3811  0.0298  0.0934
  815MPD2    H212000   3.884   0.301  11.560  0.4532 -0.2010 -0.1049
  815MPD2    H312001   3.762   0.436  11.733  2.0216  0.6474 -0.4834
  815MPD2     N12002   3.597   0.060  11.935  0.0696  0.4767 -0.0514
  815MPD2    H512003   3.589   4.680  11.933  0.7739  0.4609 -2.1074
  815MPD2    N112004   3.895   0.041  11.542 -0.5906  0.5187  0.0768
  815MPD2    H712005   3.937   0.093  11.465  1.6445  0.1189  1.0331
  816MPD2     C12006   4.691   0.191  17.600 -0.0195 -0.0430  0.3272
  816MPD2    C112007   4.583   0.115  17.551  0.1901 -0.3815  0.3819
  816MPD2    C212008   4.610   0.003  17.484 -0.2945  0.3274  0.5976
  816MPD2    C312009   0.014   4.673  17.460 -0.2832 -0.3506 -0.3166
  816MPD2    C412010   0.120   0.019  17.517 -0.1318 -1.0574 -0.2755
  816MPD2    C512011   0.099   0.142  17.582  0.1796 -0.3763  0.6356
  816MPD2     H12012   4.526   4.670  17.441  0.1020 -0.1803  0.4567
  816MPD2    H112013   0.221   4.701  17.508  0.8225  1.5986 -1.0865
  816MPD2    H212014   4.672   0.285  17.651 -0.1565  0.4133 -0.5652
  816MPD2    H312015   0.191   0.191  17.611 -0.0426  0.2870  0.2209
  816MPD2     N12016   0.022   4.556  17.375 -0.1563  0.1466  0.1704
  816MPD2    H512017   4.659   4.512  17.339 -0.8962  0.7961  1.0731
  816MPD2    N112018   4.455   0.172  17.542  0.4263 -0.0343  0.0840
  816MPD2    H712019   4.380   0.121  17.496  0.1221  0.9152 -0.4628
  817MPD2     C12020   3.295   1.154   9.134  0.2393 -0.0850 -0.1406
  817MPD2    C112021   3.421   1.103   9.170  0.0483  0.2210  0.0477
  817MPD2    C212022   3.517   1.174   9.242 -0.2875  0.7146  0.2975
  817MPD2    C312023   3.498   1.308   9.262 -0.9471 -0.4629 -0.0450
  817MPD2    C412024   3.378   1.364   9.230  0.3653 -0.3136  0.5355
  817MPD2    C512025   3.271   1.282   9.179 -0.1263  0.1035  1.3819
  817MPD2     H12026   3.601   1.128   9.293 -1.5836  0.3987  2.1282
  817MPD2    H112027   3.355   1.470   9.237  2.1496  0.0563  0.8043
  817MPD2    H212028   3.212   1.108   9.082  0.2464  0.3233 -0.5079
  817MPD2    H312029   3.179   1.328   9.145 -0.1077  0.3637  1.6795
  817MPD2     N12030   3.593   1.368   9.342 -0.1063  0.5198 -0.3670
  817MPD2    H512031   3.670   1.303   9.353 -1.0464 -0.8636 -1.9411
  817MPD2    N112032   3.458   0.973   9.149 -0.0451 -0.2979 -0.0426
  817MPD2    H712033   3.555   0.947   9.166 -0.8298 -1.4496  2.6451
  818MPD2     C12034   2.482   0.811   9.831 -0.4334  0.0249  0.0851
  818MPD2    C112035   2.441   0.761   9.953  0.5583  0.5346  0.7990
  818MPD2    C212036   2.437   0.622   9.969  0.3652 -0.2030  0.9436
  818MPD2    C312037   2.505   0.541   9.879 -0.8478 -0.7771  0.7136
  818MPD2    C412038   2.551   0.595   9.764 -0.2982 -0.9043 -0.4177
  818MPD2    C512039   2.533   0.733   9.734 -0.7860 -0.0501 -0.3604
  818MPD2     H12040   2.382   0.576  10.050  0.5609 -1.3863  0.4025
  818MPD2    H112041   2.604   0.535   9.690 -0.6698 -1.3096 -0.3524
  818MPD2    H212042   2.465   0.916   9.809  1.8767  0.3825  0.0128
  818MPD2    H312043   2.566   0.756   9.633  0.6381  1.0410  0.3516
  818MPD2     N12044   2.543   0.406   9.903 -0.1455 -0.1211 -0.0792
  818MPD2    H512045   2.581   0.349   9.829 -1.1329 -0.5582 -0.2487
  818MPD2    N112046   2.389   0.841  10.057  0.4410  0.2363 -0.0566
  818MPD2    H712047   2.339   0.782  10.124 -1.5310  3.0371  0.9467
  819MPD2     C12048   0.598   3.139  15.682  0.5785 -0.6278 -0.0586
  819MPD2    C112049   0.634   3.004  15.696  0.5589 -0.8064  0.0398
  819MPD2    C212050   0.754   2.975  15.764  0.9501 -0.1944  0.3385
  819MPD2    C312051   0.850   3.064  15.798 -0.3744 -0.5516  0.1060
  819MPD2    C412052   0.819   3.197  15.785 -0.7247 -0.4131  0.4217
  819MPD2    C512053   0.689   3.226  15.733  0.2087  0.4913  0.5933
  819MPD2     H12054   0.786   2.873  15.779  0.3750 -0.4819 -0.3797
  819MPD2    H112055   0.880   3.280  15.818  0.5680 -0.3753 -2.0029
  819MPD2    H212056   0.509   3.175  15.632  0.2851 -1.4257 -0.1112
  819MPD2    H312057   0.678   3.334  15.725  2.1324  0.5170 -1.4562
  819MPD2     N12058   0.976   3.018  15.838 -0.4249  0.5965  0.5535
  819MPD2    H512059   0.989   2.918  15.832  0.2143  0.8440 -1.9894
  819MPD2    N112060   0.533   2.912  15.657 -0.1630 -0.2812 -0.2640
  819MPD2    H712061   0.448   2.952  15.618 -0.6758  0.9372  2.1228
  820MPD2     C12062   4.437   2.906  15.166  0.0806 -0.2403 -0.2229
  820MPD2    C112063   4.545   2.989  15.197  0.3230  0.9363  1.1718
  820MPD2    C212064   4.653   2.943  15.279 -0.8928  0.5490 -0.1022
  820MPD2    C312065   4.659   2.813  15.303 -0.4899  0.3896 -0.2220
  820MPD2    C412066   4.564   2.728  15.255 -0.1545 -0.4789 -0.2349
  820MPD2    C512067   4.452   2.774  15.193  0.2407 -0.5677  0.6754
  820MPD2     H12068   0.006   3.014  15.314 -1.8638  0.9087  1.2022
  820MPD2    H112069   4.560   2.625  15.288  0.1341 -0.0532  1.1446
  820MPD2    H212070   4.355   2.947  15.107  0.2198 -2.6882 -2.1119
  820MPD2    H312071   4.366   2.709  15.179 -1.1777  1.3601  0.5886
  820MPD2     N12072   0.035   2.757  15.384  0.0963  0.1662 -0.5358
  820MPD2    H512073   0.037   2.656  15.383 -0.6158  0.1229  1.5837
  820MPD2    N112074   4.531   3.122  15.162 -0.3473 -0.2708 -0.4332
  820MPD2    H712075   4.440   3.148  15.124 -1.0028 -0.7921  0.7808
  821MPD2     C12076   0.010   4.287  13.058  0.2456 -0.4897  0.5165
  821MPD2    C112077   0.094   4.205  13.132 -0.3020 -0.1808  0.4718
  821MPD2    C212078   0.227   4.199  13.104 -0.3032 -0.8681 -0.2354
  821MPD2    C312079   0.274   4.295  13.014  0.3580  0.7356  0.1883
  821MPD2    C412080   0.190   4.366  12.936 -0.3957 -0.5397  0.0595
  821MPD2    C512081   0.057   4.362  12.957 -0.8924 -0.0480 -0.0681
  821MPD2     H12082   0.293   4.142  13.169  1.7167  0.1926 -1.3371
  821MPD2    H112083   0.222   4.427  12.852 -1.7247  3.1438  2.2405
  821MPD2    H212084   4.629   4.306  13.090 -0.1887 -2.3303  0.2128
  821MPD2    H312085   4.712   4.424  12.898 -1.3464  0.3390  0.8506
  821MPD2     N12086   0.414   4.324  13.002  0.2300  0.1654 -0.1104
  821MPD2    H512087   0.439   4.397  12.935  0.7992 -0.2185 -0.3254
  821MPD2    N112088   0.060   4.126  13.242  0.6135 -0.9583 -0.3753
  821MPD2    H712089   0.131   4.065  13.282  1.6634 -0.7923 -1.9740
  822MPD2     C12090   1.794   4.335  15.798  0.3478 -0.5967 -0.1959
  822MPD2    C112091   1.771   4.304  15.936  0.2162  0.5636 -0.1255
  822MPD2    C212092   1.735   4.410  16.015 -0.8326  0.4334 -0.4543
  822MPD2    C312093   1.706   4.537  15.973 -0.5346 -0.7995 -0.0584
  822MPD2    C412094   1.713   4.571  15.840  0.9506  0.5167 -0.3949
  822MPD2    C512095   1.762   4.465  15.757  0.5274 -0.0502 -0.1252
  822MPD2     H12096   1.725   4.392  16.121  1.4227  0.9466 -0.1754
  822MPD2    H112097   1.700   4.667  15.791 -1.9371 -0.2505 -1.0853
  822MPD2    H212098   1.827   4.269  15.719  1.6833 -0.8509  0.5677
  822MPD2    H312099   1.759   4.484  15.651 -0.9126  0.3485 -0.0131
  822MPD2     N12100   1.684   4.635  16.073 -0.3669 -0.0435 -0.9310
  822MPD2    H512101   1.681   4.597  16.167 -2.1570  1.6371 -0.2995
  822MPD2    N112102   1.809   4.186  16.000 -0.2221  0.5260 -0.1819
  822MPD2    H712103   1.790   4.175  16.100 -1.0328  0.9042 -0.2971
  823MPD2     C12104   1.543   0.106  16.863  0.4130  0.1837  1.0960
  823MPD2    C112105   1.576   0.023  16.758 -0.3995  1.1596 -0.5889
  823MPD2    C212106   1.622   4.617  16.793  0.1164 -0.6022  0.3010
  823MPD2    C312107   1.626   4.576  16.924  0.9814  0.4973 -0.3527
  823MPD2    C412108   1.564   4.648  17.020  1.0472  0.0960  0.2302
  823MPD2    C512109   1.539   0.063  16.991  0.2933  0.0465  0.3606
  823MPD2     H12110   1.666   4.558  16.712 -2.7363 -1.1950 -0.8232
  823MPD2    H112111   1.562   4.619  17.124 -3.7764 -0.3551  0.0486
  823MPD2    H212112   1.500   0.205  16.852 -1.5474 -0.8053 -0.2214
  823MPD2    H312113   1.498   0.122  17.072  0.2333 -2.0791  1.8830
  823MPD2     N12114   1.670   4.445  16.961  0.4032 -0.3626 -0.0370
  823MPD2    H512115   1.663   4.427  17.060 -0.0784 -1.2099 -0.2310
  823MPD2    N112116   1.564   0.068  16.630 -0.6010 -0.0123  0.1029
  823MPD2    H712117   1.540   0.167  16.621 -3.0948 -0.7969 -1.8083
  824MPD2     C12118   1.873   3.376  15.801  0.0076 -0.1105  0.0632
  824MPD2    C112119   1.977   3.453  15.842 -0.1652 -0.0014 -0.1639
  824MPD2    C212120   2.103   3.407  15.813  0.2183  0.3690  0.4880
  824MPD2    C312121   2.126   3.276  15.775 -0.1640  0.0155 -0.3985
  824MPD2    C412122   2.016   3.198  15.738 -1.1646 -0.0959 -0.2730
  824MPD2    C512123   1.892   3.247  15.752  0.3475  0.2814  0.4908
  824MPD2     H12124   2.180   3.482  15.826  1.6566 -1.0287  0.1532
  824MPD2    H112125   2.032   3.098  15.699  0.7669 -0.7378  2.1596
  824MPD2    H212126   1.773   3.417  15.800 -0.4053 -1.1339 -1.0123
  824MPD2    H312127   1.812   3.194  15.702  1.6968 -1.2682 -0.0361
  824MPD2     N12128   2.263   3.239  15.748  0.1803  0.1210 -0.1849
  824MPD2    H512129   2.334   3.308  15.770  0.9907 -0.6936 -0.2668
  824MPD2    N112130   1.968   3.586  15.892 -0.0041  0.1482 -0.7317
  824MPD2    H712131   1.880   3.632  15.871 -0.9219 -1.4649 -0.4588
  825MPD2     C12132   2.944   3.562  15.567 -0.4696 -1.0309  0.0548
  825MPD2    C112133   2.840   3.504  15.506 -0.0306  0.4202 -0.1184
  825MPD2    C212134   2.787   3.565  15.393  0.1805 -0.9925  0.3664
  825MPD2    C312135   2.827   3.691  15.353 -0.6074 -0.1418  0.0582
  825MPD2    C412136   2.927   3.754  15.420 -0.0001 -0.0137  0.9448
  825MPD2    C512137   2.981   3.687  15.530 -0.2646 -0.0503 -0.3611
  825MPD2     H12138   2.711   3.509  15.341  0.1024 -1.3001  0.8140
  825MPD2    H112139   2.960   3.851  15.386 -0.5912 -0.2616 -0.3304
  825MPD2    H212140   2.989   3.530  15.660  2.1697 -1.3099 -1.3154
  825MPD2    H312141   3.049   3.753  15.584  0.5317 -1.6735  0.6197
  825MPD2     N12142   2.762   3.754  15.251  0.6084 -0.3758  0.3999
  825MPD2    H512143   2.784   3.853  15.242 -1.8249 -0.0165 -1.5354
  825MPD2    N112144   2.800   3.376  15.560 -0.2156  0.3520 -0.1557
  825MPD2    H712145   2.835   3.344  15.650  2.3359  0.4708 -1.1005
  826MPD2     C12146   2.201   3.717  13.614  0.2527  0.2695  0.5954
  826MPD2    C112147   2.149   3.619  13.532  0.3894 -0.2759  0.7136
  826MPD2    C212148   2.013   3.605  13.510  0.0940  0.2298 -0.1392
  826MPD2    C312149   1.933   3.703  13.574  0.2658  0.2218 -0.0940
  826MPD2    C412150   1.992   3.794  13.658 -0.1632 -0.5534  0.3970
  826MPD2    C512151   2.123   3.803  13.681  0.6440 -0.1071  0.3416
  826MPD2     H12152   1.969   3.523  13.455 -2.9762  1.5805  0.2834
  826MPD2    H112153   1.922   3.860  13.708 -1.2212 -1.4351  0.0627
  826MPD2    H212154   2.308   3.728  13.631  0.6955  0.6696 -2.5766
  826MPD2    H312155   2.161   3.886  13.740 -0.4775 -1.1488  2.5465
  826MPD2     N12156   1.796   3.704  13.579 -0.6958 -0.0956  0.1896
  826MPD2    H512157   1.751   3.751  13.657 -0.5940 -1.1355  0.8866
  826MPD2    N112158   2.250   3.538  13.478 -0.1909 -0.5334  0.0283
  826MPD2    H712159   2.345   3.549  13.512  0.6770 -1.1371 -2.1466
  827MPD2     C12160   3.024   0.220   9.656 -0.1168 -0.3472  0.1099
  827MPD2    C112161   3.014   0.093   9.705 -0.2130  0.2966 -0.2745
  827MPD2    C212162   2.906   0.008   9.668 -0.1361  0.5086 -0.4723
  827MPD2    C312163   2.797   0.065   9.601  0.3429  0.3222  0.0206
  827MPD2    C412164   2.803   0.196   9.564 -0.1847  0.2974 -0.1511
  827MPD2    C512165   2.917   0.269   9.589  0.3530  0.6326 -0.4746
  827MPD2     H12166   2.898   4.622   9.685 -1.6273  0.7539  0.3860
  827MPD2    H112167   2.722   0.252   9.518  0.8658  1.0264 -1.1534
  827MPD2    H212168   3.112   0.280   9.679 -0.6149  0.4634 -0.0905
  827MPD2    H312169   2.922   0.372   9.557 -0.0241  1.0325  0.7373
  827MPD2     N12170   2.688   4.694   9.581  0.7287  0.8224  0.0957
  827MPD2    H512171   2.691   4.603   9.627 -0.0255 -0.8698 -3.1783
  827MPD2    N112172   3.121   0.049   9.785  0.2759  0.6036  0.1297
  827MPD2    H712173   3.193   0.113   9.819 -0.2469  1.4780 -0.4404
  828MPD2     C12174   1.059   4.113  12.901  0.3754  0.2331  0.5406
  828MPD2    C112175   1.092   4.182  12.790 -0.6321  0.1729 -0.0669
  828MPD2    C212176   1.223   4.183  12.751 -0.6984 -0.4394  0.4813
  828MPD2    C312177   1.321   4.147  12.839 -0.2288  0.3136 -0.7405
  828MPD2    C412178   1.294   4.101  12.967 -0.0665 -0.3322 -0.1826
  828MPD2    C512179   1.161   4.070  12.985  0.2631 -0.7372 -0.3119
  828MPD2     H12180   1.237   4.223  12.651 -1.9602 -0.9888  0.0869
  828MPD2    H112181   1.370   4.070  13.038  0.4792 -0.0434 -0.6487
  828MPD2    H212182   0.956   4.089  12.925  0.6938 -0.5074  1.1649
  828MPD2    H312183   1.139   4.010  13.073  0.6739 -1.3289 -0.6166
  828MPD2     N12184   1.460   4.145  12.806  0.5101  0.4051 -0.0155
  828MPD2    H512185   1.512   4.095  12.877  0.3743  0.6541  0.2575
  828MPD2    N112186   0.989   4.225  12.700  0.2456 -0.2684 -0.2770
  828MPD2    H712187   1.021   4.263  12.611 -0.4948 -1.2154 -0.9546
  829MPD2     C12188   1.165   4.472  11.932 -0.4665 -0.2513  0.0725
  829MPD2    C112189   1.031   4.507  11.927  0.4925 -1.0541  0.0131
  829MPD2    C212190   0.949   4.459  12.031 -0.8434 -0.0490 -0.0191
  829MPD2    C312191   0.997   4.400  12.144 -0.4502 -0.0234 -0.5442
  829MPD2    C412192   1.129   4.368  12.145  0.1418  0.3351 -0.0421
  829MPD2    C512193   1.207   4.400  12.038  0.4245  0.1666  0.2841
  829MPD2     H12194   0.843   4.479  12.030 -0.6663  0.9286  1.8201
  829MPD2    H112195   1.180   4.308  12.220 -0.9027  1.9259  1.9512
  829MPD2    H212196   1.239   4.495  11.855  0.5801 -0.8227  0.9136
  829MPD2    H312197   1.310   4.365  12.036  0.5132  0.4138  0.7214
  829MPD2     N12198   0.918   4.361  12.247  0.2564 -0.2307  0.2347
  829MPD2    H512199   0.965   4.298  12.311  1.4109 -1.4000 -1.7645
  829MPD2    N112200   0.982   4.578  11.810 -0.5213 -0.5317  0.1985
  829MPD2    H712201   1.045   4.590  11.732  0.5279  1.3922  1.3429
  830MPD2     C12202   1.778   2.753  15.889 -0.1209 -0.9613 -0.2997
  830MPD2    C112203   1.669   2.777  15.812  0.0382 -0.3573  0.0424
  830MPD2    C212204   1.691   2.820  15.678  0.8801 -0.5105 -0.1687
  830MPD2    C312205   1.817   2.833  15.621 -0.2550 -1.0277  0.2493
  830MPD2    C412206   1.926   2.818  15.704  0.2606 -0.0051  0.3397
  830MPD2    C512207   1.906   2.775  15.833  0.7460  0.0871 -0.9149
  830MPD2     H12208   1.604   2.836  15.616  0.2070 -2.6390  0.2479
  830MPD2    H112209   2.027   2.838  15.669  1.0005 -2.4579  1.0656
  830MPD2    H212210   1.774   2.716  15.991  2.9213  1.5741  0.7486
  830MPD2    H312211   1.995   2.765  15.894  0.1691  0.2951 -0.0367
  830MPD2     N12212   1.838   2.892  15.499 -0.5684 -0.6963  0.1580
  830MPD2    H512213   1.931   2.907  15.463 -0.5374  1.1288  1.0027
  830MPD2    N112214   1.541   2.776  15.877 -0.1346  0.4680  0.0795
  830MPD2    H712215   1.541   2.752  15.975 -1.6660 -1.7620 -0.4918
  831MPD2     C12216   2.039   4.620  16.316 -0.8283  0.4200 -0.1946
  831MPD2    C112217   2.012   4.500  16.248  0.2881 -0.5390 -0.4440
  831MPD2    C212218   1.923   4.410  16.296  0.6893  0.3187  0.3454
  831MPD2    C312219   1.864   4.425  16.412 -0.4483  0.7207 -0.8323
  831MPD2    C412220   1.899   4.535  16.491 -0.3569 -0.5850 -0.6218
  831MPD2    C512221   1.981   4.632  16.440 -1.1144 -0.1641  0.4473
  831MPD2     H12222   1.900   4.329  16.228 -1.3157 -0.0083  1.4175
  831MPD2    H112223   1.875   4.556  16.595  0.7779 -1.9502 -0.0835
  831MPD2    H212224   2.103   4.701  16.282 -0.7733  0.3325 -0.2988
  831MPD2    H312225   2.014   4.716  16.500 -1.8881 -0.7727  1.7070
  831MPD2     N12226   1.763   4.336  16.462 -0.1296 -0.8103 -0.4185
  831MPD2    H512227   1.726   4.368  16.551 -0.5488  0.8079 -1.1831
  831MPD2    N112228   2.054   4.480  16.119  0.2744  0.0242  0.7036
  831MPD2    H712229   2.017   4.397  16.076 -0.8734  0.6029  0.5797
  832MPD2     C12230   0.237   1.400   0.009  0.1390 -0.6081  0.0227
  832MPD2    C112231   0.200   1.507  17.604 -0.3462 -1.0306 -0.0736
  832MPD2    C212232   0.154   1.469  17.483 -0.5299 -0.6178 -0.4617
  832MPD2    C312233   0.131   1.332  17.454  0.0402  0.4198 -0.0131
  832MPD2    C412234   0.170   1.235  17.545 -0.2897 -0.0976  0.2789
  832MPD2    C512235   0.215   1.273  17.665 -0.3921 -0.2544  0.8818
  832MPD2     H12236   0.130   1.546  17.411 -1.2977 -1.0941 -0.7173
  832MPD2    H112237   0.154   1.130  17.521 -1.5056  0.4070 -1.1481
  832MPD2    H212238   0.290   1.430   0.099  0.9668  0.1281 -0.7136
  832MPD2    H312239   0.251   1.213   0.062  0.2603  0.2222  0.9447
  832MPD2     N12240   0.070   1.291  17.326 -0.3483 -0.0286 -0.4573
  832MPD2    H512241   0.027   1.200  17.313 -1.6834  0.4421  0.7372
  832MPD2    N112242   0.210   1.636  17.652  0.4800  0.0584 -1.0753
  832MPD2    H712243   0.252   1.644   0.058  0.0486  2.1257 -1.0563
  833MPD2     C12244   1.819   1.863  12.216 -0.4123 -0.1918 -0.5539
  833MPD2    C112245   1.870   1.992  12.227 -0.7857  0.1999 -0.0298
  833MPD2    C212246   1.994   2.015  12.164  0.6732  1.2679  0.6374
  833MPD2    C312247   2.071   1.919  12.103 -0.1365 -0.8527  0.2490
  833MPD2    C412248   2.023   1.794  12.096  0.6450 -0.1646  0.8127
  833MPD2    C512249   1.895   1.771  12.147 -0.5091  0.1596 -0.1013
  833MPD2     H12250   2.027   2.118  12.156  1.2194  1.0554  0.1791
  833MPD2    H112251   2.075   1.709  12.052  0.9798  1.9904 -2.9398
  833MPD2    H212252   1.722   1.831  12.253  1.0431 -2.5087  1.2291
  833MPD2    H312253   1.850   1.675  12.123 -3.3054  1.6205 -0.7934
  833MPD2     N12254   2.198   1.941  12.047  0.0480  0.9153 -0.4249
  833MPD2    H512255   2.217   1.877  11.971 -2.1313 -0.7333  0.4259
  833MPD2    N112256   1.790   2.098  12.278 -0.2574 -0.8060  0.1675
  833MPD2    H712257   1.697   2.072  12.307 -0.2790 -0.8908  0.0238
  834MPD2     C12258   2.203   2.076  11.116  0.1558 -0.4464  0.1821
  834MPD2    C112259   2.169   1.977  11.206  0.9869 -0.5887  0.0888
  834MPD2    C212260   2.223   1.977  11.335  0.5206 -0.6439  0.0962
  834MPD2    C312261   2.311   2.079  11.369  0.1231  0.1186  0.3703
  834MPD2    C412262   2.332   2.182  11.280 -0.5879  0.0052 -0.2360
  834MPD2    C512263   2.283   2.178  11.152 -0.4997 -0.6589 -0.7492
  834MPD2     H12264   2.204   1.895  11.402 -0.4364 -0.9907 -0.6033
  834MPD2    H112265   2.394   2.269  11.300 -0.6138 -0.3673  1.3963
  834MPD2    H212266   2.164   2.064  11.016 -1.2436  0.0221  0.6625
  834MPD2    H312267   2.289   2.257  11.078  2.2035 -0.1875 -0.0182
  834MPD2     N12268   2.360   2.103  11.500  0.0761 -0.7724  0.0641
  834MPD2    H512269   2.421   2.182  11.519  0.5510 -1.5605  1.8077
  834MPD2    N112270   2.062   1.896  11.170 -0.0552  0.1252  0.1620
  834MPD2    H712271   2.006   1.931  11.094  2.7533  1.4412 -1.3110
  835MPD2     C12272   1.926   0.011  10.829 -0.2488  0.5043  0.5144
  835MPD2    C112273   1.843   0.110  10.886  0.0895  0.3308 -0.1673
  835MPD2    C212274   1.790   0.090  11.011  0.7822  0.2701 -0.7292
  835MPD2    C312275   1.816   4.690  11.068 -0.1663  0.0436  0.5734
  835MPD2    C412276   1.906   4.594  11.021 -0.6734  0.5502 -0.8647
  835MPD2    C512277   1.969   4.628  10.906 -0.2352 -0.0664 -0.0629
  835MPD2     H12278   1.723   0.164  11.053  1.5732  0.3576  0.4132
  835MPD2    H112279   1.933   4.508  11.081 -0.0559  0.4777 -1.2489
  835MPD2    H212280   1.970   0.020  10.730 -0.4002  0.6811  0.4624
  835MPD2    H312281   2.040   4.556  10.867 -0.9112 -0.3112 -0.8558
  835MPD2     N12282   1.740   4.644  11.177  0.1449  0.5673 -0.4788
  835MPD2    H512283   1.762   4.552  11.214  1.7494  0.7964 -0.8646
  835MPD2    N112284   1.811   0.225  10.815  0.2304 -0.2613 -0.3105
  835MPD2    H712285   1.755   0.290  10.868 -0.4700 -1.4004  0.3481
  836MPD2     C12286   1.070   0.245  11.384 -0.0381  0.8505 -0.2313
  836MPD2    C112287   1.119   0.160  11.486  0.3315 -0.0152  0.6223
  836MPD2    C212288   1.058   0.159  11.605 -0.4998 -0.4091  0.5983
  836MPD2    C312289   0.945   0.234  11.627  0.2739 -0.1744 -0.0255
  836MPD2    C412290   0.880   0.296  11.521 -0.4638  0.4829  0.3302
  836MPD2    C512291   0.942   0.296  11.401 -0.4062 -0.3588 -0.1561
  836MPD2     H12292   1.111   0.111  11.686 -0.0431 -0.4137  0.2964
  836MPD2    H112293   0.788   0.350  11.537 -0.8937 -0.3542  0.7004
  836MPD2    H212294   1.118   0.259  11.287 -1.7388  2.6795 -0.8227
  836MPD2    H312295   0.896   0.344  11.315  0.0933  0.2550 -0.0776
  836MPD2     N12296   0.892   0.247  11.757  0.2370 -0.2867  0.1574
  836MPD2    H512297   0.803   0.295  11.764  1.4348  2.0081 -0.3734
  836MPD2    N112298   1.225   0.072  11.451 -0.3887 -0.0956  0.4414
  836MPD2    H712299   1.279   0.091  11.367  0.7199 -1.2123  0.9158
  837MPD2     C12300   4.268   4.690   9.843 -0.2551 -0.0985  0.4707
  837MPD2    C112301   4.197   4.644   9.730 -0.4999 -0.4343 -0.0537
  837MPD2    C212302   4.164   0.010   9.629  1.0197 -0.6006 -0.3146
  837MPD2    C312303   4.184   0.144   9.641 -0.1528  0.5466 -0.3762
  837MPD2    C412304   4.227   0.188   9.761 -0.3049 -0.2750 -0.4304
  837MPD2    C512305   4.281   0.107   9.859 -0.0439 -0.0704  0.3894
  837MPD2     H12306   4.117   4.693   9.539 -2.4844  0.6605  0.9647
  837MPD2    H112307   4.234   0.296   9.771  0.4926 -0.3192 -0.4945
  837MPD2    H212308   4.304   4.627   9.923  0.1593 -0.0107  0.3550
  837MPD2    H312309   4.321   0.139   9.955 -1.4155 -0.2754  1.0286
  837MPD2     N12310   4.134   0.221   9.537 -0.3722 -0.0129 -0.7758
  837MPD2    H512311   4.099   0.171   9.457 -0.2738 -1.8882  0.3674
  837MPD2    N112312   4.186   4.508   9.695  0.3186  0.4099 -0.0937
  837MPD2    H712313   4.129   4.488   9.614 -0.4220  0.5663  0.3820
  838MPD2     C12314   3.345   2.405  12.118 -0.8210 -0.6019  0.6548
  838MPD2    C112315   3.259   2.380  12.012  0.1636 -0.2581  0.4674
  838MPD2    C212316   3.132   2.334  12.038 -0.0166  0.7144 -0.8670
  838MPD2    C312317   3.098   2.292  12.163  0.4921  0.1820 -0.3904
  838MPD2    C412318   3.185   2.313  12.266 -0.5210  0.4090 -0.1635
  838MPD2    C512319   3.305   2.364  12.239  0.0570  0.0032 -0.5897
  838MPD2     H12320   3.059   2.317  11.960  0.5586 -1.4554 -0.9343
  838MPD2    H112321   3.156   2.290  12.368  0.1495 -1.3223 -0.3812
  838MPD2    H212322   3.448   2.436  12.101 -0.4102 -2.3139  0.0768
  838MPD2    H312323   3.380   2.383  12.315 -0.8254  1.7554 -0.1604
  838MPD2     N12324   2.968   2.243  12.172 -0.8442 -0.1426  0.3606
  838MPD2    H512325   2.913   2.254  12.087 -2.2125 -0.5125  1.2061
  838MPD2    N112326   3.303   2.391  11.876 -0.3010 -0.5092  0.9219
  838MPD2    H712327   3.230   2.367  11.809  2.0031 -0.7148 -1.5080
  839MPD2     C12328   2.969   1.802  11.579 -0.7010 -0.2746  0.0656
  839MPD2    C112329   2.990   1.880  11.467 -0.1377 -0.1555  0.2400
  839MPD2    C212330   3.101   1.957  11.456  0.2153  0.5808 -0.4391
  839MPD2    C312331   3.200   1.958  11.556 -0.1073 -0.1851  0.3192
  839MPD2    C412332   3.178   1.875  11.663  0.0296  0.1916  0.2080
  839MPD2    C512333   3.066   1.792  11.676 -0.2907  0.0382 -1.1306
  839MPD2     H12334   3.097   2.020  11.368  1.6210  0.8115 -0.3311
  839MPD2    H112335   3.257   1.878  11.737  2.0942 -1.6628 -1.8992
  839MPD2    H212336   2.892   1.727  11.572 -0.0791 -0.7745 -1.4303
  839MPD2    H312337   3.055   1.734  11.768  0.9254  3.5638  1.2543
  839MPD2     N12338   3.298   2.058  11.563 -0.4860  0.3509  0.0452
  839MPD2    H512339   3.347   2.077  11.650 -3.3133  2.5911  1.1583
  839MPD2    N112340   2.894   1.882  11.365 -0.2484  0.7053 -0.0150
  839MPD2    H712341   2.913   1.938  11.283  3.4227 -0.0112  0.3440
  840MPD2     C12342   3.539   0.467  10.051  0.2547 -0.1149 -0.8349
  840MPD2    C112343   3.518   0.362  10.138 -0.1108 -0.3616 -0.0861
  840MPD2    C212344   3.539   0.383  10.275 -0.8289  0.3038  0.6771
  840MPD2    C312345   3.581   0.506  10.323  0.1182 -0.0308 -0.2571
  840MPD2    C412346   3.626   0.597  10.232  0.8684  0.2013  0.7895
  840MPD2    C512347   3.606   0.582  10.093  0.5558  0.4515  0.0278
  840MPD2     H12348   3.512   0.318  10.358  2.6085 -0.8357  0.8813
  840MPD2    H112349   3.675   0.687  10.270  1.7810  0.6610 -1.5004
  840MPD2    H212350   3.514   0.460   9.946 -0.4449  2.0086 -0.8090
  840MPD2    H312351   3.624   0.655  10.016 -1.6309 -0.5654 -1.4525
  840MPD2     N12352   3.600   0.537  10.461  0.1425  0.9669 -0.0195
  840MPD2    H512353   3.653   0.622  10.477  0.1252  1.1893 -1.1581
  840MPD2    N112354   3.458   0.243  10.090 -0.5587  0.2274 -0.6473
  840MPD2    H712355   3.434   0.258   9.992  2.5623  1.2823 -1.2541
  841MPD2     C12356   3.105   4.611  14.365 -0.4302 -0.3470  0.4674
  841MPD2    C112357   3.183   4.508  14.315 -0.5852 -0.6753 -0.0598
  841MPD2    C212358   3.305   4.536  14.266  0.4764 -0.1119 -0.1785
  841MPD2    C312359   3.345   4.667  14.240  0.0027  0.4137 -0.1125
  841MPD2    C412360   3.262   0.046  14.280  0.2071 -0.7715  0.1772
  841MPD2    C512361   3.157   0.020  14.355  0.5089 -0.4553 -0.5989
  841MPD2     H12362   3.365   4.454  14.226 -0.2481 -0.1318 -1.2285
  841MPD2    H112363   3.288   0.151  14.272 -2.7730 -0.0525  0.1792
  841MPD2    H212364   3.008   4.601  14.412  0.3039  0.2791  2.1496
  841MPD2    H312365   3.093   0.104  14.381 -0.0952 -1.0159 -0.2602
  841MPD2     N12366   3.472   4.691  14.181 -0.4199  0.0787  0.3617
  841MPD2    H512367   3.509   4.604  14.145 -1.1024  0.2026 -0.6415
  841MPD2    N112368   3.135   4.378  14.319  0.2875  0.0969  0.9048
  841MPD2    H712369   3.186   4.306  14.268 -1.2542  0.5852 -1.3098
  842MPD2     C12370   4.057   0.580  16.504 -0.3952 -0.3074 -0.3183
  842MPD2    C112371   4.037   0.706  16.531 -0.5322 -0.1608 -0.1594
  842MPD2    C212372   4.022   0.744  16.661 -0.0830  0.1047 -0.2627
  842MPD2    C312373   4.020   0.649  16.757  0.3746 -0.0915  0.0453
  842MPD2    C412374   4.037   0.514  16.729  0.3733  0.6001 -0.4589
  842MPD2    C512375   4.060   0.482  16.604  0.0269 -0.2215 -0.2096
  842MPD2     H12376   3.990   0.845  16.683  2.5876  2.0370 -5.3185
  842MPD2    H112377   4.048   0.437  16.805  0.5466  0.1265 -0.9637
  842MPD2    H212378   4.070   0.530  16.409  0.9163 -0.0044 -0.2976
  842MPD2    H312379   4.088   0.383  16.570  0.7790  0.0123 -0.2714
  842MPD2     N12380   4.001   0.690  16.890  0.5108  0.5014  0.3238
  842MPD2    H512381   3.992   0.616  16.959  0.1630  1.1136  0.9326
  842MPD2    N112382   4.025   0.791  16.431 -0.7576  0.5276 -0.0768
  842MPD2    H712383   3.992   0.752  16.344 -0.1047 -1.3322  0.5154
  843MPD2     C12384   0.904   1.751   0.269  0.0255 -0.2366 -0.2159
  843MPD2    C112385   0.968   1.658   0.195  0.1103 -0.0603 -0.1944
  843MPD2    C212386   1.110   1.652   0.203  0.1999  0.1169 -0.0603
  843MPD2    C312387   1.180   1.749   0.276 -0.2896 -0.4831 -0.4074
  843MPD2    C412388   1.110   1.850   0.332 -0.1699 -0.1874  0.5173
  843MPD2    C512389   0.974   1.846   0.337 -0.1891  0.4085 -0.3843
  843MPD2     H12390   1.156   1.564   0.159 -0.8869 -1.1733  1.4020
  843MPD2    H112391   1.157   1.926   0.393 -0.1240  0.7724 -0.7086
  843MPD2    H212392   0.795   1.757   0.272 -0.0639 -2.2504  0.6859
  843MPD2    H312393   0.917   1.919   0.394  1.1143  0.3788  0.9579
  843MPD2     N12394   1.316   1.756   0.294  0.5163  0.7604  0.1157
  843MPD2    H512395   1.343   1.839   0.346 -0.2971  1.9767 -1.4141
  843MPD2    N112396   0.887   1.564   0.124 -0.3829 -0.4642  0.0732
  843MPD2    H712397   0.789   1.577   0.146  0.5073 -0.1522  3.8244
  844MPD2     C12398   0.023   0.672  17.002  0.6903 -0.7221 -0.2815
  844MPD2    C112399   0.093   0.712  16.891 -0.7707 -0.6404 -0.7241
  844MPD2    C212400   0.161   0.832  16.893  0.8156 -0.2377  0.3505
  844MPD2    C312401   0.179   0.904  17.011 -0.1222 -0.0345 -0.0030
  844MPD2    C412402   0.120   0.857  17.129 -0.3893  0.1311 -0.2817
  844MPD2    C512403   0.038   0.745  17.120  0.0126 -0.0775  0.0630
  844MPD2     H12404   0.206   0.866  16.800 -1.6310  0.3177 -0.6544
  844MPD2    H112405   0.142   0.895  17.228 -0.3707 -0.5927 -0.0079
  844MPD2    H212406   4.678   0.587  17.013  1.0547 -1.0329 -0.4929
  844MPD2    H312407   4.696   0.715  17.203 -0.3987 -0.3005 -0.3346
  844MPD2     N12408   0.292   0.994  17.014  0.7330 -0.1121  0.2817
  844MPD2    H512409   0.340   1.017  16.927  1.5806 -0.7941  0.5673
  844MPD2    N112410   0.083   0.649  16.762 -0.1101 -0.4063 -0.1021
  844MPD2    H712411   0.132   0.700  16.690 -0.6109 -1.3005 -1.0705
  845MPD2     C12412   0.545   1.844  17.534  0.3441 -0.1088 -0.4352
  845MPD2    C112413   0.476   1.831  17.414 -1.1505  0.4128 -0.5054
  845MPD2    C212414   0.465   1.702  17.362  0.5943 -0.1445 -0.1992
  845MPD2    C312415   0.547   1.599  17.398  0.0051 -0.9687  0.7936
  845MPD2    C412416   0.630   1.615  17.508 -0.0514 -0.3830  0.1815
  845MPD2    C512417   0.616   1.739  17.574 -0.5793 -0.2868 -0.1213
  845MPD2     H12418   0.386   1.678  17.292  0.7508 -0.4852 -0.2588
  845MPD2    H112419   0.698   1.540  17.545 -1.3239 -2.3605 -1.4979
  845MPD2    H212420   0.545   1.933  17.597  3.8884 -0.4414  0.0700
  845MPD2    H312421   0.674   1.753  17.664  0.9161  2.8723 -1.5942
  845MPD2     N12422   0.539   1.484  17.317  0.0199 -0.1143  0.0653
  845MPD2    H512423   0.463   1.482  17.250 -1.8924 -1.5121  2.2827
  845MPD2    N112424   0.394   1.935  17.365 -0.2646  0.3464  0.1485
  845MPD2    H712425   0.400   2.018  17.423 -3.6392  1.0460 -0.4862
  846MPD2     C12426   1.284   1.541  13.504  0.1082 -0.2950  0.1474
  846MPD2    C112427   1.250   1.671  13.519 -0.0460 -0.0307 -0.2821
  846MPD2    C212428   1.249   1.728  13.645  0.1859  0.0595 -0.2887
  846MPD2    C312429   1.273   1.649  13.757 -1.2341 -0.5125 -0.6509
  846MPD2    C412430   1.303   1.519  13.742 -0.2394  0.2860 -0.1905
  846MPD2    C512431   1.307   1.461  13.621  0.6753  1.0016  0.1211
  846MPD2     H12432   1.247   1.837  13.653  2.6319  0.1794 -1.5480
  846MPD2    H112433   1.318   1.448  13.823 -0.5819  0.4551  0.0237
  846MPD2    H212434   1.288   1.496  13.406 -0.4277 -3.0700  1.3857
  846MPD2    H312435   1.339   1.359  13.604 -0.4647  0.8580 -1.1846
  846MPD2     N12436   1.279   1.709  13.887  0.8491 -0.0471  0.0810
  846MPD2    H512437   1.241   1.803  13.886  1.8167  0.3652  3.7123
  846MPD2    N112438   1.223   1.763  13.414  0.0828  1.0957 -0.2310
  846MPD2    H712439   1.229   1.861  13.439  2.4556  1.0382 -0.5543
  847MPD2     C12440   1.604   2.327  13.618  0.6536  0.0883 -0.9725
  847MPD2    C112441   1.598   2.400  13.731  0.0709  0.1327 -0.3612
  847MPD2    C212442   1.646   2.345  13.845  0.1056  0.4218  0.0867
  847MPD2    C312443   1.728   2.231  13.841 -0.3259 -0.4415  0.6946
  847MPD2    C412444   1.748   2.171  13.722 -0.4318  0.1461  0.2468
  847MPD2    C512445   1.674   2.211  13.616  0.0711  0.5524  0.0056
  847MPD2     H12446   1.633   2.397  13.939 -1.4600  0.0245  0.0874
  847MPD2    H112447   1.803   2.078  13.723 -0.6556  0.0023 -1.1147
  847MPD2    H212448   1.567   2.365  13.523 -1.6124 -0.2538 -0.2250
  847MPD2    H312449   1.690   2.151  13.527  2.9093  1.9629 -0.4473
  847MPD2     N12450   1.793   2.174  13.956  0.2499  1.1342  0.1867
  847MPD2    H512451   1.855   2.095  13.939 -0.1110  0.9569 -0.3103
  847MPD2    N112452   1.547   2.533  13.742  1.2770  0.4243 -0.2149
  847MPD2    H712453   1.540   2.568  13.837  1.7781  1.8120 -0.6936
  848MPD2     C12454   4.436   1.210  16.476 -0.4380  0.3703  0.1352
  848MPD2    C112455   4.506   1.303  16.554  0.2232 -0.6113 -0.0878
  848MPD2    C212456   4.548   1.426  16.503 -0.3769  0.0273  0.1940
  848MPD2    C312457   4.526   1.455  16.369 -0.4760 -0.4909  0.1267
  848MPD2    C412458   4.454   1.362  16.294 -0.7473  0.3017  0.4793
  848MPD2    C512459   4.411   1.242  16.345 -0.3797  0.2932 -0.0394
  848MPD2     H12460   4.617   1.484  16.564  0.8044 -0.2908 -0.8457
  848MPD2    H112461   4.428   1.380  16.190 -3.3916  0.6118  1.1729
  848MPD2    H212462   4.398   1.116  16.514 -1.9919  1.3795  1.1162
  848MPD2    H312463   4.373   1.168  16.276 -0.3065 -0.6357  0.9120
  848MPD2     N12464   4.581   1.560  16.301 -0.0641 -0.0028 -0.0327
  848MPD2    H512465   4.568   1.555  16.200  1.3645  3.1177 -0.3745
  848MPD2    N112466   4.525   1.276  16.689 -0.1983  0.3840 -0.6240
  848MPD2    H712467   4.505   1.180  16.714 -0.7225  0.8942  0.9335
  849MPD2     C12468   3.131   0.289  14.534 -0.1797 -0.9201 -0.6165
  849MPD2    C112469   3.170   0.406  14.476 -0.1315  0.3927 -0.1014
  849MPD2    C212470   3.307   0.436  14.481  0.1500  0.1059 -0.0238
  849MPD2    C312471   3.402   0.358  14.541  0.2300 -0.1848  0.6719
  849MPD2    C412472   3.361   0.245  14.603 -0.2888  0.0388 -1.0944
  849MPD2    C512473   3.226   0.208  14.596  0.4222  0.0397  0.5868
  849MPD2     H12474   3.340   0.524  14.427  2.1343 -0.9550 -0.5357
  849MPD2    H112475   3.431   0.183  14.659  0.1899  0.3869 -1.3086
  849MPD2    H212476   3.027   0.256  14.542 -0.0673 -0.7375  1.7562
  849MPD2    H312477   3.201   0.107  14.629 -1.5553  0.3853  0.1457
  849MPD2     N12478   3.535   0.406  14.528  0.1629  0.1944 -0.3144
  849MPD2    H512479   3.551   0.477  14.457  2.3244  1.1714  1.1695
  849MPD2    N112480   3.082   0.493  14.407 -0.1409  0.3802 -0.3204
  849MPD2    H712481   3.128   0.576  14.372 -2.0169  1.2924 -0.5523
  850MPD2     C12482   1.012   3.578  15.003  0.4404 -0.0384  0.1253
  850MPD2    C112483   1.081   3.524  15.112  0.5260  0.3000 -0.3436
  850MPD2    C212484   1.216   3.544  15.124  0.3420  0.9275  0.1277
  850MPD2    C312485   1.286   3.614  15.024  0.5400  0.3496 -0.0253
  850MPD2    C412486   1.221   3.654  14.908 -0.0051 -0.1770 -0.2643
  850MPD2    C512487   1.086   3.630  14.900 -0.4152 -0.7852  0.1544
  850MPD2     H12488   1.268   3.512  15.214  0.3957 -0.8330 -0.5341
  850MPD2    H112489   1.274   3.702  14.828 -1.3058  1.5417 -0.0993
  850MPD2    H212490   0.908   3.563  14.976 -0.1062  2.3195  0.8885
  850MPD2    H312491   1.023   3.651  14.814 -2.3149  1.8068  2.2115
  850MPD2     N12492   1.425   3.632  15.038  0.1191 -0.5267 -0.0082
  850MPD2    H512493   1.479   3.673  14.963 -2.4626  0.3946 -1.3729
  850MPD2    N112494   1.010   3.455  15.213  0.2332  0.0683 -0.1722
  850MPD2    H712495   0.909   3.464  15.216  0.1881 -0.4412 -0.0894
  851MPD2     C12496   1.520   3.627  15.687 -0.4886 -0.4984  0.0149
  851MPD2    C112497   1.451   3.517  15.655 -0.4043  0.2341  0.0148
  851MPD2    C212498   1.510   3.421  15.579 -0.1768 -0.3081  0.4380
  851MPD2    C312499   1.644   3.433  15.537 -0.2164  0.0383 -0.2578
  851MPD2    C412500   1.715   3.540  15.577  0.1461  0.2347 -0.4072
  851MPD2    C512501   1.655   3.633  15.661  0.2037  0.4177  0.6815
  851MPD2     H12502   1.461   3.327  15.557  1.3155 -1.2250  1.0566
  851MPD2    H112503   1.811   3.574  15.541  0.0357  2.7614  1.6114
  851MPD2    H212504   1.470   3.702  15.748  2.7544  0.4849  1.5054
  851MPD2    H312505   1.713   3.721  15.687  0.6198  0.9001 -1.7920
  851MPD2     N12506   1.696   3.327  15.464  0.1566 -0.3788  0.5233
  851MPD2    H512507   1.630   3.251  15.449 -0.5230  0.1515  0.8434
  851MPD2    N112508   1.317   3.495  15.699 -0.1582  0.3600 -0.8174
  851MPD2    H712509   1.270   3.579  15.733  0.5170 -0.0313  1.0621
  852MPD2     C12510   0.955   1.886   9.477 -0.2717  0.0864  0.1948
  852MPD2    C112511   0.965   1.818   9.598  0.1968 -0.4605 -0.0215
  852MPD2    C212512   1.080   1.828   9.671 -0.3853  0.8354  0.2497
  852MPD2    C312513   1.178   1.912   9.632 -0.2692  0.1349 -0.1992
  852MPD2    C412514   1.163   1.981   9.514  0.1513  0.4609  0.2366
  852MPD2    C512515   1.051   1.968   9.436  0.2892 -0.5072 -0.1638
  852MPD2     H12516   1.098   1.771   9.761 -1.1348 -0.3109 -0.3224
  852MPD2    H112517   1.231   2.056   9.476 -0.5437  0.9979  0.0495
  852MPD2    H212518   0.863   1.894   9.421  0.8381  1.8108 -1.3870
  852MPD2    H312519   1.044   2.025   9.344  0.9487 -0.1885 -0.0183
  852MPD2     N12520   1.291   1.925   9.717 -0.3264  0.1978  0.7252
  852MPD2    H512521   1.309   1.845   9.778 -0.8578 -1.8442 -1.8076
  852MPD2    N112522   0.853   1.745   9.643 -0.3656  0.2340 -0.5290
  852MPD2    H712523   0.851   1.720   9.742 -2.5086  0.9974 -0.3796
  853MPD2     C12524   1.954   1.294  11.769  0.1030  0.3991  0.1855
  853MPD2    C112525   2.050   1.214  11.821  0.5061  0.5272  0.1304
  853MPD2    C212526   2.162   1.180  11.750 -0.3399  0.1433 -0.3139
  853MPD2    C312527   2.188   1.229  11.622 -0.3146  0.3404 -0.4031
  853MPD2    C412528   2.092   1.318  11.567  0.5095  0.0496 -0.0141
  853MPD2    C512529   1.977   1.352  11.647 -0.1251  0.1720  0.4558
  853MPD2     H12530   2.232   1.112  11.797 -1.4231 -0.0481  1.0044
  853MPD2    H112531   2.099   1.360  11.467  0.5101  1.3568  0.5312
  853MPD2    H212532   1.862   1.310  11.823 -0.4248  1.8840 -1.1292
  853MPD2    H312533   1.894   1.407  11.602 -0.0633 -0.8278 -0.8922
  853MPD2     N12534   2.312   1.210  11.551  0.0035 -0.2299  0.6617
  853MPD2    H512535   2.306   1.243  11.455 -0.3839  0.1918  0.8307
  853MPD2    N112536   2.014   1.146  11.944  0.1018 -0.2863 -0.1211
  853MPD2    H712537   1.930   1.174  11.992  0.5108  3.3585 -1.5336
  854MPD2     C12538   4.412   1.328  13.320 -1.2723  0.1499  0.4345
  854MPD2    C112539   4.469   1.313  13.192 -0.3086 -0.4006  0.3570
  854MPD2    C212540   4.571   1.226  13.179  0.1550  0.5982 -0.2085
  854MPD2    C312541   4.612   1.138  13.276  0.2925  0.3220  0.3184
  854MPD2    C412542   4.554   1.148  13.398  0.1051  0.6134 -0.1077
  854MPD2    C512543   4.460   1.247  13.418 -0.0867  0.0602  0.8824
  854MPD2     H12544   4.619   1.225  13.082  1.5963 -0.2444  0.5087
  854MPD2    H112545   4.573   1.088  13.487 -0.8564  1.4269  0.6469
  854MPD2    H212546   4.352   1.412  13.351 -1.1707 -0.2526  1.7141
  854MPD2    H312547   4.419   1.265  13.517 -0.5557  0.4610  0.6177
  854MPD2     N12548   4.704   1.030  13.259  0.3073 -0.3404 -0.1802
  854MPD2    H512549   4.719   0.980  13.345  0.0326 -3.6032 -2.0394
  854MPD2    N112550   4.423   1.392  13.081  0.0840  0.6639  0.7557
  854MPD2    H712551   4.334   1.441  13.081 -0.1334  0.2651 -0.0479
  855MPD2     C12552   0.891   0.706  13.464 -0.5517 -0.6063  0.0842
  855MPD2    C112553   0.793   0.766  13.535  0.6917 -0.0254 -0.7172
  855MPD2    C212554   0.666   0.757  13.482 -0.0393 -0.3227  0.2175
  855MPD2    C312555   0.642   0.694  13.364  0.9331  0.4346  0.4500
  855MPD2    C412556   0.745   0.637  13.298 -0.2273 -0.0297 -0.5677
  855MPD2    C512557   0.867   0.649  13.345 -0.0110  0.7680 -0.3545
  855MPD2     H12558   0.585   0.798  13.542 -1.4846 -2.2042 -0.4502
  855MPD2    H112559   0.722   0.595  13.201 -2.5291  0.4009 -0.1967
  855MPD2    H212560   0.995   0.699  13.495 -0.8076 -0.8729  0.8841
  855MPD2    H312561   0.950   0.605  13.291  1.0140  2.5487 -0.2236
  855MPD2     N12562   0.509   0.690  13.308  0.3269 -0.0969  0.3602
  855MPD2    H512563   0.497   0.628  13.228  0.0913 -0.3853  0.6180
  855MPD2    N112564   0.804   0.829  13.663  0.6595  0.0457  0.2635
  855MPD2    H712565   0.715   0.859  13.701  1.8078  1.5422  1.7937
  856MPD2     C12566   2.397   1.834  13.664  0.3725 -0.2774 -0.0405
  856MPD2    C112567   2.427   1.927  13.765 -0.1919  0.1356  0.4340
  856MPD2    C212568   2.340   2.029  13.786 -0.5547  0.1865  0.0530
  856MPD2    C312569   2.239   2.058  13.691  0.0023 -0.3724  0.2479
  856MPD2    C412570   2.214   1.960  13.593  0.0053  0.3916  0.3406
  856MPD2    C512571   2.285   1.844  13.588  0.4761  0.3736 -0.5225
  856MPD2     H12572   2.374   2.101  13.860 -0.3975 -1.3308  1.4416
  856MPD2    H112573   2.132   1.967  13.522  0.2142 -0.2071  0.0443
  856MPD2    H212574   2.465   1.752  13.643 -1.4964 -2.2039  1.4884
  856MPD2    H312575   2.249   1.762  13.526 -1.2483  0.4507  0.3754
  856MPD2     N12576   2.159   2.183  13.691 -0.4528  0.1118  0.1449
  856MPD2    H512577   2.112   2.202  13.603  2.0371  0.1683 -1.1658
  856MPD2    N112578   2.538   1.920  13.850 -0.1343 -0.0540  0.4709
  856MPD2    H712579   2.536   1.998  13.915 -0.7655 -0.8431  1.3943
  857MPD2     C12580   3.434   4.194  12.270  0.0389  0.1599 -0.0587
  857MPD2    C112581   3.534   4.172  12.364 -0.5211  0.5448 -0.0041
  857MPD2    C212582   3.550   4.275  12.458  0.7389  0.2556 -0.1168
  857MPD2    C312583   3.469   4.395  12.459 -0.4576 -0.2739  0.0654
  857MPD2    C412584   3.364   4.405  12.370  0.2631  0.1598  0.2746
  857MPD2    C512585   3.348   4.301  12.288 -0.1566  0.4585  0.3102
  857MPD2     H12586   3.633   4.266  12.526  1.8618  1.5547 -1.3137
  857MPD2    H112587   3.289   4.483  12.358  0.8419  0.5801 -0.5544
  857MPD2    H212588   3.420   4.130  12.184  0.6915  1.3091 -1.0163
  857MPD2    H312589   3.275   4.328  12.213  0.6838 -0.0607 -0.6877
  857MPD2     N12590   3.495   4.492  12.559  0.2466 -0.0003  0.1936
  857MPD2    H512591   3.568   4.472  12.625 -0.3004 -0.1876  0.7408
  857MPD2    N112592   3.617   4.058  12.364  0.2052 -0.2045 -0.0962
  857MPD2    H712593   3.699   4.063  12.423  1.1274 -1.1954 -1.2794
  858MPD2     C12594   4.657   3.295  16.783  0.1305  0.6486  0.4164
  858MPD2    C112595   0.068   3.265  16.818 -0.2966 -0.6523 -0.2200
  858MPD2    C212596   0.109   3.302  16.949 -0.3341 -0.5355  0.6823
  858MPD2    C312597   0.023   3.357  17.042 -0.5047  0.6009  0.4622
  858MPD2    C412598   4.618   3.387  17.008 -0.0450  0.2896 -0.0805
  858MPD2    C512599   4.576   3.357  16.879  0.1141  0.0408  0.1238
  858MPD2     H12600   0.211   3.285  16.981 -0.6923 -2.3162  0.9176
  858MPD2    H112601   4.547   3.415  17.086  1.0854 -0.6278  1.2832
  858MPD2    H212602   4.613   3.281  16.685  0.0716 -2.0269  0.8254
  858MPD2    H312603   4.472   3.377  16.852  0.3817  2.0284  0.5633
  858MPD2     N12604   0.060   3.382  17.174 -0.7094  0.3122 -0.5071
  858MPD2    H512605   4.713   3.431  17.231  0.7062 -0.6517  1.9978
  858MPD2    N112606   0.148   3.199  16.726 -0.7549  0.0860  0.1714
  858MPD2    H712607   0.097   3.174  16.642  1.4966  2.3980 -1.9027
  859MPD2     C12608   2.792   4.494  14.906  0.1242  0.1259  0.1895
  859MPD2    C112609   2.922   4.540  14.894  0.2657  0.5087  0.0628
  859MPD2    C212610   3.021   4.443  14.867  0.1484 -0.1553  0.1892
  859MPD2    C312611   2.983   4.306  14.865  0.3452 -0.4830  0.6628
  859MPD2    C412612   2.846   4.262  14.873  0.6754  0.0150 -0.7669
  859MPD2    C512613   2.756   4.360  14.893  0.1451 -0.6728  0.2595
  859MPD2     H12614   3.123   4.475  14.850  0.6783 -2.4708 -1.0657
  859MPD2    H112615   2.805   4.162  14.865 -0.8520  0.5457  0.3674
  859MPD2    H212616   2.715   4.570  14.920 -1.1871 -0.9197 -1.3583
  859MPD2    H312617   2.651   4.334  14.882 -0.1038  0.2341  0.5339
  859MPD2     N12618   3.076   4.199  14.833 -0.2535 -0.1209  0.5005
  859MPD2    H512619   3.038   4.106  14.824 -0.3617  0.0098 -0.3924
  859MPD2    N112620   2.949   4.677  14.892  0.0798  0.2898 -0.1798
  859MPD2    H712621   2.868   0.017  14.899 -0.2345 -0.1481  0.0126
  860MPD2     C12622   0.545   0.624  11.368  0.3839  0.2507 -0.1062
  860MPD2    C112623   0.555   0.744  11.445  0.5258  0.0383 -0.4726
  860MPD2    C212624   0.493   0.751  11.571  0.3554  0.0117 -0.3724
  860MPD2    C312625   0.425   0.650  11.627  0.9953  0.4551 -0.9990
  860MPD2    C412626   0.415   0.530  11.556  0.0221 -0.4128 -1.4247
  860MPD2    C512627   0.470   0.528  11.428  0.1198  0.4725  0.2161
  860MPD2     H12628   0.496   0.843  11.628  0.8455  0.7767 -1.6416
  860MPD2    H112629   0.347   0.452  11.588 -2.0444  1.9361 -0.0303
  860MPD2    H212630   0.586   0.599  11.271 -1.6936  3.1279 -1.7323
  860MPD2    H312631   0.463   0.437  11.369  0.2964  0.4483  0.2315
  860MPD2     N12632   0.376   0.673  11.762 -0.4050 -0.0173  0.6780
  860MPD2    H512633   0.389   0.760  11.811 -0.2007  1.5060 -2.0544
  860MPD2    N112634   0.628   0.856  11.401 -0.5417 -0.4944  0.3306
  860MPD2    H712635   0.642   0.930  11.470 -1.2429  0.9198 -1.0414
  861MPD2     C12636   4.718   4.047  10.745 -0.3826  0.4887 -0.4035
  861MPD2    C112637   4.625   3.972  10.798 -0.0008  0.5660 -0.6692
  861MPD2    C212638   4.516   3.938  10.719 -0.5307 -0.8029  0.5427
  861MPD2    C312639   4.499   3.985  10.587 -0.3754  0.1366 -0.6064
  861MPD2    C412640   4.601   4.068  10.542  0.4472  0.3783 -0.3192
  861MPD2    C512641   4.702   4.106  10.622 -0.2094  0.4300  0.2428
  861MPD2     H12642   4.435   3.879  10.761 -0.4796  0.5430  2.5419
  861MPD2    H112643   4.606   4.108  10.441  4.9055  0.4133 -0.0809
  861MPD2    H212644   0.087   4.068  10.802  0.8042  1.9480 -2.7701
  861MPD2    H312645   0.061   4.169  10.583 -0.0543  1.2940  1.9817
  861MPD2     N12646   4.381   3.964  10.506  0.0332  0.2947  0.5431
  861MPD2    H512647   4.385   4.013  10.417  0.1888 -0.9430 -0.1360
  861MPD2    N112648   4.631   3.907  10.916  0.1812  0.4827 -0.4777
  861MPD2    H712649   4.552   3.847  10.936  0.4039 -0.3440 -2.1284
  862MPD2     C12650   3.766   3.970   9.986  0.4693 -0.4532 -0.1399
  862MPD2    C112651   3.884   3.953  10.063 -0.3611  0.3511 -0.8272
  862MPD2    C212652   3.903   3.837  10.138  0.1478 -0.7827 -0.1220
  862MPD2    C312653   3.791   3.746  10.145  0.0295 -0.1593  0.6852
  862MPD2    C412654   3.677   3.763  10.073  0.1598  1.1695 -0.0385
  862MPD2    C512655   3.672   3.867   9.982  0.4767 -0.2202 -0.4091
  862MPD2     H12656   3.999   3.816  10.182  0.8189 -0.2178 -1.3149
  862MPD2    H112657   3.590   3.701  10.086  0.2838  0.6101 -1.9799
  862MPD2    H212658   3.765   4.057   9.921  1.4794 -1.0693 -0.9837
  862MPD2    H312659   3.580   3.876   9.925  0.2811  0.5482  0.0159
  862MPD2     N12660   3.791   3.643  10.242  0.1901  0.4868 -0.1002
  862MPD2    H512661   3.702   3.595  10.256  0.1760  0.2390 -1.0763
  862MPD2    N112662   3.981   4.049  10.049  0.0896 -0.3580 -0.1296
  862MPD2    H712663   3.957   4.105   9.968 -0.4569  0.8679  0.8749
  863MPD2     C12664   3.891   2.497  16.548  0.5118 -0.0265  0.4145
  863MPD2    C112665   3.765   2.499  16.607 -0.0235  0.1847  0.3705
  863MPD2    C212666   3.753   2.478  16.746  0.6579  0.4120  0.6268
  863MPD2    C312667   3.873   2.453  16.810 -0.0203 -0.4215  0.3512
  863MPD2    C412668   3.994   2.452  16.746  0.0713 -0.4221  0.3404
  863MPD2    C512669   4.008   2.476  16.611  0.3413  0.6934  0.2261
  863MPD2     H12670   3.656   2.472  16.794 -0.6277  0.0495 -2.0362
  863MPD2    H112671   4.091   2.437  16.793 -0.8243  2.0265  2.9827
  863MPD2    H212672   3.895   2.539  16.448 -0.8374  0.6426  0.6382
  863MPD2    H312673   4.106   2.468  16.565  0.8918  0.5473  1.4053
  863MPD2     N12674   3.885   2.425  16.948  0.2238  0.3176 -0.2882
  863MPD2    H512675   3.978   2.404  16.982 -0.9327 -1.2827  1.8132
  863MPD2    N112676   3.652   2.534  16.534  0.2376 -0.4673  0.2899
  863MPD2    H712677   3.659   2.547  16.433 -2.9321  1.6193  0.3588
  864MPD2     C12678   3.598   4.130  17.484 -1.1706 -0.0418 -0.1096
  864MPD2    C112679   3.709   4.065  17.447 -0.6482  0.2149  0.6004
  864MPD2    C212680   3.811   4.138  17.385 -0.1436 -0.1171  0.1118
  864MPD2    C312681   3.792   4.275  17.355 -0.1470  0.8806  0.6507
  864MPD2    C412682   3.673   4.334  17.396 -0.6684  0.4997 -0.0447
  864MPD2    C512683   3.576   4.263  17.455 -0.5531 -0.0511 -0.1680
  864MPD2     H12684   3.901   4.094  17.346 -0.4538 -0.4418 -0.2373
  864MPD2    H112685   3.659   4.439  17.371 -2.1376  0.0878 -0.9175
  864MPD2    H212686   3.526   4.072  17.542  0.5808 -1.8895  0.2451
  864MPD2    H312687   3.488   4.314  17.493  0.5784  1.4256  0.4918
  864MPD2     N12688   3.890   4.354  17.289 -0.5810 -0.2784 -0.4547
  864MPD2    H512689   3.871   4.454  17.282  1.6234  0.1621 -0.0831
  864MPD2    N112690   3.714   3.929  17.469  0.0372 -0.7903  0.2769
  864MPD2    H712691   3.638   3.891  17.525 -1.2065 -0.1117 -0.9357
  865MPD2     C12692   4.115   4.354  16.341 -0.1702  0.1678 -0.3560
  865MPD2    C112693   4.046   4.282  16.444  0.1179 -0.4926  0.2937
  865MPD2    C212694   4.057   4.317  16.570  0.5831  0.3235 -0.1819
  865MPD2    C312695   4.138   4.425  16.606 -0.0846 -0.1598  1.1411
  865MPD2    C412696   4.207   4.491  16.511  0.0602 -0.3563 -0.2303
  865MPD2    C512697   4.193   4.459  16.379  0.0041  0.2139 -0.2925
  865MPD2     H12698   4.005   4.271  16.654 -0.2811  2.2523  0.3622
  865MPD2    H112699   4.274   4.574  16.532  0.1972 -0.6905  0.6444
  865MPD2    H212700   4.095   4.331  16.237 -0.9999 -2.0490  0.2884
  865MPD2    H312701   4.241   4.530  16.313  1.1507  0.1153  0.4456
  865MPD2     N12702   4.152   4.466  16.737  0.3319 -0.5258 -0.2713
  865MPD2    H512703   4.223   4.538  16.749  1.6837 -1.6046 -1.8605
  865MPD2    N112704   3.980   4.164  16.410 -0.2981  1.2302 -0.0551
  865MPD2    H712705   3.983   4.143  16.311 -0.9507 -0.6613  0.3365
  866MPD2     C12706   0.078   4.538  11.376  0.4889  0.6840  0.1848
  866MPD2    C112707   0.137   4.495  11.259  0.2265 -0.1641  0.3750
  866MPD2    C212708   0.061   4.446  11.155  0.1836 -0.1559 -0.4148
  866MPD2    C312709   4.643   4.438  11.183  0.4164  0.3808 -0.4218
  866MPD2    C412710   4.579   4.490  11.297  0.9672 -0.1909 -0.1568
  866MPD2    C512711   4.661   4.545  11.392  0.6182 -0.0984 -0.7217
  866MPD2     H12712   0.109   4.404  11.068  1.5607  0.0711  0.2293
  866MPD2    H112713   4.473   4.477  11.313  1.0104 -0.7180 -0.2906
  866MPD2    H212714   0.142   4.591  11.445 -1.2820  1.7047  1.0278
  866MPD2    H312715   4.627   4.584  11.487  2.1720 -1.1014  0.2483
  866MPD2     N12716   4.565   4.383  11.073 -0.4348  0.1294 -0.2337
  866MPD2    H512717   4.465   4.378  11.092 -0.8831  1.1832 -2.2938
  866MPD2    N112718   0.282   4.490  11.263 -0.9305  0.0173  0.2869
  866MPD2    H712719   0.330   4.528  11.344 -0.1432  1.0734 -0.6670
  867MPD2     C12720   2.524   4.189  16.436 -0.4815 -0.1656  0.0383
  867MPD2    C112721   2.544   4.141  16.560  0.4657 -0.1085 -0.1419
  867MPD2    C212722   2.574   4.230  16.660  0.1870 -0.0435 -0.4810
  867MPD2    C312723   2.570   4.366  16.649 -0.2828 -0.5308 -0.1244
  867MPD2    C412724   2.541   4.411  16.523 -0.1359  0.4561  0.3047
  867MPD2    C512725   2.533   4.321  16.421  0.2957  0.1610  1.1434
  867MPD2     H12726   2.604   4.189  16.756 -0.5249  1.6964  0.4734
  867MPD2    H112727   2.534   4.518  16.503  0.5118  0.3495 -0.4842
  867MPD2    H212728   2.524   4.126  16.347  2.6750 -0.6049  0.3428
  867MPD2    H312729   2.519   4.351  16.318  1.7108 -1.2685  0.5213
  867MPD2     N12730   2.589   4.451  16.758 -0.6466  0.0828 -0.1686
  867MPD2    H512731   2.604   4.550  16.739  1.9993 -0.2595  0.1768
  867MPD2    N112732   2.560   4.004  16.600  0.0146  0.1854 -0.4298
  867MPD2    H712733   2.598   3.985  16.692 -1.4958 -0.9333 -0.0352
  868MPD2     C12734   4.013   2.594  13.241  0.6517  0.0156 -0.2658
  868MPD2    C112735   4.031   2.503  13.341 -0.0097  0.0820  0.6818
  868MPD2    C212736   3.939   2.516  13.448 -0.0312  0.0096 -0.6208
  868MPD2    C312737   3.840   2.610  13.463  0.5465  0.3000  0.8395
  868MPD2    C412738   3.827   2.691  13.355 -0.5039 -0.8439  0.6100
  868MPD2    C512739   3.909   2.681  13.251 -0.0619 -0.5793  0.3513
  868MPD2     H12740   3.951   2.443  13.526 -1.9402  0.7151  0.3476
  868MPD2    H112741   3.752   2.769  13.346 -2.2487 -2.5546  0.1582
  868MPD2    H212742   4.074   2.605  13.152  1.3186  3.3105  0.5854
  868MPD2    H312743   3.883   2.745  13.167  0.1559 -1.6112 -0.4926
  868MPD2     N12744   3.757   2.610  13.581  0.1484 -0.6611 -0.1013
  868MPD2    H512745   3.767   2.532  13.646 -0.4163  0.5785  1.4840
  868MPD2    N112746   4.137   2.406  13.330  0.0066  0.3091  0.0080
  868MPD2    H712747   4.192   2.396  13.245  0.9330 -0.2523  0.6703
  869MPD2     C12748   0.055   0.655   1.347  0.0414 -0.6812 -0.1556
  869MPD2    C112749   0.155   0.723   1.414  0.2111  0.6278  0.7271
  869MPD2    C212750   0.218   0.836   1.361  0.0241 -0.6935  0.3791
  869MPD2    C312751   0.175   0.883   1.237 -0.9383  0.0617 -0.2355
  869MPD2    C412752   0.076   0.818   1.164 -0.5170 -0.3314  0.8152
  869MPD2    C512753   0.020   0.706   1.218  0.2074 -0.2287 -0.2917
  869MPD2     H12754   0.285   0.896   1.422 -2.9880  1.5181  1.4789
  869MPD2    H112755   0.050   0.849   1.063 -0.7757  0.6351  1.1809
  869MPD2    H212756   0.002   0.576   1.398  1.0178  0.7941  3.1203
  869MPD2    H312757   4.663   0.658   1.160 -1.3837  0.0667  1.5924
  869MPD2     N12758   0.233   1.004   1.178 -0.0406  0.6384 -0.4405
  869MPD2    H512759   0.189   1.034   1.091  1.3161  0.9470 -1.0170
  869MPD2    N112760   0.178   0.679   1.548 -0.3479 -0.4042  0.3628
  869MPD2    H712761   0.124   0.597   1.574  0.8429 -0.7068  1.9005
  870MPD2     C12762   4.118   4.648   1.542 -0.1711  0.7970  0.0341
  870MPD2    C112763   4.237   4.634   1.476 -0.5110  0.9441 -0.2619
  870MPD2    C212764   4.233   4.663   1.338 -0.4058 -0.0485 -0.4194
  870MPD2    C312765   4.120   4.695   1.271  0.3332 -0.1773 -0.3895
  870MPD2    C412766   4.005   4.718   1.345 -0.5941  0.1950  0.3103
  870MPD2    C512767   4.004   4.688   1.478 -0.0138 -0.3385 -0.3586
  870MPD2     H12768   4.320   4.643   1.276  1.8407  1.7993  2.1120
  870MPD2    H112769   3.918   0.039   1.297  0.0348 -0.3357 -1.2774
  870MPD2    H212770   4.122   4.623   1.647  0.7893  1.6476  0.2007
  870MPD2    H312771   3.916   4.708   1.538  0.5529  0.4609  0.1947
  870MPD2     N12772   4.115   4.703   1.131  0.3595  0.2501  0.3566
  870MPD2    H512773   4.200   4.692   1.076 -0.4793  1.0189 -1.0827
  870MPD2    N112774   4.345   4.574   1.548  1.1743 -0.2825 -0.2667
  870MPD2    H712775   4.332   4.553   1.646  1.5304 -1.7365 -0.5219
  871MPD2     C12776   1.810   3.906  16.445 -0.6191  0.2278  0.1542
  871MPD2    C112777   1.841   3.851  16.565  0.3453  0.2048  0.6196
  871MPD2    C212778   1.853   3.714  16.563  0.6446 -0.7846  0.0432
  871MPD2    C312779   1.831   3.634  16.447  0.4269  0.5882 -0.8881
  871MPD2    C412780   1.779   3.699  16.336 -0.2532 -0.4431 -0.5135
  871MPD2    C512781   1.770   3.831  16.340  0.3282 -0.8434  0.6652
  871MPD2     H12782   1.888   3.660  16.650  0.7609 -3.5650 -1.7425
  871MPD2    H112783   1.728   3.648  16.255 -0.0816 -1.6292  0.1102
  871MPD2    H212784   1.792   4.013  16.432 -0.6547  0.2491  0.3749
  871MPD2    H312785   1.719   3.883  16.260 -0.0899 -0.1797  1.3618
  871MPD2     N12786   1.845   3.491  16.453  0.1572  0.0545  0.7777
  871MPD2    H512787   1.806   3.435  16.378  3.3330 -1.3155  0.1313
  871MPD2    N112788   1.840   3.946  16.671 -0.1260 -0.3928 -0.1449
  871MPD2    H712789   1.826   4.045  16.655  1.6580 -0.2529 -0.8132
  872MPD2     C12790   1.753   1.324  13.455 -0.9464  0.2899  0.9248
  872MPD2    C112791   1.851   1.341  13.549  0.0513  0.0583 -1.1141
  872MPD2    C212792   1.812   1.331  13.684 -0.5682  0.2634  0.3699
  872MPD2    C312793   1.693   1.289  13.722  0.2699  0.0274 -0.7883
  872MPD2    C412794   1.596   1.267  13.622  0.6987 -0.2915 -0.0420
  872MPD2    C512795   1.629   1.283  13.492 -0.5256 -0.3855  0.1522
  872MPD2     H12796   1.892   1.347  13.754 -0.7911  1.5834  0.3319
  872MPD2    H112797   1.493   1.237  13.634  1.2024 -2.2722 -0.6856
  872MPD2    H212798   1.782   1.334  13.351 -1.7592 -0.7146  0.5920
  872MPD2    H312799   1.555   1.258  13.416 -2.1047  2.0127  0.9032
  872MPD2     N12800   1.653   1.264  13.856  0.6869 -0.3206 -0.1034
  872MPD2    H512801   1.556   1.236  13.870  0.5193 -1.2638 -3.0998
  872MPD2    N112802   1.986   1.361  13.515  0.5019 -0.4609  0.2615
  872MPD2    H712803   2.046   1.369  13.596  3.8546 -1.8599 -2.0858
  873MPD2     C12804   4.460   1.756   0.705 -0.1528 -0.2133  0.1569
  873MPD2    C112805   4.359   1.744   0.794 -1.0245 -0.1290 -0.2495
  873MPD2    C212806   4.323   1.619   0.836  0.1400  0.1509 -0.2471
  873MPD2    C312807   4.379   1.510   0.778  0.2046 -0.0731 -0.8565
  873MPD2    C412808   4.468   1.522   0.678 -0.4189  0.4865  0.2842
  873MPD2    C512809   4.511   1.648   0.646  0.4399 -0.4712  0.1534
  873MPD2     H12810   4.243   1.604   0.908 -0.2492  0.7650 -0.5448
  873MPD2    H112811   4.521   1.434   0.642 -0.4716  0.3238  0.6063
  873MPD2    H212812   4.505   1.846   0.665  0.1503 -0.4388 -0.0034
  873MPD2    H312813   4.588   1.655   0.571  1.2559 -4.4794  0.6192
  873MPD2     N12814   4.327   1.381   0.801 -0.8459 -0.4185 -0.1040
  873MPD2    H512815   4.329   1.307   0.731  0.2058 -0.3291 -0.1731
  873MPD2    N112816   4.300   1.866   0.838 -0.1316 -0.2809  0.1060
  873MPD2    H712817   4.349   1.953   0.816  1.1287 -0.7649  1.0086
  874MPD2     C12818   3.985   1.538  15.879  0.5916  0.2215  0.5015
  874MPD2    C112819   4.040   1.490  15.994  0.0733  0.6297 -0.2999
  874MPD2    C212820   4.157   1.555  16.044 -0.8989  0.2295  0.6521
  874MPD2    C312821   4.217   1.659  15.980 -0.4674  0.4300 -0.0421
  874MPD2    C412822   4.161   1.701  15.863  0.8440 -0.2114 -0.2723
  874MPD2    C512823   4.043   1.650  15.816  0.5555 -0.5816 -1.0751
  874MPD2     H12824   4.199   1.526  16.140 -0.0952  0.7139  0.4429
  874MPD2    H112825   4.209   1.784  15.813 -0.2488 -0.0725 -1.0891
  874MPD2    H212826   3.892   1.506  15.834 -0.8040  1.5673  2.4091
  874MPD2    H312827   4.007   1.683  15.719  0.5146  1.5899 -0.3225
  874MPD2     N12828   4.331   1.717  16.035  0.3289  0.1630 -0.9107
  874MPD2    H512829   4.335   1.699  16.135 -0.3607 -1.5814 -1.1816
  874MPD2    N112830   3.969   1.384  16.068 -1.1145 -0.0108  0.0728
  874MPD2    H712831   3.892   1.346  16.014  0.1500 -1.5310 -0.6515
  875MPD2     C12832   0.188   4.359  14.541 -0.3487 -0.6759  0.6454
  875MPD2    C112833   0.076   4.432  14.569 -0.2268 -0.3372  1.1413
  875MPD2    C212834   0.091   4.522  14.678  1.1020  0.3250  0.4243
  875MPD2    C312835   0.202   4.534  14.755 -0.1609 -0.1079  0.4740
  875MPD2    C412836   0.312   4.463  14.718 -0.1533 -0.0410  0.4294
  875MPD2    C512837   0.309   4.386  14.603  0.0772  0.4677 -0.1254
  875MPD2     H12838   4.715   4.558  14.711  1.4987  0.4395  1.4608
  875MPD2    H112839   0.410   4.486  14.757  0.2472 -2.4030  0.8229
  875MPD2    H212840   0.192   4.290  14.458 -3.1404  0.6167 -0.5808
  875MPD2    H312841   0.394   4.324  14.577 -1.0143  0.1488 -2.9698
  875MPD2     N12842   0.217   4.614  14.877  0.5025  0.8210  0.1480
  875MPD2    H512843   0.308   4.627  14.921 -0.3897  0.5479  2.1044
  875MPD2    N112844   4.673   4.429  14.498  0.0362  0.2424  0.8522
  875MPD2    H712845   4.590   4.478  14.532  0.5526  2.3984 -1.0425
  876MPD2     C12846   4.068   1.083  15.915 -0.0502 -0.4221 -0.5390
  876MPD2    C112847   4.008   0.967  15.873  0.7270  0.1150  0.0871
  876MPD2    C212848   4.061   0.846  15.916  0.0698  0.3739 -0.5027
  876MPD2    C312849   4.163   0.850  16.015  0.4948  0.0035 -0.7749
  876MPD2    C412850   4.222   0.966  16.055 -0.5631  0.5987 -0.4178
  876MPD2    C512851   4.178   1.084  16.000  0.2140  0.7330  0.4187
  876MPD2     H12852   4.017   0.750  15.894  0.0543 -0.2470  2.1651
  876MPD2    H112853   4.315   0.961  16.112 -0.1516  2.1192 -0.9551
  876MPD2    H212854   4.045   1.176  15.865  0.8447  0.2465  0.3114
  876MPD2    H312855   4.236   1.172  16.023 -1.5308  2.2565 -0.9815
  876MPD2     N12856   4.208   0.726  16.056 -0.3604 -0.0964  0.2867
  876MPD2    H512857   4.179   0.642  16.008  1.0337 -0.3211 -0.1549
  876MPD2    N112858   3.908   0.976  15.772 -0.5701 -0.1631 -0.4253
  876MPD2    H712859   3.881   1.066  15.734  0.6437  0.3611 -0.0349
  877MPD2     C12860   3.374   1.353  15.228  0.1581 -0.6235 -0.5092
  877MPD2    C112861   3.499   1.310  15.270  0.3735  0.6341  0.3125
  877MPD2    C212862   3.613   1.335  15.200 -0.1686  0.3855  0.2390
  877MPD2    C312863   3.604   1.422  15.089  0.7019  0.0301  0.4442
  877MPD2    C412864   3.487   1.471  15.053  0.3221  0.3814  0.4668
  877MPD2    C512865   3.374   1.441  15.119 -0.0332  0.0421 -0.0878
  877MPD2     H12866   3.710   1.293  15.225  0.2653  1.3064  0.0866
  877MPD2    H112867   3.478   1.528  14.961 -2.3034  0.2925  0.6543
  877MPD2    H212868   3.281   1.319  15.272  0.4394 -0.2675  0.3746
  877MPD2    H312869   3.279   1.477  15.078  0.2188 -0.3589 -1.0261
  877MPD2     N12870   3.719   1.460  15.011  0.8392  0.6898  0.4631
  877MPD2    H512871   3.704   1.489  14.915  2.1159  1.9082  0.6383
  877MPD2    N112872   3.506   1.221  15.382 -0.0321  0.1092 -0.0056
  877MPD2    H712873   3.416   1.186  15.414  0.8057 -3.5327 -1.5794
  878MPD2     C12874   2.870   0.589  13.460 -0.5059  0.2785 -0.0982
  878MPD2    C112875   2.992   0.602  13.512 -0.2161  0.0543  0.5165
  878MPD2    C212876   3.009   0.631  13.647 -0.4734 -0.1907  0.1007
  878MPD2    C312877   2.901   0.625  13.733 -0.3975 -0.4223  0.6300
  878MPD2    C412878   2.778   0.599  13.677 -0.3849 -0.2286 -0.5413
  878MPD2    C512879   2.762   0.596  13.538  0.2645  0.3473  0.4116
  878MPD2     H12880   3.105   0.656  13.689 -0.8120  0.9661  0.1690
  878MPD2    H112881   2.684   0.609  13.731 -0.3288 -1.2581 -0.2613
  878MPD2    H212882   2.840   0.592  13.356  0.9475  0.3620 -0.5128
  878MPD2    H312883   2.665   0.599  13.490 -0.0542 -2.3960  0.8622
  878MPD2     N12884   2.926   0.652  13.870  0.0806 -0.3863 -0.7370
  878MPD2    H512885   3.019   0.683  13.899 -0.3644 -0.4907  0.8196
  878MPD2    N112886   3.101   0.598  13.417 -0.0477  0.5942 -0.6397
  878MPD2    H712887   3.077   0.591  13.319 -0.5921 -1.2838 -0.3721
  879MPD2     C12888   3.772   1.856  17.411 -0.3696 -0.1915 -0.1791
  879MPD2    C112889   3.859   1.925  17.329 -0.7760 -0.7913  0.6051
  879MPD2    C212890   3.837   1.926  17.192 -0.0347  0.3738  0.6262
  879MPD2    C312891   3.736   1.840  17.143  0.4281  0.5165 -0.4267
  879MPD2    C412892   3.640   1.788  17.230 -0.1234 -0.2239 -0.0973
  879MPD2    C512893   3.659   1.795  17.361 -0.5266  0.6377  0.0011
  879MPD2     H12894   3.894   1.975  17.115  0.7775  0.9271  1.5825
  879MPD2    H112895   3.556   1.734  17.189  0.0608  0.7538 -1.7635
  879MPD2    H212896   3.787   1.860  17.518  1.5262 -0.8657 -0.4191
  879MPD2    H312897   3.593   1.745  17.431 -1.1494 -0.1346 -1.1318
  879MPD2     N12898   3.704   1.828  17.005 -0.4324 -0.1797 -0.5360
  879MPD2    H512899   3.622   1.776  16.975  0.9365 -3.0717  0.7661
  879MPD2    N112900   3.973   1.997  17.393  0.0882 -0.2942  0.2481
  879MPD2    H712901   3.963   2.017  17.493 -0.1478  1.7856 -0.1832
  880MPD2     C12902   4.578   4.078   0.359 -0.3715  0.0805  0.8175
  880MPD2    C112903   4.710   4.127   0.361  0.1578  0.6915  0.0488
  880MPD2    C212904   0.081   4.079   0.457 -0.2436 -0.0798  0.4934
  880MPD2    C312905   0.040   3.998   0.559  0.6304  0.5621 -0.6737
  880MPD2    C412906   4.629   3.950   0.550 -0.1175  0.8324  0.5943
  880MPD2    C512907   4.540   3.983   0.448 -0.2875  0.5426  0.5491
  880MPD2     H12908   0.187   4.100   0.466  0.0302 -1.4284  0.4009
  880MPD2    H112909   4.591   3.876   0.620  0.0362 -0.5440 -0.7673
  880MPD2    H212910   4.509   4.120   0.287 -1.3082 -0.7125  1.2443
  880MPD2    H312911   4.446   3.931   0.438 -0.0350  0.0635  0.6575
  880MPD2     N12912   0.135   3.953   0.663  0.9627  0.0042  0.2063
  880MPD2    H512913   0.232   3.979   0.649 -0.3510  2.8791 -3.7603
  880MPD2    N112914   0.023   4.229   0.274  0.5648  0.3190  0.3642
  880MPD2    H712915   4.668   4.266   0.218 -0.5384 -2.1924  0.1843
  881MPD2     C12916   0.684   0.336  17.623  0.1913 -0.0155  0.2444
  881MPD2    C112917   0.669   0.214  17.557  0.0317 -0.3335 -0.9813
  881MPD2    C212918   0.580   0.124  17.619 -0.7894 -0.0015  0.2809
  881MPD2    C312919   0.483   0.168   0.027 -0.6897  0.0942  0.7504
  881MPD2    C412920   0.502   0.293   0.088  0.2520  0.4380  0.4233
  881MPD2    C512921   0.608   0.375   0.046 -0.6204 -0.2585 -0.2057
  881MPD2     H12922   0.557   0.028  17.575  0.6784 -0.1666 -0.1174
  881MPD2    H112923   0.429   0.322   0.163  0.5626 -0.4241  1.0693
  881MPD2    H212924   0.771   0.397  17.599  1.6046 -2.7222 -1.5895
  881MPD2    H312925   0.629   0.469   0.094  0.3580 -0.8818  0.5873
  881MPD2     N12926   0.377   0.082   0.084 -0.2712 -0.3429  0.1039
  881MPD2    H512927   0.314   0.126   0.150  0.1832  0.7636 -0.2062
  881MPD2    N112928   0.769   0.175  17.468 -0.5315  0.1601 -0.3065
  881MPD2    H712929   0.835   0.248  17.442 -0.2220 -0.6612 -1.8357
  882MPD2     C12930   3.843   1.161  14.386  0.7195 -0.1902 -0.0977
  882MPD2    C112931   3.804   1.280  14.444  0.1360  0.0801  0.3244
  882MPD2    C212932   3.675   1.323  14.429 -0.0992 -0.0279  0.2249
  882MPD2    C312933   3.581   1.235  14.366  0.7829  0.1954  0.1635
  882MPD2    C412934   3.622   1.113  14.316 -0.3997 -0.1672 -0.8303
  882MPD2    C512935   3.752   1.081  14.316 -0.0308 -1.3241 -0.4199
  882MPD2     H12936   3.642   1.416  14.474 -0.3790  0.1507 -0.3548
  882MPD2    H112937   3.551   1.035  14.290 -1.5022  1.2164 -2.0012
  882MPD2    H212938   3.943   1.119  14.395  0.1940 -1.2620  0.7938
  882MPD2    H312939   3.785   0.984  14.280  1.5258 -1.2149  0.7500
  882MPD2     N12940   3.440   1.261  14.363  0.0046 -0.4974  0.4211
  882MPD2    H512941   3.385   1.190  14.315  1.8274  0.2451 -2.7042
  882MPD2    N112942   3.906   1.353  14.516 -0.3153  0.1420  0.4250
  882MPD2    H712943   3.994   1.304  14.529 -1.3413 -1.4090  1.4843
  883MPD2     C12944   1.281   2.185  16.187 -0.8415 -0.4425 -0.0064
  883MPD2    C112945   1.328   2.089  16.101 -0.1230  0.3285 -0.6156
  883MPD2    C212946   1.453   2.025  16.118 -0.3267 -0.8079  0.5243
  883MPD2    C312947   1.516   2.037  16.238 -0.3485  0.3515 -0.3013
  883MPD2    C412948   1.454   2.117  16.332 -0.2314  1.5313  0.0646
  883MPD2    C512949   1.342   2.197  16.311  0.1622 -0.4580 -0.2299
  883MPD2     H12950   1.487   1.957  16.041  1.6235  2.8957 -1.9045
  883MPD2    H112951   1.500   2.140  16.427  1.4868  1.7493 -0.8211
  883MPD2    H212952   1.187   2.237  16.176 -0.8733  0.0103  2.3188
  883MPD2    H312953   1.294   2.254  16.389  1.3186  0.1111  0.0609
  883MPD2     N12954   1.625   1.949  16.261 -0.1900 -0.0017 -0.1761
  883MPD2    H512955   1.655   1.893  16.182 -1.4407  0.3213 -0.8780
  883MPD2    N112956   1.260   2.055  15.978  0.7843 -0.8049  0.2795
  883MPD2    H712957   1.302   1.986  15.917 -0.2496 -0.6734 -0.5585
  884MPD2     C12958   1.904   2.466  15.683 -1.1666 -0.1805  0.0571
  884MPD2    C112959   1.959   2.490  15.560 -0.0505 -0.0592 -0.0591
  884MPD2    C212960   1.878   2.518  15.447  0.5794  0.2085 -0.1185
  884MPD2    C312961   1.740   2.513  15.468  0.0045 -0.6786 -0.3545
  884MPD2    C412962   1.687   2.492  15.593  0.3512 -0.2479  0.5226
  884MPD2    C512963   1.773   2.468  15.699  0.1323  0.4836 -0.1373
  884MPD2     H12964   1.919   2.537  15.348  0.9246  0.2573  0.0325
  884MPD2    H112965   1.582   2.483  15.618 -0.3426  1.0569 -1.9528
  884MPD2    H212966   1.969   2.440  15.766 -2.6882 -1.4083  0.8667
  884MPD2    H312967   1.727   2.447  15.795 -0.7836  2.0983 -0.2234
  884MPD2     N12968   1.656   2.555  15.358  0.2082  0.7614  0.1343
  884MPD2    H512969   1.702   2.592  15.275 -1.6646  1.5936 -0.5219
  884MPD2    N112970   2.099   2.473  15.541  0.4834  0.7351 -0.4719
  884MPD2    H712971   2.136   2.487  15.448 -0.7341  0.5748 -0.9750
  885MPD2     C12972   1.421   2.870   0.292  0.1849 -0.2975  0.2694
  885MPD2    C112973   1.433   2.734   0.265 -0.3652  0.5663 -0.3559
  885MPD2    C212974   1.383   2.687   0.147 -0.5196 -0.1472 -0.0053
  885MPD2    C312975   1.325   2.771   0.054 -0.1939  0.8964  0.9258
  885MPD2    C412976   1.317   2.908   0.074  0.1131  0.1503  0.4914
  885MPD2    C512977   1.364   2.953   0.193  0.0207  0.2569  0.7439
  885MPD2     H12978   1.402   2.584   0.120 -1.9225 -0.3897 -0.0684
  885MPD2    H112979   1.267   2.971   0.001  0.6513  0.4105  0.3513
  885MPD2    H212980   1.461   2.908   0.385 -0.6314  1.6254 -0.1626
  885MPD2    H312981   1.349   3.057   0.219 -2.1094  0.1047  0.1220
  885MPD2     N12982   1.270   2.722  17.619 -0.6857 -0.5782 -0.1482
  885MPD2    H512983   1.242   2.791  17.550  0.7464  0.5135  0.3658
  885MPD2    N112984   1.512   2.662   0.357 -0.1619 -0.0625 -0.4355
  885MPD2    H712985   1.557   2.715   0.431 -1.2614 -0.4955  0.5385
  886MPD2     C12986   2.732   0.574  15.101  0.1837  0.1237  0.2442
  886MPD2    C112987   2.777   0.656  15.206 -0.6298 -0.4197 -0.1689
  886MPD2    C212988   2.760   0.792  15.196 -0.6887 -0.2056 -0.0073
  886MPD2    C312989   2.689   0.838  15.092  0.3039 -0.6120 -0.2878
  886MPD2    C412990   2.644   0.759  14.992  0.6349  0.6146  0.1754
  886MPD2    C512991   2.671   0.628  14.993  0.8250  0.2852  0.5138
  886MPD2     H12992   2.805   0.859  15.269 -0.4578  0.2929 -0.6043
  886MPD2    H112993   2.581   0.796  14.911 -0.9829  1.3178  1.7514
  886MPD2    H212994   2.747   0.467  15.096 -4.4576 -0.3348 -3.8112
  886MPD2    H312995   2.633   0.565  14.914 -1.0754  1.6311  0.3409
  886MPD2     N12996   2.666   0.976  15.071  0.2565 -0.0189  0.2649
  886MPD2    H512997   2.615   0.997  14.986 -1.2087 -0.6708  0.9932
  886MPD2    N112998   2.863   0.602  15.309  0.4064  0.2355  0.4047
  886MPD2    H712999   2.926   0.662  15.361  0.5635 -1.7087  2.4730
  887MPD2     C13000   3.360   0.753  15.825 -0.1461  0.7866  0.3197
  887MPD2    C113001   3.250   0.796  15.748  0.8251 -0.0064 -0.7482
  887MPD2    C213002   3.228   0.930  15.720 -0.1440 -0.6889  0.6079
  887MPD2    C313003   3.319   1.022  15.769 -0.2562 -0.3397  0.3668
  887MPD2    C413004   3.432   0.982  15.844 -0.2263 -0.0825  0.3697
  887MPD2    C513005   3.445   0.847  15.871 -0.1906 -0.1000 -0.1163
  887MPD2     H13006   3.137   0.961  15.670  0.4032 -0.2404 -0.1142
  887MPD2    H113007   3.508   1.050  15.879  1.0382 -0.8886 -0.7797
  887MPD2    H213008   3.381   0.652  15.858  0.0419  0.7884  0.2088
  887MPD2    H313009   3.527   0.817  15.936  1.5964 -0.0119 -2.3130
  887MPD2     N13010   3.291   1.167  15.743  0.6097  0.7516 -0.1904
  887MPD2    H513011   3.198   1.192  15.710  0.3442  1.7234  1.3222
  887MPD2    N113012   3.153   0.702  15.702  0.6493  0.2884  0.4322
  887MPD2    H713013   3.088   0.737  15.632 -0.6321 -1.4067  0.7438
  888MPD2     C13014   0.734   1.083  15.030  0.4034 -0.3130  0.0411
  888MPD2    C113015   0.605   1.130  15.062 -0.2629  0.4613 -0.0945
  888MPD2    C213016   0.596   1.265  15.074  0.0530  0.6168 -0.2300
  888MPD2    C313017   0.700   1.356  15.053  0.2396  0.3784 -0.1195
  888MPD2    C413018   0.814   1.307  14.991  0.4274  0.0347 -0.3966
  888MPD2    C513019   0.821   1.173  14.974 -0.0251 -0.3558  0.3509
  888MPD2     H13020   0.507   1.310  15.115 -0.4905  1.6667 -2.5257
  888MPD2    H113021   0.895   1.361  14.944  1.3136 -0.0534  1.0484
  888MPD2    H213022   0.755   0.977  15.019 -1.7863 -0.9355  1.7198
  888MPD2    H313023   0.907   1.126  14.927  0.9782  0.4457  1.3751
  888MPD2     N13024   0.677   1.492  15.090 -0.1699 -0.2719 -0.2296
  888MPD2    H513025   0.583   1.528  15.100 -0.1801 -0.0687 -1.0052
  888MPD2    N113026   0.494   1.054  15.103  0.4009  0.1756  0.0236
  888MPD2    H713027   0.414   1.098  15.148 -0.2079 -1.0752  0.1846
  889MPD2     C13028   3.307   0.593  12.759  0.9516  0.1022  0.1621
  889MPD2    C113029   3.392   0.549  12.855  0.3309 -1.6452  0.5310
  889MPD2    C213030   3.467   0.642  12.925 -0.3712 -0.3265 -0.1857
  889MPD2    C313031   3.433   0.772  12.916 -0.4536 -0.0418 -0.4283
  889MPD2    C413032   3.340   0.817  12.822  0.3876 -0.1523  0.7121
  889MPD2    C513033   3.269   0.724  12.747  0.2403 -0.1507 -0.3315
  889MPD2     H13034   3.530   0.608  13.006 -0.0356 -1.1289 -0.7845
  889MPD2    H113035   3.310   0.919  12.801  1.2996 -0.1744 -0.6559
  889MPD2    H213036   3.245   0.527  12.699  1.7644 -0.4742 -0.0459
  889MPD2    H313037   3.190   0.755  12.680 -2.1056  0.4978  2.7052
  889MPD2     N13038   3.504   0.866  12.996 -0.4295 -0.5428 -0.1296
  889MPD2    H513039   3.574   0.827  13.059  0.4188  2.0623  0.5552
  889MPD2    N113040   3.443   0.418  12.858  0.1516 -0.1524  0.2906
  889MPD2    H713041   3.518   0.394  12.923  0.3569 -1.2469 -0.3455
  890MPD2     C13042   3.722   2.373  15.312  0.0820  0.5033 -0.1627
  890MPD2    C113043   3.783   2.470  15.394 -0.6602 -0.0280 -1.0855
  890MPD2    C213044   3.872   2.433  15.495  0.8191  0.8260  0.6051
  890MPD2    C313045   3.887   2.301  15.523  0.2981  0.0322  0.4494
  890MPD2    C413046   3.842   2.209  15.431  0.2217 -0.1045  0.0083
  890MPD2    C513047   3.749   2.240  15.335 -0.1513  0.0403  0.4618
  890MPD2     H13048   3.926   2.509  15.549 -0.4626  0.4015  2.5051
  890MPD2    H113049   3.856   2.103  15.448  0.5884  0.2655  1.9855
  890MPD2    H213050   3.655   2.394  15.229 -0.5498  2.6014  0.8746
  890MPD2    H313051   3.710   2.161  15.272  1.5183 -0.6947  0.3538
  890MPD2     N13052   3.974   2.268  15.625  0.0711 -0.3105 -0.2299
  890MPD2    H513053   4.002   2.346  15.685  1.7940 -1.4985  0.5208
  890MPD2    N113054   3.751   2.604  15.356  0.1271  0.0634 -0.8279
  890MPD2    H713055   3.684   2.600  15.280  2.6006 -0.8063 -2.9694
  891MPD2     C13056   2.556   0.811  16.305  0.1604  0.5145  0.4515
  891MPD2    C113057   2.471   0.809  16.412  0.5588  0.7993  0.4139
  891MPD2    C213058   2.506   0.747  16.534 -0.4696 -0.2342 -0.3397
  891MPD2    C313059   2.637   0.701  16.548  0.4686 -0.4949  0.4822
  891MPD2    C413060   2.727   0.720  16.439 -0.6530  0.9067  0.9577
  891MPD2    C513061   2.682   0.771  16.319 -0.4041  0.0674 -0.3078
  891MPD2     H13062   2.437   0.734  16.617  1.9706 -1.0884  1.5688
  891MPD2    H113063   2.833   0.699  16.450 -0.3651  0.6863 -2.3446
  891MPD2    H213064   2.532   0.865  16.214  3.3475  0.6914 -0.2990
  891MPD2    H313065   2.761   0.794  16.248 -1.5431 -0.8250 -1.8523
  891MPD2     N13066   2.677   0.652  16.673  0.0730 -0.0224 -0.2772
  891MPD2    H513067   2.624   0.684  16.754  0.6506 -2.4143  1.0172
  891MPD2    N113068   2.341   0.848  16.384 -0.2381  0.6651  0.4389
  891MPD2    H713069   2.326   0.896  16.295  1.8942  0.7999  0.1470
  892MPD2     C13070   2.857   1.503  15.109  0.3051  0.4998  0.3756
  892MPD2    C113071   2.780   1.528  14.994  0.1195  0.4621 -0.8774
  892MPD2    C213072   2.833   1.501  14.863  0.7144  0.7833  0.5704
  892MPD2    C313073   2.960   1.456  14.850  0.3549  0.1720 -0.1220
  892MPD2    C413074   3.038   1.446  14.962  0.2525 -0.4716 -1.3216
  892MPD2    C513075   2.988   1.467  15.087 -0.6664 -0.0350  0.0937
  892MPD2     H13076   2.766   1.522  14.780 -2.6572 -3.0802  2.3531
  892MPD2    H113077   3.145   1.435  14.946  0.3304 -1.6653  0.0047
  892MPD2    H213078   2.825   1.528  15.209  0.7569  2.5004  0.0094
  892MPD2    H313079   3.048   1.445  15.174 -0.0463 -0.3869 -0.4216
  892MPD2     N13080   3.020   1.432  14.718  0.0075  0.4105  0.7749
  892MPD2    H513081   3.120   1.420  14.715 -0.1316 -0.3257 -0.9752
  892MPD2    N113082   2.648   1.573  15.008 -1.0235  0.1351 -0.1061
  892MPD2    H713083   2.595   1.575  14.921 -0.4502 -0.8943 -0.4839
  893MPD2     C13084   3.724   0.536   1.059 -0.2908  0.5329  0.6147
  893MPD2    C113085   3.820   0.549   1.159 -0.0684  0.1356 -0.0816
  893MPD2    C213086   3.828   0.669   1.231  0.6417 -0.1344  0.1873
  893MPD2    C313087   3.729   0.771   1.219 -0.3255  0.2979 -0.0368
  893MPD2    C413088   3.641   0.755   1.113 -0.2268  0.5474  0.6028
  893MPD2    C513089   3.634   0.640   1.042 -0.1963  0.1850  0.4589
  893MPD2     H13090   3.909   0.687   1.301  1.0406 -0.6957 -0.1318
  893MPD2    H113091   3.566   0.830   1.088 -0.6030 -0.2829 -0.7570
  893MPD2    H213092   3.723   0.439   1.011 -0.3208  1.0082 -0.3515
  893MPD2    H313093   3.553   0.625   0.972 -0.8137 -1.2384  1.4887
  893MPD2     N13094   3.709   0.878   1.302  0.4105 -0.1229  0.3224
  893MPD2    H513095   3.621   0.928   1.297 -0.0207 -0.7584  1.5011
  893MPD2    N113096   3.922   0.451   1.159  0.5246  0.5439 -0.0467
  893MPD2    H713097   3.925   0.389   1.079 -1.6675  2.7764 -1.8473
  894MPD2     C13098   2.099   2.854   1.436 -0.4007 -0.3617  0.3254
  894MPD2    C113099   2.089   2.980   1.484 -0.7878 -0.0951  0.1092
  894MPD2    C213100   2.100   3.088   1.403  1.0111 -0.0375 -0.0051
  894MPD2    C313101   2.163   3.071   1.281 -0.0620  0.4290 -0.2001
  894MPD2    C413102   2.175   2.941   1.230 -0.3031 -0.3966 -0.2752
  894MPD2    C513103   2.145   2.833   1.310 -0.3722 -0.3550 -0.3366
  894MPD2     H13104   2.074   3.189   1.433 -0.1608 -0.1517 -0.6528
  894MPD2    H113105   2.198   2.921   1.126  1.1073 -1.2105  0.1915
  894MPD2    H213106   2.081   2.767   1.499 -1.8346 -0.5099 -0.2830
  894MPD2    H313107   2.152   2.733   1.268 -0.9975 -0.5055 -0.0743
  894MPD2     N13108   2.210   3.183   1.218 -0.4053 -0.0631 -0.0339
  894MPD2    H513109   2.200   3.272   1.265 -1.3628  0.0095 -0.3714
  894MPD2    N113110   2.049   3.005   1.618 -0.1820 -0.3110  0.1527
  894MPD2    H713111   2.038   3.104   1.640 -1.4215 -0.1271 -1.2775
  895MPD2     C13112   1.423   0.725  13.023  0.3283 -0.0898  0.7928
  895MPD2    C113113   1.407   0.590  12.984 -0.1911  0.0910  0.9769
  895MPD2    C213114   1.475   0.495  13.062  0.5049 -0.0128 -0.6291
  895MPD2    C313115   1.557   0.532  13.167 -0.3732  0.0148 -0.0382
  895MPD2    C413116   1.567   0.665  13.204  0.1480 -0.4478  0.9670
  895MPD2    C513117   1.503   0.761  13.126  0.3985 -0.1608  0.1495
  895MPD2     H13118   1.482   0.394  13.024 -0.3370 -0.6826  1.0104
  895MPD2    H113119   1.624   0.706  13.286  1.6291  1.9876 -1.2862
  895MPD2    H213120   1.374   0.798  12.960  0.4971  0.0831  0.8595
  895MPD2    H313121   1.512   0.869  13.138  0.0904 -0.4575  3.0555
  895MPD2     N13122   1.644   0.435  13.227  0.2617  0.4790  0.1271
  895MPD2    H513123   1.671   0.460  13.322 -0.4722 -2.1100  1.0190
  895MPD2    N113124   1.329   0.542  12.881 -0.0150 -0.0732 -0.0844
  895MPD2    H713125   1.328   0.441  12.867 -0.2146  0.0932 -1.2144
  896MPD2     C13126   3.581   3.638   1.847  0.7374  0.4962 -0.0979
  896MPD2    C113127   3.613   3.570   1.728  0.0427 -0.0063  0.3326
  896MPD2    C213128   3.517   3.537   1.633  0.6273  1.0881 -0.1280
  896MPD2    C313129   3.389   3.589   1.651  0.0632 -0.3435  0.2729
  896MPD2    C413130   3.352   3.650   1.773  0.1492 -0.3640  0.8337
  896MPD2    C513131   3.450   3.680   1.866 -0.0909  0.5348  0.8134
  896MPD2     H13132   3.545   3.493   1.538  0.2231 -4.7983  2.4595
  896MPD2    H113133   3.250   3.680   1.797  0.8391  1.0062  2.0359
  896MPD2    H213134   3.646   3.656   1.931 -0.4595 -2.5520  1.4682
  896MPD2    H313135   3.428   3.722   1.963 -2.4245 -0.9216  0.8992
  896MPD2     N13136   3.300   3.589   1.543  0.2645  0.6121 -0.5544
  896MPD2    H513137   3.322   3.529   1.464  0.0723 -0.7974  0.4760
  896MPD2    N113138   3.753   3.545   1.723  0.5116 -0.2639 -0.1024
  896MPD2    H713139   3.809   3.594   1.792 -2.2453  0.2591  1.7899
  897MPD2     C13140   0.038   4.650  10.423 -0.1879 -0.7724 -0.5093
  897MPD2    C113141   0.057   0.067  10.434 -0.2277  0.2394  0.5330
  897MPD2    C213142   0.013   0.132  10.544  0.4782 -0.3084  0.9268
  897MPD2    C313143   4.677   0.063  10.650 -0.5681  0.3616  0.3506
  897MPD2    C413144   4.662   4.644  10.638 -0.0721  0.4624 -0.6922
  897MPD2    C513145   4.695   4.574  10.521  0.0616 -0.0555  0.6609
  897MPD2     H13146   0.034   0.238  10.553  1.4856 -0.3984 -0.3522
  897MPD2    H113147   4.615   4.595  10.723 -0.8591  1.1752 -0.7148
  897MPD2    H213148   0.070   4.600  10.332  2.0617 -1.0427  0.4390
  897MPD2    H313149   4.676   4.468  10.517  1.0419 -0.2429  1.1009
  897MPD2     N13150   4.656   0.139  10.768 -0.6397 -0.2249  0.4099
  897MPD2    H513151   4.670   0.238  10.748 -2.0464 -0.0202  0.4426
  897MPD2    N113152   0.116   0.129  10.325 -0.3951 -0.2687 -0.0753
  897MPD2    H713153   0.134   0.065  10.248  1.8283 -1.3130  1.3138
  898MPD2     C13154   3.376   0.687  17.070  0.1314 -0.1562 -0.6035
  898MPD2    C113155   3.292   0.794  17.106  0.0093 -0.6589 -0.8838
  898MPD2    C213156   3.177   0.824  17.030 -0.2700 -0.3921  0.0696
  898MPD2    C313157   3.167   0.780  16.902  0.4060 -0.1476  0.2025
  898MPD2    C413158   3.249   0.680  16.864  0.0509  0.3418  0.2750
  898MPD2    C513159   3.346   0.633  16.945 -0.6359 -0.4693  0.7288
  898MPD2     H13160   3.107   0.896  17.070  0.7828  0.3906  0.4790
  898MPD2    H113161   3.227   0.628  16.771 -0.3018 -0.9016  1.0529
  898MPD2    H213162   3.464   0.644  17.117 -0.2832 -0.9912 -0.5868
  898MPD2    H313163   3.406   0.548  16.914  1.1639  0.3695  1.9353
  898MPD2     N13164   3.058   0.831  16.825  0.3612  0.1682  0.4197
  898MPD2    H513165   2.998   0.896  16.875 -0.9563  0.0884 -1.0461
  898MPD2    N113166   3.322   0.870  17.223  1.0006  0.4122  0.9231
  898MPD2    H713167   3.252   0.934  17.258 -2.4169 -3.0261  0.4003
  899MPD2     C13168   3.359   2.021  17.349  0.3968 -0.4843  0.3494
  899MPD2    C113169   3.392   2.150  17.390  0.0388 -0.3686  0.3626
  899MPD2    C213170   3.296   2.233  17.446 -0.8401  0.4209  0.6817
  899MPD2    C313171   3.169   2.184  17.470 -0.8455 -0.7687 -0.3131
  899MPD2    C413172   3.137   2.057  17.431 -0.5341  0.7435 -0.2437
  899MPD2    C513173   3.231   1.978  17.368  0.6638 -0.7189  0.1782
  899MPD2     H13174   3.329   2.334  17.465  3.4585 -0.6195 -1.3784
  899MPD2    H113175   3.041   2.009  17.444 -0.5997  0.6451 -1.0947
  899MPD2    H213176   3.433   1.952  17.310 -1.6478 -2.1120 -0.6304
  899MPD2    H313177   3.218   1.876  17.334  1.5893 -0.7526 -0.0929
  899MPD2     N13178   3.076   2.264  17.533  0.0984 -0.3208  0.4115
  899MPD2    H513179   3.104   2.361  17.541 -1.8987  0.3626 -0.9939
  899MPD2    N113180   3.529   2.182  17.375 -0.1272 -0.4366  0.2872
  899MPD2    H713181   3.589   2.109  17.338  0.6640  0.9169 -1.1180
  900MPD2     C13182   3.281   3.266  12.466  0.3405  0.7141 -0.1117
  900MPD2    C113183   3.199   3.203  12.551  0.0826  0.5687  0.6157
  900MPD2    C213184   3.069   3.236  12.568  0.0460 -0.2258 -0.1436
  900MPD2    C313185   3.015   3.333  12.491  0.1870 -0.4403  0.1445
  900MPD2    C413186   3.096   3.399  12.401 -0.1821  0.3752  0.1314
  900MPD2    C513187   3.230   3.371  12.392 -0.1497 -0.2900 -0.1372
  900MPD2     H13188   3.001   3.181  12.632  0.5146  1.3753  1.7336
  900MPD2    H113189   3.060   3.487  12.349 -1.1869 -0.4453 -0.5820
  900MPD2    H213190   3.384   3.235  12.452 -0.2730 -1.1366 -0.4975
  900MPD2    H313191   3.292   3.424  12.320 -2.2137  3.1762  0.6406
  900MPD2     N13192   2.876   3.359  12.496  0.2338  0.2917 -0.2712
  900MPD2    H513193   2.818   3.301  12.556  1.3046  1.0357  1.4605
  900MPD2    N113194   3.262   3.102  12.621  0.3454 -0.0792  0.0979
  900MPD2    H713195   3.351   3.073  12.582  0.6978 -0.5414  1.2576
  901MPD2     C13196   3.259   2.363  13.462  0.4426 -0.2058 -0.6865
  901MPD2    C113197   3.219   2.316  13.338  0.1009  0.6029 -0.7203
  901MPD2    C213198   3.234   2.396  13.224 -0.1494 -0.4528 -0.5403
  901MPD2    C313199   3.272   2.526  13.237  0.0208  0.3572 -0.3538
  901MPD2    C413200   3.302   2.577  13.364 -0.0809 -0.5692  0.1057
  901MPD2    C513201   3.299   2.493  13.474 -0.4440 -0.1246  0.2936
  901MPD2     H13202   3.223   2.361  13.122  1.3004  2.3008 -1.6505
  901MPD2    H113203   3.318   2.684  13.376 -0.0477 -0.3100 -2.2393
  901MPD2    H213204   3.250   2.291  13.543  1.2544  1.0329  0.5014
  901MPD2    H313205   3.315   2.531  13.574 -2.7429 -0.6164  0.8412
  901MPD2     N13206   3.288   2.601  13.116  0.7243  0.3546 -0.1860
  901MPD2    H513207   3.270   2.545  13.033 -1.4691 -0.6615  0.9763
  901MPD2    N113208   3.179   2.177  13.333  0.7638  0.2879 -0.6328
  901MPD2    H713209   3.180   2.132  13.424 -0.3239  2.0963  0.2651
  902MPD2     C13210   1.256   1.223  13.092  0.0992 -0.6713  0.3239
  902MPD2    C113211   1.234   1.291  12.978  0.5771  0.4403  0.1083
  902MPD2    C213212   1.176   1.231  12.871 -0.4988 -0.6361 -0.7897
  902MPD2    C313213   1.176   1.094  12.866 -0.5826 -0.1562  0.4723
  902MPD2    C413214   1.203   1.024  12.978  0.8726 -0.3695 -0.7130
  902MPD2    C513215   1.235   1.090  13.093  0.3653 -0.4027  0.5914
  902MPD2     H13216   1.147   1.292  12.786  0.8361  0.3633 -0.5411
  902MPD2    H113217   1.193   0.916  12.974 -0.1978 -0.2395 -1.7373
  902MPD2    H213218   1.279   1.281  13.181 -3.1642  0.5133  0.4237
  902MPD2    H313219   1.245   1.027  13.180  1.1737  0.2566  0.9727
  902MPD2     N13220   1.148   1.023  12.745  0.1776  0.5038  0.2369
  902MPD2    H513221   1.180   0.926  12.746 -1.3282  0.0094  0.9911
  902MPD2    N113222   1.268   1.426  12.953 -0.0205  1.0770 -0.3848
  902MPD2    H713223   1.220   1.457  12.869  0.3360 -0.6303 -1.2244
  903MPD2     C13224   0.791   1.227  12.076  0.3609 -0.6358  0.1400
  903MPD2    C113225   0.881   1.122  12.052  0.2992  0.6071  0.0476
  903MPD2    C213226   0.917   1.096  11.921 -0.4710 -0.8299 -1.0866
  903MPD2    C313227   0.870   1.169  11.813 -0.2665  0.3680  0.5677
  903MPD2    C413228   0.783   1.279  11.841 -0.0468 -0.2864 -0.2100
  903MPD2    C513229   0.760   1.312  11.969  0.2839  0.2014  0.4579
  903MPD2     H13230   0.985   1.015  11.901 -0.7963 -1.0756 -1.2042
  903MPD2    H113231   0.734   1.341  11.768 -0.0697  0.4107  0.4058
  903MPD2    H213232   0.758   1.260  12.174 -1.5797 -0.2388 -0.6442
  903MPD2    H313233   0.703   1.403  11.988 -3.0637 -2.1101  1.5420
  903MPD2     N13234   0.914   1.121  11.688  0.1778  0.9592  0.1454
  903MPD2    H513235   0.965   1.033  11.687 -0.2928  0.6774  0.7391
  903MPD2    N113236   0.924   1.044  12.166 -0.2786  0.0343 -0.4576
  903MPD2    H713237   0.866   1.052  12.249  1.4809  3.7696  0.4377
  904MPD2     C13238   1.449   0.487  14.139  0.2425  0.4610 -0.0094
  904MPD2    C113239   1.511   0.495  14.017 -0.7610 -0.1164  0.6579
  904MPD2    C213240   1.646   0.457  14.009  1.1143  0.2309 -0.0736
  904MPD2    C313241   1.715   0.410  14.118  0.6103  0.0963 -0.2943
  904MPD2    C413242   1.649   0.394  14.234 -0.4321  1.4632  0.3203
  904MPD2    C513243   1.518   0.428  14.241 -0.3264  0.2846  0.2525
  904MPD2     H13244   1.698   0.476  13.916  0.1911 -0.5250 -0.7424
  904MPD2    H113245   1.692   0.358  14.327 -1.7591 -0.6916  0.1048
  904MPD2    H213246   1.352   0.526  14.168 -0.1701 -1.2460  0.8839
  904MPD2    H313247   1.466   0.423  14.336 -2.0517 -0.2879 -0.7249
  904MPD2     N13248   1.853   0.393  14.110 -0.5365  0.1763  0.1718
  904MPD2    H513249   1.898   0.404  14.019 -0.1445  2.3241  0.6322
  904MPD2    N113250   1.446   0.556  13.908 -0.4607  0.4761  0.4743
  904MPD2    H713251   1.503   0.565  13.825 -0.5374 -2.7405  0.0582
  905MPD2     C13252   0.957   0.196  13.433  0.0089  0.1004  0.6930
  905MPD2    C113253   1.085   0.242  13.407 -0.2359 -0.1649  0.6718
  905MPD2    C213254   1.169   0.169  13.322  0.9013 -0.2941  0.1229
  905MPD2    C313255   1.130   0.043  13.271 -0.1357  0.2617  0.0612
  905MPD2    C413256   1.000   0.008  13.294 -0.4490 -0.0214 -0.9464
  905MPD2    C513257   0.914   0.085  13.370  0.4980 -0.6079 -0.0967
  905MPD2     H13258   1.261   0.218  13.292  0.8571 -0.3626 -0.1263
  905MPD2    H113259   0.964   4.634  13.257  0.7535 -1.6070  2.0089
  905MPD2    H213260   0.889   0.255  13.492  1.2984 -0.1737  2.4418
  905MPD2    H313261   0.811   0.051  13.374  1.9001 -4.8699  0.1996
  905MPD2     N13262   1.210   4.670  13.196  0.3212 -0.3843 -0.1916
  905MPD2    H513263   1.155   4.598  13.149 -1.7732  1.6542 -0.8731
  905MPD2    N113264   1.121   0.366  13.466  0.1704 -0.0657  0.3428
  905MPD2    H713265   1.055   0.416  13.526 -0.5143  0.1915 -0.6252
  906MPD2     C13266   3.579   0.276  11.357 -0.4014  0.4569 -0.5183
  906MPD2    C113267   3.577   0.257  11.223  0.3524  0.2833 -0.1491
  906MPD2    C213268   3.575   0.125  11.175 -0.2763  0.4373 -0.0207
  906MPD2    C313269   3.577   0.017  11.261 -0.1285  0.1225  0.1672
  906MPD2    C413270   3.569   0.044  11.393 -0.2382 -0.1505  0.1411
  906MPD2    C513271   3.577   0.168  11.442  0.6244 -0.4638  0.1043
  906MPD2     H13272   3.601   0.104  11.072  1.8742  1.8949  0.2247
  906MPD2    H113273   3.573   4.687  11.468  0.4552  0.0426  0.3013
  906MPD2    H213274   3.593   0.375  11.400 -0.6795  0.1403  0.3000
  906MPD2    H313275   3.587   0.180  11.549 -3.2759  0.0719  0.3724
  906MPD2     N13276   3.571   4.598  11.221 -0.4577 -0.3524 -0.2908
  906MPD2    H513277   3.548   4.527  11.290 -0.6543 -0.2155 -0.2182
  906MPD2    N113278   3.578   0.372  11.137  0.2796  0.3788  0.5144
  906MPD2    H713279   3.582   0.466  11.176  2.2861  0.7197 -0.5312
  907MPD2     C13280   2.642   4.442  15.235  0.0921 -0.0777 -0.4189
  907MPD2    C113281   2.703   4.328  15.273 -0.1190 -0.0536  0.1314
  907MPD2    C213282   2.824   4.328  15.346  0.0686 -0.6530 -0.0301
  907MPD2    C313283   2.878   4.442  15.395 -0.2011 -0.2314 -0.2056
  907MPD2    C413284   2.827   4.560  15.340  0.5288  0.2849  0.4990
  907MPD2    C513285   2.710   4.556  15.264  0.0003  0.2647 -0.1154
  907MPD2     H13286   2.860   4.233  15.384 -0.3642 -2.0283 -3.0535
  907MPD2    H113287   2.875   4.653  15.368  1.5673  0.4240 -1.7077
  907MPD2    H213288   2.545   4.451  15.188 -0.5773 -1.4880  0.6745
  907MPD2    H313289   2.665   4.643  15.217  2.5315  1.2961 -0.6341
  907MPD2     N13290   2.987   4.456  15.487  0.0933  0.1863 -0.1137
  907MPD2    H513291   3.017   4.551  15.508  1.3904 -0.4848  1.0218
  907MPD2    N113292   2.647   4.203  15.228  0.1213 -0.1522 -0.0885
  907MPD2    H713293   2.708   4.124  15.246  1.4273  1.5266  2.9223
  908MPD2     C13294   0.266   4.551   9.528 -0.0182  0.1255  0.1909
  908MPD2    C113295   0.250   4.510   9.663 -0.3005  0.0166 -0.3175
  908MPD2    C213296   0.267   4.594   9.767 -0.2620 -0.5487 -0.5387
  908MPD2    C313297   0.291   0.003   9.749 -0.0556 -0.5714 -0.3663
  908MPD2    C413298   0.309   0.042   9.620  0.0649 -0.5527 -0.0701
  908MPD2    C513299   0.299   4.682   9.509  0.5998  0.4422  0.4374
  908MPD2     H13300   0.265   4.552   9.867 -1.6949 -2.4117 -1.3600
  908MPD2    H113301   0.320   0.147   9.595 -0.6274 -0.7465 -1.2019
  908MPD2    H213302   0.245   4.486   9.444 -0.0660  1.9219 -1.1864
  908MPD2    H313303   0.300   4.710   9.404  0.0111 -0.3761  0.2213
  908MPD2     N13304   0.316   0.086   9.858 -0.5062  0.4279  0.2114
  908MPD2    H513305   0.314   0.032   9.944 -1.3449  1.6550  0.9598
  908MPD2    N113306   0.219   4.379   9.697 -0.1064 -0.2389 -1.5413
  908MPD2    H713307   0.232   4.350   9.794  0.5575  3.7153 -0.4487
  909MPD2     C13308   0.624   3.086  11.965 -0.0663  0.4094 -0.2552
  909MPD2    C113309   0.650   3.227  11.957 -0.2326 -0.3981 -0.0557
  909MPD2    C213310   0.563   3.316  12.027  0.4447  0.8355  0.0974
  909MPD2    C313311   0.437   3.265  12.069  0.2074  0.2549  0.2888
  909MPD2    C413312   0.422   3.129  12.077 -0.1413 -0.2263 -0.6851
  909MPD2    C513313   0.511   3.042  12.029  0.5051  0.4361  0.0590
  909MPD2     H13314   0.582   3.422  12.034 -2.7507  1.2292  2.7818
  909MPD2    H113315   0.336   3.084  12.124 -0.9922  0.8183 -1.2424
  909MPD2    H213316   0.694   3.013  11.926  1.3616  1.2006  0.8113
  909MPD2    H313317   0.479   2.938  12.021  2.0741  0.1708 -2.8082
  909MPD2     N13318   0.349   3.364  12.118  0.6552 -0.1806  0.6085
  909MPD2    H513319   0.377   3.460  12.101 -1.5025 -0.5181 -4.9101
  909MPD2    N113320   0.770   3.278  11.900  0.3559  0.9384  0.5802
  909MPD2    H713321   0.792   3.376  11.916  1.9303  0.8809 -1.3074
  910MPD2     C13322   2.118   0.276  15.519 -0.4880  0.0378  0.0395
  910MPD2    C113323   2.178   0.159  15.478  0.0363  0.7061 -0.3380
  910MPD2    C213324   2.145   0.104  15.355  0.6529  0.7702 -0.5307
  910MPD2    C313325   2.046   0.162  15.278  0.1030  0.4409  1.0009
  910MPD2    C413326   1.997   0.283  15.318  0.4168  0.4623  0.5024
  910MPD2    C513327   2.023   0.335  15.439  0.5970  0.5302 -0.5223
  910MPD2     H13328   2.186   0.008  15.325 -1.5645 -0.9114  1.7891
  910MPD2    H113329   1.927   0.336  15.255 -0.1312 -1.5895 -0.6327
  910MPD2    H213330   2.155   0.325  15.608 -0.5125  1.5801 -0.8059
  910MPD2    H313331   1.980   0.433  15.454  0.3358 -0.1212  2.9647
  910MPD2     N13332   2.000   0.108  15.157  0.6400  0.2383 -0.2998
  910MPD2    H513333   1.947   0.170  15.096  0.1475  0.2653  0.1591
  910MPD2    N113334   2.282   0.092  15.548  0.8498 -0.6611 -0.4466
  910MPD2    H713335   2.322   0.014  15.497  0.7003 -0.8423 -0.2842
  911MPD2     C13336   0.824   1.372  16.934  0.4496 -0.2365 -0.9164
  911MPD2    C113337   0.864   1.303  16.816 -0.2977  0.2258 -0.1000
  911MPD2    C213338   0.794   1.329  16.697  0.0587 -0.2665  0.7744
  911MPD2    C313339   0.693   1.414  16.702  0.5506 -0.0190  0.2961
  911MPD2    C413340   0.668   1.490  16.820  0.3627  0.3812 -0.3210
  911MPD2    C513341   0.730   1.471  16.933  0.1888 -0.0238 -0.7530
  911MPD2     H13342   0.827   1.288  16.602 -0.3767 -1.4357  1.1302
  911MPD2    H113343   0.593   1.569  16.824 -1.8787 -1.7983  0.2335
  911MPD2    H213344   0.877   1.353  17.027  0.6125 -2.1119 -1.3891
  911MPD2    H313345   0.720   1.529  17.024  0.3716 -3.2491  1.3170
  911MPD2     N13346   0.623   1.432  16.583  0.6180  0.9495  0.0092
  911MPD2    H513347   0.656   1.371  16.508  2.2120  1.0490  0.6434
  911MPD2    N113348   0.961   1.200  16.841  0.5360 -0.8907  0.0738
  911MPD2    H713349   0.983   1.196  16.940 -0.6486  1.8291  0.4447
  912MPD2     C13350   4.660   1.169  16.101 -0.1653 -0.1101 -0.3791
  912MPD2    C113351   0.033   1.162  16.200 -0.1302  0.1012 -0.2743
  912MPD2    C213352   0.043   1.045  16.273  1.3105  0.2496  0.2014
  912MPD2    C313353   4.691   0.936  16.239  0.1195 -0.8693  0.2391
  912MPD2    C413354   4.598   0.940  16.134  0.0589 -0.6854 -0.4914
  912MPD2    C513355   4.580   1.061  16.069 -0.0533  0.4667  0.1338
  912MPD2     H13356   0.127   1.030  16.339  0.9478 -1.1895  0.3458
  912MPD2    H113357   4.532   0.860  16.102 -1.0268  0.0145 -0.0281
  912MPD2    H213358   4.651   1.265  16.051 -2.1591  0.7590  1.6965
  912MPD2    H313359   4.514   1.064  15.983 -0.3908 -1.8334  0.3321
  912MPD2     N13360   4.719   0.811  16.306 -0.0180  0.1666  0.7126
  912MPD2    H513361   0.065   0.809  16.383  0.4186 -1.5548  0.2869
  912MPD2    N113362   0.117   1.271  16.221  0.0039  0.7369  0.1178
  912MPD2    H713363   0.115   1.351  16.159 -0.6664 -0.4809 -1.4305
  913MPD2     C13364   0.061   0.836   9.786  0.4623  1.4431 -0.3240
  913MPD2    C113365   0.033   0.935   9.878 -0.5826  0.7140  0.2310
  913MPD2    C213366   4.702   1.053   9.833 -0.3801 -0.2401 -0.0856
  913MPD2    C313367   4.654   1.059   9.706 -0.7374  0.3855  0.1294
  913MPD2    C413368   4.669   0.954   9.619  0.1640  1.2211 -0.0075
  913MPD2    C513369   0.021   0.845   9.654  0.2790  0.4388  0.3897
  913MPD2     H13370   4.689   1.133   9.905 -3.5059 -0.4963 -0.3495
  913MPD2    H113371   4.636   0.962   9.516 -0.1065  1.1157  0.0682
  913MPD2    H213372   0.097   0.739   9.816  0.3826  2.3426  2.6623
  913MPD2    H313373   0.036   0.768   9.579  1.7302  0.5091  0.6088
  913MPD2     N13374   4.598   1.180   9.670 -0.1018  0.4743 -0.2707
  913MPD2    H513375   4.590   1.255   9.737  2.3020  0.9376 -0.4930
  913MPD2    N113376   0.085   0.922  10.011 -0.3353  0.1212  0.3271
  913MPD2    H713377   0.134   0.834  10.022 -0.9383 -0.2656 -0.0327
  914MPD2     C13378   2.512   1.804  12.671  0.4054  0.0775  0.2906
  914MPD2    C113379   2.589   1.913  12.662  0.2285  0.1261  1.2819
  914MPD2    C213380   2.692   1.937  12.755  0.0423 -0.2175  1.2939
  914MPD2    C313381   2.721   1.839  12.854  0.0355 -0.6088 -0.3817
  914MPD2    C413382   2.641   1.725  12.857 -0.8177 -0.5935  0.5197
  914MPD2    C513383   2.543   1.711  12.766 -0.5147 -0.3457 -0.6180
  914MPD2     H13384   2.744   2.032  12.761 -0.2633  0.1350 -1.8710
  914MPD2    H113385   2.643   1.643  12.928  1.3687 -1.4617 -0.5642
  914MPD2    H213386   2.440   1.782  12.594 -1.7500  1.2501  1.9850
  914MPD2    H313387   2.487   1.618  12.766 -0.2192 -0.5337  0.5623
  914MPD2     N13388   2.818   1.856  12.958  0.3900  0.0431 -0.0648
  914MPD2    H513389   2.870   1.942  12.941  1.9596 -1.0113 -0.5249
  914MPD2    N113390   2.563   2.001  12.559 -0.2732  0.2878 -0.6262
  914MPD2    H713391   2.497   1.972  12.487 -1.8332  0.3457  0.7816
  915MPD2     C13392   1.311   2.331  15.706  0.0030  0.2475  0.8961
  915MPD2    C113393   1.187   2.387  15.675 -0.2246 -0.3073 -0.0169
  915MPD2    C213394   1.125   2.465  15.773 -0.0958 -0.5242  0.5967
  915MPD2    C313395   1.189   2.494  15.892 -0.0508 -0.1486 -0.2251
  915MPD2    C413396   1.317   2.443  15.914 -0.0989 -0.2467 -0.7404
  915MPD2    C513397   1.371   2.363  15.819  0.1633 -0.1430 -0.2715
  915MPD2     H13398   1.027   2.507  15.756  1.5869  1.7817 -3.5213
  915MPD2    H113399   1.382   2.472  15.997 -3.2494  1.3954  1.1700
  915MPD2    H213400   1.382   2.294  15.632 -1.7783 -0.0490 -0.6710
  915MPD2    H313401   1.473   2.329  15.834  0.1633 -0.7591 -1.6516
  915MPD2     N13402   1.118   2.562  15.993 -0.3972  0.0018  0.3451
  915MPD2    H513403   1.022   2.583  15.970  0.7174  1.9469 -2.5194
  915MPD2    N113404   1.136   2.349  15.548 -0.0870 -0.0659  0.3328
  915MPD2    H713405   1.201   2.296  15.490 -0.1056  0.2799 -0.0022
  916MPD2     C13406   4.440   0.446  15.632  0.1876  0.4136 -0.2046
  916MPD2    C113407   4.409   0.332  15.704  0.0440 -0.1702 -0.1479
  916MPD2    C213408   4.392   0.208  15.644 -0.9619  0.0843  0.5580
  916MPD2    C313409   4.409   0.197  15.510  0.1109 -0.1421  0.3308
  916MPD2    C413410   4.423   0.315  15.431 -0.2160 -0.3368 -0.1840
  916MPD2    C513411   4.442   0.433  15.495 -0.2545  0.3655  0.3822
  916MPD2     H13412   4.361   0.128  15.711  1.8592  0.4020  2.2049
  916MPD2    H113413   4.437   0.311  15.323  2.5416  0.0694  0.1568
  916MPD2    H213414   4.454   0.542  15.680 -0.0221  0.3988 -0.1163
  916MPD2    H313415   4.470   0.517  15.431  1.3512 -1.1748 -0.9366
  916MPD2     N13416   4.384   0.065  15.451 -0.1747 -0.0043  0.7865
  916MPD2    H513417   4.382   4.705  15.512  0.5978  0.5288  1.5271
  916MPD2    N113418   4.396   0.350  15.843 -0.3239  0.2814  1.0183
  916MPD2    H713419   4.439   0.426  15.895 -2.6348  0.0957  3.1919
  917MPD2     C13420   4.061   2.457  10.919  0.2754  0.0251 -0.6048
  917MPD2    C113421   4.114   2.480  11.039 -0.3508 -1.1792 -0.0447
  917MPD2    C213422   4.215   2.577  11.051 -0.0021 -0.3722  0.2948
  917MPD2    C313423   4.253   2.658  10.941  0.3126 -0.0272  0.0851
  917MPD2    C413424   4.199   2.630  10.821 -0.1453 -0.0354 -0.1402
  917MPD2    C513425   4.102   2.538  10.814  1.2441  0.3299 -0.8908
  917MPD2     H13426   4.249   2.597  11.152 -0.5750  0.9594  0.2142
  917MPD2    H113427   4.232   2.670  10.726  0.0878  0.3475  0.1004
  917MPD2    H213428   3.979   2.389  10.897  0.7515 -0.5288 -0.6406
  917MPD2    H313429   4.047   2.519  10.722  0.5611 -2.5522  0.1105
  917MPD2     N13430   4.360   2.750  10.949 -0.2836  0.1934 -0.0179
  917MPD2    H513431   4.371   2.824  10.881  1.7622  1.4063  1.6547
  917MPD2    N113432   4.046   2.418  11.148  0.2776 -0.2877 -0.6197
  917MPD2    H713433   3.949   2.392  11.134  0.3847 -1.1592  0.2556
  918MPD2     C13434   4.125   2.643  12.131  0.1901  0.3127  0.4399
  918MPD2    C113435   4.225   2.573  12.076  0.8618  0.4691 -0.7496
  918MPD2    C213436   4.211   2.504  11.956  0.4417 -0.1058 -0.2938
  918MPD2    C313437   4.081   2.500  11.906 -0.6308  0.6221 -0.2011
  918MPD2    C413438   3.981   2.571  11.968 -0.9342  0.1968  0.0117
  918MPD2    C513439   4.002   2.645  12.081 -0.4711  0.4138 -0.4467
  918MPD2     H13440   4.286   2.437  11.917  1.6374  0.4865  0.9967
  918MPD2    H113441   3.880   2.567  11.930 -1.0220  2.5255 -0.0055
  918MPD2    H213442   4.148   2.707  12.215  1.3029  1.9971 -1.1662
  918MPD2    H313443   3.924   2.703  12.128  0.9144  2.3298 -0.5408
  918MPD2     N13444   4.061   2.426  11.786 -0.0038  0.3617 -0.2554
  918MPD2    H513445   4.144   2.399  11.733 -1.1805  1.3236 -2.6212
  918MPD2    N113446   4.349   2.558  12.139 -0.3134  0.1062  0.0615
  918MPD2    H713447   4.422   2.502  12.095 -0.6795 -0.1465 -0.2191
  919MPD2     C13448   0.195   1.620  11.751 -0.1929 -0.2888  0.9613
  919MPD2    C113449   0.072   1.559  11.743 -1.0379  0.0075 -0.7191
  919MPD2    C213450   4.693   1.608  11.669  0.2306 -0.3950  0.3228
  919MPD2    C313451   4.711   1.715  11.585 -0.2130 -0.0257 -0.4117
  919MPD2    C413452   0.110   1.781  11.597  0.2447  0.0900  0.4628
  919MPD2    C513453   0.207   1.736  11.673  0.1542 -0.0041  0.6619
  919MPD2     H13454   4.603   1.549  11.656  0.3168 -1.1295  2.9245
  919MPD2    H113455   0.120   1.875  11.545  0.0876 -1.1757 -1.8386
  919MPD2    H213456   0.286   1.577  11.793 -0.0121 -0.1855  0.6751
  919MPD2    H313457   0.305   1.779  11.655  0.0485 -0.4916 -1.0194
  919MPD2     N13458   4.623   1.753  11.476 -0.1646  0.4025  0.0972
  919MPD2    H513459   4.657   1.819  11.406  1.3083 -1.0774 -0.5785
  919MPD2    N113460   0.047   1.435  11.797  0.2413  0.0394 -1.1821
  919MPD2    H713461   4.681   1.392  11.764 -0.0397 -1.2635  1.2148
  920MPD2     C13462   4.681   2.171  10.611  0.4727 -0.0913  0.8105
  920MPD2    C113463   4.610   2.061  10.565  1.6536 -0.2460 -0.0554
  920MPD2    C213464   4.570   1.967  10.660  0.3205  0.4588 -0.0924
  920MPD2    C313465   4.611   1.975  10.790  0.3702  0.2358 -0.3016
  920MPD2    C413466   4.668   2.090  10.830  0.0190  0.1349  0.0039
  920MPD2    C513467   4.710   2.186  10.740  0.1298 -0.9915  0.3784
  920MPD2     H13468   4.507   1.883  10.633  0.8785 -0.2590  0.8539
  920MPD2    H113469   4.709   2.110  10.929  0.3146 -3.4831  0.6092
  920MPD2    H213470   4.709   2.242  10.534 -2.7058  0.3875  0.0906
  920MPD2    H313471   0.047   2.269  10.779 -0.6476 -0.2525 -0.0531
  920MPD2     N13472   4.563   1.877  10.878  0.1297  0.3959  0.6837
  920MPD2    H513473   4.482   1.824  10.847  0.9898 -1.5165  1.7174
  920MPD2    N113474   4.550   2.040  10.438 -0.2544 -0.0695  0.0614
  920MPD2    H713475   4.516   1.946  10.420 -2.6805  0.7006  0.6758
  921MPD2     C13476   1.886   1.112  16.894 -0.0399 -0.8474  0.0639
  921MPD2    C113477   1.811   1.108  16.775 -0.0659  0.0532  0.3602
  921MPD2    C213478   1.679   1.094  16.782 -0.0433  0.8439 -0.0108
  921MPD2    C313479   1.614   1.089  16.908  0.2622 -0.2649  0.3558
  921MPD2    C413480   1.688   1.107  17.021  0.1217  0.1345 -1.1291
  921MPD2    C513481   1.819   1.122  17.015 -0.1239  0.2724  0.0393
  921MPD2     H13482   1.623   1.087  16.689  1.5902 -0.1349 -0.9215
  921MPD2    H113483   1.631   1.115  17.114  0.3389  0.6387 -1.0361
  921MPD2    H213484   1.993   1.125  16.895 -0.3860  1.8546  0.6658
  921MPD2    H313485   1.878   1.131  17.106  0.6122  1.3960 -0.5536
  921MPD2     N13486   1.475   1.062  16.902 -0.4527 -0.5461 -0.4829
  921MPD2    H513487   1.434   1.072  16.809  0.4759  1.9552 -0.6368
  921MPD2    N113488   1.888   1.097  16.658  0.4512 -0.0640 -0.6182
  921MPD2    H713489   1.989   1.104  16.670  0.6282 -0.7416 -1.7098
  922MPD2     C13490   1.724   2.780  17.324  0.2866 -0.2088 -0.0151
  922MPD2    C113491   1.748   2.908  17.271 -0.2052  0.0527  0.3280
  922MPD2    C213492   1.642   2.993  17.266 -0.2842 -0.0530  0.0464
  922MPD2    C313493   1.520   2.960  17.321 -0.3321  0.0105 -0.2462
  922MPD2    C413494   1.489   2.827  17.340  0.0961 -0.0481 -0.1205
  922MPD2    C513495   1.594   2.736  17.349  0.2347  0.2961  0.2789
  922MPD2     H13496   1.667   3.094  17.235 -0.4217 -0.1168 -0.2764
  922MPD2    H113497   1.390   2.783  17.352 -0.8591  2.0807 -0.1767
  922MPD2    H213498   1.808   2.715  17.349 -0.8404 -0.7997  2.1434
  922MPD2    H313499   1.572   2.644  17.403 -0.3196  0.0789 -0.3252
  922MPD2     N13500   1.429   3.070  17.335 -0.0064  0.3073 -0.4375
  922MPD2    H513501   1.462   3.160  17.303 -0.9413  0.7083 -0.2915
  922MPD2    N113502   1.877   2.952  17.227  0.3864  0.4685  0.3902
  922MPD2    H713503   1.895   3.051  17.210  0.7872 -0.1431 -2.7496
  923MPD2     C13504   2.605   0.821   8.760 -0.6077 -0.0196  0.3144
  923MPD2    C113505   2.603   0.878   8.891 -0.1097 -0.3067  0.1298
  923MPD2    C213506   2.702   0.846   8.983  0.2728 -0.4008  0.0077
  923MPD2    C313507   2.805   0.764   8.948  0.4390 -0.0050  0.5483
  923MPD2    C413508   2.807   0.699   8.823  0.3356  0.4117 -0.5231
  923MPD2    C513509   2.704   0.727   8.732  0.5966 -0.6450  0.2437
  923MPD2     H13510   2.684   0.899   9.076 -1.5089  1.5716 -1.4872
  923MPD2    H113511   2.884   0.629   8.794 -1.0275 -0.4995 -1.9962
  923MPD2    H213512   2.525   0.831   8.687  1.3880 -0.0789 -1.8669
  923MPD2    H313513   2.707   0.679   8.635  3.2483  1.0404 -0.4838
  923MPD2     N13514   2.916   0.730   9.030 -0.0147 -0.4515  0.1471
  923MPD2    H513515   2.972   0.656   8.990  0.6051  0.1318 -0.0695
  923MPD2    N113516   2.492   0.950   8.933  0.0543  0.2706  0.3715
  923MPD2    H713517   2.425   0.983   8.865  0.9619  0.4828 -0.4209
  924MPD2     C13518   3.290   3.639  15.833  0.7698  0.8206  0.3675
  924MPD2    C113519   3.242   3.724  15.926  0.1376 -0.1123  0.3650
  924MPD2    C213520   3.258   3.858  15.897  0.0801 -0.4072 -0.0820
  924MPD2    C313521   3.316   3.909  15.784  0.2857 -0.0032  0.3588
  924MPD2    C413522   3.346   3.831  15.685 -0.8071 -0.2849  0.3252
  924MPD2    C513523   3.348   3.696  15.717 -0.7025 -0.6149  0.3336
  924MPD2     H13524   3.215   3.929  15.967  0.3222  1.7078 -2.0774
  924MPD2    H113525   3.380   3.876  15.592  0.8025  2.8823  2.4241
  924MPD2    H213526   3.285   3.530  15.834 -1.2925  0.8917 -1.8267
  924MPD2    H313527   3.376   3.626  15.639 -1.3764  0.9932 -1.3422
  924MPD2     N13528   3.314   4.048  15.759 -0.1976 -0.0955 -0.9284
  924MPD2    H513529   3.320   4.081  15.663  0.2508  0.4749 -0.7084
  924MPD2    N113530   3.164   3.679  16.031 -0.1026 -0.1403  0.1750
  924MPD2    H713531   3.130   3.584  16.024  1.9930 -1.0515  2.3557
  925MPD2     C13532   1.977   1.028  14.598 -0.2686  0.4839  0.3710
  925MPD2    C113533   1.870   1.118  14.596  0.0693 -0.0675  0.1380
  925MPD2    C213534   1.865   1.225  14.677 -0.1377 -0.3084 -0.4137
  925MPD2    C313535   1.972   1.240  14.767  0.9244 -0.5947  0.1450
  925MPD2    C413536   2.072   1.146  14.785  0.4269  0.1307  0.3053
  925MPD2    C513537   2.072   1.043  14.691 -0.3379 -0.3887 -0.3138
  925MPD2     H13538   1.780   1.293  14.676  0.2062  0.1212 -0.4280
  925MPD2    H113539   2.150   1.145  14.860  1.3204  0.7190 -0.6116
  925MPD2    H213540   1.983   0.942  14.533 -1.2595  1.1607 -0.6108
  925MPD2    H313541   2.150   0.969  14.704  1.5958  1.6741 -0.2468
  925MPD2     N13542   1.985   1.347  14.858  0.1794 -0.1402  0.2146
  925MPD2    H513543   2.062   1.349  14.924 -1.3030  0.4853  1.9263
  925MPD2    N113544   1.765   1.114  14.497  0.7842 -0.2089 -0.4832
  925MPD2    H713545   1.695   1.188  14.505 -0.8337 -1.7339 -0.7145
  926MPD2     C13546   4.685   4.483  13.601 -0.0500 -0.0533 -0.8059
  926MPD2    C113547   0.001   4.615  13.607  0.9914 -0.0066 -0.2307
  926MPD2    C213548   0.066   4.667  13.504  0.4882 -0.0772 -0.7612
  926MPD2    C313549   0.106   4.592  13.392  0.2820 -0.2294 -0.2477
  926MPD2    C413550   0.057   4.464  13.382  0.9205  0.1643 -0.5965
  926MPD2    C513551   4.710   4.413  13.489 -0.2020 -0.4430  0.4871
  926MPD2     H13552   0.099   0.049  13.509 -1.2103  0.4480 -0.2749
  926MPD2    H113553   0.081   4.411  13.291 -0.2471 -0.5041 -0.5164
  926MPD2    H213554   4.607   4.452  13.670  1.8960 -1.4266  0.7456
  926MPD2    H313555   4.674   4.312  13.473 -1.2859 -0.2872  1.9619
  926MPD2     N13556   0.175   4.639  13.280  1.1050  0.3426 -0.0469
  926MPD2    H513557   0.199   4.581  13.200  0.6980 -1.1515  0.9034
  926MPD2    N113558   4.700   4.697  13.724 -0.5731 -0.0590 -1.0173
  926MPD2    H713559   4.679   4.641  13.807  0.7125 -1.5319 -1.6828
  927MPD2     C13560   1.040   3.086   0.518  0.4137  0.3747 -0.2791
  927MPD2    C113561   1.103   3.021   0.619  0.5656 -0.2783 -0.2093
  927MPD2    C213562   1.149   2.889   0.593 -0.0968  0.2611  0.6861
  927MPD2    C313563   1.114   2.821   0.480 -0.2988 -0.0124  0.1894
  927MPD2    C413564   1.045   2.888   0.384 -0.3370  0.1789 -0.1453
  927MPD2    C513565   1.016   3.023   0.403  0.6671 -0.0852 -0.7227
  927MPD2     H13566   1.196   2.839   0.676 -1.9759 -0.1771  1.4732
  927MPD2    H113567   1.018   2.840   0.291 -1.3658 -0.8727  0.6882
  927MPD2    H213568   1.009   3.190   0.526  2.2234  0.7689  1.7818
  927MPD2    H313569   0.957   3.065   0.322 -1.0773  2.5369  1.9238
  927MPD2     N13570   1.135   2.680   0.466 -0.2302 -0.3680 -0.3468
  927MPD2    H513571   1.176   2.631   0.545 -0.4115 -0.6275 -0.4131
  927MPD2    N113572   1.121   3.090   0.741  0.0200  0.2903 -0.3542
  927MPD2    H713573   1.059   3.169   0.755  1.5279  1.5024 -0.5356
  928MPD2     C13574   2.863   0.872   0.953  0.4187 -0.0425  0.2402
  928MPD2    C113575   2.947   0.984   0.965  0.1916  0.5517 -0.0954
  928MPD2    C213576   3.044   1.004   0.866  0.3423  0.7806  0.2442
  928MPD2    C313577   3.074   0.911   0.774  0.2262  1.6009 -0.0565
  928MPD2    C413578   3.007   0.789   0.781 -0.5270 -0.1299 -0.3348
  928MPD2    C513579   2.900   0.771   0.862  0.3048  0.1207 -0.7120
  928MPD2     H13580   3.103   1.094   0.881 -1.1165  1.3971  2.2522
  928MPD2    H113581   3.017   0.704   0.714  0.1330  0.1278 -0.5674
  928MPD2    H213582   2.786   0.846   1.024 -0.8461  0.7040 -0.8480
  928MPD2    H313583   2.833   0.687   0.849  0.7892 -0.8425  3.0481
  928MPD2     N13584   3.173   0.928   0.671  0.6016  0.4021  0.0019
  928MPD2    H513585   3.197   0.852   0.609 -0.1905 -1.7442  2.3221
  928MPD2    N113586   2.913   1.083   1.057 -0.3283  0.1892 -0.0696
  928MPD2    H713587   2.827   1.070   1.110  0.2425 -2.2451  0.2943
  929MPD2     C13588   3.231   0.415  10.280  0.5186 -0.1705  0.7159
  929MPD2    C113589   3.192   0.287  10.305 -0.6165  0.2994  0.1140
  929MPD2    C213590   3.128   0.209  10.212  0.3054 -0.6964  0.1302
  929MPD2    C313591   3.075   0.279  10.096 -0.1217  0.4185  0.3292
  929MPD2    C413592   3.109   0.410  10.076  0.5705  0.3605 -0.1798
  929MPD2    C513593   3.195   0.473  10.165 -0.3432  0.4888 -0.3202
  929MPD2     H13594   3.082   0.114  10.237 -0.3906 -0.1670  0.8502
  929MPD2    H113595   3.061   0.473  10.002  1.8111 -0.0768 -1.3499
  929MPD2    H213596   3.284   0.479  10.349 -0.5666  0.2983  1.1159
  929MPD2    H313597   3.226   0.576  10.148 -1.4034  0.4758 -2.3830
  929MPD2     N13598   2.962   0.227  10.023  0.3149 -0.0052  0.0888
  929MPD2    H513599   2.914   0.295   9.964  0.8345  0.0583 -0.2678
  929MPD2    N113600   3.241   0.233  10.432  0.0511 -1.0759  0.1302
  929MPD2    H713601   3.305   0.292  10.484 -0.6494  0.1249 -0.3704
  930MPD2     C13602   0.118   2.160  14.425 -0.9612 -0.1412  0.5659
  930MPD2    C113603   0.042   2.260  14.373 -0.3708 -0.4491 -0.3674
  930MPD2    C213604   4.720   2.244  14.241 -0.9838 -0.3966 -0.7460
  930MPD2    C313605   0.018   2.128  14.162  0.4198  0.6025 -0.4740
  930MPD2    C413606   0.095   2.032  14.219  0.4306  0.3340  0.3755
  930MPD2    C513607   0.149   2.051  14.344 -0.1447 -0.1321 -0.2246
  930MPD2     H13608   4.662   2.322  14.193  0.2793  1.4940  0.7799
  930MPD2    H113609   0.123   1.946  14.159 -0.6266 -0.7570  1.4573
  930MPD2    H213610   0.156   2.179  14.525  1.9830  2.4754 -1.0351
  930MPD2    H313611   0.206   1.970  14.389 -2.1001 -1.5893 -0.4059
  930MPD2     N13612   4.707   2.105  14.026 -0.0822  0.3944 -0.5658
  930MPD2    H513613   0.018   2.025  13.973 -4.3946 -2.1983  0.8246
  930MPD2    N113614   0.021   2.380  14.451  0.0084  0.3551  0.6335
  930MPD2    H713615   0.078   2.394  14.534  1.0301  2.2414 -0.3897
  931MPD2     C13616   1.158   2.636   1.334  0.2648 -0.4666  0.2171
  931MPD2    C113617   1.052   2.721   1.318 -0.6473  0.2180  0.2713
  931MPD2    C213618   0.920   2.678   1.353  0.2508  0.0985 -0.5227
  931MPD2    C313619   0.905   2.544   1.375  0.4347  0.1767  0.4636
  931MPD2    C413620   1.011   2.461   1.400 -0.3729 -0.0996 -0.1909
  931MPD2    C513621   1.139   2.507   1.381 -0.5306 -0.1580  0.4920
  931MPD2     H13622   0.836   2.747   1.350 -0.6344 -0.8608  1.6444
  931MPD2    H113623   1.001   2.358   1.432 -0.9696  0.5133  1.5630
  931MPD2    H213624   1.257   2.673   1.309  1.1655 -1.1535  2.8215
  931MPD2    H313625   1.223   2.439   1.391  0.2382  0.8408  0.8257
  931MPD2     N13626   0.776   2.478   1.384  0.0965  0.2170 -0.7556
  931MPD2    H513627   0.771   2.383   1.420  0.3591  1.6182  2.9916
  931MPD2    N113628   1.077   2.852   1.259 -0.1174  0.4155 -0.4413
  931MPD2    H713629   1.174   2.881   1.256  0.7800 -2.5256  1.1405
  932MPD2     C13630   2.081   1.120  11.114 -0.4298  0.5817  0.0770
  932MPD2    C113631   1.992   1.174  11.203 -0.6723  0.6531 -0.1583
  932MPD2    C213632   1.972   1.100  11.317 -0.7810 -0.1422  0.0249
  932MPD2    C313633   2.063   1.001  11.352 -0.6600 -0.1356 -0.1384
  932MPD2    C413634   2.163   0.961  11.266 -0.7722  0.0079 -0.0342
  932MPD2    C513635   2.173   1.031  11.151  0.3871  0.0078 -0.0657
  932MPD2     H13636   1.901   1.135  11.391  0.6230  0.1381  1.2286
  932MPD2    H113637   2.239   0.889  11.296  0.8630  1.5428 -0.5295
  932MPD2    H213638   2.102   1.176  11.023  1.6905 -0.2328  0.0588
  932MPD2    H313639   2.256   1.006  11.086 -0.2843 -1.5345 -0.3435
  932MPD2     N13640   2.054   0.926  11.471 -0.5667 -0.0255  0.2235
  932MPD2    H513641   2.123   0.852  11.476  0.2599  0.7450  0.3710
  932MPD2    N113642   1.908   1.285  11.184 -0.0772  0.4326 -0.6379
  932MPD2    H713643   1.839   1.309  11.255  1.9717  0.0786  1.4614
  933MPD2     C13644   2.353   1.583   1.431  0.2284  0.6075  0.6339
  933MPD2    C113645   2.406   1.475   1.364 -0.0596  0.3921  0.3606
  933MPD2    C213646   2.325   1.359   1.337  0.3740 -0.5772  0.3743
  933MPD2    C313647   2.192   1.369   1.363 -0.1108  0.0008  0.0327
  933MPD2    C413648   2.139   1.480   1.432  0.0968 -0.9963 -0.4641
  933MPD2    C513649   2.217   1.588   1.452 -0.0450 -0.7920  0.3633
  933MPD2     H13650   2.356   1.265   1.293  1.9122  1.0178 -1.9369
  933MPD2    H113651   2.035   1.489   1.462 -0.3735 -0.0997 -2.3690
  933MPD2    H213652   2.403   1.677   1.448  0.2290  0.5817  0.7823
  933MPD2    H313653   2.181   1.670   1.513  1.1404 -2.0886  2.8126
  933MPD2     N13654   2.117   1.265   1.323  0.2794 -0.3711  0.4965
  933MPD2    H513655   2.162   1.188   1.274 -0.6431  0.4369 -1.6268
  933MPD2    N113656   2.544   1.476   1.336  0.1941 -1.0633  0.0227
  933MPD2    H713657   2.601   1.548   1.379 -0.7849  0.2270 -0.8419
  934MPD2     C13658   3.624   3.419   2.125  0.3673  0.0574  0.2382
  934MPD2    C113659   3.697   3.333   2.048  0.0377  0.3662  0.0812
  934MPD2    C213660   3.634   3.273   1.939  0.7657 -0.1155 -0.0171
  934MPD2    C313661   3.495   3.265   1.927  0.8719 -0.9331 -0.1084
  934MPD2    C413662   3.425   3.343   2.022 -0.4159  0.2717 -0.1230
  934MPD2    C513663   3.486   3.415   2.120 -0.5510  0.7185  0.0856
  934MPD2     H13664   3.691   3.223   1.861 -0.1622  1.0940 -1.4547
  934MPD2    H113665   3.317   3.341   2.023 -0.4281  0.9090 -0.6927
  934MPD2    H213666   3.670   3.482   2.200  1.9248 -1.4331  0.5311
  934MPD2    H313667   3.435   3.479   2.191 -0.6968  2.3549 -1.4810
  934MPD2     N13668   3.420   3.213   1.823 -0.4165  0.4294  0.2324
  934MPD2    H513669   3.322   3.233   1.840  0.0167  1.6917  1.2615
  934MPD2    N113670   3.837   3.308   2.067  0.4032 -0.3816  0.2924
  934MPD2    H713671   3.877   3.257   1.989  2.6359  0.1766  1.0670
  935MPD2     C13672   3.829   2.764   1.052  0.2675 -0.4114  0.2187
  935MPD2    C113673   3.709   2.695   1.046 -0.2769 -0.0741 -0.3336
  935MPD2    C213674   3.609   2.741   1.132  0.1847  0.2725 -0.3010
  935MPD2    C313675   3.635   2.846   1.219  0.0858  0.1948 -0.6849
  935MPD2    C413676   3.755   2.906   1.231 -0.0019 -0.4382  0.6050
  935MPD2    C513677   3.850   2.869   1.142 -0.5287 -0.2623  0.2261
  935MPD2     H13678   3.511   2.697   1.122  0.0639  0.1562  1.4670
  935MPD2    H113679   3.785   2.979   1.306  2.3642 -0.0165 -0.7278
  935MPD2    H213680   3.907   2.741   0.980  1.0445  1.1757  0.5534
  935MPD2    H313681   3.942   2.925   1.149 -0.5113 -0.1810 -0.5806
  935MPD2     N13682   3.536   2.920   1.296 -0.1346  0.0153  0.4399
  935MPD2    H513683   3.572   3.003   1.341  0.7051  0.1202 -0.4284
  935MPD2    N113684   3.682   2.590   0.953  0.0030 -0.3267 -0.3955
  935MPD2    H713685   3.584   2.564   0.948  0.4105 -2.0431  0.6563
  936MPD2     C13686   1.792   4.508  12.608  0.1001 -0.2748 -0.4571
  936MPD2    C113687   1.867   4.440  12.699 -0.5601  0.8999  0.6056
  936MPD2    C213688   1.983   4.373  12.667 -1.1025  0.0700  0.2299
  936MPD2    C313689   2.014   4.366  12.534 -0.0398  0.4248 -0.5849
  936MPD2    C413690   1.942   4.430  12.433 -0.3192 -0.1690  0.1536
  936MPD2    C513691   1.828   4.499  12.477 -0.9323  0.2528 -0.1184
  936MPD2     H13692   2.038   4.319  12.744  0.9118  2.5638  0.5282
  936MPD2    H113693   1.967   4.423  12.328 -0.6653  2.4344 -0.0886
  936MPD2    H213694   1.699   4.554  12.640 -0.7536 -1.1408 -1.7007
  936MPD2    H313695   1.767   4.542  12.399  0.6326  0.6073 -1.1346
  936MPD2     N13696   2.118   4.278  12.506  0.4174 -0.1271 -0.1026
  936MPD2    H513697   2.146   4.229  12.590  1.3360  0.3066 -0.1628
  936MPD2    N113698   1.838   4.420  12.834  0.3557  1.4371 -0.3872
  936MPD2    H713699   1.918   4.385  12.885  0.1112  4.0201  1.7887
  937MPD2     C13700   0.165   0.764  11.433 -1.0002  0.9986 -0.1595
  937MPD2    C113701   0.182   0.904  11.444 -0.3007  0.7278 -0.0823
  937MPD2    C213702   0.231   0.978  11.330  0.0884 -0.0034  0.3733
  937MPD2    C313703   0.280   0.923  11.219  0.2041 -0.3207  0.1771
  937MPD2    C413704   0.270   0.781  11.211  0.5272  0.0333 -0.2136
  937MPD2    C513705   0.204   0.709  11.314 -0.7278  0.7418 -0.9063
  937MPD2     H13706   0.227   1.086  11.339  2.0803  0.1987 -1.0644
  937MPD2    H113707   0.315   0.730  11.126  0.9920  0.8506 -0.4623
  937MPD2    H213708   0.129   0.695  11.509 -0.1472  2.1048  1.2419
  937MPD2    H313709   0.196   0.601  11.315 -0.3455  0.7193 -0.6704
  937MPD2     N13710   0.347   1.006  11.129  0.0534  0.3856  0.0040
  937MPD2    H513711   0.358   1.101  11.162  0.9996 -0.3939  1.9679
  937MPD2    N113712   0.140   0.971  11.557 -0.3414  0.1648  0.5151
  937MPD2    H713713   0.138   1.072  11.553  0.3820  0.1222 -0.8243
  938MPD2     C13714   2.350   2.581   0.497  0.0399 -0.3043  0.1613
  938MPD2    C113715   2.404   2.652   0.603 -0.3826  0.6491  0.0975
  938MPD2    C213716   2.466   2.578   0.703  0.8382  0.2569 -0.3635
  938MPD2    C313717   2.476   2.444   0.695  0.0083 -0.2217  0.0589
  938MPD2    C413718   2.417   2.382   0.592  0.8269  0.4439  0.3668
  938MPD2    C513719   2.350   2.450   0.493  0.1197 -0.0614  0.4478
  938MPD2     H13720   2.520   2.625   0.784 -0.9411  0.3083  0.7819
  938MPD2    H113721   2.413   2.274   0.600 -3.0692  0.3846 -2.4407
  938MPD2    H213722   2.291   2.629   0.420 -2.2875  0.6462  2.5368
  938MPD2    H313723   2.297   2.389   0.420 -0.5713  0.7758  0.2521
  938MPD2     N13724   2.541   2.366   0.782  0.2705  0.1810  0.4852
  938MPD2    H513725   2.557   2.267   0.761 -1.0754 -0.4850  2.5794
  938MPD2    N113726   2.396   2.787   0.622  0.0547  0.5719 -0.5465
  938MPD2    H713727   2.425   2.820   0.714 -0.8989 -0.7986  0.2422
  939MPD2     C13728   3.909   3.315   1.260 -0.2248  0.4645 -0.3740
  939MPD2    C113729   3.860   3.401   1.174  0.2200  0.1882  0.0247
  939MPD2    C213730   3.907   3.414   1.046  0.9787 -0.2000  0.0015
  939MPD2    C313731   3.999   3.325   1.002 -0.2383  0.2319  0.3254
  939MPD2    C413732   4.048   3.229   1.088  0.2711  0.4957 -0.3699
  939MPD2    C513733   4.003   3.226   1.215 -0.3394 -0.3286 -0.1338
  939MPD2     H13734   3.881   3.492   0.975 -3.1003 -0.3865  1.2754
  939MPD2    H113735   4.120   3.152   1.059 -0.6250 -1.4260  2.5218
  939MPD2    H213736   3.876   3.293   1.361  0.9465  2.2591  0.4026
  939MPD2    H313737   4.043   3.155   1.286 -2.1459 -1.5029 -0.2829
  939MPD2     N13738   4.051   3.353   0.872 -0.2075  0.0442  0.0241
  939MPD2    H513739   4.008   3.425   0.815  1.7136 -0.8906 -2.5725
  939MPD2    N113740   3.753   3.480   1.221  0.0874  0.5982 -0.3008
  939MPD2    H713741   3.731   3.479   1.320 -1.0844  1.6004 -0.5491
  940MPD2     C13742   2.442   3.767  12.913  0.4858 -0.2609 -0.9691
  940MPD2    C113743   2.549   3.851  12.932  0.2967 -0.3652 -0.1256
  940MPD2    C213744   2.624   3.883  12.817  0.5568 -0.5309 -0.0919
  940MPD2    C313745   2.578   3.860  12.687  0.4883  0.0441  0.4713
  940MPD2    C413746   2.471   3.776  12.680  0.8394  0.3349  0.7173
  940MPD2    C513747   2.415   3.722  12.788 -0.5601  0.2049 -0.4797
  940MPD2     H13748   2.713   3.945  12.828  1.7308 -2.4194  1.0100
  940MPD2    H113749   2.435   3.731  12.588  1.2086  0.2504  0.6124
  940MPD2    H213750   2.384   3.717  12.990  2.9513  1.6198  2.1264
  940MPD2    H313751   2.331   3.655  12.775 -0.3288  0.0538 -1.2405
  940MPD2     N13752   2.634   3.927  12.570  0.3926 -0.3645  0.4032
  940MPD2    H513753   2.591   3.891  12.485  0.1730  1.0329 -0.0661
  940MPD2    N113754   2.571   3.895  13.065 -0.7885  0.2266  0.1235
  940MPD2    H713755   2.505   3.857  13.132  0.8177  0.6696  1.9658
  941MPD2     C13756   1.900   3.827   9.971  0.0928 -0.0972  0.2655
  941MPD2    C113757   2.022   3.778  10.014 -0.0533 -0.7300 -0.4219
  941MPD2    C213758   2.027   3.650  10.068  0.6514  0.0659 -0.0328
  941MPD2    C313759   1.910   3.572  10.083 -0.3795 -0.2636  0.0592
  941MPD2    C413760   1.788   3.626  10.052 -0.2943 -0.6208  0.1793
  941MPD2    C513761   1.782   3.756  10.003 -0.3540  0.0723 -0.9305
  941MPD2     H13762   2.121   3.601  10.089  1.5297  1.2007 -1.2776
  941MPD2    H113763   1.695   3.576  10.076 -0.4091 -0.2573  0.4923
  941MPD2    H213764   1.887   3.912   9.907 -0.5941 -1.5418 -1.5157
  941MPD2    H313765   1.684   3.795   9.976 -0.9839 -1.6142 -1.0510
  941MPD2     N13766   1.905   3.441  10.139 -0.0470  0.2647  0.3910
  941MPD2    H513767   1.813   3.400  10.148 -0.0743  0.3122  0.3257
  941MPD2    N113768   2.145   3.857   9.995 -0.3933  0.6359  0.2267
  941MPD2    H713769   2.229   3.833  10.046 -0.7219 -0.5557  0.2050
  942MPD2     C13770   1.361   0.778   9.819  0.0800  0.7695  0.4672
  942MPD2    C113771   1.449   0.887   9.784  0.0622 -0.0940 -0.0201
  942MPD2    C213772   1.584   0.863   9.783  0.6943 -0.1524  0.4973
  942MPD2    C313773   1.642   0.738   9.812 -0.7615 -0.4734  0.8734
  942MPD2    C413774   1.556   0.638   9.839  0.0185 -0.1784  0.3187
  942MPD2    C513775   1.416   0.659   9.846  0.2864  0.4171  0.3970
  942MPD2     H13776   1.658   0.940   9.765 -0.5541  1.0976  0.6861
  942MPD2    H113777   1.594   0.538   9.859  1.6853  0.6624  1.2950
  942MPD2    H213778   1.255   0.795   9.803 -0.3832 -0.9864  1.6839
  942MPD2    H313779   1.346   0.576   9.852  1.4839 -0.6524 -0.1976
  942MPD2     N13780   1.785   0.707   9.815  0.0539  0.8062  0.7480
  942MPD2    H513781   1.804   0.608   9.813  0.1118  0.8252  0.3800
  942MPD2    N113782   1.404   1.020   9.771  0.0397  0.6464 -0.4868
  942MPD2    H713783   1.470   1.088   9.735 -0.6020  0.5721 -1.7710
  943MPD2     C13784   0.751   2.605   9.491 -1.0263 -0.3008 -0.3450
  943MPD2    C113785   0.681   2.560   9.601 -0.3523 -0.0495 -0.4182
  943MPD2    C213786   0.738   2.573   9.731  0.3284 -0.3030  0.7570
  943MPD2    C313787   0.871   2.616   9.739 -0.1801 -0.1960 -0.1879
  943MPD2    C413788   0.938   2.652   9.625 -0.3725 -0.2879  0.5337
  943MPD2    C513789   0.877   2.649   9.499  0.0208  0.0004 -0.1080
  943MPD2     H13790   0.691   2.539   9.822  0.5271  0.1261  1.0235
  943MPD2    H113791   1.045   2.669   9.630 -0.7967  2.7499 -0.3383
  943MPD2    H213792   0.708   2.603   9.391 -0.8929  0.1688 -0.4092
  943MPD2    H313793   0.939   2.683   9.417 -0.7319  0.5020 -0.4736
  943MPD2     N13794   0.943   2.637   9.861  0.1543  0.4564  0.2508
  943MPD2    H513795   1.043   2.649   9.850  0.5165  0.4527  3.5002
  943MPD2    N113796   0.550   2.508   9.579 -0.0464 -0.0529 -0.3308
  943MPD2    H713797   0.524   2.493   9.482 -1.1936  0.2235 -0.0607
  944MPD2     C13798   0.832   2.789  10.933 -0.0300 -0.0736  0.1965
  944MPD2    C113799   0.852   2.651  10.921 -0.3819  0.0452 -0.1193
  944MPD2    C213800   0.796   2.567  11.014  0.1686  0.0056 -0.0281
  944MPD2    C313801   0.737   2.622  11.126  0.6456 -0.3056 -0.2990
  944MPD2    C413802   0.719   2.756  11.146 -0.3477 -0.3240 -0.2670
  944MPD2    C513803   0.772   2.834  11.048 -0.4172 -0.2596  0.1507
  944MPD2     H13804   0.796   2.460  10.996  2.5097  0.3056 -1.7216
  944MPD2    H113805   0.677   2.799  11.236 -0.1579 -0.3712 -0.1555
  944MPD2    H213806   0.863   2.859  10.857 -0.8966 -0.9193 -0.9357
  944MPD2    H313807   0.754   2.941  11.057 -1.0632 -0.2139 -1.8095
  944MPD2     N13808   0.694   2.531  11.227  0.4635  0.3531  0.8672
  944MPD2    H513809   0.731   2.437  11.218 -0.9566 -0.1739  0.5546
  944MPD2    N113810   0.910   2.619  10.794 -0.1960 -0.9876  0.4520
  944MPD2    H713811   0.932   2.685  10.721  1.1773 -2.1377 -0.1631
    1TCq1    O113812   3.834   2.848  14.155 -0.5558 -0.3765 -0.6659
    1TCq1    C113813   3.809   2.951  14.239  1.1437  0.5479 -0.0247
    1TCq1    O213814   3.722   3.039  14.226 -0.4316  0.0292  0.0239
    1TCq1    C213815   3.903   2.948  14.360  0.5970 -0.5534 -0.1578
    1TCq1    C313816   3.973   2.829  14.398 -0.1724  0.0017 -0.0051
    1TCq1    C413817   4.047   2.842  14.505  0.9265  0.7036 -0.3222
    1TCq1    C513818   4.069   2.952  14.578 -0.3628 -0.5411  0.2097
    1TCq1    C613819   4.008   3.068  14.538  0.0440 -0.4249 -0.7002
    1TCq1    C713820   3.920   3.068  14.433 -0.0098 -0.0525 -0.1029
    1TCq1    C813821   4.026   3.183  14.624 -0.9309 -0.9822  0.0422
    1TCq1    O413822   4.084   3.169  14.731  0.1340 -0.6950  0.3339
    1TCq1    C913823   4.122   2.720  14.541  0.2426  0.3906  0.0825
    1TCq1    O513824   4.117   2.621  14.466 -0.1906  0.1504  0.2980
    1TCq1    O613825   4.198   2.734  14.641  0.4860 -0.1106  0.4299
    1TCq1    H113826   3.911   2.798  14.190 -1.3727 -1.5324 -0.5194
    1TCq1    H213827   3.961   2.731  14.352  0.4978 -0.1387  0.1131
    1TCq1    H313828   4.136   2.963  14.663  2.2430 -1.7792 -1.6884
    1TCq1    H413829   3.865   3.154  14.398 -0.1657  0.4845  1.4405
    2MPD2     C13830   3.984   3.674  14.767 -0.0139  0.4048 -0.3876
    2MPD2    C113831   3.911   3.651  14.649 -0.4209 -0.4634  0.5373
    2MPD2    C213832   3.901   3.521  14.599  0.4405  0.4213  0.0473
    2MPD2    C313833   3.981   3.425  14.648 -0.0011 -0.3344  0.1869
    2MPD2    C413834   4.056   3.446  14.759 -0.4538 -0.2206  0.3435
    2MPD2    C513835   4.064   3.568  14.803  0.3495 -0.3164 -0.1606
    2MPD2     H13836   3.838   3.497  14.514 -0.5653 -0.2373  0.9804
    2MPD2    H113837   4.121   3.371  14.802 -0.4363 -0.1112  0.5076
    2MPD2    H213838   3.992   3.773  14.811 -0.9513  0.9451 -1.4149
    2MPD2    H313839   4.135   3.576  14.884  1.1454 -0.7608 -0.8088
    2MPD2     N13840   3.975   3.299  14.574 -0.1863 -1.2369  0.5489
    2MPD2    H513841   3.925   3.296  14.486 -1.7824  1.2301  1.3770
    2MPD2    N113842   3.846   3.759  14.583  0.3585 -0.3723 -0.8414
    2MPD2    H713843   3.885   3.850  14.605 -1.0520 -0.4989  2.1870
    3TMC2    C113844   3.732   3.860  14.397 -0.4170 -0.8308 -0.2131
    3TMC2    C213845   3.820   3.966  14.400  0.3727  0.1329  0.3036
    3TMC2    C313846   3.839   4.039  14.282  0.2684  0.3263 -0.0034
    3TMC2    C413847   3.681   3.823  14.280  0.0415  0.4694 -0.7106
    3TMC2    C513848   3.711   3.889  14.170 -0.0018  0.1154 -0.3994
    3TMC2    C613849   3.791   3.994  14.163 -0.3193 -0.2267  0.1967
    3TMC2     C13850   3.744   3.745  14.496 -0.2630  1.3261 -0.7185
    3TMC2     O13851   3.670   3.650  14.483  0.7091  0.5816  0.1065
    3TMC2     H13852   3.850   4.005  14.497  0.8507  1.2247 -0.2884
    3TMC2    H113853   3.597   3.756  14.283  1.5173 -1.3445 -0.1048
    3TMC2    H213854   3.814   4.045  14.069 -3.5435  0.1662 -0.3774
    3TMC2    C713855   3.668   3.831  14.045  0.0568  0.1719  0.2054
    3TMC2    C813856   3.947   4.139  14.270  0.4864  0.5912  0.1962
    3TMC2    O113857   3.664   3.713  14.050 -0.4243  0.3122 -0.2840
    3TMC2    O213858   3.953   4.212  14.172  0.3219  0.0213  0.0427
    3TMC2    O513859   4.040   4.116  14.366  0.4438  0.1851  0.4282
    3TMC2    H513860   4.024   4.044  14.432 -0.9511 -1.6367 -1.9145
    4MPD2     C13861   2.732   0.167  13.543  0.0958 -0.7533  0.4474
    4MPD2    C113862   2.688   0.052  13.475  0.1843 -0.4686  0.4329
    4MPD2    C213863   2.782   4.667  13.462  0.4277  0.2701  0.1240
    4MPD2    C313864   2.907   4.673  13.523  0.7390 -0.2847 -0.0656
    4MPD2    C413865   2.947   0.066  13.581  0.0601  0.0338  0.4798
    4MPD2    C513866   2.857   0.169  13.594 -0.0522  0.4056 -0.8321
    4MPD2     H13867   2.754   4.573  13.416 -0.4798 -0.3027  1.8682
    4MPD2    H113868   3.045   0.088  13.622  1.4464  1.7818 -3.7920
    4MPD2    H213869   2.667   0.253  13.557  3.0421  1.9098 -2.0517
    4MPD2    H313870   2.884   0.262  13.642  1.5859 -0.7653  0.5138
    4MPD2     N13871   2.988   4.566  13.489  0.2106  0.0513  0.5254
    4MPD2    H513872   2.944   4.485  13.447  2.4529  0.0903 -1.8867
    4MPD2    N113873   2.560   0.051  13.426  0.2332  0.6893 -0.4551
    4MPD2    H713874   2.507   0.135  13.447 -0.4075 -0.0355  0.8814
    5TCq2    C113875   3.120   4.551  13.519  0.0875 -0.3461 -0.4832
    5TCq2    O213876   3.186   4.607  13.602  0.0824  0.0975  0.0159
    5TCq2    C213877   3.181   4.436  13.457 -0.3534 -0.2213 -0.2619
    5TCq2    C313878   3.110   4.371  13.354  0.3116 -0.3004 -0.2854
    5TCq2    C413879   3.158   4.253  13.307  0.5751  0.1976  0.2694
    5TCq2    C513880   3.263   4.192  13.371  0.2122 -0.0071  0.0379
    5TCq2    C613881   3.333   4.266  13.461  0.3908 -0.2721 -0.7704
    5TCq2    C713882   3.286   4.382  13.526  0.4244  0.2200 -0.1190
    5TCq2    C813883   3.433   4.201  13.543 -0.3078  0.3567 -0.7226
    5TCq2    O413884   3.472   4.257  13.645 -0.2973  0.2698  0.6241
    5TCq2    C913885   3.088   4.187  13.202 -0.0169 -0.0975 -0.2484
    5TCq2    O513886   3.139   4.073  13.173 -0.1893  0.0281 -0.2042
    5TCq2    O613887   2.973   4.231  13.161 -0.0108 -0.1916  0.6540
    5TCq2    H213888   3.025   4.414  13.301  0.1035  0.5014  0.7035
    5TCq2    H313889   3.311   4.126  13.299 -1.4655  0.3348 -1.3952
    5TCq2    H413890   3.325   4.418  13.620 -1.6843  0.6823  0.5682
    6MPD1     C13891   1.755   1.484  12.616  0.3486 -0.3807 -0.0305
    6MPD1    C113892   1.753   1.381  12.521 -0.0562 -0.5393 -0.2640
    6MPD1    C213893   1.790   1.256  12.564 -0.5857  0.0420 -0.0029
    6MPD1    C313894   1.816   1.228  12.698 -0.2026 -0.5817 -0.2358
    6MPD1    C413895   1.811   1.331  12.791 -0.5914 -0.6919  0.3631
    6MPD1    C513896   1.778   1.452  12.755 -0.3884  0.6520 -0.3104
    6MPD1     H13897   1.786   1.175  12.492  0.2125 -0.8339  0.9347
    6MPD1    H113898   1.824   1.312  12.897  0.4524 -0.5397  0.2659
    6MPD1    H213899   1.736   1.587  12.586 -0.1158  0.0362  1.6790
    6MPD1    H313900   1.779   1.533  12.827  0.9620  1.2210 -0.9758
    6MPD1     N13901   1.839   1.101  12.759 -0.0706 -0.5573  0.0916
    6MPD1    H513902   1.858   1.090  12.858  0.6621  2.0113  0.2526
    6MPD1    N113903   1.734   1.408  12.387  0.2252 -0.1676 -0.3225
    6MPD1    H613904   1.667   1.483  12.367 -1.8596 -1.6798  0.9833
    6MPD1    H713905   1.698   1.328  12.335 -0.8043  0.0191  0.1147
    7MPD2     C13906   2.023   0.699  13.399  0.6969 -0.5975  0.5473
    7MPD2    C113907   2.019   0.611  13.289 -0.8695  0.1828  0.2401
    7MPD2    C213908   2.047   0.481  13.297  0.6294  0.1334  0.3121
    7MPD2    C313909   2.087   0.428  13.417  0.6054  0.0077 -0.7064
    7MPD2    C413910   2.094   0.508  13.526  0.4689  0.2996  0.1066
    7MPD2    C513911   2.052   0.642  13.523 -0.4168 -0.4361 -0.3635
    7MPD2     H13912   2.046   0.417  13.209 -0.8778  1.2387 -0.4898
    7MPD2    H113913   2.142   0.469  13.616 -0.8625  0.0766  0.7153
    7MPD2    H213914   1.994   0.803  13.397  2.1820 -0.1956  0.0618
    7MPD2    H313915   2.065   0.715  13.602  0.3896  0.0511 -0.9517
    7MPD2     N13916   2.134   0.301  13.427  0.2171  0.7398  0.1997
    7MPD2    H513917   2.169   0.268  13.516 -0.0877 -0.9269 -0.3070
    7MPD2    N113918   1.971   0.653  13.171  0.2935 -0.7857  0.2894
    7MPD2    H713919   1.963   0.579  13.103 -2.0043  0.1860 -0.5127
    8TMC3    C113920   2.167   0.071  13.348 -0.4459 -0.6081  0.4421
    8TMC3    C213921   2.300   0.079  13.360 -0.1404 -0.3049  0.1882
    8TMC3    C313922   2.377   0.000  13.280  0.2780  0.3451  0.4717
    8TMC3    C413923   2.109   4.707  13.251 -0.0120  0.0765  0.0113
    8TMC3    C513924   2.187   4.645  13.164  0.0022  0.3380  0.1819
    8TMC3    C613925   2.323   4.640  13.181  0.4633  0.2897 -0.3854
    8TMC3     C13926   2.102   0.200  13.337  0.4433 -0.3211 -0.4795
    8TMC3     O13927   2.017   0.204  13.244 -0.4571  0.2243 -1.0668
    8TMC3     H13928   2.345   0.140  13.437 -0.8297 -0.8421  1.0182
    8TMC3    H113929   2.001   4.709  13.244  0.0593  1.0423 -0.7135
    8TMC3    H213930   2.388   4.585  13.114  0.7983 -0.6188  0.6837
    8TMC3    C713931   2.145   4.652  13.033  0.6802 -0.3045  0.1249
    8TMC3    C813932   2.520   4.698  13.314  0.4525 -0.6013  0.1111
    8TMC3    O113933   2.194   4.581  12.949 -0.3877 -0.2176 -0.6145
    8TMC3    O213934   2.571   4.606  13.251  0.5829 -0.2151  0.3658
    9TMC3    C113935   1.829   0.877  12.788 -0.2453 -0.1728 -0.2399
    9TMC3    C213936   1.818   0.753  12.735 -0.6480  0.6248  0.2681
    9TMC3    C313937   1.821   0.644  12.817 -0.0541  0.1001  0.2756
    9TMC3    C413938   1.852   0.888  12.925  0.0340 -0.0767  0.0972
    9TMC3    C513939   1.862   0.775  13.003  0.2523  0.2081  0.0599
    9TMC3    C613940   1.829   0.651  12.955 -0.4690 -0.3682  0.4176
    9TMC3     C13941   1.813   0.985  12.695  0.1211 -0.0778  0.2454
    9TMC3     O13942   1.754   0.962  12.590 -0.0928  0.0206  0.3421
    9TMC3     H13943   1.810   0.744  12.628  0.5366  0.4781  0.1914
    9TMC3    H113944   1.870   0.977  12.984 -1.3125 -0.4830  1.1453
    9TMC3    H213945   1.822   0.558  13.011 -0.7115 -0.2133  0.6413
    9TMC3    C713946   1.921   0.780  13.134  0.1413 -0.1639 -0.1045
    9TMC3    C813947   1.857   0.519  12.741  0.7446  0.2163 -0.2714
    9TMC3    O113948   1.941   0.884  13.190 -0.1218 -0.2605 -0.6025
    9TMC3    O213949   1.887   0.529  12.626 -0.4689  0.6263  0.0076
   10MPD2     C13950   2.024   0.029  12.775 -0.0721 -0.0489  0.2719
   10MPD2    C113951   2.007   0.086  12.899  0.2258  0.4386 -0.5167
   10MPD2    C213952   1.950   0.208  12.910  0.1745  0.2355 -0.1841
   10MPD2    C313953   1.908   0.280  12.800 -0.3023 -0.8741  0.0371
   10MPD2    C413954   1.931   0.225  12.677 -0.3787  0.2447  0.3673
   10MPD2    C513955   1.995   0.100  12.662 -0.3889 -0.6862 -0.6531
   10MPD2     H13956   1.945   0.242  13.013 -0.5178 -1.9193  0.4799
   10MPD2    H113957   1.918   0.280  12.584  2.1229 -0.9399 -0.7008
   10MPD2    H213958   2.073   4.654  12.765  1.2978  0.5458  1.3193
   10MPD2    H313959   1.994   0.049  12.567 -0.6665 -1.8193 -0.0413
   10MPD2     N13960   1.858   0.409  12.825 -0.5747  0.6447 -0.7152
   10MPD2    H513961   1.813   0.407  12.916 -1.2363  0.5791 -1.0453
   10MPD2    N113962   2.068   0.038  13.017  0.1075 -0.3306  0.3795
   10MPD2    H713963   2.055   0.091  13.103  0.4429 -2.0169  1.4727
   11MPD2     C13964   3.585   3.751  13.766  0.7441  0.2272  0.7107
   11MPD2    C113965   3.591   3.882  13.807 -0.2756 -0.3487 -0.3731
   11MPD2    C213966   3.555   3.987  13.720  0.5573  0.8765  0.2342
   11MPD2    C313967   3.507   3.961  13.595 -0.1731  0.1443 -0.7058
   11MPD2    C413968   3.507   3.831  13.557  0.3613 -0.0526  0.2277
   11MPD2    C513969   3.554   3.727  13.635 -0.2464  0.3073 -0.0855
   11MPD2     H13970   3.551   4.088  13.760  0.0703  0.6264  0.7969
   11MPD2    H113971   3.447   3.800  13.473 -0.8770  0.6588  0.8563
   11MPD2    H213972   3.626   3.674  13.830  0.7161 -0.0588  0.3846
   11MPD2    H313973   3.545   3.627  13.594 -1.3982  0.7299 -0.8681
   11MPD2     N13974   3.445   4.062  13.516  0.3096 -0.0267  0.4994
   11MPD2    H513975   3.412   4.023  13.428  0.2846 -0.3906  0.6718
   11MPD2    N113976   3.637   3.915  13.934 -0.5231  0.8563 -0.4029
   11MPD2    H713977   3.635   4.015  13.949 -0.3760  0.7665  0.2188
    1MPD1     C13978   0.364   2.220  16.619  0.0317 -0.4643 -0.8665
    1MPD1    C113979   0.444   2.178  16.522 -0.1242  0.2317 -0.3384
    1MPD1    C213980   0.530   2.072  16.541 -0.1430 -0.1778  0.0473
    1MPD1    C313981   0.532   1.997  16.659  0.3083 -0.1666  0.3180
    1MPD1    C413982   0.447   2.040  16.762  0.1736  0.0640  0.5963
    1MPD1    C513983   0.376   2.157  16.745 -0.0859  0.6630 -0.5068
    1MPD1     H13984   0.590   2.043  16.456  1.9835  1.4687  1.0074
    1MPD1    H113985   0.453   1.989  16.857  0.4032 -0.0546  0.5174
    1MPD1    H213986   0.296   2.303  16.604  0.4002  0.1186  0.7134
    1MPD1    H313987   0.308   2.198  16.819  0.5461  0.3342  0.2549
    1MPD1     N13988   0.630   1.905  16.691 -0.3523  0.4319  0.6794
    1MPD1    H513989   0.618   1.876  16.788 -1.4332  0.0660  0.4370
    1MPD1    N113990   0.411   2.221  16.394  0.1093  0.0684  0.2453
    1MPD1    H613991   0.393   2.320  16.378 -0.7253 -0.2930 -0.9843
    1MPD1    H713992   0.484   2.195  16.329 -0.5921  1.7237 -1.1999
    2MPD1     C13993   1.495   1.863  17.257 -0.2500 -0.3254  0.1331
    2MPD1    C113994   1.532   1.797  17.135 -0.5367 -0.2041  0.4467
    2MPD1    C213995   1.434   1.779  17.050 -0.8509 -0.6452 -0.2114
    2MPD1    C313996   1.304   1.818  17.068  0.0183 -0.1248 -0.2275
    2MPD1    C413997   1.266   1.868  17.185 -0.2341  0.2283  0.1598
    2MPD1    C513998   1.362   1.896  17.275  0.5462 -0.1342 -0.5673
    2MPD1     H13999   1.446   1.714  16.964 -2.6318 -0.6925 -0.4148
    2MPD1    H114000   1.162   1.898  17.193 -0.0979  0.3290  1.6313
    2MPD1    H214001   1.573   1.874  17.332  0.2523  0.8142 -0.5656
    2MPD1    H314002   1.330   1.958  17.358  0.9440  0.6826 -1.0257
    2MPD1     N14003   1.205   1.789  16.970 -0.1136 -0.1472 -0.1931
    2MPD1    H514004   1.237   1.736  16.889  0.8752  0.2591 -0.0696
    2MPD1    N114005   1.654   1.751  17.097 -0.3851  0.7361  0.7070
    2MPD1    H614006   1.667   1.734  16.998 -0.5485  0.1971  0.7792
    2MPD1    H714007   1.739   1.796  17.130 -0.2188  1.4693 -0.7223
    3TMC3    C114008   0.994   1.773  16.861  0.5009 -0.1985  0.0302
    3TMC3    C214009   1.059   1.669  16.796 -0.4398  0.3251 -0.2734
    3TMC3    C314010   0.995   1.620  16.679  0.8678 -0.2918 -0.2130
    3TMC3    C414011   0.879   1.834  16.816 -0.9059 -0.1616 -0.8313
    3TMC3    C514012   0.836   1.793  16.694  0.0259  0.4532  0.4651
    3TMC3    C614013   0.882   1.682  16.628  0.2710 -0.0951 -0.1649
    3TMC3     C14014   1.071   1.831  16.971 -0.6092  0.0886 -0.6106
    3TMC3     O14015   1.016   1.918  17.035 -0.0718  0.3622  0.1089
    3TMC3     H14016   1.130   1.605  16.846 -0.2583 -1.1442 -2.4432
    3TMC3    H114017   0.827   1.915  16.867  4.1866  2.1844  0.6285
    3TMC3    H214018   0.852   1.662  16.526 -1.9204 -0.5000  0.5667
    3TMC3    C714019   0.737   1.866  16.618  0.2059 -0.2450 -0.6661
    3TMC3    C814020   1.080   1.542  16.592 -1.2153  0.0502  0.9990
    3TMC3    O114021   0.774   1.889  16.502 -0.7027  0.2745  0.2412
    3TMC3    O214022   1.014   1.478  16.513  0.4788 -0.9498 -0.2380
    4MPD1     C14023   1.516   1.332  16.393 -0.6529 -0.1747 -0.2246
    4MPD1    C114024   1.544   1.386  16.518 -0.6780 -1.0225  0.1189
    4MPD1    C214025   1.444   1.454  16.588 -0.0229 -0.2714 -0.1721
    4MPD1    C314026   1.317   1.477  16.540  0.8123 -0.1229  0.5020
    4MPD1    C414027   1.285   1.406  16.427 -0.4432 -0.3145  0.1288
    4MPD1    C514028   1.383   1.339  16.354  0.0039  0.5484 -0.3582
    4MPD1     H14029   1.473   1.489  16.687  0.1155 -0.3877 -0.1719
    4MPD1    H114030   1.190   1.410  16.375 -0.4677 -0.8467  0.1304
    4MPD1    H214031   1.588   1.287  16.325 -0.6291  0.4846 -0.6439
    4MPD1    H314032   1.359   1.293  16.259 -0.7844 -0.4859  0.3533
    4MPD1     N14033   1.215   1.534  16.621 -0.1046 -0.4198  0.3239
    4MPD1    H514034   1.260   1.594  16.690 -1.0541  2.1058 -1.2351
    4MPD1    N114035   1.672   1.377  16.582  0.5099 -0.2770 -0.0591
    4MPD1    H614036   1.677   1.414  16.677  2.2414 -0.8974  0.0832
    4MPD1    H714037   1.732   1.295  16.574  1.8622  0.8476 -1.4107
    1TCq1    O114038   2.265   4.206  11.152  0.0427  0.4662 -0.4563
    1TCq1    C114039   2.370   4.166  11.222 -0.4760  0.4092 -0.5234
    1TCq1    O214040   2.472   4.123  11.176 -0.8251  0.6852 -0.0414
    1TCq1    C214041   2.354   4.207  11.365  0.7535  0.1072  0.2737
    1TCq1    C314042   2.421   4.137  11.454 -0.2168 -0.3493  0.2828
    1TCq1    C414043   2.445   4.190  11.580 -0.3968  0.1886  0.0124
    1TCq1    C514044   2.364   4.287  11.623  0.5520 -0.3346 -0.0670
    1TCq1    C614045   2.293   4.360  11.535  0.4578 -0.1212 -0.1833
    1TCq1    C714046   2.296   4.330  11.399  0.5474 -0.2807 -0.5266
    1TCq1    C814047   2.184   4.440  11.594 -0.4494 -0.3122  0.7634
    1TCq1    O414048   2.181   4.453  11.712 -0.4086  0.1924  0.0818
    1TCq1    C914049   2.508   4.101  11.679 -0.1221  0.2089 -0.4099
    1TCq1    O514050   2.535   3.982  11.652 -0.2457  0.1314  0.0511
    1TCq1    O614051   2.515   4.139  11.795 -0.6033 -0.0681  0.6395
    1TCq1    H114052   2.199   4.236  11.218 -0.6402  1.4794 -1.6140
    1TCq1    H214053   2.484   4.056  11.421  0.2399  0.1189 -0.0003
    1TCq1    H314054   2.356   4.324  11.725 -2.0233  0.8838 -0.7064
    1TCq1    H414055   2.242   4.387  11.324  0.0904  0.7426  0.6004
    2MPD1     C14056   1.851   0.104  11.558  1.2809  0.5898 -0.2586
    2MPD1    C114057   1.918   0.099  11.438  0.1799 -0.7458 -0.0334
    2MPD1    C214058   2.015   4.718  11.430 -0.1449  0.9581  0.0850
    2MPD1    C314059   2.038   4.622  11.523 -0.4932  0.7236  0.6679
    2MPD1    C414060   1.971   4.634  11.642  0.7632  0.1669  0.5510
    2MPD1    C514061   1.884   0.020  11.664 -0.1049  0.2257 -0.2493
    2MPD1     H14062   2.077   4.715  11.341 -1.3236  2.7914 -0.7922
    2MPD1    H114063   1.974   4.556  11.717  3.9909 -0.5534 -0.3309
    2MPD1    H214064   1.786   0.187  11.581 -0.0010 -0.7124  0.8053
    2MPD1    H314065   1.834   0.021  11.760  0.3254  0.8384 -0.0307
    2MPD1     N14066   2.134   4.526  11.498  0.6921  1.0408  0.0308
    2MPD1    H514067   2.174   4.533  11.405  1.1891 -0.2035  0.1511
    2MPD1    N114068   1.915   0.206  11.352 -0.4560 -0.3380 -0.4041
    2MPD1    H614069   1.820   0.238  11.334 -0.6390 -0.1456  0.8823
    2MPD1    H714070   1.959   0.189  11.262  0.4939  3.2573 -0.5936
    1TCq1    O114071   0.962   3.806   1.953  0.4628  0.0509  0.5989
    1TCq1    C114072   1.089   3.812   1.999  0.5421  0.0631 -0.4112
    1TCq1    O214073   1.170   3.720   1.995 -0.3936 -0.1467  0.3108
    1TCq1    C214074   1.091   3.915   2.094  0.7417 -0.7631 -0.4202
    1TCq1    C314075   1.177   3.892   2.200 -0.3903  0.3601 -0.2965
    1TCq1    C414076   1.209   4.003   2.279  0.7698  0.0827 -0.4486
    1TCq1    C514077   1.139   4.121   2.264  0.0313  0.4474 -0.1097
    1TCq1    C614078   1.046   4.127   2.160 -0.0203 -0.2956  0.0936
    1TCq1    C714079   1.023   4.028   2.071  0.4957  0.1554 -0.2206
    1TCq1    C814080   0.961   4.248   2.169 -0.3502 -0.4167  0.1870
    1TCq1    O414081   1.018   4.346   2.216 -0.1842  0.4186 -0.2015
    1TCq1    C914082   1.264   3.972   2.407  0.2225  0.4388 -0.6286
    1TCq1    O514083   1.285   4.063   2.487  0.0558  0.2128 -0.2176
    1TCq1    O614084   1.311   3.858   2.420  0.0004  0.1591  0.0568
    1TCq1    H114085   0.902   3.880   1.974  0.5989  0.9486 -2.1879
    1TCq1    H214086   1.195   3.789   2.229 -2.7772 -0.6623 -2.3336
    1TCq1    H314087   1.150   4.200   2.338 -2.3380  1.4348 -0.7887
    1TCq1    H414088   0.969   4.053   1.981  0.7178  0.8446 -0.1617
    2MPD1     C14089   0.578   4.557   2.021  0.2630 -0.5200  0.2010
    2MPD1    C114090   0.541   4.428   1.993  0.2106 -0.1722  0.1990
    2MPD1    C214091   0.627   4.322   2.017 -0.5202 -0.5811 -0.7371
    2MPD1    C314092   0.749   4.343   2.078  0.1192 -0.2325 -0.5080
    2MPD1    C414093   0.780   4.475   2.110  0.7039  0.4573 -0.4419
    2MPD1    C514094   0.700   4.581   2.078 -0.6042  0.2377  0.0539
    2MPD1     H14095   0.600   4.221   1.990  1.8067 -1.4521  0.2055
    2MPD1    H114096   0.872   4.505   2.160  2.5403 -0.6484 -3.2070
    2MPD1    H214097   0.517   4.644   2.003  0.9375  0.4384  2.5372
    2MPD1    H314098   0.725   4.683   2.106 -0.3249  0.0384  0.5271
    2MPD1     N14099   0.831   4.234   2.109  0.5446  0.0113  0.5720
    2MPD1    H514100   0.815   4.140   2.075 -2.7089  0.5428  0.6981
    2MPD1    N114101   0.415   4.406   1.931  0.5644 -0.0909 -0.1748
    2MPD1    H614102   0.374   4.321   1.968  0.7237 -0.6166 -1.2058
    2MPD1    H714103   0.350   4.484   1.922  0.3450 -0.3674 -0.9860
    1MPD1     C14104   4.086   4.150  11.892 -0.2660 -0.5218  0.1436
    1MPD1    C114105   4.025   4.203  12.005 -1.0855 -0.4693 -0.3996
    1MPD1    C214106   4.018   4.339  12.023 -0.7518  0.0043  0.3191
    1MPD1    C314107   4.064   4.424  11.925 -0.4372 -0.1199  0.7127
    1MPD1    C414108   4.117   4.366  11.805  0.4835 -0.0384  0.3054
    1MPD1    C514109   4.142   4.234  11.801  0.8238 -0.1030 -0.3596
    1MPD1     H14110   3.988   4.376  12.121 -0.9262  1.7725 -0.4013
    1MPD1    H114111   4.155   4.423  11.722 -0.6824 -0.3454 -0.4410
    1MPD1    H214112   4.098   4.044  11.876 -2.8887 -0.7664 -0.2406
    1MPD1    H314113   4.197   4.191  11.718  2.2329  0.7668  0.1142
    1MPD1     N14114   4.066   4.560  11.949  0.3145  0.6530 -0.0224
    1MPD1    H514115   4.024   4.590  12.036  0.2965 -0.8740  0.4975
    1MPD1    N114116   3.971   4.121  12.105 -0.1102  0.7955 -0.0871
    1MPD1    H614117   4.008   4.026  12.107  0.0310  0.8541  0.0927
    1MPD1    H714118   3.978   4.157  12.200 -0.3973  0.2721  0.1361
    2MPD1     C14119   3.409   1.633  10.215  0.2512  0.1358 -0.5433
    2MPD1    C114120   3.543   1.643  10.233  0.3050  0.0379 -0.3246
    2MPD1    C214121   3.598   1.589  10.352 -0.6861  0.0311 -0.2987
    2MPD1    C314122   3.526   1.512  10.444 -0.2845 -0.6393 -1.0830
    2MPD1    C414123   3.390   1.515  10.423 -0.2027 -0.0195 -0.4091
    2MPD1    C514124   3.335   1.572  10.314  0.3321 -0.5987  0.0412
    2MPD1     H14125   3.701   1.620  10.363 -0.3115 -1.3968  0.2037
    2MPD1    H114126   3.333   1.465  10.500 -1.5860  0.7429 -0.9457
    2MPD1    H214127   3.358   1.680  10.132 -0.2466 -0.4788 -0.5883
    2MPD1    H314128   3.227   1.564  10.306  0.2310  1.5710 -0.7075
    2MPD1     N14129   3.580   1.454  10.553  0.0635  0.4597  0.3409
    2MPD1    H514130   3.516   1.421  10.625 -1.2996  1.2693 -0.5119
    2MPD1    N114131   3.615   1.734  10.156 -0.2982  0.9978 -0.1895
    2MPD1    H614132   3.713   1.714  10.135  0.3018  1.6497  2.0414
    2MPD1    H714133   3.560   1.759  10.074  2.1541 -0.8352 -2.3771
    3MPD1     C14134   4.457   1.406  11.221  0.8781 -0.1224  0.3414
    3MPD1    C114135   4.333   1.398  11.285 -0.0185 -0.0622 -0.0781
    3MPD1    C214136   4.223   1.403  11.209 -0.6846 -0.6405 -0.5901
    3MPD1    C314137   4.229   1.420  11.069  0.6958  0.6565  0.5457
    3MPD1    C414138   4.349   1.440  11.002 -0.2756  0.1218  0.5920
    3MPD1    C514139   4.461   1.426  11.085 -0.7951 -0.4076 -0.0153
    3MPD1     H14140   4.122   1.386  11.247 -0.6924  0.5047 -0.0850
    3MPD1    H114141   4.361   1.440  10.894 -0.8794  1.4486  0.5259
    3MPD1    H214142   4.552   1.381  11.268  0.3174  0.9223  2.0370
    3MPD1    H314143   4.559   1.421  11.040  0.8154 -2.3897  3.7288
    3MPD1     N14144   4.112   1.404  11.002 -0.6110  0.4401 -0.3757
    3MPD1    H514145   4.035   1.380  11.063 -0.4258  2.9226  0.8534
    3MPD1    N114146   4.317   1.384  11.426  0.2090  0.0808 -0.1908
    3MPD1    H614147   4.246   1.454  11.443  0.8383  0.1784  1.9923
    3MPD1    H714148   4.400   1.414  11.476  1.1721  1.0860 -2.3781
    4MPD2     C14149   3.719   0.523  12.149  0.0765  0.2247 -0.1228
    4MPD2    C114150   3.843   0.528  12.093 -0.2999  0.2844 -0.8343
    4MPD2    C214151   3.885   0.656  12.055 -0.6731 -0.0152  0.2423
    4MPD2    C314152   3.810   0.773  12.061  0.7773  0.1705  0.3263
    4MPD2    C414153   3.677   0.756  12.093  0.2962  0.2772  0.0932
    4MPD2    C514154   3.642   0.635  12.145 -0.0013 -0.7978  0.3466
    4MPD2     H14155   3.988   0.664  12.024 -0.5956  1.4536  0.8848
    4MPD2    H114156   3.611   0.842  12.088  0.9574  0.8718  1.5853
    4MPD2    H214157   3.668   0.433  12.183  1.4861  0.6099  2.9759
    4MPD2    H314158   3.539   0.628  12.178 -0.2124  0.6424  0.0180
    4MPD2     N14159   3.852   0.904  12.022 -0.6437  0.7605 -0.8125
    4MPD2    H514160   3.790   0.984  12.033 -1.8104 -0.0825 -1.1819
    4MPD2    N114161   3.926   0.419  12.068  0.0106  0.7550 -0.5343
    4MPD2    H714162   4.016   0.438  12.025 -0.1335 -0.9207 -1.5882
    5TMC3    C114163   4.034   0.210  12.077 -0.3072  1.1091 -0.8020
    5TMC3    C214164   4.012   0.096  12.010  0.4579  0.4924 -1.1101
    5TMC3    C314165   4.098   0.073  11.907  0.2671 -0.1740  0.1709
    5TMC3    C414166   4.137   0.298  12.050  0.2732  0.0695  0.2542
    5TMC3    C514167   4.209   0.282  11.940  0.4236 -0.3926 -0.5896
    5TMC3    C614168   4.190   0.171  11.866 -0.1596 -0.3269  0.3891
    5TMC3     C14169   3.905   0.288  12.095  0.0980  0.4386 -0.5295
    5TMC3     O14170   3.804   0.233  12.139  0.1645  0.1168  0.7597
    5TMC3     H14171   3.920   0.040  12.021  0.3172  0.5968 -1.7467
    5TMC3    H114172   4.153   0.388  12.107 -0.5786 -0.0959  0.7677
    5TMC3    H214173   4.233   0.162  11.767 -0.5394  2.3794 -0.0450
    5TMC3    C714174   4.210   0.405  11.870  0.5703  0.3938 -0.1199
    5TMC3    C814175   4.119   4.658  11.861  0.2153  0.5157 -0.4954
    5TMC3    O114176   4.133   0.488  11.919  0.0680 -0.0224  0.2166
    5TMC3    O214177   4.201   4.642  11.770 -0.2553 -0.4659  0.0956
    6TMC3    C114178   3.762   1.393  10.697  0.9007  0.4725 -0.0219
    6TMC3    C214179   3.897   1.416  10.724 -0.2969  0.0195 -0.7143
    6TMC3    C314180   3.943   1.367  10.844 -0.3708  0.4612  0.0674
    6TMC3    C414181   3.676   1.335  10.788 -0.0682  0.9159 -0.2705
    6TMC3    C514182   3.735   1.282  10.901  0.2322  0.1370  0.0709
    6TMC3    C614183   3.864   1.306  10.937  0.4235 -0.2747  0.2441
    6TMC3     C14184   3.720   1.442  10.567 -0.4959 -1.3618  0.2369
    6TMC3     O14185   3.809   1.466  10.489 -0.0847 -0.1504 -0.1610
    6TMC3     H14186   3.954   1.485  10.663 -0.1781 -0.9479 -1.7125
    6TMC3    H114187   3.574   1.304  10.770  0.3205 -0.9497  0.7777
    6TMC3    H214188   3.913   1.252  11.017  0.0441 -1.4098 -0.2891
    6TMC3    C714189   3.652   1.222  11.007 -0.0326 -0.5438  0.2353
    6TMC3    C814190   4.078   1.422  10.866  0.5016  0.7910 -0.2181
    6TMC3    O114191   3.540   1.181  10.975  0.0419 -0.4223  0.3444
    6TMC3    O214192   4.150   1.467  10.778  0.3589  0.2828  0.5207
    7MPD2     C14193   4.433   0.802  11.638 -0.0713 -0.4285  0.0298
    7MPD2    C114194   4.344   0.802  11.739  0.5363 -0.3883  0.2756
    7MPD2    C214195   4.299   0.677  11.795  1.0318 -0.4486 -0.1063
    7MPD2    C314196   4.344   0.563  11.737 -0.3344  0.2619  0.6481
    7MPD2    C414197   4.450   0.566  11.647 -0.1059 -0.7475 -0.0231
    7MPD2    C514198   4.490   0.685  11.592 -0.2333  0.4195 -0.8091
    7MPD2     H14199   4.236   0.678  11.884  2.5697  1.0469  0.9640
    7MPD2    H114200   4.507   0.480  11.616  4.1395  1.8842  0.4844
    7MPD2    H214201   4.445   0.894  11.582  1.7163 -0.8791 -0.3314
    7MPD2    H314202   4.562   0.690  11.511 -1.3458 -0.8558 -1.8886
    7MPD2     N14203   4.314   0.434  11.792  0.3577  0.4886 -0.6666
    7MPD2    H514204   4.374   0.360  11.758  1.2098  1.1942 -0.6902
    7MPD2    N114205   4.283   0.917  11.793 -0.4425 -0.6084  0.1960
    7MPD2    H714206   4.215   0.903  11.867 -0.1555 -0.8095  0.4214
    8TMC3    C114207   4.203   1.132  11.825 -0.5991 -0.1698  0.2590
    8TMC3    C214208   4.119   1.179  11.725  0.6265  0.0559  0.8311
    8TMC3    C314209   3.987   1.184  11.742 -0.6639 -0.9187  0.2519
    8TMC3    C414210   4.144   1.086  11.941  0.1651 -1.0084  0.0475
    8TMC3    C514211   4.007   1.065  11.947 -0.3711 -0.0848  0.2097
    8TMC3    C614212   3.931   1.119  11.849  0.2813  0.5529 -0.0975
    8TMC3     C14213   4.312   1.049  11.768 -0.2879  0.1487  1.1617
    8TMC3     O14214   4.385   1.099  11.685 -0.2857 -0.2893  0.0779
    8TMC3     H14215   4.171   1.221  11.640  0.3609 -0.6023  0.3476
    8TMC3    H114216   4.209   1.055  12.022  1.7235 -1.7640 -1.4677
    8TMC3    H214217   3.822   1.123  11.849  0.2643  0.0498  0.0284
    8TMC3    C714218   3.973   0.928  11.972 -0.4188  0.0345  0.9187
    8TMC3    C814219   3.915   1.214  11.616 -0.2517 -0.0841  0.3001
    8TMC3    O114220   4.076   0.856  11.964 -0.1759  0.4129  0.6640
    8TMC3    O214221   3.961   1.292  11.534  0.4608 -0.1810  0.5154
    9MPD2     C14222   3.629   1.032  11.489 -0.0168 -0.9172 -0.5053
    9MPD2    C114223   3.726   1.131  11.489 -0.2294 -0.1323 -0.0878
    9MPD2    C214224   3.738   1.204  11.374  0.3115  0.2261  0.2038
    9MPD2    C314225   3.667   1.175  11.259 -0.9334  0.1425 -0.2295
    9MPD2    C414226   3.561   1.089  11.267  0.0608 -0.1201  0.4287
    9MPD2    C514227   3.543   1.026  11.389 -0.1536  0.2845  0.0765
    9MPD2     H14228   3.828   1.263  11.357 -1.0362  2.6839  1.7926
    9MPD2    H114229   3.492   1.071  11.186  0.1577 -2.5403  0.8832
    9MPD2    H214230   3.608   0.974  11.578  1.9253 -0.2368  0.4011
    9MPD2    H314231   3.453   0.967  11.396  0.8364 -1.4931 -2.3360
    9MPD2     N14232   3.711   1.233  11.134 -0.5206  0.3601 -0.8267
    9MPD2    H514233   3.801   1.280  11.135  0.0209 -0.6745 -1.8036
    9MPD2    N114234   3.808   1.143  11.606 -0.0519  0.5788 -0.0505
    9MPD2    H714235   3.776   1.095  11.690  0.2100  0.0046 -0.2760
    1MPD1     C14236   3.092   4.683  17.406 -0.7072 -0.0696  0.7978
    1MPD1    C114237   3.020   4.562  17.401  0.1978  0.0982 -0.0939
    1MPD1    C214238   3.012   4.493  17.280  0.1141  0.1690 -0.0832
    1MPD1    C314239   3.068   4.548  17.160 -0.3562  0.4491 -0.5248
    1MPD1    C414240   3.145   4.661  17.166  0.7353 -0.1849 -0.1249
    1MPD1    C514241   3.147   0.004  17.286  0.7123 -0.0506  0.2502
    1MPD1     H14242   2.950   4.405  17.285 -2.2080  1.7333 -1.1167
    1MPD1    H114243   3.201   4.706  17.085  3.6390 -0.4402  1.7451
    1MPD1    H214244   3.099   0.022  17.496  1.7430  0.7370  0.0827
    1MPD1    H314245   3.198   0.099  17.288 -1.5989  1.1651  1.4628
    1MPD1     N14246   3.049   4.480  17.039 -0.4143 -0.2816  0.4342
    1MPD1    H514247   3.082   4.530  16.956 -0.4680 -1.0663 -0.0609
    1MPD1    N114248   2.945   4.510  17.511  0.3647  0.6011 -0.5722
    1MPD1    H614249   2.963   4.541  17.606  0.3934 -1.4418  0.0868
    1MPD1    H714250   2.938   4.409  17.509 -3.1811  0.8880 -2.6265
    2MPD1     C14251   3.679   4.330  16.346 -0.7766 -0.5183 -0.5905
    2MPD1    C114252   3.572   4.279  16.274  0.1856  0.0976 -0.3378
    2MPD1    C214253   3.452   4.251  16.338  0.3692 -0.2132  0.1097
    2MPD1    C314254   3.445   4.263  16.479  0.1342 -0.1443 -0.0754
    2MPD1    C414255   3.559   4.300  16.548  0.6523  0.4505  0.1838
    2MPD1    C514256   3.672   4.335  16.481  0.0092 -0.4438  0.3683
    2MPD1     H14257   3.362   4.236  16.279  0.8850  1.6984 -1.1848
    2MPD1    H114258   3.572   4.306  16.655  1.8964  0.6814  0.0273
    2MPD1    H214259   3.773   4.346  16.294 -0.0763 -0.5068  0.6905
    2MPD1    H314260   3.763   4.357  16.536  1.2784 -1.9209 -1.1757
    2MPD1     N14261   3.326   4.234  16.544 -0.1916  0.0098  0.7054
    2MPD1    H514262   3.249   4.208  16.483  0.0480  0.8990  0.0352
    2MPD1    N114263   3.563   4.289  16.138  0.5136 -0.1013  0.0903
    2MPD1    H614264   3.492   4.225  16.104 -0.8317  1.0842  0.6887
    2MPD1    H714265   3.644   4.238  16.102 -0.8819 -0.5913 -2.2879
    3TCq2    C114266   3.307   4.257  16.685 -0.1109  0.1758 -0.4540
    3TCq2    O214267   3.368   4.326  16.763  0.3127 -0.5177 -0.3616
    3TCq2    C214268   3.163   4.250  16.729 -0.3765 -0.1727 -0.1194
    3TCq2    C314269   3.095   4.137  16.688  0.9069 -0.1748  0.1392
    3TCq2    C414270   2.976   4.108  16.746 -0.6521  0.1290  0.3256
    3TCq2    C514271   2.927   4.192  16.847  0.3713 -0.2364 -0.3989
    3TCq2    C614272   2.992   4.310  16.871 -0.0872 -0.1466 -0.1323
    3TCq2    C714273   3.116   4.343  16.811  0.2797  0.8522 -0.6007
    3TCq2    C814274   2.978   4.363  17.010  0.7201 -0.2427 -0.5879
    3TCq2    O414275   2.909   4.288  17.082 -0.3718 -0.1510  0.5848
    3TCq2    C914276   2.882   4.002  16.710 -0.1702 -0.4088 -0.1352
    3TCq2    O514277   2.780   3.982  16.779 -0.2845 -0.8063  0.2212
    3TCq2    O614278   2.922   3.928  16.614 -0.6981 -0.1702 -0.1091
    3TCq2    H214279   3.120   4.065  16.611  0.8622  0.2897 -0.3105
    3TCq2    H314280   2.839   4.170  16.905  1.1917 -1.8978  0.1959
    3TCq2    H414281   3.166   4.437  16.834  1.7901 -0.1191  0.0985
    1TCq1    O114282   0.967   3.385  12.377  0.1023  0.0696 -0.2570
    1TCq1    C114283   0.950   3.506  12.421 -0.0563  0.7159  0.7133
    1TCq1    O214284   0.961   3.604  12.348  0.0346 -0.8578 -0.2846
    1TCq1    C214285   1.013   3.485  12.547 -0.1981 -0.1241  0.6293
    1TCq1    C314286   0.943   3.442  12.651  0.5044  0.5825 -0.4448
    1TCq1    C414287   1.000   3.410  12.765 -0.7797 -0.3578  0.2134
    1TCq1    C514288   1.136   3.431  12.785  0.6361  0.2921 -0.2624
    1TCq1    C614289   1.211   3.471  12.680 -0.8783 -0.0909 -0.0981
    1TCq1    C714290   1.152   3.495  12.560  0.0940 -0.2892  0.3513
    1TCq1    C814291   1.350   3.428  12.677  0.3118  1.0602 -0.3604
    1TCq1    O414292   1.396   3.368  12.582 -0.4356 -0.2713  0.1692
    1TCq1    C914293   0.913   3.373  12.870 -0.4470  0.0323  0.0651
    1TCq1    O514294   0.976   3.328  12.966  0.1129 -0.3839  0.1407
    1TCq1    O614295   0.789   3.364  12.851  0.4742 -0.5381 -0.1558
    1TCq1    H114296   0.990   3.328  12.454  1.9887  2.4384  0.9420
    1TCq1    H214297   0.835   3.437  12.639  0.5220 -0.4378 -0.2328
    1TCq1    H314298   1.174   3.406  12.883 -2.3619 -0.3982  0.7277
    1TCq1    H414299   1.209   3.512  12.469  1.1814 -2.6292  0.5988
    2MPD2     C14300   1.630   3.346  12.753  0.0381 -0.2144 -0.2270
    2MPD2    C114301   1.555   3.446  12.823 -0.0557  0.3249 -0.2150
    2MPD2    C214302   1.613   3.509  12.930  0.1482  0.3025 -0.5299
    2MPD2    C314303   1.746   3.487  12.967 -0.4961  0.0539  0.5167
    2MPD2    C414304   1.823   3.393  12.901  0.2834 -0.1011  0.3320
    2MPD2    C514305   1.760   3.324  12.796 -0.1137  0.0148 -0.3754
    2MPD2     H14306   1.563   3.590  12.982  1.9226  0.9762  0.1258
    2MPD2    H114307   1.924   3.365  12.926  0.2676 -1.3531 -1.0066
    2MPD2    H214308   1.584   3.278  12.682  0.1719 -2.0985  1.5004
    2MPD2    H314309   1.817   3.243  12.753  0.7623  1.0927 -1.2504
    2MPD2     N14310   1.796   3.582  13.062 -0.4506  0.1348  0.0772
    2MPD2    H514311   1.730   3.651  13.096  0.0105 -0.6732  2.6045
    2MPD2    N114312   1.420   3.474  12.787  0.1447  0.0776  0.0887
    2MPD2    H714313   1.375   3.547  12.843  1.5179  1.5788 -0.7571
    3TCq1    O114314   2.284   3.909  13.401  0.0844 -0.4638  0.8120
    3TCq1    C114315   2.276   3.874  13.272  0.0680 -0.3477  0.3904
    3TCq1    O214316   2.361   3.806  13.219  0.1399  0.1931  0.2726
    3TCq1    C214317   2.134   3.850  13.252 -0.3001  0.0633 -0.2559
    3TCq1    C314318   2.046   3.943  13.299  0.3359 -0.1071 -0.1153
    3TCq1    C414319   1.913   3.914  13.281 -1.0483  0.0995  0.0648
    3TCq1    C514320   1.876   3.794  13.227 -0.6450  0.7287 -0.0162
    3TCq1    C614321   1.970   3.710  13.172 -0.2325  0.8468  0.4005
    3TCq1    C714322   2.100   3.735  13.195 -0.0588  0.5880  0.2914
    3TCq1    C814323   1.927   3.583  13.107 -0.5760  0.4768 -0.0817
    3TCq1    O414324   2.015   3.503  13.081 -0.3270  0.0963  0.0508
    3TCq1    C914325   1.820   3.997  13.356  0.1289 -0.2809  0.1933
    3TCq1    O514326   1.703   4.003  13.308 -0.9585  0.2732 -0.0390
    3TCq1    O614327   1.871   4.039  13.463 -0.3397  0.1683 -0.4452
    3TCq1    H114328   2.213   3.966  13.437  1.5857  0.2220  2.7193
    3TCq1    H214329   2.074   4.044  13.326 -0.7693  0.1958 -0.1140
    3TCq1    H314330   1.772   3.766  13.232  0.0417 -2.1151 -1.7254
    3TCq1    H414331   2.170   3.657  13.166 -1.0976 -0.5466  0.8462
    1MPD2     C14332   1.506   4.609  14.929 -0.0833  0.3806  0.1713
    1MPD2    C114333   1.377   4.566  14.937  0.4055  0.0149 -0.4937
    1MPD2    C214334   1.360   4.446  15.010  0.4586 -0.8284  0.0711
    1MPD2    C314335   1.455   4.357  15.058 -0.7257  0.1378  0.2629
    1MPD2    C414336   1.582   4.414  15.056  0.8494 -0.1111 -0.1976
    1MPD2    C514337   1.603   4.532  14.992 -0.3746  0.3352  0.0918
    1MPD2     H14338   1.257   4.413  15.001 -0.4096  1.7247  0.5525
    1MPD2    H114339   1.674   4.364  15.085  1.1883  0.5462 -0.1375
    1MPD2    H214340   1.535   4.708  14.894  0.4182 -0.3351 -1.4335
    1MPD2    H314341   1.708   4.560  14.985 -1.0719  2.6965 -0.9056
    1MPD2     N14342   1.433   4.221  15.103 -0.1673  0.3550  0.3728
    1MPD2    H514343   1.519   4.176  15.133 -0.1755  0.9803  1.3506
    1MPD2    N114344   1.270   4.647  14.887 -0.4783  0.2887  0.6997
    1MPD2    H714345   1.305   4.720  14.825  1.1518  0.8268  2.2462
    2TMC3    C114346   1.055   4.711  14.810  0.2503 -0.8542  0.0514
    2TMC3    C214347   0.926   4.681  14.852 -0.2432 -0.3711  0.1847
    2TMC3    C314348   0.825   4.655  14.757  0.5026  0.4207 -0.3367
    2TMC3    C414349   1.078   4.709  14.673  0.3828  0.2115 -0.3420
    2TMC3    C514350   0.974   4.696  14.587 -1.0590 -0.3153  0.2673
    2TMC3    C614351   0.841   4.677  14.623 -0.0332 -0.3658  0.3006
    2TMC3     C14352   1.139   4.623  14.888  0.4885  0.0554 -0.5209
    2TMC3     O14353   1.083   4.547  14.967  0.1053  0.1318 -0.1294
    2TMC3     H14354   0.904   4.663  14.957  0.1016 -1.5207  0.0604
    2TMC3    H114355   1.178   0.002  14.633 -0.4439 -1.6865 -3.0725
    2TMC3    H214356   0.765   4.666  14.547  1.0810 -1.5291 -0.6448
    2TMC3    C714357   0.994   4.678  14.442  0.4062  0.1930 -0.0813
    2TMC3    C814358   0.750   4.542  14.791  0.7694  0.5393 -0.4764
    2TMC3    O114359   0.890   4.660  14.386 -0.5503  0.3539 -0.3581
    2TMC3    O214360   0.644   4.529  14.738  0.6307 -0.3359  0.3172
    3TCq1    O114361   1.867   4.083  13.853 -0.1749  0.4288  0.0268
    3TCq1    C114362   1.921   4.207  13.845  0.2666 -0.3490  0.2790
    3TCq1    O214363   2.015   4.240  13.772 -0.2167  0.6698  0.3647
    3TCq1    C214364   1.866   4.296  13.943  0.2338  0.5143 -0.3686
    3TCq1    C314365   1.928   4.414  13.960  0.2442 -0.0852  0.6147
    3TCq1    C414366   1.859   4.521  14.020  0.3945  0.5045 -0.3751
    3TCq1    C514367   1.731   4.511  14.062 -0.0963  0.1076  0.0166
    3TCq1    C614368   1.665   4.392  14.022 -0.3048 -0.0950 -0.3430
    3TCq1    C714369   1.731   4.284  13.973  0.0658 -0.8540  0.0751
    3TCq1    C814370   1.523   4.403  14.011 -0.4916 -0.3386  0.2352
    3TCq1    O414371   1.457   4.328  13.939 -0.0035  0.2515  0.2987
    3TCq1    C914372   1.935   4.644  14.046 -0.7435 -0.1101 -0.4517
    3TCq1    O514373   2.043   4.661  13.983  0.2074  0.3234 -0.6388
    3TCq1    O614374   1.905   4.714  14.145  0.2256  0.0278 -0.4222
    3TCq1    H114375   1.822   4.054  13.935 -0.0164  1.1786  0.3720
    3TCq1    H214376   2.033   4.423  13.934  0.3136 -2.1753  0.1497
    3TCq1    H314377   1.679   4.599  14.099  1.4742  0.8757  0.3810
    3TCq1    H414378   1.675   4.195  13.944 -0.2196 -1.0948  1.3779
    4MPD2     C14379   1.253   4.524  14.027 -0.1706  0.8356  0.7062
    4MPD2    C114380   1.333   4.516  14.139 -0.6883  0.2270 -0.2313
    4MPD2    C214381   1.298   4.564  14.269  0.1165  0.0019 -0.7405
    4MPD2    C314382   1.171   4.615  14.281  0.7662  0.0919  0.6616
    4MPD2    C414383   1.091   4.622  14.173 -0.8157 -0.2498  0.0235
    4MPD2    C514384   1.129   4.570  14.054 -0.3045 -0.4440  0.1103
    4MPD2     H14385   1.371   4.570  14.349  0.9296  0.1045 -1.4866
    4MPD2    H114386   0.990   4.657  14.190 -0.5854  1.2101 -1.6101
    4MPD2    H214387   1.294   4.489  13.933 -0.8168 -0.7521  1.0103
    4MPD2    H314388   1.052   4.582  13.978  1.0830 -4.4076 -1.9201
    4MPD2     N14389   1.130   4.649  14.413  0.4803  0.5933  0.5363
    4MPD2    H514390   1.190   4.630  14.493  2.3544  0.6930 -0.8456
    4MPD2    N114391   1.472   4.481  14.113  0.4969 -0.0105  0.5167
    4MPD2    H714392   1.547   4.510  14.175 -0.1485  2.3426  0.2036
    5TMC2    C114393   1.119   3.895  15.156  0.1845 -0.1941  0.0411
    5TMC2    C214394   1.160   3.867  15.287  0.0290 -0.1052  0.3602
    5TMC2    C314395   1.280   3.921  15.334 -0.5982  0.2158  0.7644
    5TMC2    C414396   1.204   3.966  15.072 -0.3415 -0.0467 -0.1077
    5TMC2    C514397   1.313   4.028  15.137 -0.5396 -0.4503 -0.7261
    5TMC2    C614398   1.351   4.014  15.265 -0.0786  0.2207 -0.0686
    5TMC2     C14399   0.977   3.920  15.122  0.0515  0.2236 -0.3025
    5TMC2     O14400   0.882   3.851  15.159  0.6976  0.3214 -1.1867
    5TMC2     H14401   1.090   3.829  15.360 -0.3027 -1.5094 -0.6953
    5TMC2    H114402   1.193   3.977  14.965 -0.8724 -1.2333 -0.1728
    5TMC2    H214403   1.417   4.085  15.313 -0.9803  0.0145  1.4628
    5TMC2    C714404   1.309   4.155  15.090 -0.2980 -0.9892  0.4527
    5TMC2    C814405   1.291   3.915  15.472  0.2268 -0.2156 -0.2657
    5TMC2    O114406   1.226   4.187  15.010  0.2833  0.2035 -0.2903
    5TMC2    O214407   1.290   4.017  15.537  0.0680  0.4353 -0.4065
    5TMC2    O514408   1.340   3.789  15.498  0.6434 -0.0907 -0.0434
    5TMC2    H514409   1.372   3.735  15.422 -0.2231  0.9338 -1.1501
    6MPD2     C14410   0.667   4.261  14.898  0.4158  0.3940 -0.3031
    6MPD2    C114411   0.796   4.318  14.904 -0.2996 -0.0146  0.1246
    6MPD2    C214412   0.887   4.239  14.959 -0.2161  0.3802  0.5445
    6MPD2    C314413   0.861   4.113  15.006  0.3261  0.1067  0.1156
    6MPD2    C414414   0.734   4.054  14.998 -0.9050  0.1260 -0.1328
    6MPD2    C514415   0.638   4.135  14.943  0.0413  0.1138 -0.5447
    6MPD2     H14416   0.992   4.262  14.965  0.5382 -2.5719 -1.1691
    6MPD2    H114417   0.708   3.960  15.045 -0.3472 -0.4345 -0.9520
    6MPD2    H214418   0.586   4.322  14.861  1.1829  3.0774  2.4322
    6MPD2    H314419   0.538   4.096  14.929  0.2541 -1.3215  1.9567
    6MPD2     N14420   0.966   4.038  15.056  0.2866  0.2517  0.7660
    6MPD2    H514421   1.053   4.090  15.052  0.9516 -0.9949 -0.8986
    6MPD2    N114422   0.831   4.452  14.858 -0.0570  0.2181  0.2098
    6MPD2    H714423   0.926   4.479  14.877  0.5168 -0.7512 -1.2687
  945NH3     N114424   0.670   3.869  14.313  0.4018 -0.3539 -0.2136
  945NH3     H214425   0.753   3.923  14.333  0.8591 -0.1815 -2.6032
  945NH3     H314426   0.669   3.787  14.373  2.1973  0.2952  0.6998
  945NH3     H414427   0.593   3.926  14.348  0.5782 -1.0657  1.3678
  946SOD     NA14428   4.280   2.922  12.689  0.0845  0.6018  0.2670
  947SOD     NA14429   1.356   4.146  13.920  0.6176  0.2591  0.0056
  948SOD     NA14430   4.091   3.888   0.550 -0.1800 -0.1310  0.1097
  949SOD     NA14431   0.434   0.980   2.080 -0.2343 -0.3278 -0.4902
  950SOD     NA14432   4.234   1.385   2.316 -0.3883  0.0586 -0.1686
  951SOD     NA14433   3.246   4.605  15.120  0.2475  0.2534 -0.1536
  952SOD     NA14434   1.593   3.307  10.568  0.0820 -0.7022  0.2139
  953SOD     NA14435   1.414   3.080  10.357 -0.5338 -0.2291  0.6853
  954SOD     NA14436   3.310   3.242  13.310  0.3337  0.4207  0.3658
  955SOD     NA14437   2.454   4.111  11.985 -0.0696 -0.7841 -0.2427
  956SOD     NA14438   3.683   3.133  11.184 -0.3997 -0.0771 -0.2095
  957SOD     NA14439   2.983   3.986  13.058  0.4654 -0.0991  0.5344
  958SOD     NA14440   1.723   0.035  14.275  0.6126  0.2646 -0.3538
  959SOD     NA14441   3.934   1.282  15.340  0.4832  0.4618 -0.2571
  960SOD     NA14442   0.634   2.866   1.226 -0.0674 -0.1232  0.5550
  961SOD     NA14443   2.319   2.581  11.365 -0.0081  0.5191 -0.3624
  962SOD     NA14444   2.900   4.355  12.996  0.2100  0.2009  0.0782
  963SOD     NA14445   0.322   2.785  11.413  0.2403  0.4115 -0.3230
  964SOD     NA14446   0.844   0.444   7.790 -0.7464  0.5262  0.3645
  965SOD     NA14447   1.643   3.012   2.513 -0.1615 -0.1351  0.0287
  966SOD     NA14448   3.914   4.666  14.834  0.4542 -0.3444 -0.1425
  967SOD     NA14449   3.515   3.559   3.622  0.6868 -0.0890  0.2412
  968SOD     NA14450   2.886   3.198  17.045 -0.0675 -0.1485 -0.1484
  969SOD     NA14451   2.707   4.215  11.850 -0.3475 -0.2725  0.1409
  970SOD     NA14452   0.466   3.096  12.855  0.6461  0.1285  0.5053
  971SOD     NA14453   2.949   3.602  14.734  0.0882 -0.2574  0.0972
  972SOD     NA14454   2.677   2.389  12.747 -0.3104 -0.1887 -0.3385
  973SOD     NA14455   0.227   1.443   2.339 -0.2590  0.1938  0.2226
  974SOD     NA14456   1.465   3.327  11.310  0.1712 -0.0301  0.5549
  975SOD     NA14457   3.013   4.714   2.921  0.1259  0.2317  0.0441
  976SOD     NA14458   1.384   3.364  10.082  0.0656  0.0865 -0.2597
  977SOD     NA14459   4.576   2.943  12.039  0.4130 -0.5763 -0.0306
  978SOD     NA14460   0.154   2.415   9.043 -0.0855  0.1755 -0.2475
  979SOD     NA14461   0.694   3.307  13.044  0.3383 -0.1378 -0.0367
  980SOD     NA14462   0.392   1.053  13.548  0.4235  0.2245 -0.1854
  981SOD     NA14463   0.387   4.333  10.662  0.2311 -0.0599 -0.0169
  982SOD     NA14464   0.987   4.066  16.344 -0.1605 -0.3314  0.2087
  983SOD     NA14465   1.508   0.454   1.901  0.2068  0.1809 -0.0550
  984SOD     NA14466   0.450   3.054  10.071 -0.0805 -0.3557  0.4043
  985SOD     NA14467   0.546   0.953   1.512 -0.0766  0.4581 -0.2277
  986SOD     NA14468   0.103   3.713  16.249 -0.1090  0.4439 -0.5569
  987SOD     NA14469   2.400   3.723  10.924 -0.0673 -0.2603 -0.0247
  988SOD     NA14470   1.342   4.146   2.920 -0.3527 -0.2129 -0.1979
  989SOD     NA14471   0.067   1.877  16.800  0.1687  0.2430  0.2434
  990SOD     NA14472   1.200   4.101  10.248 -0.3464  0.5805  0.0535
  991SOD     NA14473   3.154   3.702  14.473 -0.2653  0.6065 -0.6407
  992SOD     NA14474   3.036   1.688  16.474 -0.2188 -0.1722  0.3327
  993SOD     NA14475   2.124   3.670  12.468  0.7429  0.2979  1.0365
  994SOD     NA14476   2.095   0.546  10.388  0.2475  0.1604  0.2155
  995SOD     NA14477   2.301   0.466  12.036 -0.0600 -0.3808  0.1055
  996SOD     NA14478   4.473   2.606  14.138  0.2140 -0.2621  0.0585
  997SOD     NA14479   3.574   3.365   5.495  0.0075 -0.0347 -0.1738
  998SOD     NA14480   3.971   1.949   0.436  0.2721  0.0991 -0.3509
  999SOD     NA14481   1.517   2.748  10.349 -0.4704  0.3001 -0.0840
 1000SOD     NA14482   2.068   4.391  14.402  0.2793  0.3687 -0.1234
 1001SOD     NA14483   1.655   2.349  10.578  0.3496 -0.5099 -0.3930
 1002SOD     NA14484   3.657   4.340  13.042 -0.0298  0.3638  0.5843
 1003SOD     NA14485   1.957   0.287   6.662  0.0049  0.3829 -0.0039
 1004SOD     NA14486   1.220   3.063   3.158  0.5359 -0.0589  0.1209
 1005SOD     NA14487   1.246   2.867  11.057 -0.3236 -0.0709  0.0141
 1006SOD     NA14488   2.029   3.450  17.536 -0.5768  0.2344  0.3383
 1007SOD     NA14489   3.079   2.951   8.111 -0.1606 -0.3720  0.2955
 1008SOD     NA14490   3.303   3.457  14.711  0.0057 -0.1669  0.4613
 1009SOD     NA14491   3.372   1.616   0.535 -0.0914  0.2626 -0.0465
 1010SOD     NA14492   2.007   3.468   0.418  0.5629 -0.6794 -0.1969
 1011SOD     NA14493   0.452   0.610   2.242  0.3747  0.3939 -0.1118
 1012SOL     OW14494   4.355   4.579   8.494  0.4849  0.0668 -0.0047
 1012SOL    HW114495   4.427   4.639   8.476  0.7039  0.0973  0.9755
 1012SOL    HW214496   4.403   4.508   8.537 -1.8941 -3.3603 -3.0082
 1013SOL     OW14497   2.838   0.120  15.189 -0.3492 -0.4129 -0.4520
 1013SOL    HW114498   2.792   0.115  15.105 -1.7433 -0.1664  0.3087
 1013SOL    HW214499   2.835   0.214  15.209 -1.9814 -0.5760  0.0363
 1014SOL     OW14500   1.250   2.424  13.007  0.2010 -0.1880 -0.0957
 1014SOL    HW114501   1.318   2.391  12.949  0.2058 -0.5241  0.1003
 1014SOL    HW214502   1.235   2.505  12.959 -0.6425 -1.3835 -1.8141
 1015SOL     OW14503   4.148   4.614   4.803 -0.5967 -0.0206  1.1327
 1015SOL    HW114504   4.123   4.706   4.817  0.4313  0.5018 -0.5010
 1015SOL    HW214505   4.087   4.566   4.859 -2.0542  0.2171 -0.2556
 1016SOL     OW14506   1.759   2.037   7.122  0.2898  0.0804 -0.2631
 1016SOL    HW114507   1.716   2.014   7.040  0.0186  0.3048 -0.1819
 1016SOL    HW214508   1.851   2.034   7.093  0.3539 -0.0251 -0.0504
 1017SOL     OW14509   1.471   4.646   3.872 -0.8183  0.5475 -0.4364
 1017SOL    HW114510   1.562   4.617   3.877  0.5508  4.3039 -3.9377
 1017SOL    HW214511   1.413   4.570   3.866 -1.0528  0.5742  1.3371
 1018SOL     OW14512   2.649   1.103   8.545 -0.0639  0.4095 -0.3267
 1018SOL    HW114513   2.735   1.141   8.561  0.8808 -1.9079  0.0656
 1018SOL    HW214514   2.592   1.172   8.580  1.4178  2.5267 -2.0945
 1019SOL     OW14515   0.851   2.989   2.536 -0.1630  0.1975  0.7385
 1019SOL    HW114516   0.938   2.974   2.498 -0.4141  1.6168 -0.4112
 1019SOL    HW214517   0.804   3.025   2.461 -1.1713 -0.8772  0.8678
 1020SOL     OW14518   3.301   4.598   2.821  0.3624 -0.4468 -0.1360
 1020SOL    HW114519   3.369   4.662   2.798 -2.3225  1.7863 -1.9189
 1020SOL    HW214520   3.251   4.613   2.740 -0.2263  0.5550  0.4143
 1021SOL     OW14521   1.636   3.542   7.976 -0.4351  0.1906 -0.5200
 1021SOL    HW114522   1.693   3.466   7.988 -0.1304  0.6530  0.9888
 1021SOL    HW214523   1.703   3.604   7.949  0.4880 -1.2786 -1.5901
 1022SOL     OW14524   2.254   0.845   3.056 -0.6763  0.2866  0.0274
 1022SOL    HW114525   2.284   0.931   3.029  0.0011  0.3768  1.0561
 1022SOL    HW214526   2.163   0.836   3.027 -0.7774  1.2733  0.0507
 1023SOL     OW14527   4.492   3.817   6.803  0.0869 -0.3541  0.3493
 1023SOL    HW114528   4.537   3.776   6.876  1.8772 -0.3085 -0.7106
 1023SOL    HW214529   4.426   3.751   6.786  0.3606 -0.3584 -0.7331
 1024SOL     OW14530   1.744   1.204   1.047  0.4272 -0.3672 -0.2043
 1024SOL    HW114531   1.811   1.168   0.988  0.8735  1.5177 -0.8706
 1024SOL    HW214532   1.733   1.293   1.012  0.0527 -0.4886 -0.3994
 1025SOL     OW14533   2.875   4.362   7.529  0.3357  0.3598  0.1488
 1025SOL    HW114534   2.882   4.396   7.618  0.0898  2.2743 -0.5717
 1025SOL    HW214535   2.956   4.398   7.494  0.8451 -0.9481 -0.0403
 1026SOL     OW14536   2.580   0.169   1.167  0.6527  0.0889 -0.3606
 1026SOL    HW114537   2.580   0.086   1.118 -0.2739  1.9612 -3.5007
 1026SOL    HW214538   2.487   0.189   1.162  0.4635 -0.8295 -0.5018
 1027SOL     OW14539   0.491   0.110   5.137 -0.6173 -0.2803  0.1041
 1027SOL    HW114540   0.553   0.097   5.209 -0.0635 -1.8545 -0.6611
 1027SOL    HW214541   0.488   0.021   5.102 -0.5252 -0.8427  1.5512
 1028SOL     OW14542   0.821   0.173   9.045  0.3683 -0.4264 -0.1058
 1028SOL    HW114543   0.900   0.224   9.065 -1.3979  1.6652  1.4863
 1028SOL    HW214544   0.757   0.244   9.035  0.8454 -0.5323 -4.0585
 1029SOL     OW14545   1.166   1.964  10.016 -0.7570 -0.4670  0.0992
 1029SOL    HW114546   1.112   1.889   9.990 -1.1011 -0.2398  0.1679
 1029SOL    HW214547   1.118   2.042   9.988 -0.4319  0.0890  1.0769
 1030SOL     OW14548   0.684   4.359   4.802  0.3504 -0.3663  0.1069
 1030SOL    HW114549   0.765   4.387   4.845  0.0044 -1.0360  1.1912
 1030SOL    HW214550   0.708   4.387   4.713 -1.8044 -0.1753 -0.4251
 1031SOL     OW14551   1.307   1.932   6.013  0.3363  0.0251 -0.5374
 1031SOL    HW114552   1.275   1.850   6.051  0.1637 -0.9482 -2.8195
 1031SOL    HW214553   1.274   1.992   6.080  1.1621 -1.8781  1.5717
 1032SOL     OW14554   1.384   3.342   9.400  0.0455 -0.0091  1.1061
 1032SOL    HW114555   1.327   3.304   9.333  1.7074 -0.2208 -0.1757
 1032SOL    HW214556   1.329   3.408   9.442 -1.9181  1.0294 -3.0133
 1033SOL     OW14557   4.686   2.370   7.563  0.0537 -0.4580 -0.2161
 1033SOL    HW114558   0.032   2.405   7.621  1.6044 -0.9539 -1.7104
 1033SOL    HW214559   4.604   2.379   7.612  0.0579  0.4512 -0.3932
 1034SOL     OW14560   1.669   0.368   8.119  0.0085  0.6524 -0.4174
 1034SOL    HW114561   1.737   0.307   8.146  0.2315 -0.4335 -3.4224
 1034SOL    HW214562   1.641   0.342   8.031  1.0063 -1.7314 -0.0203
 1035SOL     OW14563   3.801   1.757   7.006  0.5430 -1.0940  0.2230
 1035SOL    HW114564   3.798   1.845   7.042 -2.4500 -1.0085 -0.2574
 1035SOL    HW214565   3.757   1.704   7.072  0.9576 -1.6788  0.0370
 1036SOL     OW14566   0.385   1.294   9.192  0.4905  0.6011 -0.4794
 1036SOL    HW114567   0.480   1.306   9.190  0.2873  2.0950 -1.1090
 1036SOL    HW214568   0.389   1.208   9.235  2.1137  0.8122 -0.1992
 1037SOL     OW14569   0.976   0.449   9.379 -0.2263  0.0002 -0.1235
 1037SOL    HW114570   1.030   0.379   9.343 -0.7194  0.8149 -2.4560
 1037SOL    HW214571   0.888   0.430   9.345 -0.9080  2.4277  0.3032
 1038SOL     OW14572   3.889   0.646   6.628 -0.2824  0.2902  0.2787
 1038SOL    HW114573   3.974   0.667   6.665  0.5019 -1.2750 -0.5977
 1038SOL    HW214574   3.907   0.663   6.536  1.7820 -0.3220  0.5784
 1039SOL     OW14575   2.142   2.488   6.958 -0.0649  0.4123 -0.7724
 1039SOL    HW114576   2.105   2.535   6.883  0.1634  0.0388 -1.1218
 1039SOL    HW214577   2.134   2.560   7.020  0.1985 -0.0154 -0.2409
 1040SOL     OW14578   3.624   3.182   1.376 -0.7671  0.0250 -0.6724
 1040SOL    HW114579   3.605   3.247   1.444  0.4223  0.9071 -1.1930
 1040SOL    HW214580   3.601   3.216   1.289  0.0002  0.0567 -0.8605
 1041SOL     OW14581   1.208   0.240   0.323  0.0833 -0.0432 -0.3127
 1041SOL    HW114582   1.171   0.312   0.374  0.4409 -1.0382  1.3573
 1041SOL    HW214583   1.166   0.263   0.240 -0.3224 -1.9741 -0.6481
 1042SOL     OW14584   0.117   3.485   2.782 -0.4803  0.3628  0.0452
 1042SOL    HW114585   0.087   3.462   2.694  1.1740  2.2882 -1.0380
 1042SOL    HW214586   0.156   3.571   2.769 -0.1785  0.2724  0.3682
 1043SOL     OW14587   3.542   1.043   5.942  0.1997 -0.4029  0.5474
 1043SOL    HW114588   3.605   0.993   5.890  0.8048  0.8518  0.0909
 1043SOL    HW214589   3.549   1.135   5.916 -2.0053 -0.2194  0.5429
 1044SOL     OW14590   3.521   3.262   1.116 -0.2058  0.6101 -0.2254
 1044SOL    HW114591   3.468   3.186   1.091 -3.1109  2.1240  1.3306
 1044SOL    HW214592   3.559   3.295   1.034  2.2242  0.5828  0.8960
 1045SOL     OW14593   3.555   3.989  16.460  0.6447  0.1611 -0.3987
 1045SOL    HW114594   3.504   4.068  16.446  0.3456 -0.0313 -0.4071
 1045SOL    HW214595   3.559   3.950  16.373  5.2517 -0.2634 -0.0121
 1046SOL     OW14596   1.023   3.176  12.543 -0.1134 -0.3036 -0.1834
 1046SOL    HW114597   0.981   3.127  12.613 -1.1314  1.0374  0.1491
 1046SOL    HW214598   1.109   3.136  12.535  0.0367 -0.1003  0.3588
 1047SOL     OW14599   3.199   2.885  17.116  0.7923  0.2115  0.6203
 1047SOL    HW114600   3.142   2.810  17.129 -0.7581  1.4332  0.8422
 1047SOL    HW214601   3.286   2.850  17.137 -0.0770 -1.6391  1.1246
 1048SOL     OW14602   4.574   3.374   4.582 -0.0937 -0.3817 -0.4925
 1048SOL    HW114603   4.547   3.387   4.491 -2.4224  0.8604  0.3810
 1048SOL    HW214604   4.509   3.419   4.636  0.6762  0.9840 -0.6815
 1049SOL     OW14605   4.435   3.634   2.294  0.3571 -0.1586 -0.5938
 1049SOL    HW114606   4.446   3.643   2.389 -1.0582 -2.0631 -0.2431
 1049SOL    HW214607   4.342   3.611   2.289  0.2698  0.4962 -1.8767
 1050SOL     OW14608   0.205   4.014   3.411 -0.5757  0.0514  0.3505
 1050SOL    HW114609   0.251   4.073   3.471 -0.1786 -0.4820  0.5791
 1050SOL    HW214610   0.163   4.073   3.349  0.2965  0.3954  0.0893
 1051SOL     OW14611   4.376   1.826   7.958  0.2002 -0.4847  0.2362
 1051SOL    HW114612   4.385   1.909   7.913  0.7130 -1.1675 -0.9046
 1051SOL    HW214613   4.332   1.844   8.042 -0.0506  0.3603 -0.0806
 1052SOL     OW14614   2.894   1.434   3.196 -0.7763 -0.4933 -0.0555
 1052SOL    HW114615   2.884   1.339   3.205  1.2952 -0.9378 -2.5335
 1052SOL    HW214616   2.843   1.444   3.116 -2.0667 -2.0757  0.5713
 1053SOL     OW14617   2.320   4.566   8.291  0.4692 -0.0181  0.3537
 1053SOL    HW114618   2.373   4.645   8.278  1.1833 -0.2901  1.5859
 1053SOL    HW214619   2.358   4.515   8.219 -0.4948 -1.2914  0.7616
 1054SOL     OW14620   4.708   0.252   5.465  0.4291 -0.2157 -0.4471
 1054SOL    HW114621   0.046   0.292   5.529 -0.0728 -0.5642  0.2332
 1054SOL    HW214622   4.638   0.316   5.456  1.9638  1.5716  0.1943
 1055SOL     OW14623   4.271   4.157   4.555  0.3737  0.2185 -0.1225
 1055SOL    HW114624   4.276   4.086   4.491  1.4520  0.7227 -0.6082
 1055SOL    HW214625   4.199   4.211   4.522  1.0198  0.1649 -1.6245
 1056SOL     OW14626   0.734   4.698   6.682  0.4984 -0.1599 -0.7483
 1056SOL    HW114627   0.764   4.648   6.606  2.0181 -0.0719 -0.1896
 1056SOL    HW214628   0.674   4.633   6.720  3.3875 -2.1611  0.3566
 1057SOL     OW14629   3.544   4.602   2.012 -0.2622  0.2408  0.1382
 1057SOL    HW114630   3.516   4.604   2.103 -1.2409 -1.2956 -0.1219
 1057SOL    HW214631   3.607   4.530   2.015 -1.6019 -0.9258  0.2412
 1058SOL     OW14632   0.377   2.843   3.993  0.3716 -0.3688 -0.1994
 1058SOL    HW114633   0.448   2.838   3.929 -0.5663  0.1878 -1.2974
 1058SOL    HW214634   0.325   2.779   3.944 -3.1335  0.7875  1.9654
 1059SOL     OW14635   4.446   0.270   4.909 -0.1233  0.6046  0.2304
 1059SOL    HW114636   4.439   0.365   4.905 -3.7619  0.3017 -0.3948
 1059SOL    HW214637   4.395   0.246   4.832  3.4747 -0.6939 -1.7454
 1060SOL     OW14638   0.168   0.598   9.351  0.1427 -0.0033  0.7198
 1060SOL    HW114639   0.234   0.565   9.412 -0.1507  1.5002  1.8488
 1060SOL    HW214640   0.221   0.623   9.276 -1.5691  1.0411 -0.1535
 1061SOL     OW14641   0.341   2.378  12.499  0.3567 -0.1179 -0.5082
 1061SOL    HW114642   0.366   2.307  12.440 -1.3058 -1.0299 -0.1200
 1061SOL    HW214643   0.420   2.431  12.503 -0.0656  0.4961 -0.3519
 1062SOL     OW14644   1.599   1.129   5.053 -0.4097 -0.2784  0.1868
 1062SOL    HW114645   1.554   1.143   5.137 -2.9197 -2.2932 -0.8038
 1062SOL    HW214646   1.528   1.109   4.991  0.4213  0.0228 -0.8584
 1063SOL     OW14647   0.064   3.191   7.294  0.0725  0.0371  0.4698
 1063SOL    HW114648   0.004   3.262   7.317 -0.3957 -0.1485 -0.1632
 1063SOL    HW214649   0.107   3.169   7.377  0.3272  2.5522  0.9973
 1064SOL     OW14650   0.860   2.847  14.321 -0.1981 -0.0256  0.3991
 1064SOL    HW114651   0.774   2.880  14.296 -0.3468 -0.6453  0.1133
 1064SOL    HW214652   0.845   2.826  14.413 -2.0737 -1.2740 -0.1990
 1065SOL     OW14653   0.165   2.297   3.117  0.2463 -0.3068 -0.0828
 1065SOL    HW114654   0.177   2.391   3.110  2.0992 -0.5911 -0.7966
 1065SOL    HW214655   0.177   2.281   3.023  0.3428  1.5179 -0.3764
 1066SOL     OW14656   4.318   1.903   1.650  0.4636  0.0817  0.2988
 1066SOL    HW114657   4.302   1.954   1.571  0.7374 -0.1974  0.0600
 1066SOL    HW214658   4.413   1.910   1.656  0.2554  1.8369  1.4104
 1067SOL     OW14659   3.586   1.360   6.932 -0.6747 -0.7938  0.4378
 1067SOL    HW114660   3.556   1.287   6.986  0.2691 -0.6648  1.1451
 1067SOL    HW214661   3.635   1.307   6.869  0.1346  2.3111 -1.5679
 1068SOL     OW14662   4.251   1.498   2.707 -0.0436 -0.1199 -0.3727
 1068SOL    HW114663   4.169   1.502   2.756 -0.2476 -0.6027 -0.6664
 1068SOL    HW214664   4.253   1.588   2.674  0.1485  0.0929  0.2197
 1069SOL     OW14665   0.401   0.925   0.078  0.7836  0.3970  0.3559
 1069SOL    HW114666   0.455   0.864   0.128 -0.6715 -1.8223 -0.7939
 1069SOL    HW214667   0.462   0.959   0.012  0.4733 -0.5253 -0.4176
 1070SOL     OW14668   0.968   1.717   7.573  0.5437 -0.6631 -0.5781
 1070SOL    HW114669   0.910   1.700   7.647  2.5016 -1.2383  0.8447
 1070SOL    HW214670   1.050   1.703   7.622  0.4762 -1.0775 -0.5816
 1071SOL     OW14671   4.483   4.114   8.218 -0.2334  0.3711 -0.3532
 1071SOL    HW114672   4.486   4.023   8.248 -1.7238  0.3394 -0.2685
 1071SOL    HW214673   4.423   4.156   8.280 -0.4502  2.7629 -2.1777
 1072SOL     OW14674   1.803   1.835   6.007 -0.1806 -0.0806 -0.2487
 1072SOL    HW114675   1.877   1.785   6.042  0.9063  1.4713 -0.3233
 1072SOL    HW214676   1.788   1.900   6.075  2.7094  1.6793 -1.2861
 1073SOL     OW14677   1.855   1.298   1.958  0.3955 -0.2106 -0.1232
 1073SOL    HW114678   1.887   1.306   1.868 -3.4810  0.7010 -1.4497
 1073SOL    HW214679   1.827   1.388   1.975  1.0979  0.4064 -2.2608
 1074SOL     OW14680   4.275   2.799   0.599 -0.4410  0.2650  0.2005
 1074SOL    HW114681   4.203   2.738   0.611 -3.0365  3.5697  1.5576
 1074SOL    HW214682   4.217   2.871   0.574 -1.4217 -1.0011 -1.1398
 1075SOL     OW14683   0.594   1.731   4.036 -0.2820 -0.5682 -0.0496
 1075SOL    HW114684   0.656   1.790   4.078 -1.6788 -1.7541  3.7034
 1075SOL    HW214685   0.643   1.689   3.966  3.5928 -0.4124  2.5480
 1076SOL     OW14686   0.900   0.144  16.114  0.0191 -0.0417  0.3998
 1076SOL    HW114687   0.818   0.133  16.066 -1.3315  1.4371  2.3893
 1076SOL    HW214688   0.872   0.207  16.180 -2.1847  0.4499 -1.0323
 1077SOL     OW14689   2.838   3.271   3.728  0.1261  0.2367 -0.0543
 1077SOL    HW114690   2.907   3.205   3.717 -2.2624 -2.1603 -0.6276
 1077SOL    HW214691   2.771   3.222   3.680 -0.2677  1.1637 -0.4308
 1078SOL     OW14692   4.292   4.564   3.461  0.0289  0.2089 -0.1638
 1078SOL    HW114693   4.263   4.539   3.373 -3.1684 -0.5345  1.1176
 1078SOL    HW214694   4.387   4.565   3.445 -0.2498  0.4516 -1.8443
 1079SOL     OW14695   1.764   4.216   1.325 -0.1748 -0.0701  0.0231
 1079SOL    HW114696   1.827   4.272   1.371  0.1399 -2.6349  2.7050
 1079SOL    HW214697   1.725   4.287   1.274 -0.8484  0.2749  0.9993
 1080SOL     OW14698   3.578   1.268   8.274 -0.6813  0.3356  0.9110
 1080SOL    HW114699   3.546   1.333   8.211 -2.0808  0.0023  1.2756
 1080SOL    HW214700   3.607   1.201   8.212 -2.2699 -0.2623  0.8292
 1081SOL     OW14701   1.220   1.601   8.304 -0.7017 -0.3265 -0.5614
 1081SOL    HW114702   1.150   1.646   8.256 -1.3163 -1.8180 -1.0616
 1081SOL    HW214703   1.168   1.569   8.377 -1.7726  1.5660 -0.4972
 1082SOL     OW14704   2.975   0.592  12.595 -0.4098  0.2731 -0.3228
 1082SOL    HW114705   2.885   0.562  12.584 -1.3741  3.4107 -0.7528
 1082SOL    HW214706   3.021   0.510  12.576  0.2060  0.5434 -0.0177
 1083SOL     OW14707   0.437   3.437  15.465  0.7357  0.5969 -0.3222
 1083SOL    HW114708   0.447   3.402  15.377 -1.0157  0.6554 -0.5327
 1083SOL    HW214709   0.397   3.367  15.517 -0.0658 -1.5878 -3.9372
 1084SOL     OW14710   3.206   3.850   9.226 -0.0544 -0.2454  0.0664
 1084SOL    HW114711   3.280   3.817   9.276 -0.0629  0.1686  0.3470
 1084SOL    HW214712   3.156   3.887   9.298  0.2522  1.9439 -0.8538
 1085SOL     OW14713   2.425   0.795   4.945  0.0048  0.4800  0.3131
 1085SOL    HW114714   2.364   0.862   4.976 -1.0718 -0.0346 -0.7028
 1085SOL    HW214715   2.505   0.820   4.993 -0.2262  1.3813  0.2247
 1086SOL     OW14716   3.166   1.102  12.612 -0.6343 -0.1196 -0.2350
 1086SOL    HW114717   3.096   1.067  12.557 -2.2692  2.1051  0.4303
 1086SOL    HW214718   3.202   1.016  12.634 -0.4094  0.3821  1.4068
 1087SOL     OW14719   1.651   2.992  17.659  0.2209  0.4023  0.0996
 1087SOL    HW114720   1.670   2.899  17.648 -1.6599  0.2673 -1.9787
 1087SOL    HW214721   1.734   3.028   0.003  1.4281  0.8474 -3.7966
 1088SOL     OW14722   3.894   1.076   9.478 -1.0286  0.3447  0.0499
 1088SOL    HW114723   3.883   1.122   9.561  0.4286 -1.2268  1.1234
 1088SOL    HW214724   3.959   1.132   9.437 -0.1692  0.3121  1.3658
 1089SOL     OW14725   2.481   2.976   4.044  0.1076  0.6146 -0.6208
 1089SOL    HW114726   2.564   3.024   4.045  1.3662 -1.5361  0.5032
 1089SOL    HW214727   2.422   3.044   4.015  1.2951  2.5492  1.5166
 1090SOL     OW14728   0.529   1.199   3.290 -0.0831 -0.0720 -0.2060
 1090SOL    HW114729   0.579   1.133   3.242 -0.5073 -0.8659  0.4430
 1090SOL    HW214730   0.505   1.153   3.371  2.2984 -1.2317 -0.1788
 1091SOL     OW14731   4.086   1.805   3.485 -0.0949 -0.0242 -0.1045
 1091SOL    HW114732   4.077   1.718   3.522  0.6046  0.6369  1.6154
 1091SOL    HW214733   4.057   1.864   3.555 -0.5990  0.3036 -0.5896
 1092SOL     OW14734   2.703   1.182   2.500 -0.4588 -0.0122 -0.7638
 1092SOL    HW114735   2.718   1.100   2.547  0.6059  1.4772  1.4761
 1092SOL    HW214736   2.755   1.165   2.422 -2.8488 -1.6730 -2.0034
 1093SOL     OW14737   1.902   1.079  15.065 -0.1729  0.0157  0.0564
 1093SOL    HW114738   1.827   1.134  15.087  0.1967  0.0503  1.2368
 1093SOL    HW214739   1.968   1.138  15.103  0.6218 -1.8294  1.5661
 1094SOL     OW14740   3.643   0.706  11.472 -0.1346 -0.1228 -0.1372
 1094SOL    HW114741   3.707   0.635  11.472 -0.3210 -0.2856  2.4807
 1094SOL    HW214742   3.603   0.705  11.559  1.6049  1.3589  0.6735
 1095SOL     OW14743   0.777   2.280   4.886 -0.4404 -0.0218  0.1646
 1095SOL    HW114744   0.685   2.273   4.909 -0.2043 -0.7071  0.8763
 1095SOL    HW214745   0.755   2.276   4.793 -3.1099  1.4590  0.7438
 1096SOL     OW14746   4.628   0.522  14.488  0.3257 -0.2818 -0.6785
 1096SOL    HW114747   4.586   0.592  14.538  2.6458  0.6271 -0.0231
 1096SOL    HW214748   4.617   0.451  14.552 -0.0238  0.1391 -0.2665
 1097SOL     OW14749   0.025   2.330   8.893 -0.4744 -0.0770 -0.1122
 1097SOL    HW114750   0.035   2.236   8.906 -0.0655  0.0594  0.5249
 1097SOL    HW214751   4.703   2.335   8.807  0.1766 -1.0561 -0.4801
 1098SOL     OW14752   0.133   4.024   8.434 -0.1606 -0.0819 -0.2474
 1098SOL    HW114753   0.159   4.102   8.483 -1.3783  1.6749 -2.3655
 1098SOL    HW214754   0.191   3.960   8.474 -2.3198 -0.1473  2.7138
 1099SOL     OW14755   3.687   2.811   2.205 -0.1045 -0.0803  0.1590
 1099SOL    HW114756   3.602   2.767   2.208 -1.3734  2.1617 -2.9392
 1099SOL    HW214757   3.688   2.845   2.294  1.0354 -0.2324  0.2145
 1100SOL     OW14758   3.324   3.237   9.428 -0.3728 -0.1966  0.3362
 1100SOL    HW114759   3.392   3.264   9.491 -0.1935 -1.1076  0.5272
 1100SOL    HW214760   3.289   3.157   9.467  0.6201 -1.9756 -2.4456
 1101SOL     OW14761   1.450   1.871   4.350  0.3980 -0.6164  0.0607
 1101SOL    HW114762   1.439   1.782   4.315  1.3926 -0.4193 -0.7253
 1101SOL    HW214763   1.358   1.899   4.348  0.2996 -0.7588  2.3477
 1102SOL     OW14764   0.700   3.142   9.171  0.5019 -0.4185  0.0892
 1102SOL    HW114765   0.701   3.178   9.083 -4.5139  0.2790  0.3511
 1102SOL    HW214766   0.608   3.146   9.195  0.4589  1.1308 -0.3117
 1103SOL     OW14767   3.703   3.902  10.676  0.2951  0.2200 -0.3490
 1103SOL    HW114768   3.716   3.988  10.637  0.0708 -0.0414 -1.0027
 1103SOL    HW214769   3.610   3.910  10.696  0.2988 -0.9688  0.1332
 1104SOL     OW14770   1.354   0.861   3.501 -0.5536 -1.2021 -0.1033
 1104SOL    HW114771   1.390   0.834   3.416 -0.4290 -1.3868  0.0114
 1104SOL    HW214772   1.423   0.821   3.553  1.0564 -0.8106 -1.9115
 1105SOL     OW14773   3.448   0.309   5.278 -0.3851  0.2892 -0.5488
 1105SOL    HW114774   3.402   0.228   5.299 -1.5775  1.6218  2.0418
 1105SOL    HW214775   3.401   0.340   5.201 -1.5225  1.3608  0.5640
 1106SOL     OW14776   4.679   1.396  15.753  0.0307  0.8577  0.3762
 1106SOL    HW114777   4.655   1.488  15.740 -0.3408  0.6503 -0.3837
 1106SOL    HW214778   0.011   1.366  15.679 -0.4264 -2.1876  1.3098
 1107SOL     OW14779   3.124   1.999   8.318 -0.3526 -0.7843  0.2408
 1107SOL    HW114780   3.109   1.944   8.241  0.9994  0.6978 -1.0992
 1107SOL    HW214781   3.059   2.068   8.306 -0.0481 -0.5152  0.1395
 1108SOL     OW14782   3.391   3.502   5.899 -1.3379  0.4539 -0.1925
 1108SOL    HW114783   3.300   3.526   5.914 -1.5571 -0.0585 -0.6729
 1108SOL    HW214784   3.422   3.548   5.977  0.7381 -2.1460  0.5221
 1109SOL     OW14785   1.110   0.424   6.199 -0.1884  0.7293  0.3297
 1109SOL    HW114786   1.154   0.369   6.264 -2.8130 -0.6272  0.9426
 1109SOL    HW214787   1.045   0.368   6.156  0.5189 -1.5708  2.2684
 1110SOL     OW14788   0.918   2.094   7.878 -0.1188 -0.1667  0.0675
 1110SOL    HW114789   0.965   2.014   7.904  0.4789 -0.1454 -0.9178
 1110SOL    HW214790   0.979   2.153   7.833 -0.8099 -0.2948 -1.0343
 1111SOL     OW14791   2.806   3.331   7.936  0.0162 -0.4031  0.1063
 1111SOL    HW114792   2.807   3.371   7.849 -1.7827 -1.4872 -0.4228
 1111SOL    HW214793   2.879   3.378   7.976 -0.1543  1.6996 -2.1019
 1112SOL     OW14794   0.682   1.363  14.642 -0.1795  0.0976  0.2566
 1112SOL    HW114795   0.613   1.397  14.585  2.3691  2.3000 -1.5070
 1112SOL    HW214796   0.739   1.436  14.664 -0.9997  0.4773  1.1285
 1113SOL     OW14797   2.774   2.928  17.342 -0.8099 -0.2764  0.0551
 1113SOL    HW114798   2.684   2.937  17.374 -0.7133 -0.5890  0.4095
 1113SOL    HW214799   2.789   2.836  17.321 -1.1469 -0.1719 -0.6210
 1114SOL     OW14800   3.967   2.688   8.749  0.6769 -0.3989  0.0188
 1114SOL    HW114801   3.892   2.748   8.749  0.0536 -1.1840 -0.1620
 1114SOL    HW214802   4.004   2.702   8.836  0.3259 -0.4946  0.1815
 1115SOL     OW14803   0.059   0.972   1.767 -0.2195 -0.0462 -0.3021
 1115SOL    HW114804   0.016   1.055   1.745  0.2246  0.0392 -0.8425
 1115SOL    HW214805   4.710   0.919   1.805 -0.7106  1.6920  1.2427
 1116SOL     OW14806   4.592   4.477   6.767 -0.3256  0.1525 -0.1754
 1116SOL    HW114807   4.666   4.499   6.824  0.4421  0.4520 -1.2877
 1116SOL    HW214808   4.540   4.433   6.834 -2.7021  1.4743 -1.1481
 1117SOL     OW14809   3.997   2.505   5.041 -0.7703  0.4499  0.4792
 1117SOL    HW114810   4.045   2.482   5.120  0.9206 -0.4270 -0.7913
 1117SOL    HW214811   3.956   2.427   5.003 -0.8119  0.7682 -0.1388
 1118SOL     OW14812   0.733   0.833   2.925 -0.0107  0.0877 -0.2758
 1118SOL    HW114813   0.708   0.837   2.833 -0.3124  1.8900 -0.1201
 1118SOL    HW214814   0.806   0.772   2.923  0.1800  0.3500 -1.1560
 1119SOL     OW14815   0.668   2.661   8.604 -0.2570  0.0469 -0.2091
 1119SOL    HW114816   0.750   2.670   8.556  0.0426  0.3648  0.3578
 1119SOL    HW214817   0.692   2.686   8.693 -3.3451 -0.0102  0.6641
 1120SOL     OW14818   1.507   0.837   5.047 -0.0670  0.2768  0.0286
 1120SOL    HW114819   1.474   0.775   5.111 -0.2003  0.1149 -0.1981
 1120SOL    HW214820   1.516   0.922   5.091 -0.8783  1.2869 -1.7417
 1121SOL     OW14821   1.436   3.297   6.501 -0.1126  0.1251 -0.3879
 1121SOL    HW114822   1.404   3.261   6.583  0.9625  2.4970  1.0893
 1121SOL    HW214823   1.373   3.255   6.443  1.1822 -2.9425  0.4643
 1122SOL     OW14824   3.865   2.015   7.031  0.2643 -0.1110  0.4540
 1122SOL    HW114825   3.829   2.102   7.046 -1.0461 -0.1007 -2.7402
 1122SOL    HW214826   3.928   2.014   6.958 -0.5489  0.3020 -0.2495
 1123SOL     OW14827   1.224   3.597   8.561 -0.5032  0.7886 -0.2010
 1123SOL    HW114828   1.242   3.655   8.487  2.9182 -1.1745 -0.9131
 1123SOL    HW214829   1.175   3.653   8.620 -0.9330 -0.8188  0.9777
 1124SOL     OW14830   1.514   0.241  12.832 -0.1324  0.1604 -0.4107
 1124SOL    HW114831   1.521   0.145  12.828 -0.5953  0.1439 -0.7486
 1124SOL    HW214832   1.583   0.269  12.893 -1.1489  0.4761  0.5791
 1125SOL     OW14833   3.079   1.949   4.100 -0.4939 -0.3442 -0.2855
 1125SOL    HW114834   3.032   1.983   4.176 -0.4211  0.3404 -0.5533
 1125SOL    HW214835   3.087   1.856   4.122 -0.7869  0.3047  2.5314
 1126SOL     OW14836   0.686   0.197   5.786  0.1598 -0.0298  0.2702
 1126SOL    HW114837   0.755   0.202   5.853  0.8986 -0.4159 -0.4676
 1126SOL    HW214838   0.701   0.285   5.751  3.0486 -0.1193  1.2224
 1127SOL     OW14839   1.652   0.044   8.319  0.1841 -0.0051  0.3989
 1127SOL    HW114840   1.609   4.695   8.269  0.3035 -2.4935  3.7540
 1127SOL    HW214841   1.723   4.710   8.352 -0.2807 -0.2485  1.0017
 1128SOL     OW14842   4.125   2.472  14.872 -0.0930  0.1237  0.2655
 1128SOL    HW114843   4.152   2.514  14.791 -0.5143  0.9841  0.5678
 1128SOL    HW214844   4.209   2.471  14.917  0.3997 -0.6080 -0.6857
 1129SOL     OW14845   0.543   0.195   4.652  0.6899 -0.1531 -0.3527
 1129SOL    HW114846   0.488   0.250   4.707  3.0751  1.5475  0.3101
 1129SOL    HW214847   0.568   0.126   4.714  2.5178 -0.2574 -1.1805
 1130SOL     OW14848   0.614   2.372   4.175 -0.3256  0.2379 -0.1886
 1130SOL    HW114849   0.700   2.390   4.212 -0.6743 -2.9347  2.1574
 1130SOL    HW214850   0.585   2.306   4.238  0.7343 -0.7589 -0.7607
 1131SOL     OW14851   1.933   3.348  12.506 -0.6874 -0.3136  0.0288
 1131SOL    HW114852   1.912   3.438  12.534 -2.4090 -1.4051  2.2914
 1131SOL    HW214853   2.003   3.332  12.569 -2.0337  1.5625  2.0206
 1132SOL     OW14854   3.321   2.234   9.605  0.3497  0.1040  0.1197
 1132SOL    HW114855   3.278   2.220   9.520 -0.8365 -1.0158  0.9064
 1132SOL    HW214856   3.251   2.194   9.657  0.6332 -0.2652  0.2146
 1133SOL     OW14857   4.544   1.489   8.181  0.0939  0.5644  0.2068
 1133SOL    HW114858   4.575   1.558   8.239 -1.3911  0.7959  0.7078
 1133SOL    HW214859   4.475   1.457   8.240  0.2375  0.3309  0.2503
 1134SOL     OW14860   1.019   3.557   6.448  0.6121 -0.7857  0.3662
 1134SOL    HW114861   1.095   3.614   6.440 -0.2356  0.1661 -0.7545
 1134SOL    HW214862   0.964   3.606   6.510 -0.3865 -0.1790 -1.0055
 1135SOL     OW14863   3.346   1.890   7.115 -0.4689 -0.3106 -0.2276
 1135SOL    HW114864   3.364   1.816   7.173 -0.3702  0.8838  1.2783
 1135SOL    HW214865   3.418   1.953   7.120 -0.4019 -0.3272 -1.0958
 1136SOL     OW14866   1.498   3.440   2.829  0.5847 -0.1776  0.1741
 1136SOL    HW114867   1.476   3.432   2.922  1.2680  1.6719  0.4873
 1136SOL    HW214868   1.417   3.445   2.779 -0.1591  1.7476  1.6062
 1137SOL     OW14869   3.766   4.648  17.291 -0.1126 -0.2942 -0.2654
 1137SOL    HW114870   3.746   0.009  17.336 -1.4449 -1.0423  0.5296
 1137SOL    HW214871   3.678   4.610  17.288  0.0553 -0.6796 -0.2663
 1138SOL     OW14872   1.160   3.406   8.176  0.6090 -0.8364 -0.0254
 1138SOL    HW114873   1.210   3.344   8.124  1.8033  1.0587 -1.1201
 1138SOL    HW214874   1.195   3.487   8.140  0.7027 -1.1731 -0.6901
 1139SOL     OW14875   1.671   2.135   6.402  0.2250 -0.1263  0.2299
 1139SOL    HW114876   1.679   2.043   6.427 -0.8150 -0.1937  0.2964
 1139SOL    HW214877   1.608   2.161   6.469  2.0284  1.5284  1.2802
 1140SOL     OW14878   1.843   3.315   3.865  0.0948  0.1230  0.2165
 1140SOL    HW114879   1.767   3.322   3.807 -0.1426  1.8837  0.7476
 1140SOL    HW214880   1.820   3.391   3.918 -1.1492 -0.8312  1.0610
 1141SOL     OW14881   1.640   3.327   3.656 -0.4381  0.0812  0.4571
 1141SOL    HW114882   1.552   3.363   3.651  0.4534  2.6176  2.4580
 1141SOL    HW214883   1.657   3.285   3.572 -1.2015  1.0238 -0.1619
 1142SOL     OW14884   1.306   4.391   8.859  0.3102  0.6571  0.0716
 1142SOL    HW114885   1.275   4.318   8.807  1.6454 -0.2342  0.5146
 1142SOL    HW214886   1.340   4.359   8.943 -1.5712 -1.5911 -0.0534
 1143SOL     OW14887   2.364   3.847   1.242  0.7287  0.1362 -0.1332
 1143SOL    HW114888   2.355   3.813   1.153  0.8059  2.2887 -0.9699
 1143SOL    HW214889   2.330   3.773   1.292  1.2422  1.0514  1.5785
 1144SOL     OW14890   4.275   0.777  13.817  0.2041 -0.2447  0.0920
 1144SOL    HW114891   4.287   0.739  13.904  0.6499 -1.4668 -0.5027
 1144SOL    HW214892   4.363   0.808  13.792  0.8678 -0.3042  2.3395
 1145SOL     OW14893   2.327   4.498   7.107  0.2684 -0.2300  0.1303
 1145SOL    HW114894   2.339   4.529   7.017 -0.2554  1.5426  0.6804
 1145SOL    HW214895   2.398   4.549   7.147  1.2379 -1.7482  0.3297
 1146SOL     OW14896   4.521   3.855   5.919 -0.1363 -0.1535 -0.6531
 1146SOL    HW114897   4.561   3.833   6.004 -1.7440 -0.8431 -0.0841
 1146SOL    HW214898   4.432   3.874   5.947 -0.5409 -0.3415 -1.8367
 1147SOL     OW14899   3.065   2.030  12.866 -0.3219 -0.0076 -0.1651
 1147SOL    HW114900   3.092   2.083  12.791 -0.9592  0.7896  0.1709
 1147SOL    HW214901   3.089   2.094  12.933 -0.5200 -0.8722  0.7332
 1148SOL     OW14902   3.599   2.203   2.236 -0.1682  0.4772 -1.3649
 1148SOL    HW114903   3.674   2.225   2.292  0.9770 -1.3751 -2.1464
 1148SOL    HW214904   3.535   2.261   2.275  0.9609 -0.3548  1.7556
 1149SOL     OW14905   3.169   3.966  17.057 -0.6733 -0.0781 -0.0722
 1149SOL    HW114906   3.224   3.942  16.983  0.7201  1.0180  0.6088
 1149SOL    HW214907   3.089   3.991  17.012 -2.0600 -2.1830  1.2245
 1150SOL     OW14908   0.693   1.021  16.566  0.3150  0.4750 -0.0592
 1150SOL    HW114909   0.773   1.067  16.593  0.4524 -0.6589  1.4970
 1150SOL    HW214910   0.729   0.949  16.515 -2.7764 -1.1766  0.0735
 1151SOL     OW14911   3.767   4.039  12.617 -0.5209  0.2085  0.7277
 1151SOL    HW114912   3.765   4.046  12.712  0.0281  1.6491  0.6259
 1151SOL    HW214913   3.781   3.944  12.621  1.5386  0.5187  0.6867
 1152SOL     OW14914   0.416   0.773   4.576  0.5316 -0.2128 -0.2728
 1152SOL    HW114915   0.480   0.746   4.510  0.8957 -1.6366  0.6697
 1152SOL    HW214916   0.338   0.722   4.554 -0.8716  1.3206  1.1734
 1153SOL     OW14917   3.843   0.283   3.464  0.3875  0.1144  0.1794
 1153SOL    HW114918   3.857   0.350   3.396 -0.9303 -0.5585 -0.7525
 1153SOL    HW214919   3.765   0.323   3.501  0.3363  1.7610 -1.6771
 1154SOL     OW14920   1.364   0.722   1.851 -0.1888 -0.1622 -0.0151
 1154SOL    HW114921   1.384   0.749   1.762 -1.8229  0.3059 -0.2351
 1154SOL    HW214922   1.270   0.730   1.866  0.0401  1.0624  0.8194
 1155SOL     OW14923   2.886   3.995   3.524  0.0516 -0.2211 -0.0659
 1155SOL    HW114924   2.896   4.018   3.616 -1.2499  0.6417 -0.1491
 1155SOL    HW214925   2.957   4.046   3.485  3.0168 -2.5095  2.3263
 1156SOL     OW14926   4.234   3.417   4.990 -0.0985 -0.6045  0.4087
 1156SOL    HW114927   4.257   3.410   5.083 -0.5998  0.5692  0.6250
 1156SOL    HW214928   4.173   3.491   4.992 -0.1894 -0.6356 -2.0779
 1157SOL     OW14929   3.854   0.491   4.441 -0.1885  0.5772 -0.1367
 1157SOL    HW114930   3.781   0.495   4.501 -1.4341 -2.0969 -1.4974
 1157SOL    HW214931   3.863   0.578   4.401 -1.2151 -0.4376 -2.5704
 1158SOL     OW14932   3.230   0.136   1.796  0.4373  0.5571 -0.2255
 1158SOL    HW114933   3.168   0.106   1.863  3.9925 -1.1786  2.2886
 1158SOL    HW214934   3.307   0.151   1.850  0.3969 -1.7905  0.4874
 1159SOL     OW14935   3.247   1.081  11.802 -0.0370  0.0552  0.0809
 1159SOL    HW114936   3.163   1.036  11.810  0.2475 -0.7368 -1.3457
 1159SOL    HW214937   3.216   1.153  11.749 -0.9370  1.3356  2.3513
 1160SOL     OW14938   0.452   4.036  16.157  0.3238 -0.3862 -0.3312
 1160SOL    HW114939   0.425   4.128  16.155  1.0939 -0.0582  3.7504
 1160SOL    HW214940   0.547   4.037  16.168  0.4197 -1.1956 -1.0774
 1161SOL     OW14941   1.874   0.898   5.158  0.2523  0.3795  0.2972
 1161SOL    HW114942   1.893   0.982   5.117 -1.5958 -0.6221 -2.5831
 1161SOL    HW214943   1.859   0.922   5.250  2.4649  0.7348  0.5525
 1162SOL     OW14944   1.828   3.409   8.872  0.2818 -0.2860  0.1919
 1162SOL    HW114945   1.768   3.404   8.798 -0.5963  1.1399  0.7907
 1162SOL    HW214946   1.884   3.483   8.850  0.5658 -1.1153 -1.8765
 1163SOL     OW14947   4.325   0.453   0.324  0.3203  0.0899 -0.0226
 1163SOL    HW114948   4.402   0.458   0.266  0.0235  0.8282 -0.3589
 1163SOL    HW214949   4.338   0.363   0.354  0.1687 -0.2772 -1.0436
 1164SOL     OW14950   3.510   2.153  13.610  0.1894  0.8346  0.3207
 1164SOL    HW114951   3.459   2.197  13.677  0.6350  1.1279  0.4684
 1164SOL    HW214952   3.530   2.068  13.648  0.3104  0.3806 -0.7365
 1165SOL     OW14953   4.483   2.137   2.746 -0.1648  0.1149 -0.4268
 1165SOL    HW114954   4.389   2.153   2.752 -0.5396 -2.6687  1.0198
 1165SOL    HW214955   4.503   2.216   2.695 -0.4959  0.2380 -0.3664
 1166SOL     OW14956   3.573   3.416   9.509  0.4598 -0.1542 -0.0798
 1166SOL    HW114957   3.669   3.421   9.509  0.5105 -1.2749  2.5050
 1166SOL    HW214958   3.553   3.477   9.580 -4.4652 -1.8438 -0.0255
 1167SOL     OW14959   2.294   2.059   4.086  0.1537 -0.6101  0.3148
 1167SOL    HW114960   2.273   2.016   4.169 -0.8692  0.9963  0.8984
 1167SOL    HW214961   2.259   2.147   4.098  1.5415  0.2572 -1.9205
 1168SOL     OW14962   0.090   4.470   5.355  0.0632 -0.3216  0.4099
 1168SOL    HW114963   0.129   4.555   5.376 -0.0803 -0.4015  1.0030
 1168SOL    HW214964   0.091   4.436   5.445  0.5268 -0.5777  0.3093
 1169SOL     OW14965   2.487   1.598  12.392 -0.4427  0.3590  0.3820
 1169SOL    HW114966   2.532   1.632  12.315  0.2843 -2.7394 -0.5991
 1169SOL    HW214967   2.418   1.547  12.349 -2.1443  1.5635  1.6998
 1170SOL     OW14968   0.649   0.214   6.092 -0.4277 -0.3316  0.0040
 1170SOL    HW114969   0.632   0.132   6.045  2.4910 -0.1981 -1.2640
 1170SOL    HW214970   0.744   0.217   6.084 -0.5491 -1.4595 -1.8108
 1171SOL     OW14971   2.392   2.155  12.843 -0.2668  0.7057 -0.9671
 1171SOL    HW114972   2.451   2.180  12.772  0.4227  0.7338 -0.3853
 1171SOL    HW214973   2.314   2.200  12.810 -0.6510  2.3493  2.1799
 1172SOL     OW14974   0.764   4.695   8.850  0.1342 -0.1427 -0.2224
 1172SOL    HW114975   0.673   0.001   8.841 -0.1481 -1.7802 -2.3490
 1172SOL    HW214976   0.805   0.040   8.906 -0.4896  0.6169 -0.6801
 1173SOL     OW14977   1.333   2.513   1.917 -0.1107 -0.2591 -0.6537
 1173SOL    HW114978   1.331   2.590   1.860 -1.3053 -0.5340 -0.9791
 1173SOL    HW214979   1.402   2.452   1.891  0.3907 -1.1858  2.8190
 1174SOL     OW14980   2.477   1.135   7.255  0.3133 -0.1232  0.2174
 1174SOL    HW114981   2.496   1.062   7.314  2.0982  0.6016  0.5422
 1174SOL    HW214982   2.402   1.107   7.203 -0.0303 -1.4467  1.4156
 1175SOL     OW14983   3.354   0.805  14.595  0.6626  0.2647  0.2970
 1175SOL    HW114984   3.315   0.771  14.514  1.7797 -2.0632  0.7238
 1175SOL    HW214985   3.304   0.886  14.592 -0.6791 -0.6042 -0.8643
 1176SOL     OW14986   0.453   3.737  11.236  0.0921 -0.2164 -0.0061
 1176SOL    HW114987   0.477   3.773  11.321 -0.0276  0.0541 -0.0851
 1176SOL    HW214988   0.487   3.808  11.181 -2.7356 -0.4931 -2.1411
 1177SOL     OW14989   0.908   3.442   9.228 -0.5063  0.1430  0.9063
 1177SOL    HW114990   0.850   3.443   9.305  1.3234  2.0758  2.2519
 1177SOL    HW214991   0.951   3.527   9.233  0.3849 -0.2327 -0.5292
 1178SOL     OW14992   2.887   0.678   3.971  0.3902 -0.4792 -0.0294
 1178SOL    HW114993   2.814   0.626   3.938  0.0366 -0.2184  0.3257
 1178SOL    HW214994   2.883   0.746   3.903 -0.7921 -0.8833 -0.3700
 1179SOL     OW14995   2.780   2.530   1.545 -0.3343 -0.2367  0.2124
 1179SOL    HW114996   2.766   2.590   1.618 -0.0271  0.6041 -0.4133
 1179SOL    HW214997   2.873   2.550   1.536 -0.3418  0.4276  1.5496
 1180SOL     OW14998   0.185   4.191   9.083  0.5567 -0.6500 -0.5508
 1180SOL    HW114999   0.249   4.128   9.051 -0.6062 -0.9871 -2.2401
 1180SOL    HW215000   0.129   4.180   9.006 -1.5884  1.6511  0.7014
 1181SOL     OW15001   3.258   1.565   6.625 -0.0837  0.1029 -0.2697
 1181SOL    HW115002   3.297   1.514   6.554  1.1680  1.2930 -0.4383
 1181SOL    HW215003   3.335   1.610   6.660  0.3575  0.7902 -2.1260
 1182SOL     OW15004   3.604   3.616   8.536  0.1747  0.0634  0.4818
 1182SOL    HW115005   3.622   3.613   8.631  0.9934 -0.2059  0.3227
 1182SOL    HW215006   3.671   3.554   8.508 -0.3833 -0.6648  0.7487
 1183SOL     OW15007   4.075   2.493   6.680  0.2613  0.6616 -0.2359
 1183SOL    HW115008   4.088   2.586   6.698  1.8208  0.9246 -2.7610
 1183SOL    HW215009   3.984   2.495   6.710 -0.2780 -0.7270 -1.7536
 1184SOL     OW15010   4.290   1.673   7.542 -0.6056 -0.3949 -0.0822
 1184SOL    HW115011   4.294   1.766   7.519  1.7646 -0.9094 -1.7269
 1184SOL    HW215012   4.302   1.640   7.453 -0.2511  2.4598 -1.0800
 1185SOL     OW15013   0.047   1.612   0.296 -0.2252  0.0598 -0.0462
 1185SOL    HW115014   0.014   1.532   0.256 -1.2265  0.0424  0.7926
 1185SOL    HW215015   0.132   1.613   0.253 -1.0760 -0.9909 -1.7372
 1186SOL     OW15016   1.011   3.936  10.662 -0.2054 -0.4710 -0.1701
 1186SOL    HW115017   1.009   3.997  10.735 -0.9960  0.0599 -0.6254
 1186SOL    HW215018   0.932   3.885  10.676 -0.6353  0.1253 -0.4190
 1187SOL     OW15019   1.096   2.970   6.834 -0.1756 -0.1760 -0.4270
 1187SOL    HW115020   1.043   2.954   6.911 -1.4967 -0.7192 -1.4605
 1187SOL    HW215021   1.105   3.066   6.828 -2.0630 -0.0325 -0.7610
 1188SOL     OW15022   1.066   3.260   5.554  0.1412  0.2394 -0.0287
 1188SOL    HW115023   1.030   3.185   5.507  0.4484 -0.5441  0.9855
 1188SOL    HW215024   1.153   3.270   5.515  1.1653  0.5215  2.2781
 1189SOL     OW15025   0.266   3.439   5.006  0.4545  0.0782  0.0859
 1189SOL    HW115026   0.223   3.445   5.092 -1.0685 -0.3172 -0.6626
 1189SOL    HW215027   0.224   3.364   4.965 -2.1222  2.1236 -1.0524
 1190SOL     OW15028   2.648   3.531   8.983 -1.0157 -0.5151 -0.3092
 1190SOL    HW115029   2.711   3.476   8.936 -0.8068 -0.8924  0.4113
 1190SOL    HW215030   2.576   3.473   9.006 -0.8165 -1.0388 -1.0132
 1191SOL     OW15031   3.374   2.980   4.626  0.4110  0.0242  0.9109
 1191SOL    HW115032   3.332   2.894   4.615 -0.5609  0.7401 -0.9992
 1191SOL    HW215033   3.445   2.966   4.689  1.9466  1.5906 -0.4871
 1192SOL     OW15034   3.092   1.536  12.771  0.0601  0.3753 -0.3575
 1192SOL    HW115035   3.007   1.506  12.738 -1.2122  1.8091  1.5998
 1192SOL    HW215036   3.151   1.513  12.700  0.3043 -1.4253  0.4240
 1193SOL     OW15037   1.260   1.184  11.714 -0.3915  0.6456  0.8205
 1193SOL    HW115038   1.253   1.164  11.807  3.2354  0.4369  1.0474
 1193SOL    HW215039   1.350   1.194  11.683 -1.0636 -1.6525 -1.8481
 1194SOL     OW15040   1.395   0.128   0.122 -0.0593  0.3032 -0.3382
 1194SOL    HW115041   1.411   0.058   0.185  1.8458 -1.1479 -2.4491
 1194SOL    HW215042   1.480   0.167   0.104 -0.4682  0.9581 -0.8387
 1195SOL     OW15043   0.777   0.349   3.670  0.6942 -0.3599  0.0910
 1195SOL    HW115044   0.741   0.281   3.727  0.4144 -1.2577 -1.1733
 1195SOL    HW215045   0.730   0.316   3.594 -2.1262  0.5486  1.4357
 1196SOL     OW15046   4.574   3.430  17.371 -0.3268  0.3920  0.1780
 1196SOL    HW115047   4.534   3.360  17.423 -2.4473  0.5774 -1.2167
 1196SOL    HW215048   4.504   3.493  17.389 -1.7858 -0.8677 -1.1453
 1197SOL     OW15049   0.618   0.352   7.433  0.1947 -0.0775  0.0258
 1197SOL    HW115050   0.615   0.448   7.438 -2.1521 -0.1957  0.8678
 1197SOL    HW215051   0.533   0.335   7.474 -1.3921  2.0458 -2.3622
 1198SOL     OW15052   2.687   2.207  13.219 -0.4745  0.3304 -0.6117
 1198SOL    HW115053   2.752   2.250  13.276 -0.0867  0.4209 -1.1249
 1198SOL    HW215054   2.628   2.278  13.195 -1.8345  0.1301  2.1236
 1199SOL     OW15055   0.361   4.207   5.885  0.0122  0.0102  0.1526
 1199SOL    HW115056   0.274   4.191   5.921 -0.6722  0.4494 -1.3031
 1199SOL    HW215057   0.387   4.118   5.862 -0.5717 -0.6799  2.2239
 1200SOL     OW15058   1.827   3.475   5.336 -0.2123 -0.2045  0.5077
 1200SOL    HW115059   1.862   3.533   5.404  0.7424  0.0205 -0.1659
 1200SOL    HW215060   1.795   3.548   5.282  0.0827 -1.1496 -0.9558
 1201SOL     OW15061   2.455   3.516   1.728  0.5958 -0.0514 -0.2502
 1201SOL    HW115062   2.533   3.477   1.767  0.8390 -2.4172 -3.1322
 1201SOL    HW215063   2.423   3.445   1.672  1.5925 -1.9847  1.6132
 1202SOL     OW15064   0.577   3.075  11.305 -0.3227 -0.3961  0.3258
 1202SOL    HW115065   0.522   3.039  11.374  0.7835 -1.7109  0.5187
 1202SOL    HW215066   0.504   3.076  11.243 -1.9159 -2.2378  2.2342
 1203SOL     OW15067   2.394   3.007   2.890  0.0534 -0.5272 -0.1163
 1203SOL    HW115068   2.421   3.038   2.977 -2.2485  0.6940  0.1669
 1203SOL    HW215069   2.478   3.006   2.843 -0.0977 -1.5183 -0.3631
 1204SOL     OW15070   2.774   1.671   0.136 -0.2071  0.0179  0.4005
 1204SOL    HW115071   2.817   1.619   0.067  0.4424  0.4791  0.4488
 1204SOL    HW215072   2.822   1.753   0.149 -1.1655  0.1145  3.3568
 1205SOL     OW15073   3.423   0.236  17.389 -0.7917 -0.7541 -0.3117
 1205SOL    HW115074   3.355   0.192  17.441 -2.4993  1.6252 -0.5492
 1205SOL    HW215075   3.380   0.316  17.361  1.6916 -0.1105 -2.2731
 1206SOL     OW15076   3.079   1.721  15.308  0.1978  0.2978  0.0043
 1206SOL    HW115077   3.127   1.692  15.385 -0.5475  0.6281  0.5945
 1206SOL    HW215078   2.990   1.703  15.337  1.0705 -1.1719  1.7435
 1207SOL     OW15079   3.130   2.370   6.412 -0.2800  0.1439  0.3977
 1207SOL    HW115080   3.183   2.425   6.354 -0.8284  1.1367  0.8246
 1207SOL    HW215081   3.126   2.427   6.489  2.4567  2.0588 -0.8557
 1208SOL     OW15082   1.715   3.923   0.990  0.1194  0.4432 -0.3200
 1208SOL    HW115083   1.660   3.968   1.055  0.4962 -0.1082  0.3788
 1208SOL    HW215084   1.726   3.998   0.931 -1.9852  1.1449  0.1605
 1209SOL     OW15085   3.477   0.416   6.801  0.0584  0.6736  0.1162
 1209SOL    HW115086   3.515   0.441   6.717 -0.5655  0.2182 -0.3012
 1209SOL    HW215087   3.551   0.436   6.859  0.8838  1.8932 -1.3533
 1210SOL     OW15088   4.647   2.669   6.937  0.0649 -0.5265 -0.1800
 1210SOL    HW115089   0.011   2.659   6.893 -0.4822  0.3364 -1.4232
 1210SOL    HW215090   4.679   2.666   7.027  2.4276 -0.8287 -1.0238
 1211SOL     OW15091   1.310   1.838   9.182 -0.1605  0.1833 -0.2157
 1211SOL    HW115092   1.294   1.771   9.248  0.0614  1.0097  0.6911
 1211SOL    HW215093   1.223   1.852   9.146 -1.1290 -2.1675  1.2381
 1212SOL     OW15094   0.083   0.470   9.599 -0.1316  0.2601  0.3356
 1212SOL    HW115095   0.069   0.376   9.580  0.9364 -0.0922  1.3594
 1212SOL    HW215096   0.021   0.482   9.671  0.7578  0.8250  0.9928
 1213SOL     OW15097   0.741   4.100   7.905  0.4523  0.5839 -0.4347
 1213SOL    HW115098   0.827   4.063   7.926 -0.8847 -1.9206  0.6114
 1213SOL    HW215099   0.760   4.192   7.926  0.4338  0.0472  1.8708
 1214SOL     OW15100   2.865   0.143   3.031 -0.4464 -0.2298 -0.1035
 1214SOL    HW115101   2.777   0.169   3.002 -0.0863  0.8212 -0.2318
 1214SOL    HW215102   2.856   0.183   3.117  0.4674 -2.3482  0.9648
 1215SOL     OW15103   4.687   4.299   2.718  0.3579  0.1255  0.0511
 1215SOL    HW115104   4.709   4.209   2.697  2.6588  0.1892  2.2029
 1215SOL    HW215105   4.698   4.340   2.632 -0.6120 -0.6615 -0.4442
 1216SOL     OW15106   3.293   3.628  17.037  0.3648 -0.3430 -0.1815
 1216SOL    HW115107   3.358   3.698  17.044 -0.2248  0.3112 -1.3181
 1216SOL    HW215108   3.237   3.663  16.967 -1.6331 -0.2101  1.4691
 1217SOL     OW15109   4.361   3.467   2.739 -0.3848  0.4243 -0.1256
 1217SOL    HW115110   4.277   3.426   2.717 -0.0019 -0.8300  0.7821
 1217SOL    HW215111   4.406   3.384   2.755 -2.7447 -1.0050 -0.9096
 1218SOL     OW15112   3.111   4.140   3.500  0.2331  0.3564  0.3532
 1218SOL    HW115113   3.184   4.079   3.496  0.0338  0.0384  1.5795
 1218SOL    HW215114   3.145   4.195   3.430 -0.4345 -0.3192 -0.5240
 1219SOL     OW15115   0.664   0.175   3.217  0.4886 -0.5015 -0.3190
 1219SOL    HW115116   0.661   0.115   3.292 -0.7075  0.2778  0.2607
 1219SOL    HW215117   0.746   0.148   3.176  1.6930 -0.3495  2.0023
 1220SOL     OW15118   3.138   3.052   0.005 -0.2900  0.5947 -0.3117
 1220SOL    HW115119   3.203   3.112  17.654 -1.9277  2.5123 -0.1254
 1220SOL    HW215120   3.103   3.011  17.612  0.2552  2.8115 -1.7323
 1221SOL     OW15121   4.417   1.187   1.536  0.5862 -0.2895 -0.5060
 1221SOL    HW115122   4.401   1.128   1.462  1.5370 -2.8282  1.2990
 1221SOL    HW215123   4.338   1.193   1.591 -0.0617  0.7361 -1.5600
 1222SOL     OW15124   2.200   2.414   3.802  0.2014 -0.1423  0.8405
 1222SOL    HW115125   2.280   2.406   3.853  0.7937 -1.3652 -0.2744
 1222SOL    HW215126   2.229   2.373   3.720  1.5053  0.5849  0.9304
 1223SOL     OW15127   3.293   2.908   3.537  0.0830 -0.4359 -0.3452
 1223SOL    HW115128   3.335   2.984   3.579  1.3912  0.2730 -2.9209
 1223SOL    HW215129   3.278   2.861   3.619 -1.2609  1.0732  0.2682
 1224SOL     OW15130   0.768   0.739  17.542 -0.3727  0.3709 -0.1691
 1224SOL    HW115131   0.859   0.748  17.571 -0.4071 -0.6293  0.2609
 1224SOL    HW215132   0.751   0.830  17.517 -0.1812  0.2340 -0.8043
 1225SOL     OW15133   0.891   2.950   2.158  0.6160  0.4982 -0.3938
 1225SOL    HW115134   0.956   2.952   2.228 -0.3922  0.3833  0.5425
 1225SOL    HW215135   0.875   2.856   2.165  2.2026  0.0684 -2.5301
 1226SOL     OW15136   1.493   2.456   4.625 -0.1356  0.3159  0.4023
 1226SOL    HW115137   1.567   2.414   4.581 -0.4953  0.7193 -0.5911
 1226SOL    HW215138   1.445   2.377   4.649  0.8507  0.1346  1.7809
 1227SOL     OW15139   2.556   0.780   1.769  0.4132 -0.2298 -0.1864
 1227SOL    HW115140   2.465   0.791   1.739  0.4057  0.2103 -0.0016
 1227SOL    HW215141   2.600   0.846   1.715  2.0113 -2.1590 -1.2097
 1228SOL     OW15142   4.617   1.984   6.893  0.5183 -0.4224 -0.0990
 1228SOL    HW115143   4.573   1.960   6.975 -1.4826  0.4153 -0.9251
 1228SOL    HW215144   4.550   2.027   6.840  0.1218 -3.3858 -1.9966
 1229SOL     OW15145   4.557   2.075   1.055  0.8007 -0.2763  0.3184
 1229SOL    HW115146   4.594   1.988   1.041  2.5012  0.3781  0.7355
 1229SOL    HW215147   4.578   2.115   0.971 -1.3026 -1.4952 -0.7628
 1230SOL     OW15148   1.157   0.005   7.869  0.3663 -0.1198 -0.5650
 1230SOL    HW115149   1.233   4.710   7.813  0.8827 -0.6596  0.2897
 1230SOL    HW215150   1.129   0.086   7.825 -0.2488 -0.4502 -0.7927
 1231SOL     OW15151   3.749   2.365   6.238 -0.6053  0.2376  0.4700
 1231SOL    HW115152   3.703   2.312   6.303  1.3935 -1.8019  0.2287
 1231SOL    HW215153   3.826   2.382   6.293 -1.1808 -0.1044  1.3772
 1232SOL     OW15154   3.751   4.712   7.108 -0.1981 -0.1760  0.6090
 1232SOL    HW115155   3.842   0.015   7.126 -0.5131  1.4235  0.0742
 1232SOL    HW215156   3.750   4.619   7.132 -1.9373 -1.1031 -3.0241
 1233SOL     OW15157   2.799   1.588   4.856 -0.2947  0.5179  0.4963
 1233SOL    HW115158   2.865   1.594   4.787 -1.5335  1.5040 -0.6066
 1233SOL    HW215159   2.767   1.501   4.829  0.1355  0.5350 -0.0702
 1234SOL     OW15160   3.956   1.266   8.686 -1.0244 -0.6193  0.5726
 1234SOL    HW115161   3.912   1.204   8.629  1.7409  0.3723 -2.6583
 1234SOL    HW215162   3.922   1.347   8.648 -1.1312 -1.3255 -0.8144
 1235SOL     OW15163   2.983   2.628   1.990  0.2206 -0.3279 -0.5859
 1235SOL    HW115164   2.990   2.649   1.897 -2.8444 -0.1228 -0.7916
 1235SOL    HW215165   2.984   2.532   1.990  0.4528 -0.3381  3.2353
 1236SOL     OW15166   3.189   4.224   0.212  0.0243 -0.0253 -0.0119
 1236SOL    HW115167   3.241   4.296   0.248  0.6993 -0.6174  0.2025
 1236SOL    HW215168   3.197   4.258   0.122 -1.2053  2.4722  0.8209
 1237SOL     OW15169   3.546   3.474  14.885 -0.0458  0.9934  0.3420
 1237SOL    HW115170   3.633   3.438  14.894  0.4779  1.9370 -0.9133
 1237SOL    HW215171   3.505   3.437  14.963 -0.7839  2.6743  0.7714
 1238SOL     OW15172   1.141   0.352   9.887 -0.2011  0.1877  0.2347
 1238SOL    HW115173   1.092   0.430   9.911 -0.3194  0.9556 -2.5558
 1238SOL    HW215174   1.146   0.361   9.792 -0.2696 -1.8034  0.0345
 1239SOL     OW15175   0.512   0.383   3.204 -0.3288  0.5652 -0.1415
 1239SOL    HW115176   0.516   0.376   3.300 -0.8633 -1.1715 -0.2488
 1239SOL    HW215177   0.565   0.308   3.179  0.5731  0.4520  2.0637
 1240SOL     OW15178   1.174   1.573  10.117 -0.4968 -0.5989  0.0973
 1240SOL    HW115179   1.265   1.575  10.089 -1.1046  1.6543 -1.6583
 1240SOL    HW215180   1.171   1.485  10.156 -2.2872 -0.8712 -0.6263
 1241SOL     OW15181   0.112   2.953   7.121  0.5128  0.2182  0.0049
 1241SOL    HW115182   0.064   3.026   7.159 -0.0487  1.1639 -2.4923
 1241SOL    HW215183   0.081   2.869   7.153  3.0680 -1.6610 -2.3931
 1242SOL     OW15184   0.664   4.524   8.467 -0.6383 -0.2750 -0.1414
 1242SOL    HW115185   0.641   4.494   8.379 -0.7115  0.7016 -0.4512
 1242SOL    HW215186   0.583   4.573   8.484  0.8403  1.5957  1.4730
 1243SOL     OW15187   2.605   1.198  11.910 -0.0370 -0.0408 -0.5691
 1243SOL    HW115188   2.695   1.206  11.877 -0.3612  1.0025 -1.2230
 1243SOL    HW215189   2.565   1.182  11.824 -1.1546  1.0776 -0.2524
 1244SOL     OW15190   0.224   1.115   7.724 -0.3744 -0.2197  0.1455
 1244SOL    HW115191   0.183   1.049   7.668 -0.0246 -2.2993  2.3447
 1244SOL    HW215192   0.270   1.068   7.794 -1.2433 -0.1006  0.7944
 1245SOL     OW15193   3.736   0.243   4.364  0.0596 -0.4773  0.0624
 1245SOL    HW115194   3.759   0.329   4.328  2.2661 -0.4762  1.5123
 1245SOL    HW215195   3.825   0.208   4.361 -0.5994 -2.2199  0.7994
 1246SOL     OW15196   3.698   0.240   2.168 -0.1893  0.3983 -0.6344
 1246SOL    HW115197   3.651   0.233   2.085  1.1992  0.0990 -1.3963
 1246SOL    HW215198   3.730   0.153   2.189  1.1716  0.9097 -0.5990
 1247SOL     OW15199   3.084   3.070   8.549  0.7836  0.8748  0.6037
 1247SOL    HW115200   2.992   3.095   8.558  0.8551  0.5207  2.3841
 1247SOL    HW215201   3.108   3.068   8.642 -0.1116  1.2950  0.8482
 1248SOL     OW15202   0.031   2.040   6.610 -0.3374 -0.1470  0.0737
 1248SOL    HW115203   0.081   2.032   6.692  0.7646 -1.3886 -0.7196
 1248SOL    HW215204   0.038   2.135   6.600  0.4168 -0.4458 -2.2672
 1249SOL     OW15205   4.068   1.430  13.328 -0.7934  0.3947  0.2728
 1249SOL    HW115206   4.116   1.439  13.246 -1.8599  0.3541 -0.3585
 1249SOL    HW215207   4.060   1.523  13.348 -0.0847  0.0943  1.9252
 1250SOL     OW15208   4.668   0.714   4.041  0.3595  0.0420  0.0933
 1250SOL    HW115209   0.033   0.720   3.999  0.3460 -0.8275 -0.0574
 1250SOL    HW215210   4.620   0.739   3.961 -2.1027 -1.8119  0.9809
 1251SOL     OW15211   1.422   3.587   7.800 -0.0888  0.0136  0.0764
 1251SOL    HW115212   1.485   3.560   7.733 -0.7398 -0.2183 -0.4302
 1251SOL    HW215213   1.482   3.585   7.875  1.1384  2.5228 -0.8554
 1252SOL     OW15214   0.111   2.775  12.621 -0.1880  0.5936  0.4241
 1252SOL    HW115215   0.104   2.843  12.688  1.1816  0.6403  0.5208
 1252SOL    HW215216   0.041   2.811  12.567  0.9173 -0.4051 -1.6738
 1253SOL     OW15217   2.616   0.191   5.251  0.4244  0.3369 -0.1592
 1253SOL    HW115218   2.645   0.282   5.242 -1.0560  0.8497  0.3425
 1253SOL    HW215219   2.643   0.181   5.342 -0.0264 -1.1555 -0.1872
 1254SOL     OW15220   0.345   1.172   8.291 -0.0988 -0.2465  0.1878
 1254SOL    HW115221   0.321   1.157   8.199 -0.2396 -0.4588  0.2589
 1254SOL    HW215222   0.262   1.213   8.317  0.3564  1.2203 -0.6914
 1255SOL     OW15223   4.575   3.862   4.581  0.4173 -0.2018 -0.2230
 1255SOL    HW115224   4.616   3.776   4.593 -1.0908 -1.1330 -1.8145
 1255SOL    HW215225   4.640   3.924   4.615 -0.5246  0.7413 -0.1704
 1256SOL     OW15226   4.157   2.318   3.708 -0.2417  0.3931  0.0428
 1256SOL    HW115227   4.066   2.338   3.688 -0.9165 -0.1556  2.5208
 1256SOL    HW215228   4.193   2.402   3.679 -0.1600  0.5583  0.6280
 1257SOL     OW15229   2.011   2.727   4.420 -0.2075  0.3060 -0.1927
 1257SOL    HW115230   2.067   2.654   4.396  0.7995  1.7167 -2.1053
 1257SOL    HW215231   2.015   2.783   4.342 -2.8877  0.1907 -0.4166
 1258SOL     OW15232   2.192   3.928  12.220 -0.6051  0.0773  0.4893
 1258SOL    HW115233   2.113   3.959  12.264 -1.4416 -1.4737  0.0795
 1258SOL    HW215234   2.222   3.854  12.272 -1.4042  0.0641  0.9464
 1259SOL     OW15235   3.305   1.845  16.211  0.5515 -0.1687 -1.1473
 1259SOL    HW115236   3.331   1.753  16.204  0.9422 -0.3398  2.3109
 1259SOL    HW215237   3.384   1.875  16.256  1.0498 -2.2925 -0.6020
 1260SOL     OW15238   2.933   1.460  17.123  0.0461  0.2851 -0.6028
 1260SOL    HW115239   2.946   1.369  17.095 -0.5314 -0.7257  2.3358
 1260SOL    HW215240   2.843   1.467  17.092  0.5851  1.8384 -1.7864
 1261SOL     OW15241   1.471   0.084  10.334  0.2057  0.0367 -0.0710
 1261SOL    HW115242   1.426   0.061  10.252 -0.5119  1.8850 -0.1826
 1261SOL    HW215243   1.405   0.110  10.398 -1.7495  1.2386 -2.5905
 1262SOL     OW15244   2.474   4.146   1.680  0.1601 -0.2296  0.2310
 1262SOL    HW115245   2.506   4.224   1.635  0.3667 -0.2096  0.4101
 1262SOL    HW215246   2.440   4.184   1.761 -1.1743  0.7212 -0.7752
 1263SOL     OW15247   1.481   0.859   0.197  0.3334  0.1128  0.0579
 1263SOL    HW115248   1.558   0.911   0.221  0.7958 -0.8950  0.7522
 1263SOL    HW215249   1.420   0.927   0.167 -1.0108 -0.6066  1.1652
 1264SOL     OW15250   4.252   1.986  15.474  0.0433 -0.1034  0.2916
 1264SOL    HW115251   4.254   1.891  15.489  1.5587  0.2714  2.5295
 1264SOL    HW215252   4.279   2.003  15.384 -2.0151  2.6155  0.2023
 1265SOL     OW15253   0.221   1.581   4.385 -0.0722  0.2968  0.1134
 1265SOL    HW115254   0.231   1.486   4.383 -1.5930  0.0829  1.9155
 1265SOL    HW215255   0.303   1.596   4.431 -0.1523  2.2844 -0.3893
 1266SOL     OW15256   2.603   0.925   7.473 -0.5713  0.0173 -0.0347
 1266SOL    HW115257   2.531   0.867   7.495 -1.4787  1.0520 -0.2333
 1266SOL    HW215258   2.677   0.870   7.446  1.1273  1.8665  0.7664
 1267SOL     OW15259   1.151   0.814   2.778 -0.1783 -0.3379  0.0489
 1267SOL    HW115260   1.233   0.809   2.827  0.3428 -0.7136 -0.8846
 1267SOL    HW215261   1.146   0.725   2.745  0.7788 -1.0146  1.7343
 1268SOL     OW15262   3.441   1.727   7.706 -0.2478  0.1175  0.0325
 1268SOL    HW115263   3.460   1.797   7.644  0.2675 -0.0536 -0.0036
 1268SOL    HW215264   3.532   1.700   7.720 -0.8349 -2.0835 -0.4730
 1269SOL     OW15265   2.455   1.105   8.319 -0.6684  0.2475 -0.4069
 1269SOL    HW115266   2.492   1.054   8.247  0.8059 -0.7093  1.0546
 1269SOL    HW215267   2.527   1.102   8.382 -0.3342  2.0923 -0.6932
 1270SOL     OW15268   2.163   2.513  12.361 -0.3830 -0.2820  0.1612
 1270SOL    HW115269   2.169   2.520  12.456 -2.9072  0.2420  0.2999
 1270SOL    HW215270   2.255   2.505  12.335 -0.3249  0.1050  0.2457
 1271SOL     OW15271   1.879   2.702  10.373 -0.2121  0.3771 -0.1149
 1271SOL    HW115272   1.929   2.747  10.441  0.0305 -1.4913  0.9354
 1271SOL    HW215273   1.928   2.720  10.292 -0.3808 -1.4471 -0.6238
 1272SOL     OW15274   4.657   1.950   4.683 -0.1071  0.4256  0.7535
 1272SOL    HW115275   4.672   1.966   4.590 -1.7782 -2.5146 -0.0116
 1272SOL    HW215276   4.667   2.036   4.723 -2.1068  1.9741 -2.1047
 1273SOL     OW15277   3.222   1.692  14.730  0.3415  0.1371 -0.3424
 1273SOL    HW115278   3.275   1.768  14.753 -2.1265  1.3570  1.3962
 1273SOL    HW215279   3.196   1.724  14.644  1.0763 -0.1063 -0.6498
 1274SOL     OW15280   1.012   0.583   9.937  0.1071 -0.4332  0.2172
 1274SOL    HW115281   0.923   0.553   9.952 -0.2695  0.9976  0.8046
 1274SOL    HW215282   1.009   0.666   9.983 -0.0480  0.7576 -1.9563
 1275SOL     OW15283   2.281   1.569   6.896 -0.0296  0.0660 -0.0349
 1275SOL    HW115284   2.351   1.627   6.927 -0.7681 -0.6080  2.9015
 1275SOL    HW215285   2.203   1.622   6.910  0.0136  0.2112 -0.3320
 1276SOL     OW15286   0.247   0.541   2.312 -0.2637 -0.0315 -0.6565
 1276SOL    HW115287   0.155   0.516   2.322 -0.2542 -0.4149 -1.5017
 1276SOL    HW215288   0.267   0.498   2.395  0.4302 -0.6997 -1.1672
 1277SOL     OW15289   1.386   1.098   4.891 -0.3981 -0.2577 -0.1147
 1277SOL    HW115290   1.330   1.090   4.813 -0.3782 -0.8186 -0.0744
 1277SOL    HW215291   1.332   1.134   4.961  1.3026  0.7182  0.6874
 1278SOL     OW15292   0.799   3.529  10.860 -0.5404  0.2792  0.3376
 1278SOL    HW115293   0.719   3.538  10.808  0.2086  0.3995 -0.8015
 1278SOL    HW215294   0.766   3.527  10.949 -1.2012 -0.0173  0.0927
 1279SOL     OW15295   1.672   2.840   6.821 -0.3116 -0.2120  0.2538
 1279SOL    HW115296   1.663   2.911   6.757  0.4445  0.2984  0.7228
 1279SOL    HW215297   1.686   2.760   6.771 -1.2469 -2.2471  3.2579
 1280SOL     OW15298   3.791   1.618  13.474 -0.4541 -0.0529 -0.1689
 1280SOL    HW115299   3.840   1.675  13.534 -0.0931 -1.4222  0.8606
 1280SOL    HW215300   3.747   1.675  13.411 -2.4862 -0.4668  0.8667
 1281SOL     OW15301   3.221   3.993  12.342  0.2191 -0.3375  0.3967
 1281SOL    HW115302   3.203   3.984  12.248  1.6895  1.4745 -0.0622
 1281SOL    HW215303   3.312   3.963  12.348  1.2182  2.2433 -1.7004
 1282SOL     OW15304   0.761   2.646   3.948 -0.5114  0.1076 -0.7891
 1282SOL    HW115305   0.818   2.588   3.898  3.5830 -0.4628  4.5356
 1282SOL    HW215306   0.813   2.643   4.028 -1.0815 -2.0271 -0.5037
 1283SOL     OW15307   1.406   2.326  10.520  0.0797 -0.5086  0.0362
 1283SOL    HW115308   1.333   2.263  10.519 -0.0451 -0.3519 -0.4928
 1283SOL    HW215309   1.398   2.371  10.436 -2.2618 -0.8710  0.0383
 1284SOL     OW15310   1.725   2.891  10.953 -0.2383 -0.0897 -0.1548
 1284SOL    HW115311   1.635   2.878  10.981 -0.3402 -1.6115 -1.2323
 1284SOL    HW215312   1.730   2.826  10.883 -1.2346 -0.7000  0.3542
 1285SOL     OW15313   1.503   1.115   9.081  0.7397 -0.4769  0.1930
 1285SOL    HW115314   1.526   1.207   9.069  1.3281 -0.3449  2.3649
 1285SOL    HW215315   1.409   1.104   9.062  0.7586  0.2050 -0.2823
 1286SOL     OW15316   1.407   1.174   5.882 -0.0409 -0.3790  0.7567
 1286SOL    HW115317   1.378   1.134   5.799 -0.2457  1.2727  0.0430
 1286SOL    HW215318   1.469   1.105   5.907  2.8168  0.7903 -3.0932
 1287SOL     OW15319   0.526   3.854   7.358 -0.5319  0.2976  0.1632
 1287SOL    HW115320   0.461   3.838   7.426  0.0158  1.4627  0.9670
 1287SOL    HW215321   0.526   3.948   7.342  1.5780  0.4990  1.2094
 1288SOL     OW15322   4.218   4.132   7.038 -0.3938 -0.1279  0.0356
 1288SOL    HW115323   4.204   4.040   7.061  0.0195 -0.7828 -2.2558
 1288SOL    HW215324   4.130   4.169   7.030 -0.7464 -0.7718  0.9436
 1289SOL     OW15325   1.303   2.069   5.455  0.0667  0.0974 -0.7910
 1289SOL    HW115326   1.312   2.024   5.539  0.3950 -2.0175 -1.9781
 1289SOL    HW215327   1.277   2.157   5.485  0.5873 -0.5757  1.6075
 1290SOL     OW15328   2.624   4.374  11.269  0.2307  0.0322 -0.0307
 1290SOL    HW115329   2.617   4.392  11.176 -0.9495 -2.3136 -0.3899
 1290SOL    HW215330   2.608   4.462  11.302  0.7722  0.0385  0.2250
 1291SOL     OW15331   0.231   3.867   9.279  0.1386  0.5251  0.0135
 1291SOL    HW115332   0.228   3.960   9.254 -2.7529  0.6335  0.7597
 1291SOL    HW215333   0.291   3.869   9.353  0.5901 -0.5864 -0.3294
 1292SOL     OW15334   3.150   1.323   7.140 -0.0888  0.3156 -0.1378
 1292SOL    HW115335   3.055   1.318   7.132 -0.0896 -0.2596  0.2441
 1292SOL    HW215336   3.163   1.297   7.231 -0.9657 -0.8525 -0.3562
 1293SOL     OW15337   3.444   2.141   2.576 -0.5978  0.3302  0.4286
 1293SOL    HW115338   3.439   2.098   2.661  0.0088  0.5709  0.5887
 1293SOL    HW215339   3.524   2.115   2.530 -0.6310  0.3357  0.3687
 1294SOL     OW15340   2.319   3.806   6.223  0.1817  0.2461 -0.0977
 1294SOL    HW115341   2.384   3.744   6.254  1.7024  1.5524 -0.7130
 1294SOL    HW215342   2.259   3.750   6.173 -0.5136  1.9848 -1.2282
 1295SOL     OW15343   0.262   4.430   6.596  0.0728  0.0818 -0.2667
 1295SOL    HW115344   0.239   4.518   6.627 -1.9931 -0.1229 -1.2566
 1295SOL    HW215345   0.184   4.404   6.547  0.5589 -0.7357 -0.6075
 1296SOL     OW15346   1.150   1.414   4.777 -0.6406 -0.1890 -0.2071
 1296SOL    HW115347   1.188   1.350   4.717  0.5613 -0.3986  0.7721
 1296SOL    HW215348   1.223   1.418   4.839 -0.2204  0.1618 -0.7217
 1297SOL     OW15349   3.661   0.548   6.960  0.5829 -0.0105  0.2034
 1297SOL    HW115350   3.690   0.631   6.922  2.1487 -0.6357  0.0103
 1297SOL    HW215351   3.721   0.531   7.033  2.1202  1.2718 -0.7576
 1298SOL     OW15352   1.877   0.431   0.212 -0.8137 -0.2148 -0.2641
 1298SOL    HW115353   1.837   0.368   0.271  1.5349  0.0223  1.5957
 1298SOL    HW215354   1.873   0.385   0.128 -0.7314 -0.9849  0.1544
 1299SOL     OW15355   1.033   3.683   9.219 -0.1303 -0.1840  0.3854
 1299SOL    HW115356   1.034   3.711   9.311 -2.2963  1.3500 -0.0725
 1299SOL    HW215357   1.096   3.739   9.174 -0.0459 -1.0622 -0.5921
 1300SOL     OW15358   3.102   2.267  15.308  0.6387  0.1681 -0.2580
 1300SOL    HW115359   3.045   2.202  15.267  1.9486  0.9048 -3.2278
 1300SOL    HW215360   3.119   2.234  15.396 -0.3564  1.2923  0.3614
 1301SOL     OW15361   1.753   3.460   3.203  0.3955 -0.2416  0.3393
 1301SOL    HW115362   1.734   3.546   3.165  1.3754 -0.0000  0.4064
 1301SOL    HW215363   1.797   3.409   3.135 -1.0374  0.7664 -1.3705
 1302SOL     OW15364   0.295   1.640   3.336  0.1846 -0.7283  0.1189
 1302SOL    HW115365   0.345   1.659   3.257  0.2255  1.2070  0.5971
 1302SOL    HW215366   0.217   1.602   3.296 -0.0565  2.3435 -2.2995
 1303SOL     OW15367   1.222   0.240  15.668  0.2579 -0.3878 -0.1620
 1303SOL    HW115368   1.250   0.282  15.586  0.1454  0.4485  0.2244
 1303SOL    HW215369   1.127   0.249  15.668  0.4079  1.1440 -1.7618
 1304SOL     OW15370   1.158   0.548   4.176 -0.2161 -0.2445  0.4816
 1304SOL    HW115371   1.082   0.594   4.143 -0.5161 -1.1851 -0.1298
 1304SOL    HW215372   1.227   0.560   4.111 -0.1322  0.4857  0.7150
 1305SOL     OW15373   0.784   0.388   2.157  0.3437  0.1500 -0.5331
 1305SOL    HW115374   0.762   0.329   2.229 -0.1484  0.7149 -0.2182
 1305SOL    HW215375   0.700   0.431   2.139  1.0771  1.7914 -0.0441
 1306SOL     OW15376   1.416   3.556  11.271  0.9879 -0.2336 -0.2639
 1306SOL    HW115377   1.425   3.649  11.288 -1.3465 -0.3146  1.4137
 1306SOL    HW215378   1.321   3.545  11.272  0.9173  0.4153 -0.0860
 1307SOL     OW15379   0.253   1.906   5.858 -0.5333  0.0560  0.6600
 1307SOL    HW115380   0.343   1.880   5.839  0.2428  2.9066  0.5122
 1307SOL    HW215381   0.263   1.908   5.953 -1.4217  1.2944  0.7266
 1308SOL     OW15382   0.578   1.106   4.989 -0.0749 -0.3281  0.0282
 1308SOL    HW115383   0.511   1.134   5.051 -1.9302 -0.7556 -1.8212
 1308SOL    HW215384   0.664   1.129   5.026 -0.7333 -0.1939  1.4612
 1309SOL     OW15385   1.369   3.088   5.631  0.1967 -0.3416 -0.1322
 1309SOL    HW115386   1.369   3.068   5.538 -0.9509  0.4844 -0.3104
 1309SOL    HW215387   1.408   3.176   5.634 -0.8965  0.1816 -1.3276
 1310SOL     OW15388   3.987   1.594   4.495 -0.2766  0.8306 -0.4645
 1310SOL    HW115389   4.065   1.650   4.494  0.0854  0.3122 -1.5824
 1310SOL    HW215390   4.035   1.512   4.510 -1.5104 -0.1802 -2.1521
 1311SOL     OW15391   0.219   1.240   2.451 -0.1342  0.0603 -0.8289
 1311SOL    HW115392   0.207   1.168   2.514  1.0550 -0.0147 -0.6798
 1311SOL    HW215393   0.145   1.290   2.486  0.1931 -0.1975  0.2527
 1312SOL     OW15394   2.918   3.738  12.671 -0.0081 -0.0513 -0.3383
 1312SOL    HW115395   2.991   3.783  12.628 -0.7055 -0.3367 -1.8502
 1312SOL    HW215396   2.890   3.674  12.605  1.9652 -1.9004  0.6476
 1313SOL     OW15397   4.569   2.949  17.203  0.2827 -0.2493 -0.1428
 1313SOL    HW115398   4.478   2.954  17.232  0.4254 -0.8337  0.4025
 1313SOL    HW215399   4.600   2.878  17.259 -0.4336 -0.3517  0.1288
 1314SOL     OW15400   3.661   3.151  13.611 -0.0354 -0.2812 -0.6842
 1314SOL    HW115401   3.701   3.238  13.610  2.9494 -1.6643  0.1111
 1314SOL    HW215402   3.569   3.174  13.627 -0.1158 -1.4557  0.5990
 1315SOL     OW15403   4.679   2.741   5.327  0.0126 -0.1560  0.3035
 1315SOL    HW115404   4.584   2.742   5.324  0.0395  3.2916  0.8949
 1315SOL    HW215405   4.705   2.660   5.372 -1.2674 -0.8563 -0.2136
 1316SOL     OW15406   1.094   2.189   2.066  0.3265 -0.0946 -0.5126
 1316SOL    HW115407   1.082   2.257   2.000  0.4807 -0.3012 -0.7544
 1316SOL    HW215408   1.126   2.116   2.012 -0.8735 -0.0764 -1.2385
 1317SOL     OW15409   2.605   3.276   9.479 -0.0407  0.1751 -0.4753
 1317SOL    HW115410   2.578   3.345   9.419  0.9418  0.7477 -0.2733
 1317SOL    HW215411   2.595   3.195   9.429  2.2355 -0.6439  0.3840
 1318SOL     OW15412   2.414   4.688   4.526 -0.3843  0.5528 -0.0646
 1318SOL    HW115413   2.404   4.658   4.616  1.2634 -1.1806 -0.4563
 1318SOL    HW215414   2.323   4.706   4.501 -0.5962  0.8218  0.8991
 1319SOL     OW15415   3.175   4.192  12.645  0.4863  0.0009  0.0569
 1319SOL    HW115416   3.240   4.258  12.671 -1.2467  1.5768  0.3342
 1319SOL    HW215417   3.152   4.233  12.562 -1.9683  1.5803  1.5104
 1320SOL     OW15418   2.510   0.395  14.723 -0.1645 -0.2823  0.6431
 1320SOL    HW115419   2.505   0.361  14.633  1.8672 -1.7094  1.0753
 1320SOL    HW215420   2.600   0.363  14.738  0.1716  0.5611  0.4221
 1321SOL     OW15421   0.628   0.800   6.406  0.3892 -0.1665 -0.0075
 1321SOL    HW115422   0.714   0.815   6.447  1.0568 -1.9616 -0.7772
 1321SOL    HW215423   0.653   0.721   6.359  1.4334  0.0149  0.2336
 1322SOL     OW15424   3.054   2.943   4.553 -0.2306  0.4029  0.1644
 1322SOL    HW115425   3.104   2.887   4.494  0.5078  4.3699 -2.9813
 1322SOL    HW215426   3.016   2.871   4.604 -0.1331  1.1281  1.2656
 1323SOL     OW15427   3.128   0.352  12.500  0.0098  0.2456 -0.0633
 1323SOL    HW115428   3.116   0.268  12.456  1.2911  0.7633 -1.4134
 1323SOL    HW215429   3.216   0.335  12.534  0.3972 -0.0010 -1.1718
 1324SOL     OW15430   0.527   3.669   2.919  0.5699 -0.0249 -0.3257
 1324SOL    HW115431   0.559   3.627   2.839  0.9942  1.6864 -1.0603
 1324SOL    HW215432   0.587   3.744   2.917  1.2124 -0.5114  1.0401
 1325SOL     OW15433   1.426   3.987  14.834 -0.1820  0.3699 -0.2534
 1325SOL    HW115434   1.503   3.935  14.857 -0.1469  0.4916 -0.0992
 1325SOL    HW215435   1.392   3.926  14.768 -0.0127 -1.3359  1.2401
 1326SOL     OW15436   3.129   0.278   6.515 -0.2243 -0.0712 -0.0166
 1326SOL    HW115437   3.080   0.222   6.455 -2.9020 -0.9489  3.0163
 1326SOL    HW215438   3.206   0.293   6.460 -0.9535 -0.0842 -1.0417
 1327SOL     OW15439   0.155   3.932  16.712  0.4195 -0.2386  0.1739
 1327SOL    HW115440   0.180   3.993  16.781  1.1596  1.4272 -1.5504
 1327SOL    HW215441   0.237   3.884  16.700 -0.0090 -0.3694 -2.2862
 1328SOL     OW15442   0.905   2.704   0.859  0.3736 -0.0637 -0.0016
 1328SOL    HW115443   0.992   2.690   0.897  0.4398 -0.1098 -0.1662
 1328SOL    HW215444   0.886   2.617   0.823 -2.6912  1.5280 -2.2107
 1329SOL     OW15445   1.545   2.458   7.331  0.4464 -0.1255 -0.7951
 1329SOL    HW115446   1.583   2.541   7.360  1.4562 -0.5890 -0.8088
 1329SOL    HW215447   1.484   2.495   7.267 -1.1744 -1.2617  0.0919
 1330SOL     OW15448   0.410   3.968   2.367  0.5743 -0.0969 -0.2634
 1330SOL    HW115449   0.488   4.023   2.377  0.6750 -0.1983 -0.5019
 1330SOL    HW215450   0.410   3.968   2.271 -3.0924 -1.6870 -0.2556
 1331SOL     OW15451   1.412   2.063   8.765 -0.1923  0.1790  0.3937
 1331SOL    HW115452   1.394   2.062   8.670  0.0549  1.0222  0.3401
 1331SOL    HW215453   1.319   2.062   8.790 -0.4055 -1.0895 -0.4301
 1332SOL     OW15454   0.244   1.735  10.752  0.3199  0.3553 -0.3133
 1332SOL    HW115455   0.264   1.829  10.757 -0.0805  0.4670 -0.7703
 1332SOL    HW215456   0.331   1.702  10.734  0.5726  0.7014  0.2613
 1333SOL     OW15457   1.031   1.470   6.912  0.6464 -0.2617  0.3027
 1333SOL    HW115458   0.957   1.442   6.857 -0.7856  2.4613  0.8309
 1333SOL    HW215459   0.990   1.540   6.962 -0.5132 -0.2070 -0.7293
 1334SOL     OW15460   0.364   3.550   4.355 -0.2496 -0.2915 -0.4852
 1334SOL    HW115461   0.351   3.523   4.446  1.7422  0.4420  0.0092
 1334SOL    HW215462   0.289   3.609   4.347  0.0806  0.1828 -0.0947
 1335SOL     OW15463   0.632   3.303   2.620 -0.0396  0.1077  0.0838
 1335SOL    HW115464   0.643   3.322   2.527  0.8118 -2.8241 -0.4258
 1335SOL    HW215465   0.539   3.278   2.615 -0.0015 -0.7103  3.0713
 1336SOL     OW15466   3.207   1.728   4.831  0.3262 -0.9950 -0.4551
 1336SOL    HW115467   3.144   1.753   4.898 -2.0369 -4.2346 -1.4998
 1336SOL    HW215468   3.142   1.677   4.783 -0.6427  0.6154 -0.8579
 1337SOL     OW15469   3.782   2.728   3.135 -0.1787  0.2755 -0.3766
 1337SOL    HW115470   3.760   2.737   3.228  0.5157 -2.8357  0.0918
 1337SOL    HW215471   3.778   2.820   3.112 -2.4654  0.5218  0.9932
 1338SOL     OW15472   2.435   3.288  16.888  0.3826 -0.2246 -0.0132
 1338SOL    HW115473   2.439   3.234  16.809 -1.7229 -0.6970  0.1921
 1338SOL    HW215474   2.356   3.339  16.869  1.0021  0.7387  0.0359
 1339SOL     OW15475   2.094   1.216  12.446  0.4265 -0.3165  0.0595
 1339SOL    HW115476   2.064   1.297  12.404  1.6159 -0.2389 -0.6432
 1339SOL    HW215477   2.183   1.209  12.411  0.0181 -0.9300 -0.8864
 1340SOL     OW15478   0.007   1.435   8.552 -0.0482  0.5456 -0.1589
 1340SOL    HW115479   4.667   1.372   8.592  0.8658 -0.5234 -0.4319
 1340SOL    HW215480   4.669   1.498   8.510  0.3140  2.2482  1.9166
 1341SOL     OW15481   0.573   0.489   4.633 -0.6479 -0.3620 -0.6502
 1341SOL    HW115482   0.596   0.406   4.592  1.9469  1.0982 -2.1658
 1341SOL    HW215483   0.657   0.507   4.676  0.2648 -0.9454 -2.1429
 1342SOL     OW15484   0.752   0.339  15.826 -0.0723 -0.1792  0.2721
 1342SOL    HW115485   0.736   0.432  15.843 -0.0784  0.2260 -1.9588
 1342SOL    HW215486   0.711   0.299  15.903 -0.1332 -1.3359 -0.3650
 1343SOL     OW15487   0.366   3.304  11.558  0.4574 -0.6053 -0.1455
 1343SOL    HW115488   0.355   3.299  11.463  0.9288  1.1903 -0.2803
 1343SOL    HW215489   0.455   3.338  11.566  1.2433 -2.4584 -1.0442
 1344SOL     OW15490   0.826   1.440   4.304 -0.4562  0.0807  0.0569
 1344SOL    HW115491   0.836   1.345   4.300 -1.9219 -0.1276  1.1660
 1344SOL    HW215492   0.827   1.460   4.211 -0.8653 -0.4453 -0.0591
 1345SOL     OW15493   0.551   3.323   3.088  0.2179 -0.0165  0.0530
 1345SOL    HW115494   0.480   3.370   3.044 -0.2904 -1.1974 -0.3798
 1345SOL    HW215495   0.527   3.232   3.070 -0.3626 -0.0099  0.8144
 1346SOL     OW15496   0.928   3.998   8.895 -0.1712  0.3690 -0.3053
 1346SOL    HW115497   1.010   4.046   8.902  1.5955 -3.4110  4.3756
 1346SOL    HW215498   0.903   4.035   8.810 -1.6066  0.2062  0.0511
 1347SOL     OW15499   2.373   4.364   5.634  0.1839  0.5000  0.1226
 1347SOL    HW115500   2.391   4.454   5.607 -0.5368 -0.3038 -3.0807
 1347SOL    HW215501   2.284   4.361   5.599 -0.0997  1.1498  0.7889
 1348SOL     OW15502   3.109   0.935   4.201 -0.3846  0.1234 -0.5720
 1348SOL    HW115503   3.030   0.967   4.159  1.9800  3.6710 -2.3513
 1348SOL    HW215504   3.167   1.008   4.180  0.6788  0.0927  2.2295
 1349SOL     OW15505   1.750   1.420  15.919  0.0512  0.4085 -0.2547
 1349SOL    HW115506   1.717   1.436  16.007 -0.2600  0.9170 -0.4627
 1349SOL    HW215507   1.836   1.386  15.944 -0.7191  0.3150  2.2323
 1350SOL     OW15508   3.385   2.362   5.035 -0.2137  0.2371  0.3996
 1350SOL    HW115509   3.388   2.271   5.005  1.7912  0.9531 -1.6261
 1350SOL    HW215510   3.292   2.379   5.051 -0.1493  1.7360 -0.8001
 1351SOL     OW15511   0.559   3.151   0.822  0.4520  0.3271  0.4530
 1351SOL    HW115512   0.651   3.152   0.847  0.6161 -0.2163 -0.1372
 1351SOL    HW215513   0.561   3.166   0.727  1.2122  2.5565  0.8231
 1352SOL     OW15514   0.832   1.874   7.174  0.3199  0.0753 -0.3713
 1352SOL    HW115515   0.827   1.900   7.266  2.0504 -2.7564  0.5278
 1352SOL    HW215516   0.761   1.927   7.138  0.5374  0.9442  0.4750
 1353SOL     OW15517   0.727   1.190   3.660 -0.1029 -0.1730  0.0248
 1353SOL    HW115518   0.814   1.163   3.630  0.5944 -0.9226  2.6567
 1353SOL    HW215519   0.673   1.124   3.617  0.9251 -1.3405  0.5104
 1354SOL     OW15520   1.430   2.385  14.152  0.5565  0.3857 -0.8177
 1354SOL    HW115521   1.390   2.325  14.216  1.4186  0.1764 -0.4772
 1354SOL    HW215522   1.516   2.343  14.150  0.9689  1.2092 -0.2283
 1355SOL     OW15523   0.312   3.890   3.187 -0.5275  0.3134  0.0756
 1355SOL    HW115524   0.287   3.912   3.277  2.4194  0.1564  0.9555
 1355SOL    HW215525   0.226   3.864   3.155  0.0201 -1.7385  0.2421
 1356SOL     OW15526   0.636   0.378   8.628 -0.1663 -0.2317 -0.3797
 1356SOL    HW115527   0.587   0.457   8.608  1.9954  1.5460  1.4302
 1356SOL    HW215528   0.604   0.361   8.717 -0.0489  0.5910 -0.1861
 1357SOL     OW15529   0.350   1.146   5.838 -0.1088 -0.0136  0.0864
 1357SOL    HW115530   0.373   1.238   5.825 -0.3532  0.2198  1.2964
 1357SOL    HW215531   0.358   1.102   5.753 -1.4165 -2.3917  1.1612
 1358SOL     OW15532   0.283   4.697   7.703 -0.0558  0.1676  0.3073
 1358SOL    HW115533   0.301   0.069   7.722  0.7065  0.0200  0.3293
 1358SOL    HW215534   0.253   4.680   7.792  1.7795 -0.7339  0.7539
 1359SOL     OW15535   2.696   1.328   4.833  0.1723  0.2399 -0.1790
 1359SOL    HW115536   2.632   1.296   4.769  1.0777  1.0708 -1.5111
 1359SOL    HW215537   2.748   1.249   4.828  0.4689  0.2177  3.4893
 1360SOL     OW15538   3.319   3.150   5.249 -0.2696  0.0994 -0.0627
 1360SOL    HW115539   3.238   3.199   5.237  0.1724  1.0046  0.6649
 1360SOL    HW215540   3.366   3.164   5.167 -0.4913 -0.6866 -0.3284
 1361SOL     OW15541   3.198   1.649  17.618 -0.5435 -0.2472  0.6238
 1361SOL    HW115542   3.229   1.639  17.529 -0.9828  2.4620  0.1571
 1361SOL    HW215543   3.207   1.558  17.644 -1.4141 -0.7348 -0.8065
 1362SOL     OW15544   3.876   0.147  16.083 -0.3021  0.2812  0.4794
 1362SOL    HW115545   3.855   0.086  16.154 -1.0138 -3.5164 -2.9977
 1362SOL    HW215546   3.793   0.140  16.036 -0.8898 -0.7511  1.6625
 1363SOL     OW15547   1.513   1.782   5.535 -0.5175  0.0982  0.3225
 1363SOL    HW115548   1.477   1.782   5.623 -0.4473  0.4359  0.3517
 1363SOL    HW215549   1.573   1.856   5.541 -0.9675  0.3649  1.3424
 1364SOL     OW15550   3.610   4.378  14.895  0.7156  0.0693  0.1406
 1364SOL    HW115551   3.618   4.285  14.917 -2.1283 -0.7255 -2.3054
 1364SOL    HW215552   3.688   4.395  14.842  0.6380  0.8430  0.2738
 1365SOL     OW15553   3.829   1.859   9.943  0.2418  0.2519 -0.1015
 1365SOL    HW115554   3.866   1.776   9.974  0.5450  1.0584  1.6938
 1365SOL    HW215555   3.742   1.835   9.912 -0.8707  3.2952  0.6314
 1366SOL     OW15556   3.414   1.502   7.145  0.2370 -0.3909  0.0524
 1366SOL    HW115557   3.418   1.413   7.109 -0.5252 -0.2057 -0.4706
 1366SOL    HW215558   3.327   1.494   7.184 -0.3621 -0.6887 -1.3702
 1367SOL     OW15559   1.322   2.729   6.032  0.1878  0.4755  0.5026
 1367SOL    HW115560   1.344   2.812   6.073  2.0808  0.1760  0.1079
 1367SOL    HW215561   1.230   2.738   6.007  0.2015 -0.1104  0.2322
 1368SOL     OW15562   0.640   2.685  12.471 -0.0724  0.7702 -0.6270
 1368SOL    HW115563   0.658   2.777  12.452  2.8089  0.6045  1.4364
 1368SOL    HW215564   0.639   2.693  12.566 -1.5527 -0.7834 -0.5150
 1369SOL     OW15565   2.323   4.286   0.360  0.5978 -0.3435 -0.8590
 1369SOL    HW115566   2.269   4.294   0.281  0.1465  1.2806 -0.3807
 1369SOL    HW215567   2.406   4.324   0.331  0.9634 -0.3007  0.2630
 1370SOL     OW15568   2.930   3.866   2.315  0.1346 -0.2435 -0.2366
 1370SOL    HW115569   2.970   3.792   2.359 -0.1540 -0.3985 -0.2336
 1370SOL    HW215570   2.887   3.815   2.246 -1.7695  1.5850 -0.4052
 1371SOL     OW15571   3.001   3.206  12.159 -0.3988  0.2058  0.0054
 1371SOL    HW115572   3.054   3.283  12.141  0.1391 -0.6014 -1.8652
 1371SOL    HW215573   2.951   3.237  12.235  2.7334 -0.3350  2.2815
 1372SOL     OW15574   3.481   1.698   5.605  0.0323  0.1787  0.6919
 1372SOL    HW115575   3.548   1.766   5.605 -0.1166  0.3189 -0.0594
 1372SOL    HW215576   3.506   1.661   5.690 -2.3160 -1.9780  0.4451
 1373SOL     OW15577   2.037   3.357   5.681  0.5185  0.9491 -0.7381
 1373SOL    HW115578   2.000   3.278   5.720 -0.7390  0.7324 -2.4135
 1373SOL    HW215579   1.971   3.398   5.626 -1.4758 -0.4876  0.5970
 1374SOL     OW15580   0.640   3.862   3.428 -0.6709  0.0568  0.8989
 1374SOL    HW115581   0.662   3.770   3.439 -2.1123 -0.1901  1.7958
 1374SOL    HW215582   0.588   3.872   3.509 -0.4661  3.5433  0.6003
 1375SOL     OW15583   2.926   4.647   6.666 -0.2645  0.3635  0.1413
 1375SOL    HW115584   2.850   4.699   6.639  1.0788  2.4719  0.3745
 1375SOL    HW215585   2.952   4.698   6.743 -0.4648  0.1609  0.3393
 1376SOL     OW15586   1.486   2.624   2.143 -0.1206 -0.1366  0.5027
 1376SOL    HW115587   1.554   2.565   2.112  1.1641  1.6864 -0.2149
 1376SOL    HW215588   1.411   2.592   2.093 -0.3846 -1.0759  1.5237
 1377SOL     OW15589   3.609   3.053   9.439  0.0171 -0.3947  0.3561
 1377SOL    HW115590   3.666   2.980   9.464  0.1583  0.2265  1.8663
 1377SOL    HW215591   3.622   3.110   9.516  1.7478  0.1097 -0.3061
 1378SOL     OW15592   2.407   1.618   6.549  0.7296 -0.3484 -0.1121
 1378SOL    HW115593   2.475   1.607   6.615  0.0688 -1.4647  0.3667
 1378SOL    HW215594   2.341   1.667   6.598  0.4341  0.4061 -1.2491
 1379SOL     OW15595   4.521   3.099  11.666 -0.3924  0.4027 -0.2641
 1379SOL    HW115596   4.608   3.060  11.679 -0.7265 -0.7289 -1.4504
 1379SOL    HW215597   4.544   3.188  11.691 -1.6729  0.1240  1.9082
 1380SOL     OW15598   4.221   2.089   9.645  0.2017  0.2456 -0.1970
 1380SOL    HW115599   4.173   2.051   9.719 -2.1291 -0.7874 -2.2228
 1380SOL    HW215600   4.289   2.137   9.692  1.1502 -1.4633  0.1600
 1381SOL     OW15601   1.077   0.590  16.173 -0.5402 -0.4264 -0.2028
 1381SOL    HW115602   1.164   0.629  16.165 -0.7395  0.0236 -0.1866
 1381SOL    HW215603   1.088   0.571  16.266  2.6716 -2.2570 -1.0005
 1382SOL     OW15604   1.849   3.933   9.133  0.0658  0.4542  0.3129
 1382SOL    HW115605   1.896   3.995   9.189  0.4679  0.6048 -0.2030
 1382SOL    HW215606   1.901   3.854   9.131 -0.6104  0.0117  0.1154
 1383SOL     OW15607   3.739   3.468   3.109  0.0854 -0.3159 -0.3560
 1383SOL    HW115608   3.732   3.555   3.147  2.0858 -0.7428  1.0111
 1383SOL    HW215609   3.715   3.483   3.017 -0.3355 -0.2563 -0.2326
 1384SOL     OW15610   0.821   3.121   7.564 -0.2488 -0.4763 -0.2096
 1384SOL    HW115611   0.741   3.172   7.556 -0.0740 -0.4154 -1.5622
 1384SOL    HW215612   0.851   3.120   7.473  1.3648  1.0349  0.3034
 1385SOL     OW15613   2.890   3.644   3.342 -0.1896 -0.3685 -0.5166
 1385SOL    HW115614   2.846   3.723   3.309  0.8017  0.0678 -0.8080
 1385SOL    HW215615   2.861   3.642   3.433 -0.3591  1.3196 -0.5265
 1386SOL     OW15616   1.033   4.110  10.861  0.0004  0.4021 -0.0728
 1386SOL    HW115617   0.986   4.155  10.932  0.8443  0.7862  0.2424
 1386SOL    HW215618   1.118   4.093  10.902 -0.5708  1.0603  1.4022
 1387SOL     OW15619   2.370   3.497   6.478 -0.0333  0.3515  0.0291
 1387SOL    HW115620   2.409   3.568   6.428  2.6555 -0.5284  0.8935
 1387SOL    HW215621   2.392   3.416   6.433 -0.3647  0.2650  0.0206
 1388SOL     OW15622   1.931   2.324   9.043 -0.6654 -0.1614 -0.1764
 1388SOL    HW115623   1.838   2.323   9.020 -0.5164 -1.1092 -0.7780
 1388SOL    HW215624   1.923   2.254   9.108  0.0102  0.4879  0.6015
 1389SOL     OW15625   0.719   0.622   1.538 -0.0957 -0.0199  0.7836
 1389SOL    HW115626   0.678   0.690   1.484  1.0290 -0.7214 -0.9478
 1389SOL    HW215627   0.784   0.596   1.473 -0.3579 -1.5105  1.1251
 1390SOL     OW15628   1.771   0.663   6.123  0.0343  0.8671 -1.0815
 1390SOL    HW115629   1.850   0.711   6.149 -1.7058  2.3877  1.4072
 1390SOL    HW215630   1.786   0.586   6.178  0.3127  1.2209 -0.6588
 1391SOL     OW15631   2.580   4.129  14.288 -0.3232 -0.7753  0.6151
 1391SOL    HW115632   2.597   4.218  14.258  2.5593 -1.8632 -0.9199
 1391SOL    HW215633   2.618   4.130  14.376 -0.9375 -1.6807  0.8896
 1392SOL     OW15634   3.235   3.337   5.721  0.0784  0.0712 -0.2225
 1392SOL    HW115635   3.240   3.338   5.817 -0.8756  0.0413 -0.1747
 1392SOL    HW215636   3.263   3.248   5.699  0.3356  0.2547 -0.6479
 1393SOL     OW15637   4.068   4.306   4.448 -0.2628 -0.1571 -0.2771
 1393SOL    HW115638   3.984   4.336   4.480 -1.5207 -1.5846 -2.2018
 1393SOL    HW215639   4.067   4.353   4.365  0.3947  0.4650  0.0693
 1394SOL     OW15640   2.485   1.399  10.812  0.0772 -0.2834 -0.3519
 1394SOL    HW115641   2.411   1.458  10.827  1.3428  1.5627 -1.2808
 1394SOL    HW215642   2.504   1.372  10.902  0.8921 -0.6160 -0.6235
 1395SOL     OW15643   3.216   4.474   4.772  0.2799 -0.0738  0.0057
 1395SOL    HW115644   3.302   4.494   4.734  0.0139 -1.2294 -1.2221
 1395SOL    HW215645   3.215   4.531   4.849  0.2842  0.4718 -0.3990
 1396SOL     OW15646   0.870   4.380  17.589  0.1473 -0.0010 -0.7497
 1396SOL    HW115647   0.801   4.340  17.641  1.3390 -0.2781  0.6288
 1396SOL    HW215648   0.822   4.405  17.510 -1.8039  2.8693  1.3188
 1397SOL     OW15649   3.445   0.331   7.334 -0.2394  1.0734 -0.5064
 1397SOL    HW115650   3.467   0.252   7.285 -1.8006  0.8647 -0.8990
 1397SOL    HW215651   3.354   0.339   7.302 -0.3438 -0.6013 -0.6111
 1398SOL     OW15652   3.541   0.643  11.235  0.2254  0.0803  0.4822
 1398SOL    HW115653   3.491   0.710  11.188  2.5983  2.0758  0.8022
 1398SOL    HW215654   3.576   0.687  11.313  1.6293  0.3578 -0.3032
 1399SOL     OW15655   1.722   2.965   6.397  0.6881 -0.3152 -0.5400
 1399SOL    HW115656   1.751   2.997   6.482  0.4369 -0.6168 -0.3397
 1399SOL    HW215657   1.633   2.953   6.430  0.9663  2.3398  1.1456
 1400SOL     OW15658   4.705   1.637   9.342 -0.2488 -0.4036 -0.4264
 1400SOL    HW115659   0.057   1.673   9.392 -0.6608 -2.8383  1.9467
 1400SOL    HW215660   0.006   1.544   9.346  1.6586 -0.0322 -2.1387
 1401SOL     OW15661   0.354   2.166   6.494  0.7309  0.2606 -0.8109
 1401SOL    HW115662   0.330   2.094   6.553  1.0291  1.0858  0.3077
 1401SOL    HW215663   0.339   2.243   6.549 -2.2198 -1.4920  0.8827
 1402SOL     OW15664   4.419   2.644   4.294 -0.4859  0.5954 -0.4257
 1402SOL    HW115665   4.470   2.643   4.375 -2.3003 -0.6980  0.6961
 1402SOL    HW215666   4.497   2.637   4.238 -0.0560  0.3964  0.1935
 1403SOL     OW15667   0.715   2.243  12.186  0.0758 -0.0101 -0.7018
 1403SOL    HW115668   0.721   2.150  12.165 -0.9581  0.2088 -1.9476
 1403SOL    HW215669   0.752   2.282  12.107  1.9453 -0.2736  0.0551
 1404SOL     OW15670   4.706   4.696  12.930 -0.3905  0.5639  0.6860
 1404SOL    HW115671   0.010   0.046  12.989  2.9392  1.4239 -1.7305
 1404SOL    HW215672   0.064   4.688  12.876 -2.0772  2.9016 -2.0830
 1405SOL     OW15673   0.960   3.735  13.707  0.0045 -0.3524  0.0516
 1405SOL    HW115674   0.897   3.705  13.641 -1.8034  2.4522  0.5249
 1405SOL    HW215675   0.972   3.827  13.687 -0.3584  0.0356  1.5975
 1406SOL     OW15676   2.036   3.134   3.441  0.0456 -0.2757  0.0292
 1406SOL    HW115677   1.987   3.216   3.429  0.1309 -0.2876 -0.3963
 1406SOL    HW215678   1.972   3.078   3.484 -1.3234 -0.4348 -2.2196
 1407SOL     OW15679   1.895   3.301  11.675 -0.1593  0.1780  0.0845
 1407SOL    HW115680   1.833   3.371  11.698  0.1911  0.0606  1.3952
 1407SOL    HW215681   1.960   3.311  11.744 -0.3940  1.0334  0.1855
 1408SOL     OW15682   1.554   0.701   5.745 -0.1681  0.0668 -0.0149
 1408SOL    HW115683   1.638   0.744   5.761 -0.8423  1.6159 -0.6511
 1408SOL    HW215684   1.518   0.762   5.680 -0.9936  2.9979  3.1782
 1409SOL     OW15685   1.552   1.639  13.331  0.5318 -0.3436  0.4018
 1409SOL    HW115686   1.487   1.584  13.287 -1.0673  1.2560  0.7858
 1409SOL    HW215687   1.626   1.578  13.326  0.0642 -0.7965 -0.9205
 1410SOL     OW15688   1.636   2.144  10.145 -0.2560 -0.1260  0.0137
 1410SOL    HW115689   1.687   2.217  10.111 -1.8553  0.9282 -0.1180
 1410SOL    HW215690   1.700   2.073  10.140 -1.0197 -0.8288  0.2966
 1411SOL     OW15691   1.686   4.005  11.577 -0.6687  0.8796 -0.0624
 1411SOL    HW115692   1.769   3.983  11.620  0.0795  1.7437 -1.0488
 1411SOL    HW215693   1.663   3.917  11.545  3.2577 -0.0090 -0.4169
 1412SOL     OW15694   1.963   3.827   3.468 -0.0140 -0.4143 -1.2384
 1412SOL    HW115695   2.019   3.882   3.522 -1.0149 -0.0742 -0.5328
 1412SOL    HW215696   1.953   3.746   3.519  1.6315 -1.3799 -2.4508
 1413SOL     OW15697   3.096   4.083   2.772  0.4741  0.2470  0.3991
 1413SOL    HW115698   3.057   4.048   2.691 -0.2320  1.9017  0.0338
 1413SOL    HW215699   3.170   4.023   2.782  0.4140  0.7320  3.7672
 1414SOL     OW15700   4.546   1.048  12.714 -0.0312  0.3494  0.5878
 1414SOL    HW115701   4.510   1.027  12.800  0.7994  4.1066  1.8382
 1414SOL    HW215702   4.641   1.051  12.720 -0.1313 -1.3137  2.8916
 1415SOL     OW15703   2.741   2.144   7.437 -0.2064 -0.1488  0.2316
 1415SOL    HW115704   2.734   2.063   7.488  0.7697  1.5390  2.9695
 1415SOL    HW215705   2.791   2.187   7.505  0.8395  1.5135 -1.5974
 1416SOL     OW15706   1.629   1.591   8.310 -0.6312  0.6105  0.6233
 1416SOL    HW115707   1.648   1.523   8.374 -1.6675 -1.6050 -1.4214
 1416SOL    HW215708   1.535   1.607   8.316 -0.5926  0.0572  2.6409
 1417SOL     OW15709   0.302   1.122  14.201  0.0085 -0.3511 -0.9248
 1417SOL    HW115710   0.252   1.041  14.204  0.3423 -0.5376 -0.2781
 1417SOL    HW215711   0.388   1.086  14.223  0.1228 -0.9666 -2.3960
 1418SOL     OW15712   2.207   1.524   6.225 -0.2052 -0.2773  0.7853
 1418SOL    HW115713   2.285   1.521   6.170 -0.8610 -1.1530 -0.1030
 1418SOL    HW215714   2.211   1.441   6.274  0.1854 -1.6655 -1.5939
 1419SOL     OW15715   2.206   3.538   4.231  0.4388  0.8818 -0.0332
 1419SOL    HW115716   2.196   3.633   4.242 -0.5468  0.9219 -1.3417
 1419SOL    HW215717   2.302   3.537   4.234  0.3965  0.1017  1.0690
 1420SOL     OW15718   1.170   2.189  17.412  1.1955 -0.1557  0.3316
 1420SOL    HW115719   1.140   2.251  17.478 -0.3629 -0.3069 -0.2524
 1420SOL    HW215720   1.266   2.199  17.412  1.3634 -1.7786  1.0752
 1421SOL     OW15721   3.743   3.741   2.258 -0.2052  0.0692  0.2882
 1421SOL    HW115722   3.669   3.694   2.294  0.4565 -2.8299 -2.1211
 1421SOL    HW215723   3.693   3.788   2.191  0.0476 -0.0029  0.0450
 1422SOL     OW15724   0.840   3.408   9.506  0.2980 -0.1587 -0.1684
 1422SOL    HW115725   0.787   3.332   9.530  1.4171 -0.6885  0.6122
 1422SOL    HW215726   0.853   3.449   9.591 -0.5045  3.9789 -2.0438
 1423SOL     OW15727   3.439   1.361  11.369 -0.1567 -0.0515  0.1103
 1423SOL    HW115728   3.481   1.275  11.365  2.5953  1.3244 -0.3191
 1423SOL    HW215729   3.356   1.329  11.404  0.6395 -3.5222 -1.1560
 1424SOL     OW15730   0.617   3.229  12.726  0.1244  0.2946 -0.5830
 1424SOL    HW115731   0.583   3.285  12.656 -0.8512  0.4836  0.0309
 1424SOL    HW215732   0.693   3.277  12.759  1.9025 -3.3601  0.5669
 1425SOL     OW15733   3.815   2.360   7.475  0.2840 -0.7699 -0.0657
 1425SOL    HW115734   3.801   2.389   7.385 -1.7779  1.8241  1.1117
 1425SOL    HW215735   3.860   2.277   7.456 -1.1057 -1.4717 -0.2949
 1426SOL     OW15736   2.316   0.125   1.228  0.1267  0.2089  0.2012
 1426SOL    HW115737   2.247   0.175   1.183 -0.0797  0.3919  0.7274
 1426SOL    HW215738   2.297   0.152   1.317 -1.7347 -1.0690  0.1921
 1427SOL     OW15739   3.081   4.299   8.548 -0.8242  0.4092  0.3355
 1427SOL    HW115740   2.992   4.277   8.575 -1.3658 -1.0183 -2.6017
 1427SOL    HW215741   3.122   4.305   8.634 -1.6409 -0.3586  0.7654
 1428SOL     OW15742   4.500   1.849   4.897 -0.1366  0.3425 -0.0651
 1428SOL    HW115743   4.580   1.884   4.856  1.3372 -1.5560  1.2066
 1428SOL    HW215744   4.517   1.759   4.925 -0.0659  1.6251  4.0260
 1429SOL     OW15745   0.884   0.120   3.478  0.2470 -0.4431  0.3847
 1429SOL    HW115746   0.908   0.070   3.556  2.1964  2.1868  1.5049
 1429SOL    HW215747   0.956   0.183   3.467  1.0037 -1.7513 -2.1581
 1430SOL     OW15748   1.445   2.699   7.195 -0.1039  0.6797  0.6495
 1430SOL    HW115749   1.506   2.773   7.195 -0.9787  1.3830 -1.1669
 1430SOL    HW215750   1.368   2.743   7.231 -1.5700 -1.6512  0.3686
 1431SOL     OW15751   0.752   3.972   1.970 -0.3586 -0.2027  0.4978
 1431SOL    HW115752   0.724   3.975   1.878  3.0115  0.6862 -0.5023
 1431SOL    HW215753   0.673   3.948   2.018 -0.2049  0.3062  1.0010
 1432SOL     OW15754   2.189   3.298  17.656 -0.5038 -0.1603  0.1799
 1432SOL    HW115755   2.257   3.295  17.589 -1.7285  1.4895 -1.0992
 1432SOL    HW215756   2.194   3.203  17.671 -0.5171 -0.1515  0.2404
 1433SOL     OW15757   3.889   1.468  11.163 -0.4368  0.7433 -0.5990
 1433SOL    HW115758   3.804   1.476  11.206  0.4703 -1.4861  1.6240
 1433SOL    HW215759   3.904   1.559  11.138  2.1167  0.0467 -1.6346
 1434SOL     OW15760   4.688   1.724   2.860  0.2142  0.4179 -0.7614
 1434SOL    HW115761   4.700   1.688   2.772 -3.4305  1.8272 -1.8156
 1434SOL    HW215762   4.597   1.752   2.859 -0.8057 -2.8327  1.8170
 1435SOL     OW15763   4.194   1.224   7.483  0.2648 -0.6986 -0.1352
 1435SOL    HW115764   4.139   1.293   7.518  1.3669 -0.1924  0.5973
 1435SOL    HW215765   4.237   1.193   7.563 -2.3262 -1.1217  1.0701
 1436SOL     OW15766   0.505   1.429  10.413  0.2184  0.5789 -0.3025
 1436SOL    HW115767   0.545   1.431  10.326  1.3484  1.0351  0.2365
 1436SOL    HW215768   0.543   1.347  10.445 -0.5658  0.0168 -0.7937
 1437SOL     OW15769   1.925   3.947   4.433  1.0303 -0.1962  0.0557
 1437SOL    HW115770   1.953   3.902   4.513  1.9088 -0.6644 -0.5120
 1437SOL    HW215771   1.836   3.974   4.455  0.6979 -0.5890 -0.8284
 1438SOL     OW15772   1.494   1.844  11.219  0.1192 -0.1775 -0.3418
 1438SOL    HW115773   1.433   1.772  11.204  1.7140 -1.9715  1.8056
 1438SOL    HW215774   1.448   1.929  11.220 -0.9499 -0.7696  2.0620
 1439SOL     OW15775   0.843   3.724  16.614  0.5471  0.4482  0.4214
 1439SOL    HW115776   0.773   3.752  16.673 -2.1393 -0.5260 -2.3056
 1439SOL    HW215777   0.881   3.649  16.658  0.0315 -1.0391 -1.6731
 1440SOL     OW15778   2.561   1.439  15.819 -0.5451  0.0563  0.2310
 1440SOL    HW115779   2.483   1.411  15.867 -0.3946  0.7184  0.8727
 1440SOL    HW215780   2.624   1.377  15.857 -1.6875 -0.6979  0.8995
 1441SOL     OW15781   0.734   0.637   7.772 -0.0028  0.1778  0.6180
 1441SOL    HW115782   0.789   0.714   7.756  2.5290 -1.8023 -0.1645
 1441SOL    HW215783   0.700   0.661   7.858 -0.7216  0.3490  0.2878
 1442SOL     OW15784   4.683   1.511   3.975  0.3685 -0.0806 -0.5023
 1442SOL    HW115785   0.049   1.503   4.014  0.1829  0.4771  0.0202
 1442SOL    HW215786   4.714   1.532   3.887  0.9315  1.4450  0.0470
 1443SOL     OW15787   4.056   3.329   6.745  0.0889  0.2589  0.2664
 1443SOL    HW115788   3.998   3.365   6.678 -0.3557 -1.6734 -0.3917
 1443SOL    HW215789   4.083   3.405   6.798  1.8009  0.4901 -0.9185
 1444SOL     OW15790   3.191   0.917   9.866 -0.0299  0.0428  0.9734
 1444SOL    HW115791   3.139   0.880   9.937 -0.7993  0.3139  0.5520
 1444SOL    HW215792   3.135   0.904   9.790  0.4533 -1.9573  0.9642
 1445SOL     OW15793   3.230   1.187   9.849  0.4124 -0.0405 -0.1963
 1445SOL    HW115794   3.207   1.133   9.924 -0.9276 -1.2640 -1.4862
 1445SOL    HW215795   3.304   1.142   9.808 -0.2281 -0.2401 -1.1358
 1446SOL     OW15796   0.414   0.816   3.008  0.1907  0.2963  0.3429
 1446SOL    HW115797   0.507   0.823   2.984  0.0791 -2.4765 -0.9491
 1446SOL    HW215798   0.418   0.775   3.095  0.2815  2.7896  1.5062
 1447SOL     OW15799   3.259   0.724   4.114  0.3203  0.7228  0.2339
 1447SOL    HW115800   3.220   0.801   4.157  0.1883  0.9837 -0.3476
 1447SOL    HW215801   3.217   0.736   4.029  0.0157  1.8219  0.5404
 1448SOL     OW15802   2.262   1.192   5.520  0.3096 -0.2048  0.5655
 1448SOL    HW115803   2.257   1.254   5.448  2.6313 -0.1528  0.4520
 1448SOL    HW215804   2.352   1.205   5.550 -0.1881 -0.8277  2.3093
 1449SOL     OW15805   0.283   2.795  12.999 -0.1235  0.0205  0.9547
 1449SOL    HW115806   0.357   2.856  13.006  1.2048 -1.2364 -1.9049
 1449SOL    HW215807   0.212   2.831  13.051 -0.2339  0.5536  0.4298
 1450SOL     OW15808   2.067   0.705   7.403 -0.2007  0.2097 -0.0411
 1450SOL    HW115809   2.032   0.633   7.457 -0.2722  1.5757  1.7186
 1450SOL    HW215810   2.038   0.689   7.313  2.6883 -1.7100 -0.6152
 1451SOL     OW15811   3.428   3.456   8.378 -0.2137  0.2386 -0.5140
 1451SOL    HW115812   3.416   3.377   8.432  0.7187  0.0105 -0.6427
 1451SOL    HW215813   3.469   3.528   8.425 -1.3480  0.2442  0.4838
 1452SOL     OW15814   1.227   2.216   1.053  0.1587 -0.6287  0.1234
 1452SOL    HW115815   1.243   2.160   1.130 -0.4786  0.1879  0.8499
 1452SOL    HW215816   1.318   2.235   1.030  0.2312 -1.3401 -0.1865
 1453SOL     OW15817   2.391   1.419  14.082  0.0836 -0.2656 -0.3551
 1453SOL    HW115818   2.313   1.367  14.066 -0.3877  0.6952 -1.1855
 1453SOL    HW215819   2.454   1.385  14.019  1.7838  2.1649  0.0343
 1454SOL     OW15820   3.439   0.533   0.563 -0.3438 -0.2708 -0.2352
 1454SOL    HW115821   3.463   0.609   0.616 -1.1770 -0.6160  0.6238
 1454SOL    HW215822   3.411   0.566   0.477 -0.7567  0.8953  0.3388
 1455SOL     OW15823   0.706   3.956  10.449  0.2446  0.2611 -0.2074
 1455SOL    HW115824   0.648   4.032  10.439  0.1860  0.1614 -0.6501
 1455SOL    HW215825   0.715   3.949  10.544  0.5779 -2.2841 -0.4243
 1456SOL     OW15826   2.097   0.586  11.246 -0.0408  0.5895 -0.1615
 1456SOL    HW115827   2.073   0.535  11.324  1.2927  0.5906  0.2450
 1456SOL    HW215828   2.045   0.663  11.271  0.1439  0.6353  0.0876
 1457SOL     OW15829   1.112   2.647   2.305  0.1876 -0.0329  0.0231
 1457SOL    HW115830   1.151   2.662   2.219  0.4009 -1.8057 -0.1693
 1457SOL    HW215831   1.096   2.555   2.288 -0.4171  0.6454 -3.0963
 1458SOL     OW15832   0.619   0.179   2.826 -0.2186  0.1402 -0.0762
 1458SOL    HW115833   0.587   0.100   2.870  1.8739  0.2153  1.5595
 1458SOL    HW215834   0.556   0.186   2.754  0.6522  0.3363 -0.8212
 1459SOL     OW15835   2.288   2.132  16.299 -0.1520 -0.1221 -0.3514
 1459SOL    HW115836   2.247   2.046  16.296 -0.6376  0.0888  0.1081
 1459SOL    HW215837   2.212   2.190  16.303 -0.0174  0.0309  0.1134
 1460SOL     OW15838   0.709   2.341   3.359 -0.0935  0.3057  0.0885
 1460SOL    HW115839   0.768   2.266   3.354 -1.0690 -0.5853  1.5670
 1460SOL    HW215840   0.646   2.330   3.288 -0.0269 -0.8258  0.2019
 1461SOL     OW15841   2.624   1.718   8.963 -0.1209  0.3550 -0.1948
 1461SOL    HW115842   2.556   1.778   8.935  1.0539  1.9143  0.2977
 1461SOL    HW215843   2.691   1.782   8.984 -1.2096  1.3804  0.1145
 1462SOL     OW15844   3.990   1.032  11.164  0.4915 -0.1393  0.4775
 1462SOL    HW115845   3.955   0.946  11.191  0.0647 -0.9341 -2.6197
 1462SOL    HW215846   4.014   1.077  11.245  1.8706 -2.0381  1.1209
 1463SOL     OW15847   3.454   0.726   5.065 -0.8893  0.2073  0.1493
 1463SOL    HW115848   3.494   0.647   5.030 -1.3088 -0.5819  1.4509
 1463SOL    HW215849   3.364   0.695   5.063 -0.8855  0.3311 -1.7696
 1464SOL     OW15850   4.692   1.028   2.287  0.3154  0.1144  0.0113
 1464SOL    HW115851   4.615   1.012   2.343 -0.1277 -0.8011 -0.8493
 1464SOL    HW215852   4.692   1.123   2.289 -4.7007  0.1763 -1.7754
 1465SOL     OW15853   2.603   3.637   4.845 -0.2563 -0.0093  0.3278
 1465SOL    HW115854   2.639   3.564   4.795 -2.1032 -0.6013 -0.1162
 1465SOL    HW215855   2.654   3.713   4.816 -0.6330 -0.3407 -1.1981
 1466SOL     OW15856   3.450   2.058   0.407  0.2239  0.2610  0.1303
 1466SOL    HW115857   3.482   2.137   0.364 -2.2553  2.3987  2.2743
 1466SOL    HW215858   3.415   2.099   0.486 -0.7993 -0.8955  0.2725
 1467SOL     OW15859   3.966   3.304  17.242 -0.6659 -0.5558 -0.6611
 1467SOL    HW115860   4.055   3.335  17.222 -1.5088  3.0215  1.1036
 1467SOL    HW215861   3.916   3.368  17.190 -0.2536  0.1029 -0.2506
 1468SOL     OW15862   0.800   1.261   8.116  0.1302  0.5055  0.8674
 1468SOL    HW115863   0.795   1.244   8.210  4.2490  1.7175  1.3002
 1468SOL    HW215864   0.711   1.285   8.093  0.6640  0.8117 -0.8696
 1469SOL     OW15865   4.708   1.772   6.542  0.2873  0.6662  0.2742
 1469SOL    HW115866   0.031   1.857   6.546 -1.1825  1.3299  2.4359
 1469SOL    HW215867   4.630   1.796   6.592 -0.5744 -1.3899 -0.0540
 1470SOL     OW15868   0.939   2.283   8.948 -0.6706 -0.1629  0.1966
 1470SOL    HW115869   0.924   2.188   8.948 -1.0418 -0.0927  2.5483
 1470SOL    HW215870   0.895   2.313   9.028  1.8097 -1.3604  1.9810
 1471SOL     OW15871   1.410   2.330  12.824  0.6575  0.2567  0.0865
 1471SOL    HW115872   1.500   2.309  12.799 -0.4796 -1.5761 -2.5310
 1471SOL    HW215873   1.377   2.290  12.743  2.0245  0.4519 -0.5773
 1472SOL     OW15874   3.732   2.024   8.355 -0.5277 -0.0862 -0.4925
 1472SOL    HW115875   3.687   1.940   8.370 -5.4778  2.3255 -1.9493
 1472SOL    HW215876   3.822   1.998   8.374  0.5176  2.9545 -1.3481
 1473SOL     OW15877   0.473   3.292   6.525 -0.0242 -0.2512  0.9336
 1473SOL    HW115878   0.511   3.332   6.446 -2.3018 -1.2877 -0.7013
 1473SOL    HW215879   0.548   3.238   6.550  0.2048  0.3072  1.4462
 1474SOL     OW15880   3.005   1.039   7.251 -0.3886 -0.5844 -0.1919
 1474SOL    HW115881   2.937   1.075   7.193 -1.7700 -0.9911  1.1779
 1474SOL    HW215882   3.016   1.114   7.308  0.3215  0.5282 -1.7965
 1475SOL     OW15883   2.670   0.440  12.268 -0.3666  0.3373 -0.6283
 1475SOL    HW115884   2.694   0.520  12.222 -0.8164  1.2267  0.6997
 1475SOL    HW215885   2.636   0.483  12.346 -0.1550  1.1047 -0.9587
 1476SOL     OW15886   4.092   0.067  17.177  0.0930 -0.2271 -0.4780
 1476SOL    HW115887   3.998   0.046  17.173  0.2759 -1.0668 -0.1661
 1476SOL    HW215888   4.093   0.161  17.155 -1.1457 -0.6824 -2.5080
 1477SOL     OW15889   3.113   2.733   8.861 -0.3500  0.5593 -0.1429
 1477SOL    HW115890   3.025   2.767   8.843 -0.7899  0.2205  1.3943
 1477SOL    HW215891   3.160   2.815   8.879  1.0156 -0.1440 -0.5739
 1478SOL     OW15892   0.637   0.204   8.415 -0.0628 -0.0362  0.4423
 1478SOL    HW115893   0.662   0.261   8.488  0.9262 -3.1411  2.5326
 1478SOL    HW215894   0.720   0.157   8.411  0.0326  0.2325 -0.8661
 1479SOL     OW15895   3.236   0.445   0.385 -0.0433 -0.2897 -0.3027
 1479SOL    HW115896   3.225   0.539   0.374  1.2215 -0.2709 -1.4467
 1479SOL    HW215897   3.203   0.422   0.472  0.8017 -1.6293 -0.3300
 1480SOL     OW15898   1.559   2.833  10.094 -0.7752  0.3239  0.6344
 1480SOL    HW115899   1.471   2.869  10.103 -1.3498 -0.6697 -1.0339
 1480SOL    HW215900   1.607   2.894  10.150 -0.0987 -0.2492  0.6839
 1481SOL     OW15901   2.642   1.789   1.668  0.2053 -0.2333 -0.3141
 1481SOL    HW115902   2.638   1.879   1.701 -2.9172 -0.5722  0.2243
 1481SOL    HW215903   2.674   1.817   1.583 -0.4526 -1.3640 -0.9202
 1482SOL     OW15904   4.105   2.309   8.715 -0.3888 -0.7786 -0.6801
 1482SOL    HW115905   4.037   2.366   8.679  0.4134  0.1764 -0.6578
 1482SOL    HW215906   4.088   2.310   8.809  1.0885  2.7865 -0.4687
 1483SOL     OW15907   3.382   0.758   7.995  0.3617 -0.4167 -0.0782
 1483SOL    HW115908   3.354   0.843   7.962  1.2758  0.8675  2.4587
 1483SOL    HW215909   3.381   0.771   8.090  1.8675 -0.2016 -0.0802
 1484SOL     OW15910   4.033   0.064   6.066  0.1172 -0.5349  0.3745
 1484SOL    HW115911   4.090   0.062   5.990  1.5947  2.6567  1.3840
 1484SOL    HW215912   3.954   0.037   6.019 -0.9305  0.4287  1.5727
 1485SOL     OW15913   2.034   4.112   9.595  0.1651  0.6522 -0.4946
 1485SOL    HW115914   2.020   4.057   9.672  1.1778  1.4808  0.2830
 1485SOL    HW215915   2.095   4.178   9.630  2.1612 -0.7876 -1.2506
 1486SOL     OW15916   3.316   0.376   5.040 -0.5328 -0.3342 -0.1116
 1486SOL    HW115917   3.273   0.292   5.053 -1.2904  0.1676  0.6083
 1486SOL    HW215918   3.252   0.426   4.988 -0.2678 -1.1242 -1.2023
 1487SOL     OW15919   1.422   1.929  14.696 -0.1718  0.2944 -0.4665
 1487SOL    HW115920   1.332   1.899  14.703 -0.1542 -0.5338 -3.9633
 1487SOL    HW215921   1.440   1.932  14.602  1.9494 -1.9101 -0.1201
 1488SOL     OW15922   4.232   2.092  14.455 -0.0920 -0.7198 -0.3925
 1488SOL    HW115923   4.274   2.170  14.418  0.1209 -0.8141 -0.3475
 1488SOL    HW215924   4.208   2.129  14.539  5.3615  0.1821  0.7627
 1489SOL     OW15925   1.724   4.570   0.830 -0.7673  0.1182 -0.2429
 1489SOL    HW115926   1.772   4.584   0.749  0.2477 -1.5142  0.0609
 1489SOL    HW215927   1.679   4.654   0.827 -1.3457 -0.1574  0.7038
 1490SOL     OW15928   3.772   4.674  15.026 -0.0871  0.1232 -0.5870
 1490SOL    HW115929   3.755   0.029  15.082 -0.0519 -0.3236  0.0246
 1490SOL    HW215930   3.749   4.596  15.076  0.5896 -0.1311 -0.6725
 1491SOL     OW15931   4.499   1.343   4.459 -0.1956 -0.5427 -0.3747
 1491SOL    HW115932   4.556   1.389   4.398  0.0127 -0.1939  0.0835
 1491SOL    HW215933   4.564   1.347   4.529 -0.6966 -1.2256  0.1458
 1492SOL     OW15934   2.844   2.720   5.305  0.2887  0.2860  0.4050
 1492SOL    HW115935   2.882   2.769   5.378  0.3842 -0.2349  0.7044
 1492SOL    HW215936   2.924   2.674   5.278  0.2423  0.5668 -0.2185
 1493SOL     OW15937   2.855   1.687  15.455 -0.2347 -0.1373 -0.1395
 1493SOL    HW115938   2.828   1.770  15.495  0.3939  0.6790 -1.4095
 1493SOL    HW215939   2.770   1.644  15.439 -0.3539  0.2455 -0.5277
 1494SOL     OW15940   3.637   4.658   7.608 -0.0438 -0.1644  0.5146
 1494SOL    HW115941   3.683   0.019   7.588 -0.4344  0.3481  1.7473
 1494SOL    HW215942   3.550   4.697   7.615 -0.7291 -1.3609 -1.1944
 1495SOL     OW15943   3.281   3.699  12.444 -0.1599 -0.6286  0.0829
 1495SOL    HW115944   3.360   3.716  12.494  0.9021 -0.1709 -1.7640
 1495SOL    HW215945   3.225   3.767  12.481 -0.4636 -1.2563  0.7870
 1496SOL     OW15946   2.048   0.454   1.755  0.3200  0.3522 -0.6245
 1496SOL    HW115947   2.091   0.465   1.840  0.8646 -0.3349 -0.8048
 1496SOL    HW215948   2.128   0.442   1.704 -1.2437 -0.0413 -2.9847
 1497SOL     OW15949   4.602   0.373   8.588  0.3588 -0.3115 -0.4855
 1497SOL    HW115950   4.609   0.366   8.493  0.4046  1.2141 -0.5970
 1497SOL    HW215951   4.647   0.294   8.619  0.9151 -0.0313 -0.5862
 1498SOL     OW15952   4.294   4.703  17.332  0.2868 -0.0635 -0.1780
 1498SOL    HW115953   4.212   0.011  17.294 -0.1774  0.3200  1.0976
 1498SOL    HW215954   4.353   4.699  17.257 -0.8817  2.7914 -1.2223
 1499SOL     OW15955   0.189   1.457   5.310 -0.2473  0.5034 -0.5459
 1499SOL    HW115956   0.261   1.496   5.362 -0.6683  1.9334 -1.0284
 1499SOL    HW215957   0.220   1.465   5.220 -1.0188  1.2593 -0.7415
 1500SOL     OW15958   3.658   1.544  11.310 -0.2464  0.0209  0.2505
 1500SOL    HW115959   3.586   1.498  11.353 -1.2272 -1.1419 -2.7030
 1500SOL    HW215960   3.675   1.602  11.385 -0.0085  0.8398 -0.4405
 1501SOL     OW15961   4.577   1.702   3.219  0.2784  0.2866  0.0327
 1501SOL    HW115962   4.641   1.750   3.166  1.5254  1.1291  2.3013
 1501SOL    HW215963   4.522   1.777   3.241 -1.6700 -1.6733  1.8069
 1502SOL     OW15964   0.788   1.542  11.160  0.4590 -0.2160 -0.3337
 1502SOL    HW115965   0.770   1.453  11.133 -1.2003  0.3054 -0.9153
 1502SOL    HW215966   0.731   1.594  11.103 -0.1432  2.4297  2.6231
 1503SOL     OW15967   0.289   3.167   5.449 -0.6608 -0.2255 -0.0468
 1503SOL    HW115968   0.209   3.116   5.435 -0.1613 -0.8826 -0.5015
 1503SOL    HW215969   0.351   3.099   5.473  1.4609  0.6777 -2.9612
 1504SOL     OW15970   3.189   3.786   0.027 -0.3020 -0.2420  0.1943
 1504SOL    HW115971   3.163   3.864   0.076 -0.1935 -1.1742  1.7214
 1504SOL    HW215972   3.198   3.724   0.099 -0.7703  0.7036  1.0732
 1505SOL     OW15973   1.057   3.642   7.167  0.1220  0.4611 -0.0496
 1505SOL    HW115974   1.133   3.694   7.141  2.1886 -1.5593  2.0587
 1505SOL    HW215975   1.017   3.703   7.229  1.1203  2.3618 -1.2537
 1506SOL     OW15976   0.753   1.960   4.436  0.3886  0.7609  0.3596
 1506SOL    HW115977   0.813   2.032   4.419  2.3581 -0.4449  2.2164
 1506SOL    HW215978   0.802   1.884   4.404 -0.8332  0.3670 -0.5871
 1507SOL     OW15979   1.186   4.248  13.845  0.3355 -0.8071 -0.3733
 1507SOL    HW115980   1.113   4.250  13.906 -0.1917 -2.5744 -0.9550
 1507SOL    HW215981   1.158   4.315  13.783  0.3265 -0.7699 -0.3292
 1508SOL     OW15982   1.946   1.816   8.689  0.5924 -0.5092  0.0278
 1508SOL    HW115983   2.025   1.839   8.739 -0.0590 -2.0713  1.8092
 1508SOL    HW215984   1.890   1.890   8.708 -0.9328 -1.8587  0.7901
 1509SOL     OW15985   0.342   4.569   5.044 -0.6818  0.7694 -0.0876
 1509SOL    HW115986   0.400   4.524   5.105 -0.2182 -1.7541 -2.3630
 1509SOL    HW215987   0.266   4.573   5.100 -0.9755  2.8028 -0.6129
 1510SOL     OW15988   1.580   4.316   9.030 -0.1887  0.6529  0.0497
 1510SOL    HW115989   1.644   4.342   9.097  0.6140 -2.8890  0.6392
 1510SOL    HW215990   1.501   4.340   9.079  0.3150  0.5449  0.9118
 1511SOL     OW15991   2.291   2.519   5.840 -0.3760  0.0917 -0.2213
 1511SOL    HW115992   2.357   2.450   5.849  0.6474  1.1524  0.3757
 1511SOL    HW215993   2.233   2.500   5.914  0.2976  0.0567  0.3001
 1512SOL     OW15994   4.660   1.770   5.674  0.4768  0.5235 -0.1889
 1512SOL    HW115995   4.710   1.688   5.672  0.0763  0.2488  1.3677
 1512SOL    HW215996   0.015   1.819   5.641  0.7675  0.0830 -0.1877
 1513SOL     OW15997   2.977   2.649  12.019  0.1286 -0.2653 -0.8288
 1513SOL    HW115998   3.061   2.657  12.064 -0.0617 -0.7392 -0.3900
 1513SOL    HW215999   2.935   2.723  12.061  1.6667 -0.0416  0.3535
 1514SOL     OW16000   2.098   0.481  17.084  0.1727 -0.2688 -0.2770
 1514SOL    HW116001   2.142   0.410  17.037  1.6130  0.7450 -0.4642
 1514SOL    HW216002   2.160   0.550  17.060 -1.3591  1.2778  0.2621
 1515SOL     OW16003   1.891   0.358   7.539  0.1949 -0.1155 -0.0095
 1515SOL    HW116004   1.956   0.293   7.563 -0.3614 -0.9490 -0.7746
 1515SOL    HW216005   1.930   0.427   7.593 -1.2168  2.1122 -1.7770
 1516SOL     OW16006   3.257   1.896   0.272 -0.0555  0.2881  0.4601
 1516SOL    HW116007   3.330   1.936   0.320 -0.6666  0.2751  1.4161
 1516SOL    HW216008   3.285   1.876   0.183  0.2370  1.8474  0.2150
 1517SOL     OW16009   1.198   2.653  12.889  0.1826 -0.2705 -0.0802
 1517SOL    HW116010   1.155   2.716  12.947 -1.4933  0.4671 -2.1050
 1517SOL    HW216011   1.152   2.654  12.805 -0.9409  0.5031  0.5376
 1518SOL     OW16012   3.610   4.255   7.162 -0.0899  0.1941 -0.3581
 1518SOL    HW116013   3.620   4.281   7.071 -0.6603 -1.1104 -0.7906
 1518SOL    HW216014   3.515   4.265   7.164 -0.1792 -0.3410 -2.2912
 1519SOL     OW16015   1.801   3.401   7.420 -0.3971 -0.0940  0.2333
 1519SOL    HW116016   1.749   3.413   7.341 -1.9182 -0.1883  1.2321
 1519SOL    HW216017   1.756   3.471   7.467  0.5672  0.5784  0.1647
 1520SOL     OW16018   0.511   0.016   8.847  0.6369 -0.2740  0.3779
 1520SOL    HW116019   0.476   0.047   8.931 -1.3285 -1.2774 -0.0597
 1520SOL    HW216020   0.438   0.008   8.786 -1.6836  3.0042  2.6836
 1521SOL     OW16021   1.678   0.604   1.892 -0.2631 -0.0659 -0.1320
 1521SOL    HW116022   1.667   0.677   1.952 -0.2104  1.0993 -1.5179
 1521SOL    HW216023   1.684   0.646   1.806  0.1290  1.5003  0.6576
 1522SOL     OW16024   2.220   0.341   5.178  0.1926 -0.2637 -0.7186
 1522SOL    HW116025   2.153   0.286   5.219  1.0579 -0.1109  0.9189
 1522SOL    HW216026   2.175   0.397   5.115 -0.4528  0.5153  0.4306
 1523SOL     OW16027   3.203   3.656   0.269  0.0058 -0.0783  0.1285
 1523SOL    HW116028   3.252   3.603   0.332  0.5648 -0.0065 -0.2440
 1523SOL    HW216029   3.144   3.703   0.327 -0.5821 -0.7611  0.0792
 1524SOL     OW16030   4.690   1.680   8.361  0.4513 -0.4545 -0.1690
 1524SOL    HW116031   4.712   1.743   8.292 -0.0250  1.3096  1.3094
 1524SOL    HW216032   4.715   1.731   8.437  0.1552 -1.0367  0.3162
 1525SOL     OW16033   0.832   3.872   2.284 -0.1104 -0.6950  0.1593
 1525SOL    HW116034   0.856   3.829   2.366  0.1955 -0.4267  0.2100
 1525SOL    HW216035   0.793   3.801   2.232 -0.5202 -0.7204  0.5037
 1526SOL     OW16036   3.229   3.993   5.026 -0.3224  0.2139  0.4861
 1526SOL    HW116037   3.234   3.976   4.932 -3.3942  1.5898  0.0431
 1526SOL    HW216038   3.206   3.911   5.068 -2.6380  0.5648 -0.0480
 1527SOL     OW16039   3.514   0.433   2.830 -0.2225 -0.4667 -0.5323
 1527SOL    HW116040   3.594   0.383   2.811  0.3413 -0.0995  0.9372
 1527SOL    HW216041   3.500   0.485   2.750  1.8322  1.6834  0.5202
 1528SOL     OW16042   2.131   3.326   9.500  0.2353 -0.1826  0.2900
 1528SOL    HW116043   2.095   3.242   9.473 -1.0923 -0.7812  3.9687
 1528SOL    HW216044   2.206   3.298   9.552  1.2928  0.1408 -1.0572
 1529SOL     OW16045   2.856   2.591   7.932 -0.0835 -0.1509 -0.5439
 1529SOL    HW116046   2.870   2.552   8.018 -1.2102  1.4044  0.3347
 1529SOL    HW216047   2.860   2.517   7.872 -1.0994 -0.0225 -0.7671
 1530SOL     OW16048   1.973   0.839  15.174  0.0945  0.0270  0.4683
 1530SOL    HW116049   1.903   0.904  15.173  1.2131  1.2378  0.9054
 1530SOL    HW216050   2.021   0.860  15.094  0.4835  2.6313  1.3793
 1531SOL     OW16051   4.008   2.944  14.932 -0.1625  0.1324  0.7523
 1531SOL    HW116052   4.083   2.906  14.887  0.5302  1.6987  0.5905
 1531SOL    HW216053   3.943   2.914  14.868 -1.5294 -1.1986  2.7704
 1532SOL     OW16054   1.364   0.401   4.338 -0.3010 -0.0036  0.2740
 1532SOL    HW116055   1.301   0.466   4.305 -1.4385 -1.0213  0.4051
 1532SOL    HW216056   1.421   0.461   4.385  0.9399 -1.3675  0.4895
 1533SOL     OW16057   2.957   0.381   1.941 -0.1124 -0.5203 -0.1730
 1533SOL    HW116058   3.029   0.376   2.004 -0.9048  0.5905  0.8220
 1533SOL    HW216059   2.954   0.474   1.919  3.0240  0.0805  1.9027
 1534SOL     OW16060   2.027   3.214  13.159 -0.8852  0.2993  0.1546
 1534SOL    HW116061   2.046   3.267  13.236  0.3506 -1.1497  0.8364
 1534SOL    HW216062   1.997   3.280  13.095 -2.1755 -0.1111  0.3424
 1535SOL     OW16063   2.084   3.725   1.954  0.3267 -0.2909 -0.5644
 1535SOL    HW116064   2.014   3.710   1.890 -0.2215  0.3911 -0.1116
 1535SOL    HW216065   2.156   3.740   1.892  0.6223 -0.6083 -0.2993
 1536SOL     OW16066   1.279   0.760   0.345 -0.4594 -0.1167 -0.5511
 1536SOL    HW116067   1.369   0.781   0.322 -0.2172  0.7459  1.1834
 1536SOL    HW216068   1.226   0.834   0.316  0.3947  0.2675 -1.1359
 1537SOL     OW16069   3.451   1.781   2.092 -0.6012 -0.5240  0.0286
 1537SOL    HW116070   3.454   1.769   2.187  0.3953  0.6718  0.1497
 1537SOL    HW216071   3.502   1.861   2.074  1.3516 -1.2953  2.2115
 1538SOL     OW16072   1.796   2.321   3.004 -0.6632 -0.0918  0.0180
 1538SOL    HW116073   1.711   2.303   2.963  0.4889 -3.7426 -0.8021
 1538SOL    HW216074   1.854   2.262   2.956  0.8888  0.6425  0.9939
 1539SOL     OW16075   2.043   2.397  11.663 -0.5901  0.2559 -0.5958
 1539SOL    HW116076   1.997   2.473  11.700  0.1650  0.6366 -0.4512
 1539SOL    HW216077   1.977   2.327  11.667 -0.0268 -0.1856  1.1576
 1540SOL     OW16078   3.045   1.568  16.699  0.4550 -0.3464 -0.0969
 1540SOL    HW116079   2.955   1.563  16.730  0.2058  0.4577 -0.6911
 1540SOL    HW216080   3.079   1.479  16.687  0.0439 -0.6865  1.2818
 1541SOL     OW16081   0.057   1.736   5.272  0.3240  0.6668  0.1689
 1541SOL    HW116082   0.067   1.655   5.323 -0.5968 -0.3667 -1.2854
 1541SOL    HW216083   4.688   1.764   5.289  0.3326  0.7972 -0.0101
 1542SOL     OW16084   1.370   3.597   9.234  0.2084  0.3785  0.3146
 1542SOL    HW116085   1.367   3.570   9.326 -1.3511  1.7369  0.6624
 1542SOL    HW216086   1.465   3.606   9.225  0.7069 -3.5828  1.2641
 1543SOL     OW16087   1.555   1.294   4.749  0.2337 -0.2163  0.1126
 1543SOL    HW116088   1.565   1.266   4.840  0.9666  2.3693  0.8530
 1543SOL    HW216089   1.554   1.208   4.708 -1.2328 -0.7780  1.3198
 1544SOL     OW16090   4.352   1.135   6.758  0.0930  0.5019  0.2797
 1544SOL    HW116091   4.380   1.085   6.682 -1.7214  0.0640 -0.0903
 1544SOL    HW216092   4.391   1.221   6.742  0.5199  0.4026  0.7770
 1545SOL     OW16093   2.792   1.932   8.393  0.0512 -0.0643  0.1648
 1545SOL    HW116094   2.836   2.007   8.354 -0.8914  0.5823  0.3294
 1545SOL    HW216095   2.738   1.978   8.457  1.3375  1.4703  0.1652
 1546SOL     OW16096   2.007   1.424   4.886  0.7489  0.5174  0.3277
 1546SOL    HW116097   2.018   1.489   4.954  1.1020  1.9714 -1.1266
 1546SOL    HW216098   1.926   1.385   4.922 -1.0150  4.0210  0.1199
 1547SOL     OW16099   2.985   2.678   7.312  0.0661  0.0255 -0.9372
 1547SOL    HW116100   2.907   2.731   7.332  1.1670  0.6497  1.7134
 1547SOL    HW216101   2.977   2.680   7.217  0.8345  1.0805 -0.9882
 1548SOL     OW16102   3.302   3.807   5.830 -0.3256 -0.4028 -0.2037
 1548SOL    HW116103   3.296   3.731   5.773  3.0752 -0.6298 -0.2552
 1548SOL    HW216104   3.311   3.876   5.766 -4.0765  1.1295  0.9177
 1549SOL     OW16105   2.133   0.582   9.149  0.1334 -0.3435  0.5050
 1549SOL    HW116106   2.103   0.655   9.094 -0.4812 -1.0370 -0.0958
 1549SOL    HW216107   2.050   0.568   9.196  0.4397  1.4754  1.5772
 1550SOL     OW16108   1.041   0.307   2.739 -1.2230  0.2486 -0.0666
 1550SOL    HW116109   1.080   0.257   2.811  0.8241  1.2157 -0.4940
 1550SOL    HW216110   0.991   0.244   2.688  1.2328  0.4486 -2.7592
 1551SOL     OW16111   2.462   3.721   2.815 -0.4880 -0.3555 -0.3422
 1551SOL    HW116112   2.470   3.677   2.899  3.5235 -0.1358 -0.6161
 1551SOL    HW216113   2.389   3.665   2.788  0.1069 -1.3318  0.0787
 1552SOL     OW16114   2.448   4.552   2.573 -0.0214 -0.2019  0.2758
 1552SOL    HW116115   2.457   4.529   2.665  2.1996  3.3615  0.9462
 1552SOL    HW216116   2.507   4.627   2.566 -0.1901 -0.2657 -1.8410
 1553SOL     OW16117   0.569   0.246  16.399 -0.2936 -0.3267  0.4962
 1553SOL    HW116118   0.492   0.300  16.419  0.5191  0.1830  2.3357
 1553SOL    HW216119   0.543   0.156  16.419  3.1752 -2.0307 -2.6956
 1554SOL     OW16120   1.892   1.087   7.352 -0.1433 -0.6579 -0.3797
 1554SOL    HW116121   1.805   1.117   7.381  0.4321  0.3459  0.3270
 1554SOL    HW216122   1.862   1.033   7.280 -1.0947 -0.6298 -0.0053
 1555SOL     OW16123   3.825   0.760   2.708 -0.1703  0.8025 -0.4777
 1555SOL    HW116124   3.856   0.699   2.775 -1.0320  2.1539  1.1516
 1555SOL    HW216125   3.731   0.740   2.708 -0.2364  1.1383 -2.3632
 1556SOL     OW16126   2.072   4.425   1.786  0.5441  0.1882  0.2248
 1556SOL    HW116127   2.080   4.501   1.729 -1.8678 -0.4660 -0.9858
 1556SOL    HW216128   2.109   4.361   1.725 -0.8278  0.1125 -0.5227
 1557SOL     OW16129   2.642   4.526   3.031  0.7554 -0.2335 -0.0761
 1557SOL    HW116130   2.595   4.442   3.036 -0.4890  0.7002  4.1123
 1557SOL    HW216131   2.664   4.545   3.122 -0.3935 -0.3278  0.2258
 1558SOL     OW16132   3.795   2.302   8.340  0.1907 -0.5375  0.5304
 1558SOL    HW116133   3.794   2.221   8.392 -1.3187  0.1159  1.5254
 1558SOL    HW216134   3.700   2.307   8.328  0.3774 -0.7175 -1.0213
 1559SOL     OW16135   1.333   2.925  14.817 -0.1883 -0.1264 -0.2797
 1559SOL    HW116136   1.260   2.921  14.755 -0.5936 -2.0687  0.3170
 1559SOL    HW216137   1.291   2.937  14.902  2.7603  0.1996  1.0994
 1560SOL     OW16138   2.547   3.299   2.292  0.4968  0.3740 -0.5520
 1560SOL    HW116139   2.501   3.379   2.269 -0.0531 -0.5447 -2.6328
 1560SOL    HW216140   2.470   3.250   2.318  2.0733 -2.0339 -0.4147
 1561SOL     OW16141   0.932   0.590  11.122 -0.2187  0.3089 -0.2969
 1561SOL    HW116142   0.940   0.501  11.087  0.6869  0.8470 -1.4554
 1561SOL    HW216143   0.838   0.610  11.124 -0.1032  0.5159  2.5179
 1562SOL     OW16144   1.184   2.115   2.606 -0.3205 -0.2899  0.0704
 1562SOL    HW116145   1.222   2.174   2.541 -0.2428 -0.2307  0.1693
 1562SOL    HW216146   1.133   2.181   2.655  0.7379  0.8085 -0.3046
 1563SOL     OW16147   4.544   1.130  11.446  0.0867 -0.0486  0.2662
 1563SOL    HW116148   4.499   1.067  11.389  0.2429  0.6275 -0.5931
 1563SOL    HW216149   4.465   1.164  11.489 -0.7729  0.6012 -1.8143
 1564SOL     OW16150   1.644   2.489   9.265 -0.1301 -0.0609 -0.2581
 1564SOL    HW116151   1.734   2.489   9.297  0.2422 -0.5585 -1.2804
 1564SOL    HW216152   1.641   2.396   9.241  0.2012  0.5478 -2.7187
 1565SOL     OW16153   1.064   0.801   9.486 -0.6208  0.0951 -0.0988
 1565SOL    HW116154   1.109   0.718   9.474 -0.1907  0.6978 -2.7893
 1565SOL    HW216155   1.105   0.858   9.551 -0.8835 -1.9090  1.7989
 1566SOL     OW16156   4.123   3.368  13.325 -0.4672 -0.0882  0.3569
 1566SOL    HW116157   4.045   3.415  13.295  0.6666  0.8836 -1.0644
 1566SOL    HW216158   4.099   3.354  13.417 -1.8289  1.6615  0.2468
 1567SOL     OW16159   1.794   1.290   3.078  0.3321  0.2135  0.1433
 1567SOL    HW116160   1.888   1.304   3.085  0.4183  0.3582 -1.3800
 1567SOL    HW216161   1.765   1.354   3.143  0.4897 -0.6508  1.0542
 1568SOL     OW16162   3.762   0.266   8.129  0.8038  0.3910 -0.1342
 1568SOL    HW116163   3.737   0.228   8.045  0.9870 -1.5739  0.7088
 1568SOL    HW216164   3.730   0.198   8.188  0.5548  1.3751  0.8756
 1569SOL     OW16165   1.347   3.241   2.180  0.2062  0.2668 -0.4508
 1569SOL    HW116166   1.377   3.332   2.185  0.7174  0.1832 -2.0314
 1569SOL    HW216167   1.357   3.228   2.086  0.2524  0.5799 -0.4871
 1570SOL     OW16168   4.068   4.615  12.899 -0.4223  0.1156  0.2933
 1570SOL    HW116169   4.004   4.644  12.964  0.0488  0.9343  0.3900
 1570SOL    HW216170   4.073   4.521  12.917  1.1640 -0.1676 -1.6045
 1571SOL     OW16171   0.435   2.527  13.466 -0.5594 -0.0475  0.1563
 1571SOL    HW116172   0.435   2.452  13.406 -0.7454  0.0735  0.0025
 1571SOL    HW216173   0.515   2.513  13.516 -0.3905  0.9249  0.1567
 1572SOL     OW16174   3.097   2.156   3.074  0.0446  0.4722 -0.2537
 1572SOL    HW116175   3.086   2.236   3.022  0.6585 -1.4256 -3.2811
 1572SOL    HW216176   3.193   2.151   3.073  0.0487  0.3023  0.4358
 1573SOL     OW16177   4.008   2.674  10.484  0.0154 -0.0429  0.2930
 1573SOL    HW116178   3.940   2.622  10.527 -0.2881  1.2995  1.4384
 1573SOL    HW216179   4.020   2.611  10.414  0.7940 -0.4178  0.7781
 1574SOL     OW16180   3.393   2.348   2.391  0.0788 -0.1484 -0.0107
 1574SOL    HW116181   3.387   2.439   2.420 -0.3140  0.1923 -1.1384
 1574SOL    HW216182   3.414   2.301   2.471 -0.2287 -1.8499 -0.9187
 1575SOL     OW16183   0.062   3.853   6.584 -0.0009  0.3515 -0.6464
 1575SOL    HW116184   0.031   3.943   6.589 -0.2637  0.3238 -1.6315
 1575SOL    HW216185   0.077   3.827   6.675  3.1301 -1.7370 -1.7398
 1576SOL     OW16186   3.255   4.149   7.546 -0.2549 -0.1578 -0.1022
 1576SOL    HW116187   3.270   4.176   7.636 -0.0106 -0.8144  0.0537
 1576SOL    HW216188   3.179   4.094   7.561 -0.3686 -0.2762 -1.0625
 1577SOL     OW16189   1.958   2.808   4.680  0.2473 -0.3240  0.0400
 1577SOL    HW116190   1.979   2.801   4.587  2.5120  0.3155  0.4849
 1577SOL    HW216191   1.868   2.776   4.685 -0.1590  0.8713  0.4939
 1578SOL     OW16192   0.323   1.626   9.254 -0.0637  0.2949  0.2737
 1578SOL    HW116193   0.307   1.696   9.191 -2.9986 -0.7060 -0.1129
 1578SOL    HW216194   0.390   1.664   9.311 -0.2948  2.3373 -0.8100
 1579SOL     OW16195   3.573   0.484  13.358 -0.9829  0.0898  0.0547
 1579SOL    HW116196   3.556   0.515  13.447  0.8554 -0.4289  0.5826
 1579SOL    HW216197   3.534   0.397  13.347  2.0951 -1.7718  3.8153
 1580SOL     OW16198   1.549   0.749   7.938 -0.0312  0.3996  0.5722
 1580SOL    HW116199   1.476   0.792   7.894  2.3099  2.2917 -1.4960
 1580SOL    HW216200   1.600   0.819   7.979 -1.2901 -0.1584  3.0453
 1581SOL     OW16201   4.284   2.209   6.908  0.1288 -0.2092  0.4132
 1581SOL    HW116202   4.343   2.280   6.933  1.5822 -1.2963 -0.0006
 1581SOL    HW216203   4.318   2.165   6.831  0.4016  0.3530  0.2120
 1582SOL     OW16204   2.561   1.029   7.892  0.8029  0.3861 -0.1817
 1582SOL    HW116205   2.637   1.081   7.918  0.8878  0.4344 -0.5392
 1582SOL    HW216206   2.583   0.940   7.919  3.5587  0.8058 -1.0311
 1583SOL     OW16207   2.768   0.913   8.353 -1.0392  0.0466  0.1321
 1583SOL    HW116208   2.761   0.959   8.437  0.6223  0.2181  0.1720
 1583SOL    HW216209   2.700   0.847   8.364  0.5838 -1.6306 -0.0235
 1584SOL     OW16210   2.578   1.330  13.915 -0.4271 -0.1057  0.3894
 1584SOL    HW116211   2.631   1.381  13.854  0.3270 -1.5863 -0.1999
 1584SOL    HW216212   2.605   1.239  13.897 -0.2023  0.0851 -0.2460
 1585SOL     OW16213   3.801   0.518   7.206 -0.2786  0.4293 -0.2994
 1585SOL    HW116214   3.759   0.598   7.240  0.8067  0.3972  1.1348
 1585SOL    HW216215   3.864   0.551   7.142 -0.2049  0.8451 -0.0183
 1586SOL     OW16216   4.174   4.034   3.903 -0.3640  0.6113  0.3977
 1586SOL    HW116217   4.133   3.948   3.901 -1.2979  0.9573  4.8844
 1586SOL    HW216218   4.253   4.009   3.854 -0.3102  1.1840  0.1926
 1587SOL     OW16219   0.310   1.100   1.609 -0.0040  0.3626 -0.7301
 1587SOL    HW116220   0.317   1.138   1.521  3.1736 -0.0724 -0.6737
 1587SOL    HW216221   0.217   1.078   1.607 -0.1917  1.2887 -2.5304
 1588SOL     OW16222   4.218   2.941   0.893 -0.5768  0.3639 -0.0900
 1588SOL    HW116223   4.220   3.035   0.878 -1.6579  0.2173 -1.1518
 1588SOL    HW216224   4.305   2.924   0.859 -0.2470  0.8155  0.5451
 1589SOL     OW16225   3.727   3.968   4.305 -0.0473 -0.5304  0.7913
 1589SOL    HW116226   3.756   3.981   4.395  0.8099 -0.0866  0.4434
 1589SOL    HW216227   3.692   3.878   4.305 -0.4361 -0.3728 -1.4811
 1590SOL     OW16228   0.588   2.841   6.540  0.0325  0.1091  0.1381
 1590SOL    HW116229   0.605   2.871   6.451 -0.5405  0.2560  0.0815
 1590SOL    HW216230   0.588   2.927   6.583 -0.7139  1.1812 -2.0435
 1591SOL     OW16231   1.947   3.198  13.937  0.3411 -0.5629  0.2567
 1591SOL    HW116232   1.910   3.120  13.895 -2.1299 -0.3684  2.0756
 1591SOL    HW216233   1.964   3.247  13.856 -2.3812 -0.1132 -0.0535
 1592SOL     OW16234   0.347   3.271   3.814 -0.2332 -0.6674 -0.3504
 1592SOL    HW116235   0.321   3.362   3.799 -1.3658 -0.8258  0.7090
 1592SOL    HW216236   0.302   3.259   3.897  0.4935  0.1998  0.1616
 1593SOL     OW16237   1.142   1.342   7.574  0.2254 -0.7132  0.1570
 1593SOL    HW116238   1.150   1.354   7.668 -1.4440 -0.7217  0.3090
 1593SOL    HW216239   1.046   1.336   7.577  0.0397  1.8329 -0.6495
 1594SOL     OW16240   0.307   0.699   6.317  0.0991  0.2990  0.0138
 1594SOL    HW116241   0.349   0.749   6.247  1.0987  0.3718  0.6630
 1594SOL    HW216242   0.332   0.754   6.391 -0.4717  2.0494 -1.0942
 1595SOL     OW16243   3.253   1.440  16.923 -0.0948  0.3441  0.1304
 1595SOL    HW116244   3.239   1.491  16.843 -1.2541 -1.3578 -0.7435
 1595SOL    HW216245   3.268   1.351  16.891 -2.7868 -0.7358  1.8887
 1596SOL     OW16246   4.121   1.554   1.192 -0.1916 -0.3341  0.1296
 1596SOL    HW116247   4.183   1.500   1.143 -0.4498  0.0689 -0.6397
 1596SOL    HW216248   4.110   1.501   1.271  1.6516  0.1408  0.7179
 1597SOL     OW16249   0.307   0.114   5.938 -0.4924 -0.2074  0.7979
 1597SOL    HW116250   0.276   0.154   6.020  0.6690  0.0217  1.1283
 1597SOL    HW216251   0.395   0.081   5.953 -0.9570 -1.9480 -0.2712
 1598SOL     OW16252   0.277   3.292  13.242  0.6388 -0.0526 -0.4931
 1598SOL    HW116253   0.194   3.284  13.194 -0.7653 -1.0676  2.0816
 1598SOL    HW216254   0.293   3.203  13.273 -1.9148  0.3950  2.2099
 1599SOL     OW16255   1.500   3.781  10.229  0.4153 -0.3284  0.3568
 1599SOL    HW116256   1.569   3.846  10.237 -1.4068  1.7895 -1.3923
 1599SOL    HW216257   1.492   3.751  10.320  0.1786  1.6279  0.9715
 1600SOL     OW16258   4.161   3.681   7.315  0.3860 -0.1155 -0.1244
 1600SOL    HW116259   4.099   3.671   7.388  0.7812 -2.5724 -0.1042
 1600SOL    HW216260   4.099   3.662   7.245 -0.2237 -1.0563  0.6612
 1601SOL     OW16261   2.887   2.554   6.702  0.1930 -0.0508 -0.2030
 1601SOL    HW116262   2.941   2.485   6.740  1.8180  2.0006  1.2035
 1601SOL    HW216263   2.864   2.510   6.621  1.0707 -0.2008 -0.3644
 1602SOL     OW16264   1.612   4.610   0.007  0.1862  0.5402 -0.2277
 1602SOL    HW116265   1.540   4.605   0.069 -0.5208  0.1355 -1.0910
 1602SOL    HW216266   1.676   4.544   0.037 -0.1561  0.0736 -0.5235
 1603SOL     OW16267   0.051   4.144   5.028  0.1434  0.1820 -0.4969
 1603SOL    HW116268   0.078   4.054   5.008 -2.3048 -0.5869 -0.2485
 1603SOL    HW216269   0.104   4.152   5.107  0.5860  0.1571 -0.7872
 1604SOL     OW16270   0.241   4.630   3.600 -0.1585  0.1336  0.3149
 1604SOL    HW116271   0.258   4.705   3.657 -4.7105  1.1139  0.4122
 1604SOL    HW216272   0.280   4.663   3.520  0.1721 -1.6062 -0.2388
 1605SOL     OW16273   3.367   4.659   4.932 -0.4901 -0.2662 -0.2595
 1605SOL    HW116274   3.422   4.599   4.983 -0.8633  1.1032  1.7550
 1605SOL    HW216275   3.404   4.641   4.846  1.1631  2.1507 -0.0526
 1606SOL     OW16276   1.223   1.269   3.306  0.6772 -0.9218  0.1766
 1606SOL    HW116277   1.190   1.187   3.269  0.9354 -0.1610 -1.7459
 1606SOL    HW216278   1.308   1.270   3.263  0.9267 -0.7298  0.6765
 1607SOL     OW16279   0.380   4.562   2.705 -0.5322 -0.2503  0.1094
 1607SOL    HW116280   0.421   4.550   2.619  0.7776  1.7394  0.4498
 1607SOL    HW216281   0.328   4.641   2.692  1.4312  1.2147  1.1818
 1608SOL     OW16282   0.131   2.511  14.076 -0.6008 -0.3626  0.6813
 1608SOL    HW116283   0.199   2.488  14.014  0.2390 -1.1120  1.8785
 1608SOL    HW216284   0.081   2.575  14.025  1.2538  0.0759 -0.5651
 1609SOL     OW16285   4.118   0.427  15.667 -0.1888 -0.5753  0.1149
 1609SOL    HW116286   4.212   0.423  15.683 -0.4352 -1.6015  1.2561
 1609SOL    HW216287   4.127   0.422  15.572 -1.3573 -2.5675  0.1271
 1610SOL     OW16288   0.173   2.083   8.023 -0.3630 -0.1365  0.0717
 1610SOL    HW116289   0.170   2.162   8.077  0.1900  0.3220 -0.5730
 1610SOL    HW216290   0.263   2.053   8.028 -0.0887  0.5475 -0.8783
 1611SOL     OW16291   0.796   4.188  10.661  0.1681  0.0978  0.0266
 1611SOL    HW116292   0.869   4.135  10.691  1.2300  1.1934 -0.5973
 1611SOL    HW216293   0.787   4.246  10.736 -1.2012 -1.1597  0.8154
 1612SOL     OW16294   1.997   0.957   4.282  0.3837 -0.4552 -0.0766
 1612SOL    HW116295   2.035   0.872   4.304  0.9472  0.1134  1.1618
 1612SOL    HW216296   2.065   1.013   4.318 -0.3770 -0.5213  1.4698
 1613SOL     OW16297   1.396   3.117   6.732  0.1794 -0.0726 -0.0016
 1613SOL    HW116298   1.379   3.068   6.812 -2.6117  2.0933  0.7577
 1613SOL    HW216299   1.420   3.199   6.775 -3.2187 -0.4130  2.5564
 1614SOL     OW16300   2.975   3.015  11.949  0.4060 -0.8083 -0.0335
 1614SOL    HW116301   3.013   3.072  12.016 -0.0860 -0.3614 -0.1379
 1614SOL    HW216302   2.896   2.983  11.993 -1.1254 -0.5056 -2.5807
 1615SOL     OW16303   1.379   4.185   5.534 -0.1146  0.1309 -0.6796
 1615SOL    HW116304   1.473   4.177   5.519 -0.5490  0.4766 -3.5455
 1615SOL    HW216305   1.371   4.144   5.620 -0.0715  2.1525  0.2673
 1616SOL     OW16306   2.720   2.027   1.394  0.4206  0.3841  0.6352
 1616SOL    HW116307   2.791   2.078   1.432  0.9677 -1.7793  2.5596
 1616SOL    HW216308   2.658   2.096   1.369  1.9916  0.8702 -1.8373
 1617SOL     OW16309   2.671   1.516   9.822  0.1727  0.0694  0.0585
 1617SOL    HW116310   2.663   1.590   9.882  0.4880  0.1956 -0.0561
 1617SOL    HW216311   2.682   1.440   9.879  0.6700  0.5235  0.5716
 1618SOL     OW16312   0.395   2.911   5.525  0.0288 -0.3952  0.2881
 1618SOL    HW116313   0.362   2.888   5.438  0.0569  1.2758 -0.1639
 1618SOL    HW216314   0.414   2.824   5.559 -0.2402 -0.0006  1.4586
 1619SOL     OW16315   0.841   3.120   2.827  0.7985  0.2348 -0.1809
 1619SOL    HW116316   0.829   3.132   2.732  1.3034  1.9499 -0.0350
 1619SOL    HW216317   0.764   3.068   2.849  1.4128  0.0559  1.5579
 1620SOL     OW16318   3.523   2.356   8.068  0.4354 -0.0126 -0.5591
 1620SOL    HW116319   3.609   2.390   8.043  0.3709  0.1630 -0.5427
 1620SOL    HW216320   3.513   2.301   7.990 -1.5111 -0.5750  0.0962
 1621SOL     OW16321   0.972   0.955   7.260 -0.7838  0.0178  1.0191
 1621SOL    HW116322   1.056   0.917   7.233 -1.1958  1.4374 -2.2008
 1621SOL    HW216323   0.976   1.041   7.219 -1.8084 -0.4038  0.0346
 1622SOL     OW16324   1.475   1.337  16.040  0.0527 -0.4429 -0.2286
 1622SOL    HW116325   1.454   1.423  16.002  1.2938 -0.9146 -2.0182
 1622SOL    HW216326   1.521   1.365  16.119 -1.0162  1.2238 -0.1948
 1623SOL     OW16327   2.791   2.226   6.624  0.3875 -0.1654 -0.3995
 1623SOL    HW116328   2.708   2.273   6.618 -0.1611 -0.9321  1.1443
 1623SOL    HW216329   2.795   2.236   6.719 -0.8050  2.5712 -0.6349
 1624SOL     OW16330   2.982   2.495  14.606  0.0691  0.2921 -0.0156
 1624SOL    HW116331   2.915   2.451  14.554 -0.5120  1.7204 -0.4837
 1624SOL    HW216332   2.935   2.552  14.668  0.1295 -0.9767  1.2101
 1625SOL     OW16333   0.424   2.079   7.588  0.0317 -0.5684 -0.1277
 1625SOL    HW116334   0.496   2.049   7.644 -2.0523 -0.8954  2.3372
 1625SOL    HW216335   0.354   2.022   7.619  0.4913 -0.2508  1.4555
 1626SOL     OW16336   3.787   2.089   4.469  0.3819 -0.2227  0.2707
 1626SOL    HW116337   3.822   2.091   4.558 -0.1068 -0.8369  0.4796
 1626SOL    HW216338   3.853   2.141   4.423 -0.6662 -0.8199 -1.9095
 1627SOL     OW16339   1.615   4.463   0.571  0.0429  0.0656 -0.2785
 1627SOL    HW116340   1.543   4.439   0.629  1.7712 -1.0345  1.3955
 1627SOL    HW216341   1.669   4.389   0.597  0.7572  1.4168  2.1136
 1628SOL     OW16342   0.264   2.679   0.964 -0.3154 -0.2836 -0.1585
 1628SOL    HW116343   0.357   2.699   0.976 -0.8305 -0.4882  3.8919
 1628SOL    HW216344   0.231   2.766   0.986 -1.1279 -0.6411  0.0347
 1629SOL     OW16345   3.698   0.724   8.316 -0.2241  0.0623 -0.3315
 1629SOL    HW116346   3.673   0.642   8.359 -1.7372  0.7893  0.1949
 1629SOL    HW216347   3.648   0.791   8.363 -1.0648 -1.1821  0.5500
 1630SOL     OW16348   3.935   1.414   7.108  0.3218 -0.2408  0.1090
 1630SOL    HW116349   3.874   1.487   7.099  1.4031  0.6447 -0.0490
 1630SOL    HW216350   3.973   1.425   7.021  0.9940 -1.6123  0.2303
 1631SOL     OW16351   3.899   0.767  13.318 -0.1982 -0.0654 -0.0545
 1631SOL    HW116352   3.941   0.782  13.402 -1.5308  0.8888  0.4571
 1631SOL    HW216353   3.911   0.856  13.284  2.7605 -0.5160 -0.1249
 1632SOL     OW16354   1.136   0.102   3.698  0.6717  0.6087  0.2598
 1632SOL    HW116355   1.202   0.103   3.628 -0.4643 -1.4103 -0.8509
 1632SOL    HW216356   1.089   0.019   3.696  1.1340  0.3393  0.5990
 1633SOL     OW16357   2.153   1.025   2.681  0.3166  0.2820  0.0709
 1633SOL    HW116358   2.162   1.041   2.587 -0.2029  3.7318  0.6131
 1633SOL    HW216359   2.211   0.949   2.695 -1.3767 -1.4856 -2.4741
 1634SOL     OW16360   0.492   3.528   8.349 -0.6120  0.5352  0.1981
 1634SOL    HW116361   0.526   3.606   8.306 -2.6743  2.7304  2.6250
 1634SOL    HW216362   0.458   3.576   8.424 -0.9597 -0.1881  0.5057
 1635SOL     OW16363   1.385   1.094  13.361  0.1065  0.1955  0.0079
 1635SOL    HW116364   1.311   1.041  13.392  0.4934 -0.7325 -0.6399
 1635SOL    HW216365   1.457   1.031  13.370 -0.6791 -0.6255  0.6379
 1636SOL     OW16366   3.586   3.396   6.800 -0.1525  0.0928  0.3355
 1636SOL    HW116367   3.648   3.392   6.727 -2.1827  0.7164 -1.4156
 1636SOL    HW216368   3.528   3.327   6.767  0.8711 -0.7771  0.3800
 1637SOL     OW16369   3.795   2.869   6.182  0.0582  0.8229  0.1678
 1637SOL    HW116370   3.708   2.904   6.200 -0.2075  1.0326 -1.4754
 1637SOL    HW216371   3.791   2.864   6.086  3.7976  1.7976 -0.0644
 1638SOL     OW16372   1.409   3.216   7.767 -0.6919 -0.0572 -0.4314
 1638SOL    HW116373   1.385   3.242   7.679 -0.7401 -0.1718 -0.4520
 1638SOL    HW216374   1.503   3.236   7.777 -0.4865 -0.4740 -1.5472
 1639SOL     OW16375   1.426   3.515   7.029 -0.0145  0.7231 -0.6073
 1639SOL    HW116376   1.389   3.594   6.992 -1.3972  0.2505 -0.2203
 1639SOL    HW216377   1.412   3.457   6.954  1.6754 -0.6507  0.1385
 1640SOL     OW16378   1.135   4.267  11.106  0.1352 -0.3074 -0.0455
 1640SOL    HW116379   1.109   4.351  11.143 -1.7413 -1.4869  1.3421
 1640SOL    HW216380   1.048   4.242  11.077  0.0174  0.1686 -0.0863
 1641SOL     OW16381   2.472   2.450   8.733  0.0587  0.7213 -0.4128
 1641SOL    HW116382   2.539   2.382   8.728 -1.6702 -1.0002 -0.3516
 1641SOL    HW216383   2.436   2.450   8.821  0.0027 -0.8796 -0.4357
 1642SOL     OW16384   2.348   0.192   8.354 -0.2156 -0.5244  0.0426
 1642SOL    HW116385   2.313   0.280   8.344 -0.6385 -0.6334  0.6033
 1642SOL    HW216386   2.310   0.171   8.439 -0.1689 -1.6225 -0.2047
 1643SOL     OW16387   3.350   0.297   9.814 -0.1802 -0.1294  0.4879
 1643SOL    HW116388   3.346   0.391   9.798 -1.0448 -0.4716 -1.3292
 1643SOL    HW216389   3.394   0.272   9.733 -0.0131  0.5647  0.3674
 1644SOL     OW16390   3.007   1.911   8.614 -0.0876  0.0975  0.2060
 1644SOL    HW116391   3.046   1.951   8.536 -1.2865  0.8519 -0.0227
 1644SOL    HW216392   2.955   1.844   8.568  0.6547 -0.1656 -0.2411
 1645SOL     OW16393   0.131   3.369   1.902  0.1077  0.0984  0.0890
 1645SOL    HW116394   0.220   3.343   1.879 -0.8933 -2.7829 -0.4578
 1645SOL    HW216395   0.144   3.450   1.953  1.4344  0.8582 -1.4595
 1646SOL     OW16396   0.434   1.504  11.212  0.9111  0.2404  0.5098
 1646SOL    HW116397   0.449   1.599  11.210  0.7342  0.2465 -0.3963
 1646SOL    HW216398   0.518   1.479  11.252  2.1327 -0.4063 -2.4438
 1647SOL     OW16399   3.324   2.971   2.754  0.2187 -0.0074 -0.1606
 1647SOL    HW116400   3.407   2.992   2.795  0.5110 -0.5719 -0.4690
 1647SOL    HW216401   3.282   3.057   2.752 -1.7120 -0.9233  0.6396
 1648SOL     OW16402   2.963   1.622   8.644 -0.0828  0.1376 -0.0666
 1648SOL    HW116403   2.931   1.556   8.705  0.3457  1.4497  1.5835
 1648SOL    HW216404   3.050   1.639   8.679  0.0839 -1.8813  0.5301
 1649SOL     OW16405   1.789   4.440   4.740 -0.3119 -0.0329  0.0182
 1649SOL    HW116406   1.756   4.399   4.660  1.0173 -0.4713 -0.3057
 1649SOL    HW216407   1.847   4.500   4.693  1.2283 -2.0512 -0.6228
 1650SOL     OW16408   0.324   1.814  16.517 -0.2288  0.1889  0.1505
 1650SOL    HW116409   0.403   1.787  16.565  0.1366  0.3106 -0.3861
 1650SOL    HW216410   0.357   1.808  16.428  0.1196 -1.5063  0.3948
 1651SOL     OW16411   2.438   1.291  12.663 -0.3931  0.5316 -0.1570
 1651SOL    HW116412   2.474   1.311  12.749 -0.8328  0.1426  0.1183
 1651SOL    HW216413   2.349   1.326  12.674 -1.1931 -1.8120  0.6517
 1652SOL     OW16414   2.175   2.921   9.406  0.3191  0.0311 -0.4312
 1652SOL    HW116415   2.092   2.953   9.442 -0.5475 -0.8910 -1.6430
 1652SOL    HW216416   2.188   2.845   9.462  0.5180 -0.7296 -1.5182
 1653SOL     OW16417   4.594   0.295   7.149  0.2616 -0.6267  0.2378
 1653SOL    HW116418   4.614   0.379   7.190 -0.4013  0.3013 -1.3545
 1653SOL    HW216419   4.504   0.277   7.178  0.4257 -0.5451  0.7925
 1654SOL     OW16420   3.293   4.547   7.051  0.2298 -0.1212  0.0501
 1654SOL    HW116421   3.245   4.606   6.993 -1.5703 -0.1139  1.5345
 1654SOL    HW216422   3.371   4.544   6.997  0.3493 -1.1807  0.2801
 1655SOL     OW16423   3.582   1.850   7.260 -0.4866  0.4730  0.4625
 1655SOL    HW116424   3.569   1.825   7.352  0.8362  0.8586  0.7444
 1655SOL    HW216425   3.622   1.765   7.242  0.0152  0.4489  1.6634
 1656SOL     OW16426   2.993   0.179  13.276 -0.2228 -0.2981  0.3565
 1656SOL    HW116427   2.934   0.148  13.208  0.9984  1.6555 -1.6052
 1656SOL    HW216428   2.933   0.163  13.348 -0.6514 -0.5695 -0.0629
 1657SOL     OW16429   2.806   0.041  17.665 -0.2036 -0.0877  0.4447
 1657SOL    HW116430   2.882   0.004   0.024  1.2472  0.8855 -1.2071
 1657SOL    HW216431   2.795   4.695  17.598 -1.8437  1.0108 -0.3817
 1658SOL     OW16432   0.754   4.063   9.094 -0.2898  0.3229  0.3242
 1658SOL    HW116433   0.779   4.155   9.090  0.9827 -0.1384 -2.9377
 1658SOL    HW216434   0.803   4.019   9.024 -0.5079  1.9668 -0.8684
 1659SOL     OW16435   0.992   0.086   5.539 -0.0741  0.4123 -0.0351
 1659SOL    HW116436   1.075   0.102   5.584  0.1150 -2.3012  0.5429
 1659SOL    HW216437   0.979   0.178   5.515 -2.9319  0.2459  0.9186
 1660SOL     OW16438   0.386   0.694   5.444  0.6504 -0.0682  0.0021
 1660SOL    HW116439   0.299   0.698   5.483  1.0195  1.7710  0.6699
 1660SOL    HW216440   0.377   0.667   5.353 -2.5345 -0.9848  0.5867
 1661SOL     OW16441   4.561   2.414  11.762  1.1418 -0.2952 -0.2356
 1661SOL    HW116442   4.650   2.396  11.731  1.3361  0.7099 -0.2497
 1661SOL    HW216443   4.562   2.367  11.845 -0.2539 -0.1646 -0.1390
 1662SOL     OW16444   0.364   2.665   9.925  0.2576 -0.3075  0.4256
 1662SOL    HW116445   0.370   2.602   9.854 -1.4941  0.4791 -0.4328
 1662SOL    HW216446   0.433   2.643   9.988  1.4300  2.3203  0.0309
 1663SOL     OW16447   4.659   2.031   2.934  0.4412 -0.1045 -0.2208
 1663SOL    HW116448   4.602   2.080   2.875 -1.7238 -1.3771  0.8443
 1663SOL    HW216449   0.017   2.019   2.881  0.3753  0.8951 -0.5536
 1664SOL     OW16450   1.516   0.064   0.849 -0.0847 -0.9247  0.2547
 1664SOL    HW116451   1.440   0.017   0.884 -1.3345  2.0168  1.3939
 1664SOL    HW216452   1.500   0.072   0.755  1.7159 -0.8370 -0.0539
 1665SOL     OW16453   3.076   0.966   8.681  0.0907 -0.0189 -0.2125
 1665SOL    HW116454   3.088   1.058   8.658  0.9018 -0.3217 -1.0110
 1665SOL    HW216455   3.032   0.958   8.765 -1.0467 -1.8356 -0.9667
 1666SOL     OW16456   0.499   3.580  14.988 -0.2582  0.3514  0.1095
 1666SOL    HW116457   0.471   3.523  15.059 -0.6694 -0.1297 -0.4381
 1666SOL    HW216458   0.555   3.643  15.034  1.5988  0.5020 -2.3279
 1667SOL     OW16459   1.808   0.708  11.264  0.3364 -0.0950  0.3786
 1667SOL    HW116460   1.841   0.788  11.223  0.9599 -0.0825  0.8910
 1667SOL    HW216461   1.723   0.741  11.292 -0.2093 -0.6865 -0.6316
 1668SOL     OW16462   3.747   4.424  15.483 -0.4266  0.5704  1.0516
 1668SOL    HW116463   3.761   4.348  15.426 -0.6707 -0.0404  1.7996
 1668SOL    HW216464   3.833   4.420  15.524  0.6376 -0.0129 -1.2606
 1669SOL     OW16465   3.331   2.732   5.219 -0.1345  0.0429 -0.0658
 1669SOL    HW116466   3.334   2.798   5.288  1.3264 -0.7654  0.6436
 1669SOL    HW216467   3.415   2.691   5.241 -0.9757 -0.8691  1.4083
 1670SOL     OW16468   2.677   2.218   1.970 -0.1171  0.1817  0.1121
 1670SOL    HW116469   2.727   2.163   2.030 -2.1531 -1.2857  0.4298
 1670SOL    HW216470   2.635   2.276   2.034 -1.7304 -1.4341  0.4933
 1671SOL     OW16471   0.438   2.066   5.476 -0.0453 -0.3781  0.4783
 1671SOL    HW116472   0.440   2.061   5.380 -2.1651  1.6311  0.3423
 1671SOL    HW216473   0.528   2.093   5.494  0.0658 -0.0907 -0.4993
 1672SOL     OW16474   0.936   3.026  13.331 -0.2247  0.6359 -0.4948
 1672SOL    HW116475   0.897   2.942  13.354 -0.7842  1.2121  0.6506
 1672SOL    HW216476   1.027   3.010  13.356 -0.8611  1.2580  2.2487
 1673SOL     OW16477   0.549   1.157  11.615  0.6783 -0.1125 -0.7844
 1673SOL    HW116478   0.466   1.203  11.603  0.6648  0.1220  0.2307
 1673SOL    HW216479   0.541   1.131  11.707  0.8923 -1.0309 -1.0208
 1674SOL     OW16480   1.617   3.770  14.849  0.4009  0.1938 -0.0423
 1674SOL    HW116481   1.694   3.806  14.894  0.4418 -0.9258  0.7628
 1674SOL    HW216482   1.650   3.731  14.769  1.2136  0.2560  0.2639
 1675SOL     OW16483   0.643   3.447   8.643  0.4017 -0.1576  0.2918
 1675SOL    HW116484   0.733   3.429   8.669 -0.6377 -3.9937  1.2713
 1675SOL    HW216485   0.601   3.362   8.658 -0.4731  0.3454  0.6826
 1676SOL     OW16486   3.343   0.270  13.543 -0.4239 -0.1594  0.1371
 1676SOL    HW116487   3.436   0.290  13.544 -0.2163 -1.1474 -1.1789
 1676SOL    HW216488   3.340   0.177  13.564 -0.7083 -0.1102  0.3236
 1677SOL     OW16489   1.512   3.215   8.823  0.6880 -0.0193 -0.0768
 1677SOL    HW116490   1.426   3.189   8.790 -0.4530  3.7444 -0.0975
 1677SOL    HW216491   1.493   3.256   8.907 -1.2294  1.6318 -1.3023
 1678SOL     OW16492   4.382   3.500   9.300  0.5298  0.4146  0.1448
 1678SOL    HW116493   4.387   3.407   9.325  0.4564  0.2060 -0.6070
 1678SOL    HW216494   4.352   3.539   9.382  1.9989  0.1822  0.7927
 1679SOL     OW16495   3.807   4.654  12.511  0.1071 -0.2295 -0.1059
 1679SOL    HW116496   3.877   4.691  12.566  1.2061  0.3184 -1.8770
 1679SOL    HW216497   3.767   4.601  12.580 -0.6993  0.0872 -0.3331
 1680SOL     OW16498   0.527   1.745  14.233 -0.0249 -0.2630  0.4221
 1680SOL    HW116499   0.495   1.818  14.181  0.2515  0.1552  0.8436
 1680SOL    HW216500   0.540   1.682  14.162 -0.6327  0.6214 -0.4635
 1681SOL     OW16501   1.546   2.953   7.298 -0.3372 -0.0610  0.4087
 1681SOL    HW116502   1.602   2.974   7.373 -0.8070  0.2659  0.6643
 1681SOL    HW216503   1.600   2.974   7.222  0.6003  2.9386  1.8980
 1682SOL     OW16504   3.730   2.238   6.945 -0.5871 -0.0236 -0.3572
 1682SOL    HW116505   3.794   2.294   6.902 -2.8601  1.5296 -1.7060
 1682SOL    HW216506   3.730   2.170   6.878 -1.7576  1.6113 -1.9987
 1683SOL     OW16507   3.879   3.824   3.893  0.3019  0.0044  0.5291
 1683SOL    HW116508   3.876   3.751   3.954  3.7910 -0.8017 -0.2893
 1683SOL    HW216509   3.959   3.795   3.850  0.3971 -0.5298  1.0662
 1684SOL     OW16510   2.798   2.287  11.920  0.5985  0.0933 -0.2390
 1684SOL    HW116511   2.761   2.202  11.898  1.9450  0.1668 -2.6920
 1684SOL    HW216512   2.807   2.327  11.834  3.7277 -3.1509 -1.4140
 1685SOL     OW16513   1.604   1.322   2.762  0.9589 -0.3148  0.0367
 1685SOL    HW116514   1.649   1.406   2.767 -2.1627  1.4179 -0.6947
 1685SOL    HW216515   1.649   1.281   2.836  1.1901  0.1305  0.1433
 1686SOL     OW16516   0.563   4.238  17.087  0.2453 -0.0783 -0.2504
 1686SOL    HW116517   0.523   4.233  17.174  1.2094  1.1370  0.2584
 1686SOL    HW216518   0.610   4.321  17.080  2.4814 -1.4627 -1.3907
 1687SOL     OW16519   3.161   0.417  12.217 -0.5504  0.2856  0.0949
 1687SOL    HW116520   3.085   0.428  12.160  0.2717  3.1368 -0.4316
 1687SOL    HW216521   3.136   0.346  12.276  0.5824  1.7564  2.3519
 1688SOL     OW16522   1.831   0.657   3.962 -0.4302  0.3950  0.0463
 1688SOL    HW116523   1.775   0.610   4.025 -1.0640  0.9715 -0.0803
 1688SOL    HW216524   1.772   0.719   3.920 -2.5145  1.2486  4.1508
 1689SOL     OW16525   0.741   0.525   8.266  0.4672  0.3536 -0.6199
 1689SOL    HW116526   0.769   0.439   8.297  0.9222  1.0079  0.7527
 1689SOL    HW216527   0.769   0.579   8.340  1.1657 -1.0330  0.1231
 1690SOL     OW16528   0.273   4.711   5.452  0.0693 -0.3313  0.0729
 1690SOL    HW116529   0.236   0.006   5.539 -0.6221 -0.7957 -0.1403
 1690SOL    HW216530   0.338   0.060   5.461 -0.4762  0.4737 -2.3551
 1691SOL     OW16531   1.731   2.341   4.477 -0.2627  0.0085  0.0454
 1691SOL    HW116532   1.803   2.279   4.483 -0.2131  0.1997  1.3682
 1691SOL    HW216533   1.764   2.414   4.425  0.7734 -0.4313  0.0986
 1692SOL     OW16534   2.657   1.192   1.924  0.1537 -0.1540  0.0264
 1692SOL    HW116535   2.602   1.142   1.984  0.8601 -0.4047  0.4711
 1692SOL    HW216536   2.701   1.250   1.986  2.5374 -2.9869  0.9715
 1693SOL     OW16537   4.257   1.143   7.765  0.6512 -0.4141  0.4096
 1693SOL    HW116538   4.278   1.237   7.769  0.6946 -0.3633 -0.9367
 1693SOL    HW216539   4.343   1.104   7.781  0.4541 -0.6722  0.8322
 1694SOL     OW16540   4.113   3.428   3.601  0.1712  0.0433 -0.2797
 1694SOL    HW116541   4.111   3.414   3.507 -1.7698  0.3385 -0.2702
 1694SOL    HW216542   4.204   3.406   3.625  0.1563  1.8340  1.4519
 1695SOL     OW16543   1.083   0.884   7.971 -0.5151 -0.4323 -0.0361
 1695SOL    HW116544   1.170   0.856   7.944 -1.4117 -0.6236 -2.7812
 1695SOL    HW216545   1.033   0.868   7.891  0.7858 -2.4675 -0.4470
 1696SOL     OW16546   3.575   3.526   4.849 -0.0659  0.2456  0.0357
 1696SOL    HW116547   3.587   3.600   4.789  1.2117  0.7116  0.8757
 1696SOL    HW216548   3.657   3.522   4.898 -0.1324 -0.6444  0.0750
 1697SOL     OW16549   3.167   2.259  15.004  0.3232  0.4203 -0.2184
 1697SOL    HW116550   3.118   2.191  14.957  2.0190 -0.5301 -0.6021
 1697SOL    HW216551   3.246   2.207  15.018 -0.4707 -0.3018  1.6418
 1698SOL     OW16552   3.316   3.758   7.141 -0.0960  0.8016 -0.4687
 1698SOL    HW116553   3.272   3.734   7.060  0.5207  0.8982 -0.8338
 1698SOL    HW216554   3.345   3.669   7.164 -0.0469  1.1378  0.7490
 1699SOL     OW16555   4.493   0.307   2.429 -0.1548 -0.1074  0.1302
 1699SOL    HW116556   4.462   0.388   2.388  1.2023  1.3268  1.9234
 1699SOL    HW216557   4.562   0.283   2.367  0.1657  0.1981  0.3645
 1700SOL     OW16558   2.046   4.045   1.547 -0.1130  0.6016 -0.3308
 1700SOL    HW116559   2.038   3.952   1.570 -1.3376 -0.5745 -5.5617
 1700SOL    HW216560   1.971   4.082   1.594  0.9938 -0.3041  2.1564
 1701SOL     OW16561   0.834   1.557   2.143 -0.5022 -0.3330 -0.0421
 1701SOL    HW116562   0.877   1.632   2.102 -1.6704  2.7253  4.2681
 1701SOL    HW216563   0.774   1.610   2.195  0.8901 -0.8094  2.0943
 1702SOL     OW16564   4.218   4.163   3.046 -0.5999 -0.3105 -0.2757
 1702SOL    HW116565   4.264   4.246   3.060 -1.3952  0.2277 -0.9155
 1702SOL    HW216566   4.208   4.153   2.952  0.9694 -2.1357 -0.2520
 1703SOL     OW16567   3.449   2.869   8.355 -0.1681  0.0652 -0.2129
 1703SOL    HW116568   3.532   2.872   8.403 -1.5857 -2.2639  2.3674
 1703SOL    HW216569   3.394   2.827   8.421 -0.3017  3.3300  1.7467
 1704SOL     OW16570   1.605   1.407   0.530 -0.0424 -0.1015  0.4554
 1704SOL    HW116571   1.524   1.377   0.488 -0.4031 -0.0840  1.1400
 1704SOL    HW216572   1.587   1.406   0.624  0.6155 -3.4115  0.5437
 1705SOL     OW16573   4.712   0.309   7.841 -0.3901 -0.7071  0.0643
 1705SOL    HW116574   4.633   0.261   7.818 -1.6174  0.8786  0.9328
 1705SOL    HW216575   4.675   0.396   7.860  0.7354 -0.0894 -0.5690
 1706SOL     OW16576   0.171   1.476  11.378 -0.3688  0.1470 -0.3540
 1706SOL    HW116577   0.129   1.562  11.374 -0.1897  0.2448 -0.1143
 1706SOL    HW216578   0.236   1.493  11.310 -1.6278 -1.4095 -1.9332
 1707SOL     OW16579   0.789   4.367   9.012 -0.3729  0.1204 -0.3312
 1707SOL    HW116580   0.877   4.379   8.978 -0.4097  1.4323  0.0310
 1707SOL    HW216581   0.743   4.403   8.936  0.6711  0.7351 -0.6544
 1708SOL     OW16582   2.416   2.735   3.958 -0.4549 -0.3803 -0.1592
 1708SOL    HW116583   2.458   2.818   3.934  2.3781 -1.7892 -0.1393
 1708SOL    HW216584   2.394   2.756   4.049 -1.9513  1.0237 -0.8609
 1709SOL     OW16585   1.644   4.551  14.369 -0.1600 -0.0419 -0.2846
 1709SOL    HW116586   1.678   4.462  14.377  0.0420  0.0846  0.2467
 1709SOL    HW216587   1.584   4.549  14.444 -0.3491  2.1051 -0.3710
 1710SOL     OW16588   4.394   0.680   6.700  0.2298  0.2847 -0.7425
 1710SOL    HW116589   4.460   0.678   6.769  0.5787 -0.2718 -1.0890
 1710SOL    HW216590   4.456   0.697   6.628  1.1802  0.1093  0.0355
 1711SOL     OW16591   2.486   1.924  14.225 -0.1193  0.0032  0.9093
 1711SOL    HW116592   2.460   1.832  14.221  1.1858 -0.2649 -1.2898
 1711SOL    HW216593   2.536   1.922  14.307  0.8108  2.6651  0.3883
 1712SOL     OW16594   2.496   2.247   8.313  0.5403  0.4985  0.6919
 1712SOL    HW116595   2.528   2.198   8.388  1.6031 -0.8058 -0.6185
 1712SOL    HW216596   2.500   2.172   8.253  1.8940  0.9182  0.2658
 1713SOL     OW16597   1.917   2.659  15.129 -0.1360 -0.4214 -0.0155
 1713SOL    HW116598   1.969   2.739  15.142 -1.6670  0.7729 -1.2379
 1713SOL    HW216599   1.873   2.675  15.045 -1.3447 -0.1770  0.6696
 1714SOL     OW16600   4.227   4.252   4.922 -0.7946  0.2469  0.2051
 1714SOL    HW116601   4.215   4.335   4.969 -3.6164 -1.0991  1.8707
 1714SOL    HW216602   4.313   4.232   4.958 -1.1269  2.3711  2.1855
 1715SOL     OW16603   0.775   4.483  10.645  0.0595  0.0904  0.3773
 1715SOL    HW116604   0.821   4.411  10.603 -0.0327 -0.6519  1.5512
 1715SOL    HW216605   0.773   4.461  10.738  0.4494  0.0032  0.3651
 1716SOL     OW16606   2.946   0.008  13.972 -0.0979 -0.5640  0.2344
 1716SOL    HW116607   2.921   4.656  13.916 -0.3176 -1.5266  1.5775
 1716SOL    HW216608   2.929   0.083  13.915  0.6729  0.1044  0.8915
 1717SOL     OW16609   0.479   4.443  17.481 -0.1558 -0.2980  0.0427
 1717SOL    HW116610   0.387   4.450  17.457  0.2118  0.2451 -1.1991
 1717SOL    HW216611   0.484   4.530  17.521  0.2329  0.2115 -1.0845
 1718SOL     OW16612   1.785   0.249   6.506 -0.0256  0.0226  0.4102
 1718SOL    HW116613   1.765   0.183   6.440  1.2697 -0.4656  0.4987
 1718SOL    HW216614   1.712   0.310   6.503 -0.6189 -0.5782  2.7242
 1719SOL     OW16615   1.960   3.946   3.240  0.0346 -0.2669  0.0916
 1719SOL    HW116616   1.941   3.879   3.305  0.1382 -1.7640 -1.4286
 1719SOL    HW216617   2.021   3.905   3.178  0.5059  0.9118 -0.2438
 1720SOL     OW16618   0.911   0.282   1.715 -0.3139 -0.2165 -0.9564
 1720SOL    HW116619   0.864   0.251   1.792  0.6558  1.2462  0.2235
 1720SOL    HW216620   0.916   0.376   1.732 -2.0775 -0.2687 -0.2375
 1721SOL     OW16621   3.769   2.449   3.387 -0.1911  0.1283 -0.1207
 1721SOL    HW116622   3.853   2.416   3.356 -0.7231 -1.3698  0.0094
 1721SOL    HW216623   3.805   2.516   3.445  1.3142 -0.7105 -0.0797
 1722SOL     OW16624   1.628   0.696   6.666  0.0979 -0.4422  0.7606
 1722SOL    HW116625   1.717   0.729   6.652 -0.0258 -0.0722  0.8263
 1722SOL    HW216626   1.574   0.754   6.612 -0.6011 -0.9928  0.8613
 1723SOL     OW16627   1.816   2.211   8.150  0.4139 -0.2141  0.2417
 1723SOL    HW116628   1.775   2.297   8.146 -1.2059 -0.9671  0.4810
 1723SOL    HW216629   1.783   2.184   8.236  0.3214 -1.3996 -0.1569
 1724SOL     OW16630   4.500   2.132   9.025 -0.2503  0.5858  0.5131
 1724SOL    HW116631   4.500   2.196   9.096 -2.8422 -0.9250  1.8616
 1724SOL    HW216632   4.593   2.142   9.003  0.2393  1.8300  3.1313
 1725SOL     OW16633   2.673   4.253   7.829 -0.0962  0.4259  0.5652
 1725SOL    HW116634   2.755   4.303   7.820 -1.3473  2.3055 -0.3743
 1725SOL    HW216635   2.697   4.192   7.899 -0.2842 -1.2457 -0.8307
 1726SOL     OW16636   1.218   4.482   6.627 -0.4046 -0.5179 -0.0758
 1726SOL    HW116637   1.231   4.512   6.717  3.6545  2.6979 -1.6815
 1726SOL    HW216638   1.206   4.387   6.631  1.5942 -0.6222  2.9287
 1727SOL     OW16639   4.445   1.392   6.756 -0.3848  0.2546 -0.4833
 1727SOL    HW116640   4.525   1.425   6.798 -0.7322  0.9983 -0.3979
 1727SOL    HW216641   4.457   1.437   6.672 -1.1511  0.9491 -0.2228
 1728SOL     OW16642   2.521   1.175   6.978 -0.3284  0.5635  0.0758
 1728SOL    HW116643   2.481   1.249   7.025 -2.2527 -1.8916  2.3184
 1728SOL    HW216644   2.455   1.108   6.993 -2.4594  2.5222 -0.4553
 1729SOL     OW16645   0.835   2.022   5.757 -0.4705 -0.1591 -0.1772
 1729SOL    HW116646   0.756   2.068   5.784 -0.4612 -0.4308  0.3054
 1729SOL    HW216647   0.889   2.027   5.835 -1.7745  1.8333  0.5791
 1730SOL     OW16648   0.412   4.420   8.938  0.1528  0.3862 -0.5189
 1730SOL    HW116649   0.446   4.333   8.922  0.7431  0.4247  0.4986
 1730SOL    HW216650   0.476   4.490   8.921  2.5702 -1.2427  1.9047
 1731SOL     OW16651   2.755   4.445   3.518  0.2997  0.0998  0.0588
 1731SOL    HW116652   2.795   4.438   3.431  0.7460 -0.9587  0.3438
 1731SOL    HW216653   2.820   4.395   3.568  1.0414  0.0206 -0.9865
 1732SOL     OW16654   0.203   2.637  10.810  0.0178  0.3976 -0.0681
 1732SOL    HW116655   0.231   2.554  10.772 -0.1267 -0.4482  1.6844
 1732SOL    HW216656   0.109   2.622  10.800  0.1482 -0.2139 -0.3810
 1733SOL     OW16657   3.974   2.028   6.157  0.4021  0.0394 -0.3205
 1733SOL    HW116658   4.037   1.956   6.159  1.3896  0.8291 -2.5509
 1733SOL    HW216659   3.909   1.980   6.208  1.1766 -0.0569  0.5642
 1734SOL     OW16660   3.776   0.887  10.997  0.5407  0.2675  0.3672
 1734SOL    HW116661   3.797   0.865  11.088 -1.0640 -3.8074 -0.2455
 1734SOL    HW216662   3.681   0.873  10.989  0.9529 -2.1345 -0.1042
 1735SOL     OW16663   3.764   2.181   3.493  0.2334 -0.7397  0.1050
 1735SOL    HW116664   3.842   2.167   3.546  1.1058 -1.3711 -1.3632
 1735SOL    HW216665   3.808   2.214   3.415 -1.0324  1.4310  0.2781
 1736SOL     OW16666   4.330   1.103   1.254  0.0477  0.0755  0.1112
 1736SOL    HW116667   4.393   1.036   1.225  2.2967  0.9011  3.1357
 1736SOL    HW216668   4.247   1.081   1.211 -0.2830 -0.7802  1.1666
 1737SOL     OW16669   3.021   3.401   3.508 -0.1191 -0.1467 -0.2283
 1737SOL    HW116670   3.064   3.336   3.452 -0.2777 -0.8450  0.4668
 1737SOL    HW216671   2.926   3.386   3.503  0.1602 -1.6297 -1.1247
 1738SOL     OW16672   2.843   2.785  14.743  0.0181 -0.0113  0.1140
 1738SOL    HW116673   2.754   2.784  14.778  0.0977  1.0247  0.3434
 1738SOL    HW216674   2.881   2.735  14.815 -2.2351 -1.3767  0.3658
 1739SOL     OW16675   0.197   3.294  10.486  0.3263 -0.3674  0.4421
 1739SOL    HW116676   0.210   3.386  10.463 -2.2375 -0.2985 -0.7569
 1739SOL    HW216677   0.248   3.294  10.567  1.2574 -0.4701 -0.1374
 1740SOL     OW16678   0.691   0.170  15.010 -0.6377 -0.1516 -0.0146
 1740SOL    HW116679   0.707   0.194  14.919  0.6268 -0.0671  0.2264
 1740SOL    HW216680   0.616   0.225  15.034  0.6407  1.2911  0.7218
 1741SOL     OW16681   3.343   4.538   1.769  0.6439 -0.1704 -0.0498
 1741SOL    HW116682   3.349   4.599   1.842 -0.5025  1.6199 -1.4490
 1741SOL    HW216683   3.250   4.514   1.766  0.9194 -1.4645  2.0185
 1742SOL     OW16684   3.047   3.303  16.314 -0.1595  0.0197 -0.6308
 1742SOL    HW116685   2.975   3.333  16.258 -0.1072  1.9603  0.3521
 1742SOL    HW216686   3.011   3.326  16.400  0.7752  2.5318 -0.9084
 1743SOL     OW16687   0.472   2.421  10.736 -0.4588  0.5014 -0.3310
 1743SOL    HW116688   0.395   2.402  10.681 -2.9134  1.5424  2.7547
 1743SOL    HW216689   0.444   2.434  10.826  1.5616  2.8984 -0.0450
 1744SOL     OW16690   2.282   3.688   5.472  0.8674  0.4389 -0.5846
 1744SOL    HW116691   2.337   3.760   5.506 -0.6417  0.8110  1.0484
 1744SOL    HW216692   2.319   3.616   5.523  1.2736 -0.2881 -1.9113
 1745SOL     OW16693   3.411   2.097   8.581 -0.0569  0.2108  0.1628
 1745SOL    HW116694   3.389   2.049   8.661  2.8916  1.3828  1.6493
 1745SOL    HW216695   3.481   2.148   8.621  0.1072  1.6240 -1.9038
 1746SOL     OW16696   2.044   3.228   2.373  0.3771  0.3287 -0.2772
 1746SOL    HW116697   2.021   3.255   2.284 -1.4880 -1.2455 -0.2552
 1746SOL    HW216698   2.041   3.312   2.419  0.0358 -0.1904  0.6452
 1747SOL     OW16699   4.003   2.979   8.517 -0.1252  0.5095  0.2042
 1747SOL    HW116700   4.059   2.918   8.565  0.0739 -0.1853 -0.9164
 1747SOL    HW216701   4.074   3.009   8.459 -1.0458 -0.1305 -1.2425
 1748SOL     OW16702   3.634   0.744   2.385  0.3286  0.2400 -0.5100
 1748SOL    HW116703   3.727   0.722   2.394  0.0524 -1.2480 -1.3146
 1748SOL    HW216704   3.647   0.809   2.316  1.7339 -0.8708 -1.2796
 1749SOL     OW16705   2.990   0.473   6.629 -0.3238  0.4003 -0.5845
 1749SOL    HW116706   3.038   0.400   6.591 -2.7605 -0.3957 -2.0725
 1749SOL    HW216707   3.057   0.522   6.678  0.5405 -0.1528 -1.2103
 1750SOL     OW16708   2.196   1.625  16.112  0.0818  0.2219 -0.2481
 1750SOL    HW116709   2.139   1.700  16.101 -1.7101 -0.9621  0.9376
 1750SOL    HW216710   2.201   1.594  16.021  0.7197 -4.1137  1.2231
 1751SOL     OW16711   1.950   3.787   6.126 -0.1060  0.2812 -1.0289
 1751SOL    HW116712   1.981   3.824   6.208  3.2860  0.0215 -2.2081
 1751SOL    HW216713   1.956   3.861   6.067  2.3590 -0.1055 -1.2491
 1752SOL     OW16714   4.236   1.339   4.639  0.3974 -0.8834  0.0866
 1752SOL    HW116715   4.313   1.345   4.583 -0.1376 -1.5264 -0.7174
 1752SOL    HW216716   4.164   1.368   4.583 -0.2559 -1.5586  0.5735
 1753SOL     OW16717   4.247   1.181   3.221  0.3354  0.2872  0.2909
 1753SOL    HW116718   4.204   1.251   3.171  2.0200  1.2637  0.2057
 1753SOL    HW216719   4.339   1.192   3.196 -0.4133 -0.3539 -2.8454
 1754SOL     OW16720   2.018   1.940   1.352 -0.2761  0.9194 -0.7404
 1754SOL    HW116721   2.027   2.018   1.297  0.5897  1.6620  0.4582
 1754SOL    HW216722   2.000   1.975   1.440 -1.6761 -1.3113 -0.1515
 1755SOL     OW16723   0.861   0.029   8.074 -0.0316 -0.0467 -0.1414
 1755SOL    HW116724   0.812   0.033   7.992 -2.2102  0.4330  1.1819
 1755SOL    HW216725   0.798   0.068   8.134 -1.0988 -0.6259 -0.8865
 1756SOL     OW16726   4.403   1.634   1.575  0.8388  0.3327  0.4264
 1756SOL    HW116727   4.327   1.586   1.544 -0.0251  0.7608  1.9078
 1756SOL    HW216728   4.371   1.724   1.582 -0.1761 -0.0118  0.2018
 1757SOL     OW16729   1.653   3.825   3.294  0.6548  0.3443  0.4003
 1757SOL    HW116730   1.730   3.883   3.296  0.5937  0.4705 -1.0851
 1757SOL    HW216731   1.663   3.787   3.207 -1.5619 -0.8068  0.6717
 1758SOL     OW16732   3.194   0.422   2.756  0.4061 -0.1510 -0.4299
 1758SOL    HW116733   3.201   0.518   2.751 -0.1896 -0.0410  0.8302
 1758SOL    HW216734   3.099   0.413   2.763  0.1275  1.9108 -1.4166
 1759SOL     OW16735   1.671   4.358  17.408 -0.2406  0.1011 -0.4057
 1759SOL    HW116736   1.662   4.269  17.374 -0.4318 -0.0302 -0.0071
 1759SOL    HW216737   1.747   4.388  17.358 -1.5139  1.7249 -1.3702
 1760SOL     OW16738   4.340   2.830   1.928  0.3614 -0.2373  0.1253
 1760SOL    HW116739   4.400   2.884   1.877 -1.4305  0.9391 -0.7390
 1760SOL    HW216740   4.260   2.874   1.900 -0.4146 -3.0066 -2.0131
 1761SOL     OW16741   3.518   1.862   3.710 -0.2263  0.0978  0.0367
 1761SOL    HW116742   3.498   1.918   3.635  0.0193  0.6900  0.4158
 1761SOL    HW216743   3.600   1.818   3.690 -0.5981  1.0859 -3.6521
 1762SOL     OW16744   2.308   1.861   6.071 -1.0162  0.6000  0.3273
 1762SOL    HW116745   2.222   1.824   6.090 -0.0033 -1.5754  0.7735
 1762SOL    HW216746   2.329   1.805   5.996 -0.6644 -1.0635  1.6707
 1763SOL     OW16747   0.741   0.591   6.266  0.6034 -0.3523 -0.3507
 1763SOL    HW116748   0.805   0.537   6.312  0.4044 -0.2912 -0.0038
 1763SOL    HW216749   0.773   0.592   6.176 -0.8649 -0.5790 -0.8637
 1764SOL     OW16750   3.463   3.580   5.085 -0.1815 -0.0073 -0.1420
 1764SOL    HW116751   3.473   3.546   4.996 -1.2738  0.2202 -0.3437
 1764SOL    HW216752   3.508   3.664   5.084 -1.3566  0.6152 -0.1984
 1765SOL     OW16753   1.616   3.357  11.102  0.3631 -0.3178  0.0888
 1765SOL    HW116754   1.701   3.401  11.106 -0.6409  1.6584 -0.1574
 1765SOL    HW216755   1.640   3.282  11.047  0.0438 -0.5512  0.2703
 1766SOL     OW16756   0.585   0.897   5.462  0.0183  0.4646  0.7335
 1766SOL    HW116757   0.516   0.852   5.414  0.7563 -2.1981  2.1948
 1766SOL    HW216758   0.590   0.856   5.548  1.6769 -0.4936  0.1643
 1767SOL     OW16759   2.967   0.786   5.521 -0.3880 -0.3258 -0.1228
 1767SOL    HW116760   2.930   0.845   5.588  2.8759  0.6579  0.8254
 1767SOL    HW216761   2.999   0.842   5.451  1.0356 -2.0298 -0.8267
 1768SOL     OW16762   2.020   0.549   6.385  0.1323  0.1906  0.5086
 1768SOL    HW116763   2.095   0.602   6.356  1.7114 -1.9453  0.6965
 1768SOL    HW216764   2.026   0.535   6.479 -2.1618  0.1230  0.6317
 1769SOL     OW16765   2.118   4.676   7.363  0.0597 -0.3760  0.0289
 1769SOL    HW116766   2.152   4.587   7.361  0.0413 -0.3629 -0.8471
 1769SOL    HW216767   2.033   4.659   7.405  0.1513  1.9388  1.1310
 1770SOL     OW16768   1.282   0.698   7.383  0.3101  0.1902  0.1939
 1770SOL    HW116769   1.268   0.766   7.449  0.6846  0.0160  0.4501
 1770SOL    HW216770   1.250   0.617   7.422  1.9099  0.0909  1.2791
 1771SOL     OW16771   2.654   1.800   4.961  0.4825  0.2982 -0.0198
 1771SOL    HW116772   2.593   1.740   5.004 -0.5675  0.2154 -1.6160
 1771SOL    HW216773   2.715   1.736   4.922  0.4208  0.6955 -0.7728
 1772SOL     OW16774   3.352   3.738   2.888  0.3857  0.0600  0.4259
 1772SOL    HW116775   3.347   3.667   2.824  0.5516 -1.2920  1.9219
 1772SOL    HW216776   3.273   3.725   2.939 -0.3808  3.4060  0.1328
 1773SOL     OW16777   4.426   0.426   5.428  0.1965 -0.4257  0.3782
 1773SOL    HW116778   4.419   0.369   5.504 -2.2401  0.6910  1.0063
 1773SOL    HW216779   4.404   0.364   5.358 -1.4810  1.2943 -0.6079
 1774SOL     OW16780   1.242   3.720   6.399  0.5135  0.0621 -0.1631
 1774SOL    HW116781   1.306   3.786   6.427  1.8667 -1.3008 -0.0432
 1774SOL    HW216782   1.281   3.678   6.322  0.5032 -2.1207  1.0383
 1775SOL     OW16783   0.050   2.161   1.708  0.1492  0.2197 -0.2848
 1775SOL    HW116784   4.710   2.223   1.749 -0.2610  0.9219 -1.9596
 1775SOL    HW216785   0.135   2.189   1.742 -1.5384  4.0968  0.7700
 1776SOL     OW16786   2.330   2.630   1.019  0.7335  0.2086  0.4174
 1776SOL    HW116787   2.306   2.547   0.978  1.5864 -0.3824  1.1199
 1776SOL    HW216788   2.392   2.592   1.081  2.2969  1.8471 -0.1378
 1777SOL     OW16789   0.407   2.134  17.559 -0.1928 -0.8674 -0.6043
 1777SOL    HW116790   0.381   2.131  17.651 -0.1538  0.1696 -0.5554
 1777SOL    HW216791   0.501   2.152  17.565 -0.8504  1.9030  1.3647
 1778SOL     OW16792   3.063   4.664  16.827 -0.2057 -0.3704 -0.1707
 1778SOL    HW116793   3.066   0.030  16.868  1.0045 -0.0582 -0.9230
 1778SOL    HW216794   3.107   4.677  16.743 -0.1223 -0.9828 -0.2268
 1779SOL     OW16795   1.155   1.615   7.769  0.3360  0.4370  0.2669
 1779SOL    HW116796   1.169   1.529   7.810  1.1778  0.1339 -0.6593
 1779SOL    HW216797   1.236   1.627   7.721 -1.1937  2.2248 -1.8767
 1780SOL     OW16798   3.825   3.344  11.764 -0.0656  0.6455 -0.3896
 1780SOL    HW116799   3.732   3.365  11.753  0.4928  1.5678 -3.2293
 1780SOL    HW216800   3.834   3.268  11.706 -1.4753  0.1931 -0.0320
 1781SOL     OW16801   3.365   2.566   4.324 -0.0776  0.2900 -0.0612
 1781SOL    HW116802   3.311   2.499   4.282  0.7767  0.4229 -1.3746
 1781SOL    HW216803   3.455   2.539   4.305  0.5921  0.9804  2.0942
 1782SOL     OW16804   3.399   1.791   6.760 -0.3380 -0.3964  0.0366
 1782SOL    HW116805   3.459   1.726   6.797  1.1884  0.0024 -1.7450
 1782SOL    HW216806   3.313   1.785   6.801  0.2129  0.3863  1.3114
 1783SOL     OW16807   3.743   0.891   9.324  0.5922  0.2716 -0.4134
 1783SOL    HW116808   3.810   0.914   9.260  0.9129  0.0020 -0.1743
 1783SOL    HW216809   3.788   0.928   9.400  1.5698 -1.6364 -0.0479
 1784SOL     OW16810   0.707   4.257  13.559 -0.9623  0.0435 -0.3746
 1784SOL    HW116811   0.629   4.204  13.550  0.3101 -2.1984  1.8069
 1784SOL    HW216812   0.740   4.253  13.649  1.5264  0.5667 -1.2692
 1785SOL     OW16813   4.144   4.336   0.929 -0.1159 -0.7688  0.1216
 1785SOL    HW116814   4.232   4.322   0.894  0.9315  0.0722  2.4125
 1785SOL    HW216815   4.157   4.320   1.023  0.9760  0.3341  0.1516
 1786SOL     OW16816   0.574   4.676   6.036  0.4772 -0.1266  0.4317
 1786SOL    HW116817   0.646   4.615   6.016 -1.3811 -3.0999  2.7859
 1786SOL    HW216818   0.519   4.621   6.092  0.6059  0.9861  1.6407
 1787SOL     OW16819   0.721   3.983  16.161 -0.4504  0.2105  0.2872
 1787SOL    HW116820   0.775   3.938  16.226  1.1432  0.9833 -0.4866
 1787SOL    HW216821   0.792   4.039  16.128  0.8153 -1.7618 -0.3363
 1788SOL     OW16822   2.266   2.684  10.468  0.3376 -0.6240  0.2965
 1788SOL    HW116823   2.342   2.741  10.454 -1.4472  2.5505  3.6797
 1788SOL    HW216824   2.200   2.747  10.440 -1.2765 -1.8832  1.2287
 1789SOL     OW16825   2.672   0.755   5.375 -0.3089 -0.0665  0.1882
 1789SOL    HW116826   2.704   0.838   5.411 -1.8770  0.4936  0.2702
 1789SOL    HW216827   2.720   0.691   5.428 -1.4004 -0.2341  0.9615
 1790SOL     OW16828   3.242   3.994   3.851  0.3283  0.0533  0.1754
 1790SOL    HW116829   3.157   3.969   3.888 -0.5428  0.6564 -1.3811
 1790SOL    HW216830   3.301   3.957   3.916 -1.0747 -1.5626  0.5431
 1791SOL     OW16831   3.974   2.232  14.196 -0.0250 -0.1968 -0.0375
 1791SOL    HW116832   3.926   2.197  14.271 -0.7819 -0.7753 -0.7928
 1791SOL    HW216833   3.999   2.321  14.218 -2.1787  0.2564  0.5866
 1792SOL     OW16834   2.456   4.148  16.114  0.4331  0.0484 -0.1833
 1792SOL    HW116835   2.426   4.130  16.025 -2.0103  0.8873  0.4867
 1792SOL    HW216836   2.532   4.206  16.115  0.6330 -0.2159 -0.0852
 1793SOL     OW16837   0.372   2.499   6.073 -0.0483 -0.0589  0.2483
 1793SOL    HW116838   0.312   2.563   6.111 -0.6297 -0.4805  0.0392
 1793SOL    HW216839   0.343   2.419   6.118 -0.6976 -0.0960 -0.2449
 1794SOL     OW16840   0.893   4.618   5.040 -0.1990  0.4655 -0.4585
 1794SOL    HW116841   0.985   4.623   5.066 -0.1982 -0.0325 -0.3630
 1794SOL    HW216842   0.906   4.566   4.960 -1.2199 -2.1179  1.0589
 1795SOL     OW16843   1.740   3.646   7.008 -0.0301 -0.2433  0.4263
 1795SOL    HW116844   1.732   3.739   7.027  0.4783 -0.1076 -0.0059
 1795SOL    HW216845   1.709   3.645   6.918  1.0399 -0.5580  0.0554
 1796SOL     OW16846   3.217   2.824   6.905  0.2396  0.2730 -0.1432
 1796SOL    HW116847   3.223   2.881   6.982 -1.4202  1.9244 -1.2232
 1796SOL    HW216848   3.224   2.734   6.938 -0.4272 -0.1752 -1.2434
 1797SOL     OW16849   4.120   4.136  13.676 -0.0905 -0.7803  0.4557
 1797SOL    HW116850   4.182   4.130  13.604  0.8204 -0.4398  1.2203
 1797SOL    HW216851   4.161   4.210  13.722  1.3460 -0.7987 -0.8155
 1798SOL     OW16852   4.239   1.797  14.017  0.3176 -0.1271  0.4155
 1798SOL    HW116853   4.239   1.702  14.031  0.1225 -0.6052 -2.8405
 1798SOL    HW216854   4.147   1.807  13.994 -0.0646 -1.1404  1.5052
 1799SOL     OW16855   0.207   2.389  11.446 -0.3514 -0.1040 -0.2855
 1799SOL    HW116856   0.222   2.296  11.428  1.7035 -0.4090  2.9755
 1799SOL    HW216857   0.117   2.391  11.477 -0.6021  0.1019 -1.0368
 1800SOL     OW16858   2.005   4.151   4.294  0.4703  0.0377  0.4364
 1800SOL    HW116859   1.968   4.075   4.339  2.4241 -1.3310 -0.2849
 1800SOL    HW216860   2.028   4.120   4.207 -0.2844 -1.6085  0.8237
 1801SOL     OW16861   0.146   3.143  14.301 -0.9333 -0.7610  0.1423
 1801SOL    HW116862   0.116   3.144  14.210  2.1817 -1.0561 -0.8839
 1801SOL    HW216863   0.145   3.237  14.322  2.1972 -0.9891  1.2348
 1802SOL     OW16864   0.156   4.647   9.159  0.5106  0.2986  0.0701
 1802SOL    HW116865   0.089   4.641   9.091 -0.0805 -1.5132  0.8099
 1802SOL    HW216866   0.157   4.553   9.177  0.4996 -0.2242 -2.7255
 1803SOL     OW16867   1.255   2.826   3.803  0.3515  0.2121 -0.3683
 1803SOL    HW116868   1.260   2.745   3.854  0.4061  0.7905  0.5453
 1803SOL    HW216869   1.161   2.834   3.788  0.6267  0.6650 -1.8929
 1804SOL     OW16870   2.542   0.918  12.403  0.0330 -0.2214 -0.1820
 1804SOL    HW116871   2.635   0.905  12.384  0.3674  1.4423  0.3239
 1804SOL    HW216872   2.496   0.901  12.321 -0.7116  0.1559  0.1584
 1805SOL     OW16873   0.539   3.098   7.900 -0.4733 -0.3215 -0.2950
 1805SOL    HW116874   0.454   3.130   7.870 -1.1554 -1.4218  0.4541
 1805SOL    HW216875   0.507   3.040   7.969 -2.6371 -0.8191 -1.7188
 1806SOL     OW16876   0.180   3.566   7.343  0.2909  0.1688  0.0194
 1806SOL    HW116877   0.135   3.648   7.363  0.4248  0.0099  0.9515
 1806SOL    HW216878   0.261   3.587   7.389  0.8298 -0.2146 -0.7508
 1807SOL     OW16879   3.562   4.241   0.173  0.2539 -0.0254 -0.1280
 1807SOL    HW116880   3.534   4.156   0.208  0.0371  0.1723  0.1843
 1807SOL    HW216881   3.494   4.300   0.204 -0.5053 -1.6748  1.3533
 1808SOL     OW16882   1.684   3.360   8.657 -0.3401  0.2785 -0.2992
 1808SOL    HW116883   1.613   3.307   8.693  1.0816 -0.0002  2.1116
 1808SOL    HW216884   1.636   3.438   8.629  0.3596  0.4046 -1.1561
 1809SOL     OW16885   1.553   4.018   6.674 -0.8436 -0.0514 -0.1469
 1809SOL    HW116886   1.637   3.991   6.637 -0.4382 -0.3904  1.0173
 1809SOL    HW216887   1.568   4.112   6.685  3.2625 -0.9916  2.6778
 1810SOL     OW16888   0.294   1.015   4.183  0.3496  0.0434  0.2567
 1810SOL    HW116889   0.270   1.004   4.275  0.9746 -0.8007  0.3211
 1810SOL    HW216890   0.208   1.032   4.143  1.6986  0.4062 -2.4668
 1811SOL     OW16891   0.613   2.236   6.189  0.6321 -0.9510  0.8076
 1811SOL    HW116892   0.640   2.151   6.156 -1.0380  0.1285 -3.2288
 1811SOL    HW216893   0.640   2.302   6.125 -1.7000 -1.7041 -0.9157
 1812SOL     OW16894   3.131   3.369   8.390  0.0264  0.5005  0.1337
 1812SOL    HW116895   3.123   3.452   8.344 -0.4747  0.6619  0.5222
 1812SOL    HW216896   3.227   3.359   8.388 -0.0217  0.0013  0.1126
 1813SOL     OW16897   4.420   1.093   5.649 -0.0404  0.0015 -0.4354
 1813SOL    HW116898   4.328   1.096   5.674  0.0458  0.9050 -0.2116
 1813SOL    HW216899   4.418   1.117   5.556  0.4705  0.8381 -0.2358
 1814SOL     OW16900   3.698   1.639   7.413 -0.1792 -0.2735  0.6866
 1814SOL    HW116901   3.688   1.637   7.508 -0.5007  3.0199  0.7099
 1814SOL    HW216902   3.718   1.546   7.397 -0.0290 -0.5459  2.4334
 1815SOL     OW16903   1.596   1.217   4.217  0.0690  0.0685  0.1598
 1815SOL    HW116904   1.612   1.132   4.176  1.3158 -0.7271  2.3305
 1815SOL    HW216905   1.664   1.275   4.182  1.4285 -1.8284 -0.3229
 1816SOL     OW16906   1.265   3.917   4.017 -0.2890  0.7576  0.0062
 1816SOL    HW116907   1.293   3.943   4.105  4.2699 -1.8050 -0.6864
 1816SOL    HW216908   1.242   3.824   4.023 -1.0656  0.8762 -1.1718
 1817SOL     OW16909   3.125   2.190  12.673 -0.6831  0.5550 -0.2215
 1817SOL    HW116910   3.143   2.161  12.584 -1.0510 -0.3970  0.0118
 1817SOL    HW216911   3.033   2.215  12.663 -0.8424  0.4158  0.9459
 1818SOL     OW16912   2.077   4.624   1.592  0.2128  0.0832  0.0120
 1818SOL    HW116913   2.169   4.645   1.608 -0.1179  0.7743  1.0800
 1818SOL    HW216914   2.064   4.677   1.513  1.5503  3.3398  1.9414
 1819SOL     OW16915   3.079   2.119   6.317 -0.3345  0.1810 -0.4662
 1819SOL    HW116916   2.994   2.122   6.362 -0.1700 -1.0049 -0.0808
 1819SOL    HW216917   3.116   2.199   6.354 -1.4214  0.8135 -0.7133
 1820SOL     OW16918   1.685   3.181   6.969  0.5625  0.0938  0.3758
 1820SOL    HW116919   1.653   3.097   7.001  2.2956 -1.4744 -2.0286
 1820SOL    HW216920   1.778   3.174   6.988  0.7841 -1.7828 -1.4800
 1821SOL     OW16921   1.588   2.601   0.876  0.5420 -0.4441  0.0711
 1821SOL    HW116922   1.615   2.510   0.869  3.5999  0.6572 -2.2561
 1821SOL    HW216923   1.523   2.595   0.946  2.1273 -3.1334  1.3270
 1822SOL     OW16924   1.062   2.769   1.964  0.7229  0.2005  0.2479
 1822SOL    HW116925   0.970   2.747   1.976  0.5842  1.3329  1.2800
 1822SOL    HW216926   1.069   2.808   1.877  0.6490  0.9501  0.5781
 1823SOL     OW16927   0.412   1.744   8.298 -0.0078  0.9717  0.3407
 1823SOL    HW116928   0.426   1.780   8.385 -1.1094  0.0151  0.9160
 1823SOL    HW216929   0.330   1.696   8.309 -0.0463  1.0954  0.5898
 1824SOL     OW16930   3.574   1.480   2.330  0.3278 -0.3335 -0.1639
 1824SOL    HW116931   3.598   1.570   2.306  2.9485 -1.0126 -0.0402
 1824SOL    HW216932   3.532   1.456   2.247  0.7263 -0.0021 -0.4605
 1825SOL     OW16933   3.907   3.419  16.129 -0.0295 -0.3105 -0.9514
 1825SOL    HW116934   3.812   3.430  16.139 -0.4146 -1.4362 -3.2180
 1825SOL    HW216935   3.909   3.350  16.062  0.7362 -0.2343 -1.0007
 1826SOL     OW16936   4.464   1.678   3.861 -0.4644  0.3778  0.3289
 1826SOL    HW116937   4.552   1.657   3.893 -0.8362 -0.3160  0.9044
 1826SOL    HW216938   4.450   1.595   3.816  0.9944  0.4022 -0.1616
 1827SOL     OW16939   2.642   0.160   4.556  0.4389  0.0667 -0.0045
 1827SOL    HW116940   2.656   0.176   4.649  1.8735 -0.5744 -0.1215
 1827SOL    HW216941   2.593   0.077   4.552  1.1132 -0.4580  2.5919
 1828SOL     OW16942   0.394   1.782  14.684 -0.6681 -0.2564 -0.2166
 1828SOL    HW116943   0.366   1.749  14.599  0.8829 -4.5233  0.9503
 1828SOL    HW216944   0.361   1.872  14.677  0.3305 -0.0909 -2.5863
 1829SOL     OW16945   1.927   2.825   6.236 -0.1303  1.1436  0.6084
 1829SOL    HW116946   1.871   2.869   6.299  0.3322  1.2615  0.9438
 1829SOL    HW216947   1.938   2.886   6.163  1.4498 -0.6848 -0.6931
 1830SOL     OW16948   0.933   2.241   5.336 -0.4881 -0.1712 -0.4749
 1830SOL    HW116949   0.884   2.194   5.404 -2.5132 -0.3500 -2.0523
 1830SOL    HW216950   1.015   2.268   5.377  0.2859 -1.4679 -1.1763
 1831SOL     OW16951   0.454   3.535   9.368  0.2874 -0.1393 -0.5248
 1831SOL    HW116952   0.543   3.567   9.385  0.3356 -1.7006  2.0713
 1831SOL    HW216953   0.465   3.447   9.403  0.4891 -0.1152 -0.5266
 1832SOL     OW16954   0.017   0.409   8.895 -0.4686  0.8421  0.0310
 1832SOL    HW116955   4.677   0.424   8.822  1.4766  0.2235 -1.7130
 1832SOL    HW216956   0.008   0.493   8.941 -2.1557  0.6206  0.1252
 1833SOL     OW16957   1.237   2.361   3.599  0.2494  0.2172 -0.2004
 1833SOL    HW116958   1.270   2.448   3.624 -2.6104  1.8754 -2.1509
 1833SOL    HW216959   1.253   2.355   3.504 -0.6280 -3.0778 -0.1269
 1834SOL     OW16960   1.426   3.176  10.661  0.0173  0.6488  0.4613
 1834SOL    HW116961   1.401   3.229  10.737 -0.4237 -0.7004  1.2704
 1834SOL    HW216962   1.345   3.125  10.663  1.5706 -1.8387  0.3866
 1835SOL     OW16963   0.870   1.458   5.348  0.5806  0.9558 -0.2794
 1835SOL    HW116964   0.840   1.547   5.367 -0.5838  0.5797 -0.3410
 1835SOL    HW216965   0.787   1.417   5.323  0.3878  1.3622 -0.2943
 1836SOL     OW16966   0.236   0.171   5.092  0.1547 -0.3618 -0.2786
 1836SOL    HW116967   0.227   0.149   4.999  1.2101  0.7970 -0.6487
 1836SOL    HW216968   0.328   0.150   5.103 -0.2866 -2.3705 -0.3989
 1837SOL     OW16969   2.948   3.079   5.126  0.1243 -0.3333  0.3859
 1837SOL    HW116970   2.959   3.150   5.062  0.0555 -2.1796 -1.6657
 1837SOL    HW216971   3.001   3.011   5.086  0.7540 -0.1471  0.9120
 1838SOL     OW16972   4.471   2.806   3.051 -0.3467  0.1081  0.2804
 1838SOL    HW116973   4.382   2.839   3.044 -0.0321  1.2894  1.8187
 1838SOL    HW216974   4.502   2.782   2.964 -1.7929  1.8595 -0.6999
 1839SOL     OW16975   3.581   3.406   3.780 -0.0903  0.0936  0.4535
 1839SOL    HW116976   3.607   3.314   3.785 -0.0929 -0.0030 -1.0524
 1839SOL    HW216977   3.595   3.427   3.872  0.9897 -1.3579  0.6366
 1840SOL     OW16978   3.653   2.826   5.601 -0.6922 -0.5157 -0.1667
 1840SOL    HW116979   3.733   2.777   5.621  0.9033  1.4196 -1.8226
 1840SOL    HW216980   3.662   2.823   5.506  1.5663 -1.1326  0.0797
 1841SOL     OW16981   2.852   3.330   4.436 -0.1072  0.2707 -0.4067
 1841SOL    HW116982   2.902   3.346   4.357  0.3050  2.6350  0.3354
 1841SOL    HW216983   2.780   3.284   4.392  0.0093 -0.0966 -0.2143
 1842SOL     OW16984   1.119   2.773   9.287 -0.1222 -0.4141 -0.0930
 1842SOL    HW116985   1.203   2.771   9.241  0.1727  0.8273  0.3690
 1842SOL    HW216986   1.072   2.700   9.247 -1.0060  0.5076 -0.7325
 1843SOL     OW16987   3.362   4.429   0.277  0.2127 -0.1949 -0.3246
 1843SOL    HW116988   3.401   4.512   0.252  0.5417 -0.3630 -0.3656
 1843SOL    HW216989   3.409   4.414   0.359 -0.9399  1.2606  0.5963
 1844SOL     OW16990   2.122   3.874  15.068 -0.4140  0.6125 -0.4810
 1844SOL    HW116991   2.040   3.875  15.020 -1.3507  1.5978  1.1162
 1844SOL    HW216992   2.124   3.963  15.103  4.2652  0.1857  0.3854
 1845SOL     OW16993   3.034   1.743   5.591 -0.1241  0.2075 -0.2159
 1845SOL    HW116994   3.008   1.790   5.669  2.2851  0.9258  0.1513
 1845SOL    HW216995   3.050   1.822   5.539 -0.7568 -0.5122 -1.5144
 1846SOL     OW16996   3.035   4.617   3.912  0.4464  0.0623  0.6795
 1846SOL    HW116997   2.964   4.636   3.852  0.0167 -0.3285  1.0685
 1846SOL    HW216998   3.026   4.522   3.914 -0.0915  0.0752 -1.1894
 1847SOL     OW16999   3.157   0.147  14.024 -0.0849 -0.3550 -0.3112
 1847SOL    HW117000   3.076   0.098  14.010  0.0138 -0.4555 -0.5236
 1847SOL    HW217001   3.199   0.100  14.096  0.6197  0.1649 -0.3851
 1848SOL     OW17002   0.441   2.964   3.514 -0.9707  0.0372 -0.2097
 1848SOL    HW117003   0.365   3.018   3.535 -0.6281  0.6217 -0.4481
 1848SOL    HW217004   0.416   2.881   3.474  0.1100  0.9930 -2.8740
 1849SOL     OW17005   0.442   3.143   9.556 -0.5957  0.3587  0.0716
 1849SOL    HW117006   0.533   3.121   9.575 -0.6963 -0.0236  0.1149
 1849SOL    HW217007   0.422   3.210   9.621  1.0231  0.8426  0.0688
 1850SOL     OW17008   1.219   2.003   1.903  0.3860 -0.0291 -0.3420
 1850SOL    HW117009   1.303   2.041   1.878  0.9558  0.5639  2.4100
 1850SOL    HW217010   1.237   1.944   1.977  0.7488  1.6812  0.9382
 1851SOL     OW17011   0.378   1.340   7.713  0.4455  0.2034 -0.1216
 1851SOL    HW117012   0.317   1.395   7.663  0.0056 -0.0878  0.0945
 1851SOL    HW217013   0.331   1.257   7.722 -0.4861  0.5012 -2.1792
 1852SOL     OW17014   2.667   1.992  10.386 -0.4414 -0.0935 -0.1555
 1852SOL    HW117015   2.714   2.018  10.465 -0.5552  1.7068 -0.6871
 1852SOL    HW217016   2.649   1.902  10.412 -1.0858 -0.4238 -1.7757
 1853SOL     OW17017   0.617   2.794   4.666 -0.2756 -0.1889 -0.2610
 1853SOL    HW117018   0.697   2.752   4.697 -1.6498 -1.9985  0.8524
 1853SOL    HW217019   0.612   2.765   4.575 -0.5803 -0.9153 -0.0153
 1854SOL     OW17020   4.575   1.230   2.103 -0.2490 -0.2698  0.5762
 1854SOL    HW117021   4.657   1.220   2.053  0.4530  1.3152  1.4216
 1854SOL    HW217022   4.568   1.324   2.121  2.0020  0.1006 -0.3781
 1855SOL     OW17023   3.093   1.278   7.437  0.2471 -1.0909  0.2946
 1855SOL    HW117024   3.026   1.309   7.498  0.5376  1.5800 -0.7627
 1855SOL    HW217025   3.178   1.311   7.465 -0.7086  0.9120  0.7754
 1856SOL     OW17026   2.721   0.762  13.098  0.0731  0.5639  0.3753
 1856SOL    HW117027   2.812   0.735  13.109  0.6545  1.9588 -1.0372
 1856SOL    HW217028   2.726   0.811  13.016 -1.7513  0.7508  0.3813
 1857SOL     OW17029   1.351   2.408   6.437 -0.0668  0.2354 -0.0969
 1857SOL    HW117030   1.331   2.430   6.528 -0.1790 -0.3313  0.0148
 1857SOL    HW217031   1.400   2.328   6.456  0.3935  1.0223  2.0082
 1858SOL     OW17032   1.612   3.315   4.412  0.2706 -0.9924  0.5043
 1858SOL    HW117033   1.517   3.310   4.398  0.0596  1.2779  1.1064
 1858SOL    HW217034   1.618   3.383   4.479  1.8037 -0.1946 -0.4726
 1859SOL     OW17035   2.513   3.305   9.089 -0.4440  0.3596  0.3473
 1859SOL    HW117036   2.488   3.328   9.178  2.6650  0.6895  1.1443
 1859SOL    HW217037   2.451   3.238   9.063  0.7200 -1.0689  1.2329
 1860SOL     OW17038   0.859   0.122   2.581 -0.1111  0.2269 -0.2493
 1860SOL    HW117039   0.793   0.054   2.593  1.7081 -1.5000  0.0933
 1860SOL    HW217040   0.928   0.069   2.540 -0.3311 -1.7712  1.9537
 1861SOL     OW17041   4.437   2.064   6.703  0.5846 -0.7494  0.0393
 1861SOL    HW117042   4.433   2.014   6.621 -2.0372 -1.1703  0.4244
 1861SOL    HW217043   4.469   2.148   6.668 -1.6896 -0.1942 -0.6649
 1862SOL     OW17044   3.866   1.357   8.197 -0.3725  0.0855  0.1290
 1862SOL    HW117045   3.837   1.276   8.156  0.2144 -0.0369 -0.0394
 1862SOL    HW217046   3.799   1.417   8.166 -0.3341 -0.6167 -1.2994
 1863SOL     OW17047   0.571   3.885   9.137 -0.0901 -0.8187  0.3784
 1863SOL    HW117048   0.638   3.952   9.127 -0.3913 -0.5291  0.3066
 1863SOL    HW217049   0.614   3.826   9.199  0.2705 -1.9515 -0.9396
 1864SOL     OW17050   3.771   2.014   2.992 -0.0541 -0.1118  0.1337
 1864SOL    HW117051   3.730   2.097   2.968  0.4733 -0.5337 -2.1696
 1864SOL    HW217052   3.738   1.952   2.927 -1.4415 -0.2087  0.9238
 1865SOL     OW17053   4.459   2.634  14.638  0.5397  0.6170  0.0444
 1865SOL    HW117054   4.366   2.654  14.638  0.1101 -1.3166  2.0734
 1865SOL    HW217055   4.459   2.545  14.604  0.2420  0.1868  1.1570
 1866SOL     OW17056   1.496   4.171   7.449  0.2302 -0.5890 -0.2137
 1866SOL    HW117057   1.496   4.260   7.484  0.2519 -0.9138  0.6268
 1866SOL    HW217058   1.562   4.137   7.510  1.9536 -0.7039 -2.1626
 1867SOL     OW17059   4.655   0.775   4.957  0.6534  0.0723 -0.1062
 1867SOL    HW117060   4.663   0.844   5.023 -1.0241 -1.1775  1.4093
 1867SOL    HW217061   4.603   0.823   4.891 -2.3207 -0.9291  1.5125
 1868SOL     OW17062   1.798   0.334   1.799 -0.4518  0.2710  0.6323
 1868SOL    HW117063   1.790   0.295   1.712  0.6747 -0.8690  1.0285
 1868SOL    HW217064   1.867   0.396   1.778 -1.2458  1.2696  0.9879
 1869SOL     OW17065   1.079   4.091   4.799 -0.2653 -0.1051 -0.2729
 1869SOL    HW117066   1.091   3.999   4.775  1.1240 -0.1955  0.7846
 1869SOL    HW217067   1.075   4.075   4.893  1.1625 -0.2109 -0.2266
 1870SOL     OW17068   4.379   0.640   4.436 -0.2678 -0.1665 -0.0378
 1870SOL    HW117069   4.444   0.579   4.470  0.2781 -0.4355 -1.5571
 1870SOL    HW217070   4.404   0.651   4.344 -2.0840  0.8468 -0.4111
 1871SOL     OW17071   4.380   1.365   0.052  0.3681  0.1084  0.3028
 1871SOL    HW117072   4.449   1.431   0.049 -1.8874  2.5426  1.3719
 1871SOL    HW217073   4.417   1.279   0.036 -2.3214 -0.8580 -0.7800
 1872SOL     OW17074   1.114   2.760   6.340 -0.0655 -0.4387 -0.1553
 1872SOL    HW117075   1.133   2.794   6.428  0.9744 -1.7371  0.1282
 1872SOL    HW217076   1.207   2.748   6.321  0.0018 -1.1982  0.6158
 1873SOL     OW17077   1.835   0.555   7.366  0.7676 -0.1474  0.3317
 1873SOL    HW117078   1.839   0.478   7.423  0.3804  1.0042  1.9376
 1873SOL    HW217079   1.763   0.599   7.412  0.9561 -0.3903  0.8602
 1874SOL     OW17080   0.853   0.592   6.000 -0.1471  0.4276  0.3827
 1874SOL    HW117081   0.936   0.625   6.035 -0.2492 -0.1181  1.1448
 1874SOL    HW217082   0.877   0.608   5.908  0.3948  1.0701  0.6369
 1875SOL     OW17083   1.144   1.346   7.873  0.0083  0.6179  0.9379
 1875SOL    HW117084   1.059   1.325   7.913 -1.7629  4.0250 -1.0436
 1875SOL    HW217085   1.200   1.334   7.950  1.4554 -0.9492 -0.3689
 1876SOL     OW17086   4.668   3.646   8.375 -0.3450  0.3435 -0.3824
 1876SOL    HW117087   0.003   3.581   8.418 -0.6148 -0.6349 -1.5183
 1876SOL    HW217088   0.007   3.701   8.325 -1.4495  3.1019  1.3149
 1877SOL     OW17089   4.281   2.881   4.658  0.3890  0.7673  0.4151
 1877SOL    HW117090   4.203   2.827   4.649  1.1066 -0.3524  0.9294
 1877SOL    HW217091   4.275   2.939   4.582  3.3305 -0.1735 -0.5439
 1878SOL     OW17092   2.093   3.564   6.416  0.2390 -0.2475  0.1196
 1878SOL    HW117093   2.123   3.560   6.325  1.2875  1.3122  0.3952
 1878SOL    HW217094   2.181   3.570   6.453  0.1963 -0.3055  0.2308
 1879SOL     OW17095   3.505   0.700   4.217 -0.3997 -0.3022 -0.5580
 1879SOL    HW117096   3.417   0.719   4.184 -0.8961 -0.2052  0.8158
 1879SOL    HW217097   3.472   0.655   4.296 -2.0738  0.0651 -1.0404
 1880SOL     OW17098   1.129   0.557   2.682  0.2216 -0.2377 -0.0768
 1880SOL    HW117099   1.216   0.559   2.642 -1.1754 -0.3170 -3.1655
 1880SOL    HW217100   1.113   0.464   2.693  1.1862 -0.0413  2.8516
 1881SOL     OW17101   0.613   2.950   1.440  0.2068  0.5018  0.3903
 1881SOL    HW117102   0.676   3.008   1.484  1.6478 -0.1944 -0.7825
 1881SOL    HW217103   0.543   2.946   1.505  0.2257 -3.8857  0.1244
 1882SOL     OW17104   4.184   2.202  14.017 -0.9919  0.0595 -0.5539
 1882SOL    HW117105   4.126   2.192  14.093 -0.6018  0.4059 -0.2068
 1882SOL    HW217106   4.239   2.125  14.033 -0.4206  0.7385  0.7762
 1883SOL     OW17107   1.652   4.508   7.916  0.3220  0.4444  0.4666
 1883SOL    HW117108   1.619   4.536   8.002  1.1770  1.9158  0.3198
 1883SOL    HW217109   1.618   4.419   7.911  0.4464  0.5638 -2.1729
 1884SOL     OW17110   2.690   1.085  16.336 -0.3864 -0.5194  0.1001
 1884SOL    HW117111   2.670   1.107  16.246  0.1305 -2.0242 -0.3908
 1884SOL    HW217112   2.713   0.992  16.328 -1.6672 -0.9877  1.8453
 1885SOL     OW17113   2.306   1.107  13.817 -0.0054 -0.5081 -0.3944
 1885SOL    HW117114   2.270   1.194  13.831  0.2199 -0.7879  1.9332
 1885SOL    HW217115   2.396   1.131  13.796  0.3486 -2.0820 -0.6976
 1886SOL     OW17116   4.355   2.794   8.260  0.5148  0.4709 -0.0947
 1886SOL    HW117117   4.289   2.841   8.312  0.0413 -0.2891 -0.0138
 1886SOL    HW217118   4.429   2.853   8.277  0.1051  0.9203  0.1402
 1887SOL     OW17119   3.025   0.868   2.565 -1.0313 -0.7298 -0.1906
 1887SOL    HW117120   3.083   0.940   2.540 -1.6066 -0.7019 -1.4237
 1887SOL    HW217121   2.946   0.917   2.586  0.4730  2.2703 -1.6169
 1888SOL     OW17122   0.732   3.971  13.179 -1.0757  0.0141 -0.6184
 1888SOL    HW117123   0.740   3.904  13.247  0.9025 -0.1733 -1.0463
 1888SOL    HW217124   0.650   4.011  13.209  0.0002  0.9948  1.0054
 1889SOL     OW17125   1.147   4.323   0.796  0.2422 -0.1209  0.2148
 1889SOL    HW117126   1.068   4.374   0.774 -0.8655 -2.6157 -1.6439
 1889SOL    HW217127   1.128   4.308   0.888 -2.1662 -1.1844 -0.4324
 1890SOL     OW17128   0.005   0.106   5.925  0.0711 -0.0342 -0.2626
 1890SOL    HW117129   0.087   0.115   5.974  0.6625 -3.1212 -0.6766
 1890SOL    HW217130   4.711   0.199   5.905  2.9982  0.2303 -1.1958
 1891SOL     OW17131   2.176   0.595   8.771  0.3853 -0.0764 -0.0044
 1891SOL    HW117132   2.133   0.655   8.833  2.1184  0.3781  0.7524
 1891SOL    HW217133   2.158   0.510   8.811  1.3159  0.6757  2.0291
 1892SOL     OW17134   1.327   0.545   3.933 -0.4625 -0.1017  0.4973
 1892SOL    HW117135   1.270   0.483   3.888  0.2729 -0.3972 -0.0173
 1892SOL    HW217136   1.413   0.535   3.891 -0.0864  0.1711  1.1974
 1893SOL     OW17137   4.496   3.863   5.659  0.3750  0.0137  0.2436
 1893SOL    HW117138   4.584   3.871   5.622  0.3309 -0.7033 -0.0143
 1893SOL    HW217139   4.522   3.859   5.751  1.2780  0.3386  0.0024
 1894SOL     OW17140   3.832   2.909  12.033 -0.2878  0.1966  0.5028
 1894SOL    HW117141   3.790   2.989  12.001 -1.8876 -1.3631 -1.3030
 1894SOL    HW217142   3.778   2.844  11.987  2.8674 -1.3633 -0.9810
 1895SOL     OW17143   0.302   0.580   2.768 -0.4098 -0.0023  0.6201
 1895SOL    HW117144   0.249   0.504   2.744 -0.3512  0.1061  0.1459
 1895SOL    HW217145   0.370   0.534   2.817  0.3155 -0.4039 -0.7638
 1896SOL     OW17146   1.790   2.976  11.271  0.4952 -0.3987 -0.5161
 1896SOL    HW117147   1.820   3.004  11.184 -1.6990  1.0203 -0.7879
 1896SOL    HW217148   1.835   3.040  11.326  2.3351 -0.7315 -1.6225
 1897SOL     OW17149   1.037   4.500   9.812 -0.3867  0.0375 -0.1715
 1897SOL    HW117150   1.005   4.586   9.838  3.6425  1.0782  1.3380
 1897SOL    HW217151   1.116   4.515   9.759  0.9654 -3.2276  0.9363
 1898SOL     OW17152   0.056   4.138   8.845  0.2316 -0.1160 -0.4031
 1898SOL    HW117153   4.688   4.108   8.862  0.3309  0.0729  0.4308
 1898SOL    HW217154   0.051   4.233   8.830 -0.0264  0.1069  1.1356
 1899SOL     OW17155   1.490   0.977   2.010 -0.3011  0.3506  0.4779
 1899SOL    HW117156   1.449   1.043   1.954  1.0500 -0.6740 -1.6920
 1899SOL    HW217157   1.417   0.929   2.048 -0.1246 -1.8282 -1.9976
 1900SOL     OW17158   1.777   1.650   8.572  0.2879 -0.4567 -0.2095
 1900SOL    HW117159   1.827   1.724   8.607 -0.1576  0.7575 -2.1499
 1900SOL    HW217160   1.734   1.687   8.495 -0.6865  0.1688  0.6504
 1901SOL     OW17161   4.597   4.402  16.100 -0.3251 -0.1629  0.4405
 1901SOL    HW117162   4.572   4.321  16.146 -1.8722 -0.9990 -1.8579
 1901SOL    HW217163   4.650   4.362  16.031  0.5407  0.2750  0.8603
 1902SOL     OW17164   2.591   4.513   8.785  0.1452  0.4035 -0.0165
 1902SOL    HW117165   2.579   4.602   8.818  2.7970  0.8673 -0.3059
 1902SOL    HW217166   2.671   4.506   8.838  0.7769 -0.5178 -1.0906
 1903SOL     OW17167   0.062   1.946  11.325  0.9414 -0.1762 -0.3016
 1903SOL    HW117168   0.014   2.016  11.282 -0.5727 -0.1167  1.5124
 1903SOL    HW217169   0.099   1.908  11.245 -0.8046 -2.8122  0.1435
 1904SOL     OW17170   3.846   2.577   1.833 -0.0207  0.6695  0.2734
 1904SOL    HW117171   3.863   2.666   1.865 -0.4678  0.6966  0.4505
 1904SOL    HW217172   3.933   2.563   1.796 -0.4492 -2.6634  0.5028
 1905SOL     OW17173   1.950   2.427   3.904 -0.2614  0.4811 -0.0370
 1905SOL    HW117174   1.888   2.460   3.839  1.6474  1.5671 -1.3285
 1905SOL    HW217175   2.035   2.424   3.859 -0.4405  1.8923 -0.4797
 1906SOL     OW17176   0.451   3.481  16.831 -0.1957  0.2696 -0.1311
 1906SOL    HW117177   0.418   3.397  16.861  0.9590 -0.2213 -0.2287
 1906SOL    HW217178   0.385   3.503  16.765 -1.1858 -3.6452 -0.4232
 1907SOL     OW17179   0.657   2.963   2.930 -0.6089 -0.3244  0.4656
 1907SOL    HW117180   0.687   2.915   3.007 -0.1214 -2.0378 -0.7956
 1907SOL    HW217181   0.571   2.925   2.913 -1.0084  0.2089  1.2963
 1908SOL     OW17182   2.893   1.444   8.822  0.3881  0.2316  0.1848
 1908SOL    HW117183   2.850   1.377   8.875  1.3385 -0.5034  0.0078
 1908SOL    HW217184   2.984   1.425   8.842  0.6226  3.1811  1.9078
 1909SOL     OW17185   3.383   0.083   5.427 -0.4195 -0.2335 -0.3953
 1909SOL    HW117186   3.390   4.710   5.409  0.1864 -0.0533 -1.0833
 1909SOL    HW217187   3.293   0.089   5.460 -0.1695  2.1788 -0.1671
 1910SOL     OW17188   1.845   2.732  11.433  0.7796 -0.0455  0.0981
 1910SOL    HW117189   1.812   2.804  11.380 -0.8491 -0.2541  0.8360
 1910SOL    HW217190   1.876   2.785  11.507 -0.1460 -0.6708  0.9336
 1911SOL     OW17191   3.166   0.466  17.414 -0.1671 -0.0743 -0.1520
 1911SOL    HW117192   3.136   0.556  17.425  1.8290  0.3751  1.3992
 1911SOL    HW217193   3.136   0.453  17.324  0.4530  3.3357 -0.8580
 1912SOL     OW17194   3.616   3.194   7.837 -0.4984 -0.3427  0.1861
 1912SOL    HW117195   3.544   3.137   7.860 -1.0667 -0.0446 -0.8228
 1912SOL    HW217196   3.682   3.145   7.886  0.9115 -0.5902 -1.9512
 1913SOL     OW17197   2.958   2.530   2.394  0.7003 -0.3826  0.1186
 1913SOL    HW117198   3.019   2.553   2.323  0.7252 -1.0638 -0.0743
 1913SOL    HW217199   2.989   2.592   2.461 -1.2905  1.0527 -0.2821
 1914SOL     OW17200   3.650   0.454   6.595  0.2772  0.4650 -0.2027
 1914SOL    HW117201   3.711   0.526   6.575  0.5149  0.5642  0.9207
 1914SOL    HW217202   3.598   0.470   6.516  2.3786 -1.0486 -1.9248
 1915SOL     OW17203   3.949   3.071   6.738  0.4108  0.7339 -0.3727
 1915SOL    HW117204   3.870   3.101   6.692  0.8692  1.3812 -0.7460
 1915SOL    HW217205   4.006   3.148   6.730 -0.1636  1.1494 -0.4558
 1916SOL     OW17206   0.552   2.525   5.067 -0.2084 -0.3381 -0.2373
 1916SOL    HW117207   0.599   2.462   5.121 -0.8863  0.3946  1.1854
 1916SOL    HW217208   0.592   2.518   4.980 -2.0805  0.2020 -1.1511
 1917SOL     OW17209   1.645   3.985  13.043 -0.3827 -0.2990 -0.2083
 1917SOL    HW117210   1.729   3.955  13.008 -0.6412  0.3652 -1.3953
 1917SOL    HW217211   1.676   3.993  13.133  1.3758  0.5473 -0.8767
 1918SOL     OW17212   0.054   1.846  13.939 -0.7510  0.2029  0.0257
 1918SOL    HW117213   0.044   1.811  13.850  1.7782 -4.4377  1.5349
 1918SOL    HW217214   0.149   1.837  13.946 -1.0692 -3.1316 -0.0377
 1919SOL     OW17215   1.924   2.524   8.066  0.2533  0.5329 -0.7618
 1919SOL    HW117216   1.836   2.491   8.049  0.7184 -1.5290  0.9423
 1919SOL    HW217217   1.943   2.491   8.153  2.7900  1.6799 -0.8936
 1920SOL     OW17218   2.076   2.551   4.681 -0.6533 -0.1496 -0.8582
 1920SOL    HW117219   2.013   2.623   4.682 -0.6264 -0.1271 -0.7058
 1920SOL    HW217220   2.145   2.596   4.633  1.3252 -0.7975  1.3686
 1921SOL     OW17221   3.955   1.873   6.614  0.3376  0.1948  0.0363
 1921SOL    HW117222   3.934   1.837   6.700  0.2457 -1.8210 -0.8337
 1921SOL    HW217223   4.049   1.860   6.623 -0.1128 -1.1857  2.7170
 1922SOL     OW17224   2.754   3.586   0.915 -0.2319  0.2606 -0.3787
 1922SOL    HW117225   2.714   3.648   0.853  0.4868  0.0211 -1.0787
 1922SOL    HW217226   2.783   3.515   0.859 -0.2449 -0.8716  1.0623
 1923SOL     OW17227   1.101   3.375   4.863  0.6229  0.3434  0.0140
 1923SOL    HW117228   1.096   3.282   4.841  0.5069  0.5220 -0.6981
 1923SOL    HW217229   1.029   3.414   4.814 -0.1739  0.8289  1.5640
 1924SOL     OW17230   1.324   3.936   1.025 -0.0686 -0.1013  0.5726
 1924SOL    HW117231   1.305   3.863   0.966 -0.5415  0.4223  0.0727
 1924SOL    HW217232   1.342   4.016   0.974  0.5863  0.9278  2.4333
 1925SOL     OW17233   4.425   2.522   2.975 -0.1077 -0.3135  0.7305
 1925SOL    HW117234   4.482   2.452   3.010  0.9042  0.0290 -0.2329
 1925SOL    HW217235   4.484   2.562   2.911 -0.7973 -1.6713 -0.7419
 1926SOL     OW17236   1.807   2.629   1.963  0.4383 -0.2867  0.0798
 1926SOL    HW117237   1.754   2.661   1.890 -0.6808 -2.8974 -0.2719
 1926SOL    HW217238   1.762   2.549   1.990 -1.8443  1.2731  0.8810
 1927SOL     OW17239   0.879   0.901   5.614  0.0683  0.0922 -0.3210
 1927SOL    HW117240   0.888   0.861   5.527 -1.9007  0.0510 -0.5136
 1927SOL    HW217241   0.791   0.870   5.635  0.3110  0.6521  1.4804
 1928SOL     OW17242   4.183   2.684   3.352  0.0440 -0.3895 -0.2018
 1928SOL    HW117243   4.234   2.765   3.345 -0.0778 -0.5569 -3.1745
 1928SOL    HW217244   4.171   2.650   3.263 -1.2482  0.9798 -0.5572
 1929SOL     OW17245   0.989   0.606   2.333 -0.5345 -0.4764 -0.0297
 1929SOL    HW117246   0.937   0.598   2.413 -2.3249  0.6842 -1.0865
 1929SOL    HW217247   0.920   0.578   2.272 -0.7453 -0.2496  0.1055
 1930SOL     OW17248   0.381   1.385   5.751 -0.1116  0.3312 -0.1184
 1930SOL    HW117249   0.473   1.406   5.741  0.1011 -0.1530  0.7742
 1930SOL    HW217250   0.346   1.368   5.664 -0.4737  2.0286 -0.3055
 1931SOL     OW17251   2.109   1.569  10.031  0.1386  0.3238  0.5231
 1931SOL    HW117252   2.113   1.476  10.052 -1.8138  0.2243  0.4576
 1931SOL    HW217253   2.055   1.557   9.953 -1.2505  4.2372  0.8408
 1932SOL     OW17254   2.815   3.914   7.220 -0.2749 -0.0003  0.1074
 1932SOL    HW117255   2.830   3.988   7.279 -1.1417 -1.7798  2.5323
 1932SOL    HW217256   2.841   3.949   7.135  3.0774  0.7169  1.4386
 1933SOL     OW17257   3.553   3.499   5.680 -0.2893  0.6887  0.2497
 1933SOL    HW117258   3.512   3.483   5.765  0.0274 -0.5118  0.1679
 1933SOL    HW217259   3.613   3.566   5.716  0.9873 -0.2400 -0.1723
 1934SOL     OW17260   0.184   0.366   7.046  0.0083 -0.2606 -0.0711
 1934SOL    HW117261   0.106   0.368   7.101 -0.4253 -0.7418 -0.6641
 1934SOL    HW217262   0.215   0.452   7.072  1.0947 -0.8480  0.5894
 1935SOL     OW17263   3.400   2.419  16.959  0.3198  0.1178  0.3801
 1935SOL    HW117264   3.488   2.422  16.997  1.4989 -0.2442 -2.2650
 1935SOL    HW217265   3.432   2.401  16.870 -0.1728 -0.2371  0.2746
 1936SOL     OW17266   0.839   4.666   0.986 -0.1469  0.0124  0.5498
 1936SOL    HW117267   0.870   0.025   0.941 -0.7206  0.5069  1.0359
 1936SOL    HW217268   0.760   4.644   0.936 -0.0471 -0.0496  0.4176
 1937SOL     OW17269   2.126   0.827   6.741 -0.0787  0.0552  0.5092
 1937SOL    HW117270   2.123   0.827   6.837 -1.4503 -3.2367  0.4526
 1937SOL    HW217271   2.214   0.794   6.725  0.1670  1.0894 -0.2604
 1938SOL     OW17272   3.146   1.321   6.866  0.3800  0.2450  0.3001
 1938SOL    HW117273   3.131   1.415   6.858  2.4318  0.4832 -0.8702
 1938SOL    HW217274   3.164   1.315   6.960  1.4419  0.0752  0.0916
 1939SOL     OW17275   4.220   2.580   1.866 -0.4125  0.4585  0.7066
 1939SOL    HW117276   4.167   2.615   1.795 -0.3389  0.0794  0.4636
 1939SOL    HW217277   4.283   2.652   1.873 -0.6150  0.6436  0.6056
 1940SOL     OW17278   4.207   4.716  16.113  0.1950  0.3261 -0.0143
 1940SOL    HW117279   4.240   4.668  16.036 -0.5885  0.4901 -0.4533
 1940SOL    HW217280   4.236   0.080  16.079 -0.6690  0.2196 -1.0297
 1941SOL     OW17281   3.359   3.965   1.715  0.2789  0.0371  0.3053
 1941SOL    HW117282   3.447   3.972   1.679  0.5417  0.3501  1.0032
 1941SOL    HW217283   3.339   3.876   1.684  2.1828  0.0844 -1.0099
 1942SOL     OW17284   2.957   1.584   5.373  0.4874 -0.2995 -0.5189
 1942SOL    HW117285   2.933   1.651   5.309  1.3639  0.4949 -0.0186
 1942SOL    HW217286   2.989   1.636   5.447 -3.7792  0.8556  0.5412
 1943SOL     OW17287   2.692   2.046   1.729  0.0100 -1.1937  0.0033
 1943SOL    HW117288   2.720   2.070   1.817 -0.0125  0.9902 -0.5726
 1943SOL    HW217289   2.739   2.113   1.678 -1.6928  0.1700  0.2389
 1944SOL     OW17290   1.062   2.915   2.355 -0.5241  0.0486  0.4041
 1944SOL    HW117291   1.083   2.822   2.363  1.1382  0.6709  3.0925
 1944SOL    HW217292   1.148   2.952   2.335  0.4770 -2.4406  0.1640
 1945SOL     OW17293   0.421   2.992   7.202 -0.3394 -0.6619  0.2087
 1945SOL    HW117294   0.347   3.037   7.163  0.0353  0.1849  0.4674
 1945SOL    HW217295   0.377   2.908   7.216  0.2729 -0.8346  1.1350
 1946SOL     OW17296   0.414   4.709  10.421  0.7002 -0.5319  0.1178
 1946SOL    HW117297   0.380   4.717  10.510 -1.7384 -1.3300 -0.7278
 1946SOL    HW217298   0.469   0.065  10.406 -0.0196  0.3094  1.7373
 1947SOL     OW17299   0.317   2.619  15.112  0.0199  0.0834 -0.2018
 1947SOL    HW117300   0.383   2.592  15.176  0.7284 -1.8816 -1.7855
 1947SOL    HW217301   0.339   2.712  15.103  0.6510  0.0975  1.4405
 1948SOL     OW17302   1.295   2.254  13.713  0.0185 -0.5198 -0.3427
 1948SOL    HW117303   1.275   2.316  13.783 -0.1288 -1.2662  0.2785
 1948SOL    HW217304   1.321   2.321  13.650  0.1002 -1.0890 -0.9198
 1949SOL     OW17305   4.466   4.688  17.086  0.1042 -0.3141  0.2363
 1949SOL    HW117306   4.413   0.013  17.020 -1.6121 -0.3967  1.5527
 1949SOL    HW217307   4.546   4.680  17.034 -0.3617 -4.0984  0.0846
 1950SOL     OW17308   4.072   2.871  16.180 -0.3458  0.4164 -0.5103
 1950SOL    HW117309   4.146   2.882  16.120 -0.1446  2.7807  0.1665
 1950SOL    HW217310   4.057   2.777  16.190 -0.7431  0.5036 -0.2874
 1951SOL     OW17311   0.457   1.775   2.412  0.4128  0.2112 -0.3228
 1951SOL    HW117312   0.384   1.717   2.434  0.1086  0.3408 -1.0211
 1951SOL    HW217313   0.520   1.711   2.378  1.0403  0.6703 -0.0206
 1952SOL     OW17314   3.977   4.614   3.338 -0.1400 -0.2423 -0.4783
 1952SOL    HW117315   4.062   4.575   3.314 -0.5882 -1.2312 -0.4494
 1952SOL    HW217316   3.939   4.534   3.374 -1.3076  0.8837  0.7603
 1953SOL     OW17317   4.680   3.292   6.437  0.0856 -0.1721  0.2857
 1953SOL    HW117318   4.710   3.295   6.528 -1.1034 -2.0910  0.7550
 1953SOL    HW217319   4.647   3.204   6.419  1.4737 -0.6404  0.0132
 1954SOL     OW17320   4.476   1.988  14.725 -0.3754  0.4483 -0.1107
 1954SOL    HW117321   4.450   1.967  14.635 -0.2121  2.2152 -0.5729
 1954SOL    HW217322   4.475   2.082  14.709  0.6946  0.5758  0.5750
 1955SOL     OW17323   2.523   2.126   2.377  0.1376  0.0736 -0.3433
 1955SOL    HW117324   2.558   2.136   2.466  1.8163  2.8920 -1.3573
 1955SOL    HW217325   2.554   2.203   2.331  3.1812 -0.8660  0.1769
 1956SOL     OW17326   0.683   4.392   3.963  0.1793 -0.3206  0.1849
 1956SOL    HW117327   0.689   4.333   4.039  1.7863  2.2919  2.0988
 1956SOL    HW217328   0.594   4.426   3.966  0.3838  0.1765  0.7283
 1957SOL     OW17329   0.613   0.601   7.511  0.7205  0.4233  0.0543
 1957SOL    HW117330   0.630   0.603   7.605  2.1575 -0.3892 -0.1795
 1957SOL    HW217331   0.572   0.685   7.493 -0.0585 -0.0306 -0.2786
 1958SOL     OW17332   2.810   0.895  10.390  0.1579 -0.3577 -0.6646
 1958SOL    HW117333   2.756   0.972  10.409 -0.9410 -1.6172  1.2777
 1958SOL    HW217334   2.885   0.946  10.361  0.2269  0.5068  1.0228
 1959SOL     OW17335   3.269   2.087   4.343  0.4799 -0.1128  0.0364
 1959SOL    HW117336   3.350   2.110   4.389  1.9756 -2.2336 -1.5277
 1959SOL    HW217337   3.314   2.031   4.279  1.6307 -0.5193  1.1980
 1960SOL     OW17338   2.551   0.920  16.813  0.2866 -0.2493  0.0894
 1960SOL    HW117339   2.462   0.885  16.819  0.0275  0.7495  2.0505
 1960SOL    HW217340   2.549   0.974  16.734 -3.8548 -1.9643 -0.9945
 1961SOL     OW17341   0.504   3.238   8.736  0.3462 -0.4172 -0.5444
 1961SOL    HW117342   0.527   3.159   8.784  1.0012 -0.9685 -1.7792
 1961SOL    HW217343   0.413   3.236   8.765  0.0818 -1.6980 -1.5154
 1962SOL     OW17344   3.840   2.006  14.353  0.1733 -0.7399 -0.5130
 1962SOL    HW117345   3.767   2.006  14.290 -0.3843 -2.0380  0.1191
 1962SOL    HW217346   3.802   1.979  14.437  1.2871 -2.0069 -0.4202
 1963SOL     OW17347   2.917   2.371  13.085 -0.1472  0.0225  0.0142
 1963SOL    HW117348   2.986   2.305  13.093 -2.2723 -2.1491  0.2698
 1963SOL    HW217349   2.921   2.388  13.179 -2.7043  1.4841 -0.1633
 1964SOL     OW17350   2.002   1.569   7.923  0.1944  0.6212  0.1833
 1964SOL    HW117351   2.006   1.663   7.905 -1.0831  0.6626  0.0837
 1964SOL    HW217352   1.971   1.566   8.013  1.3230 -2.9236  0.4680
 1965SOL     OW17353   1.327   2.093   7.044 -0.2525 -0.0353  0.0278
 1965SOL    HW117354   1.314   2.001   7.022  1.4477 -0.8800  2.4606
 1965SOL    HW217355   1.392   2.086   7.114 -0.8512 -1.5009  0.4372
 1966SOL     OW17356   2.757   3.460   2.125 -0.8968  0.4176  0.0527
 1966SOL    HW117357   2.677   3.469   2.177 -1.5118  0.3976 -0.8966
 1966SOL    HW217358   2.729   3.393   2.063 -0.6159  1.6036 -1.3576
 1967SOL     OW17359   0.421   1.055   7.047 -0.4589  0.1427  0.1672
 1967SOL    HW117360   0.471   1.000   6.987 -0.2182  0.0812  0.4240
 1967SOL    HW217361   0.388   1.120   6.985  0.6466  0.4275 -0.1142
 1968SOL     OW17362   2.347   4.193   3.496  0.0324  0.4942  0.0760
 1968SOL    HW117363   2.295   4.119   3.468  0.1601  0.5131 -0.2102
 1968SOL    HW217364   2.439   4.169   3.482 -0.5524 -0.5512 -1.9632
 1969SOL     OW17365   3.770   2.627  16.213 -0.5856  1.0453 -0.5287
 1969SOL    HW117366   3.720   2.570  16.154 -0.8962 -0.3832  1.1392
 1969SOL    HW217367   3.859   2.608  16.185 -0.3739  0.2746  0.6908
 1970SOL     OW17368   2.300   2.557   2.918  0.1752  0.3349  0.3866
 1970SOL    HW117369   2.208   2.545   2.939 -0.3472  2.1678 -0.8773
 1970SOL    HW217370   2.290   2.639   2.870  1.4117 -0.8225 -1.8592
 1971SOL     OW17371   4.551   0.381   8.315 -0.1677  0.4955  0.6910
 1971SOL    HW117372   4.487   0.440   8.356 -0.7399  0.6053 -0.3573
 1971SOL    HW217373   4.517   0.361   8.228  1.1273 -1.9286  0.7551
 1972SOL     OW17374   2.870   4.033   5.011  0.2260  0.6900 -0.2065
 1972SOL    HW117375   2.894   4.080   4.931  1.2985  1.8288  0.7745
 1972SOL    HW217376   2.914   3.948   5.008 -2.5153 -0.7324 -0.3470
 1973SOL     OW17377   3.927   4.434   7.707 -0.6530  0.1955 -0.2550
 1973SOL    HW117378   3.938   4.459   7.615  0.5324 -1.6804 -0.6208
 1973SOL    HW217379   3.897   4.343   7.706 -1.7814  0.5743 -0.5294
 1974SOL     OW17380   0.089   1.095   9.255 -0.1313  0.6181 -0.0905
 1974SOL    HW117381   0.146   1.122   9.326  2.1101 -4.6153  0.0842
 1974SOL    HW217382   0.079   1.001   9.271 -3.9354  0.5939 -2.4355
 1975SOL     OW17383   1.710   3.123   1.490 -0.0357 -0.1805  0.3046
 1975SOL    HW117384   1.634   3.148   1.438  0.2858 -1.5755 -0.8438
 1975SOL    HW217385   1.750   3.048   1.447  0.8775  1.3830 -1.5724
 1976SOL     OW17386   0.523   3.647  12.063 -0.1275 -0.2255 -0.1186
 1976SOL    HW117387   0.594   3.635  12.126 -0.6719 -0.3478  0.4774
 1976SOL    HW217388   0.563   3.705  11.998  1.1206  0.9963  1.7491
 1977SOL     OW17389   0.927   4.015  16.796  0.2681  0.5025 -0.5201
 1977SOL    HW117390   1.018   3.995  16.816  0.0196 -0.9857 -0.9143
 1977SOL    HW217391   0.901   4.030  16.886 -0.6700 -2.4460 -0.2990
 1978SOL     OW17392   3.141   0.112   6.001 -0.3575 -0.3277  0.1625
 1978SOL    HW117393   3.128   0.179   6.068 -4.0371 -1.7768  0.9189
 1978SOL    HW217394   3.192   0.046   6.046 -0.2271 -0.8962 -0.8098
 1979SOL     OW17395   2.759   1.891   4.495  0.5589  0.3257  0.0183
 1979SOL    HW117396   2.667   1.889   4.522  0.5588 -4.6339 -0.4641
 1979SOL    HW217397   2.766   1.835   4.418 -2.1682  1.0621 -0.7859
 1980SOL     OW17398   1.370   2.940   3.040  0.2563 -0.3305 -0.4599
 1980SOL    HW117399   1.387   2.982   2.955  1.6317  3.3194  1.6416
 1980SOL    HW217400   1.417   2.858   3.031 -2.4156 -1.9613  0.3272
 1981SOL     OW17401   3.000   0.768   6.052 -0.0064  0.3592 -0.5853
 1981SOL    HW117402   3.058   0.757   6.127 -1.0151  0.3389  0.2031
 1981SOL    HW217403   3.020   0.851   6.009  1.2096 -0.1139 -0.9309
 1982SOL     OW17404   0.094   4.361   9.262 -0.5348  0.4816 -1.0372
 1982SOL    HW117405   0.135   4.304   9.198  0.0249  0.3880 -0.6001
 1982SOL    HW217406   0.108   4.322   9.349 -1.3010  0.2813 -1.0033
 1983SOL     OW17407   1.952   3.145   9.438  0.5104 -0.0485  0.3337
 1983SOL    HW117408   1.867   3.154   9.482  0.5260 -1.5930  0.7014
 1983SOL    HW217409   1.911   3.109   9.359 -0.3042 -0.8330  1.1093
 1984SOL     OW17410   1.637   0.177   1.279 -0.1141  0.0474  0.1813
 1984SOL    HW117411   1.679   0.092   1.295 -3.1006 -1.7245 -1.4081
 1984SOL    HW217412   1.652   0.186   1.185 -2.0609 -0.3510 -0.1601
 1985SOL     OW17413   2.925   2.267   9.566  0.1438  0.7065 -0.2999
 1985SOL    HW117414   2.923   2.192   9.626  1.1472  1.5499  0.7758
 1985SOL    HW217415   2.837   2.306   9.560  0.5864  1.8238  0.5789
 1986SOL     OW17416   2.621   3.424   5.007 -0.0002  0.1634 -0.0869
 1986SOL    HW117417   2.532   3.435   5.041 -0.8150  0.5761 -2.3719
 1986SOL    HW217418   2.635   3.496   4.946  1.4291  0.9601  1.1742
 1987SOL     OW17419   1.164   2.276   5.089  0.5641 -0.0950  0.3500
 1987SOL    HW117420   1.129   2.361   5.113  0.8583  0.1622 -0.1262
 1987SOL    HW217421   1.117   2.261   5.007  1.6616 -2.5226  0.1576
 1988SOL     OW17422   0.626   1.664  12.985  0.3141 -0.2796  0.9375
 1988SOL    HW117423   0.687   1.617  12.928 -1.9731 -2.7551  0.5383
 1988SOL    HW217424   0.577   1.723  12.929  0.6377  1.0191  2.0059
 1989SOL     OW17425   0.515   0.727  16.884  0.5552 -0.3163 -0.2560
 1989SOL    HW117426   0.486   0.666  16.952 -0.5886  0.7148  0.1737
 1989SOL    HW217427   0.508   0.812  16.928 -1.5326  0.2133 -1.6552
 1990SOL     OW17428   3.381   2.127  15.136 -0.4050  0.6509 -0.4268
 1990SOL    HW117429   3.448   2.060  15.126 -0.6740  0.7977 -3.2505
 1990SOL    HW217430   3.300   2.081  15.161  1.6709 -2.4169  0.6269
 1991SOL     OW17431   2.687   1.532   1.675 -0.8217  0.3729  0.2420
 1991SOL    HW117432   2.662   1.624   1.661  0.4260  1.1657  3.0632
 1991SOL    HW217433   2.719   1.533   1.766 -4.0849 -1.3811  1.3913
 1992SOL     OW17434   0.349   1.451   6.835 -0.0911 -0.0287  0.0781
 1992SOL    HW117435   0.335   1.356   6.838  2.3785 -0.4484 -0.9894
 1992SOL    HW217436   0.347   1.486   6.923  3.0547  0.0614  0.1214
 1993SOL     OW17437   2.379   1.533  10.066 -0.3832  0.1672 -0.1693
 1993SOL    HW117438   2.287   1.557  10.053 -0.0469  1.6402  0.1587
 1993SOL    HW217439   2.371   1.479  10.145  0.1888  1.7558  0.9846
 1994SOL     OW17440   1.857   0.496   6.740  0.8206  0.3406 -0.1108
 1994SOL    HW117441   1.787   0.536   6.791  0.7784 -0.3561  0.3832
 1994SOL    HW217442   1.858   0.563   6.672 -1.9412  1.0210  0.5236
 1995SOL     OW17443   1.507   4.059   8.688 -0.1618  0.0687 -0.0385
 1995SOL    HW117444   1.445   4.061   8.761  0.0481  0.1084  0.1398
 1995SOL    HW217445   1.576   4.095   8.743  0.8630 -0.6883 -0.8357
 1996SOL     OW17446   3.278   3.465   3.618 -0.0069 -0.1952 -0.3588
 1996SOL    HW117447   3.239   3.516   3.688  0.0303 -1.0868  0.3053
 1996SOL    HW217448   3.199   3.443   3.569  0.6932 -1.3678 -0.9527
 1997SOL     OW17449   1.015   1.795   8.870  0.5532 -1.0296  0.4815
 1997SOL    HW117450   1.045   1.707   8.850  1.7152  0.1624 -2.9517
 1997SOL    HW217451   1.013   1.788   8.965 -1.0294 -1.4168  0.4264
 1998SOL     OW17452   1.683   1.142   1.707  0.2066  0.2443 -0.1499
 1998SOL    HW117453   1.771   1.128   1.671 -0.4251  0.5208 -1.8288
 1998SOL    HW217454   1.687   1.235   1.730 -3.6149 -0.0485  1.6215
 1999SOL     OW17455   4.377   3.374   6.637  0.0949 -0.1816 -0.5056
 1999SOL    HW117456   4.346   3.283   6.634 -2.0561  0.4844  1.0049
 1999SOL    HW217457   4.461   3.369   6.683 -0.8928  1.5963  1.5042
 2000SOL     OW17458   3.720   3.463   6.559  0.6159 -0.1467  0.1080
 2000SOL    HW117459   3.773   3.506   6.492  1.5174 -2.7581 -0.8360
 2000SOL    HW217460   3.634   3.500   6.538  1.5185  1.0571 -1.4592
 2001SOL     OW17461   1.886   0.785   8.551 -0.1800 -0.0171  0.1975
 2001SOL    HW117462   1.865   0.869   8.510 -1.3007  1.2613  3.3833
 2001SOL    HW217463   1.824   0.790   8.623 -1.4281 -2.9729 -0.6807
 2002SOL     OW17464   2.120   2.659  11.451 -0.6292  0.2688 -0.0605
 2002SOL    HW117465   2.034   2.621  11.435 -0.4327 -0.2871  0.2062
 2002SOL    HW217466   2.103   2.724  11.519 -1.0934 -3.0068  2.9904
 2003SOL     OW17467   4.415   1.265   2.403 -0.0312 -0.4055  0.5219
 2003SOL    HW117468   4.494   1.316   2.422 -0.3100  0.9777 -2.0613
 2003SOL    HW217469   4.448   1.193   2.456  0.9321  0.7759  1.5371
 2004SOL     OW17470   3.601   1.947   5.606  0.5985 -0.0300  0.2108
 2004SOL    HW117471   3.581   2.037   5.630  0.8479  0.4751 -1.4351
 2004SOL    HW217472   3.690   1.928   5.636  0.5460  1.3974  1.2333
 2005SOL     OW17473   2.948   4.605   5.607 -0.1028  0.8201 -0.5616
 2005SOL    HW117474   2.979   4.600   5.698  2.5496  0.9653 -1.4510
 2005SOL    HW217475   3.031   4.633   5.568 -0.7976  1.1390 -1.7838
 2006SOL     OW17476   1.263   1.363   2.751  0.0199 -0.7210  0.4158
 2006SOL    HW117477   1.236   1.440   2.801 -1.2650 -0.6207 -0.4477
 2006SOL    HW217478   1.340   1.402   2.709 -0.0363 -0.1048  0.8824
 2007SOL     OW17479   1.543   3.461   0.198  0.0588  0.8535 -0.2117
 2007SOL    HW117480   1.503   3.381   0.164 -1.4105  1.2420  0.6031
 2007SOL    HW217481   1.475   3.522   0.171  0.2253  0.4378 -1.5368
 2008SOL     OW17482   3.379   0.343  13.875  0.1062  0.6897 -0.6404
 2008SOL    HW117483   3.357   0.409  13.942  2.4304  0.1723  0.6244
 2008SOL    HW217484   3.300   0.345  13.822  0.6549 -0.1804 -1.4727
 2009SOL     OW17485   0.824   0.736  14.536  0.0039  0.2027 -0.4715
 2009SOL    HW117486   0.860   0.711  14.451  1.6140  0.4168  0.1488
 2009SOL    HW217487   0.888   0.713  14.603 -0.2237  1.0755  0.0541
 2010SOL     OW17488   2.262   1.093   7.051 -0.7333  0.1349  0.2002
 2010SOL    HW117489   2.191   1.150   7.024 -0.0684  0.5440 -0.6650
 2010SOL    HW217490   2.220   1.007   7.061 -0.3138 -0.3213 -1.9723
 2011SOL     OW17491   0.003   3.247   2.149  0.4569 -0.1255  0.5902
 2011SOL    HW117492   4.690   3.297   2.074 -1.4940 -3.0677 -0.5192
 2011SOL    HW217493   4.690   3.160   2.125  0.2785 -0.0706  0.6436
 2012SOL     OW17494   1.008   2.587   3.518 -0.2002 -0.7682 -0.0568
 2012SOL    HW117495   1.029   2.659   3.577 -1.0178 -0.5584 -0.0270
 2012SOL    HW217496   0.922   2.609   3.481 -0.3356 -1.0650  0.0814
 2013SOL     OW17497   3.070   2.393   6.837  0.3429 -1.0350 -0.4826
 2013SOL    HW117498   3.128   2.462   6.869 -1.7819  0.5401 -0.0169
 2013SOL    HW217499   3.068   2.329   6.907  2.0682 -1.4733 -0.8161
 2014SOL     OW17500   4.650   3.651   5.515 -0.4017 -0.2498  0.4200
 2014SOL    HW117501   4.681   3.569   5.553 -0.4447  0.2648  1.5930
 2014SOL    HW217502   0.010   3.693   5.486 -0.1722 -1.8551 -1.2012
 2015SOL     OW17503   3.170   4.349   3.316  0.1024 -0.5606  0.2894
 2015SOL    HW117504   3.191   4.431   3.360  0.9257 -2.0595  2.6422
 2015SOL    HW217505   3.074   4.351   3.322  0.2070 -0.8693  1.9986
 2016SOL     OW17506   3.342   1.082   1.045  0.3986  0.0097 -0.1193
 2016SOL    HW117507   3.264   1.135   1.064 -0.8351 -0.8303 -2.8277
 2016SOL    HW217508   3.357   1.095   0.951 -2.6620  1.3014 -0.4516
 2017SOL     OW17509   4.593   4.711   8.456 -0.0633 -0.2251 -0.1762
 2017SOL    HW117510   4.651   0.055   8.497 -1.0451  0.9579 -0.6743
 2017SOL    HW217511   4.656   4.641   8.435  0.2235  0.6875 -2.3837
 2018SOL     OW17512   0.713   4.382  17.330  0.6144  0.1428  0.3603
 2018SOL    HW117513   0.695   4.438  17.254 -0.9160 -1.1103 -0.1947
 2018SOL    HW217514   0.654   4.422  17.393  0.1077 -1.5330  0.9449
 2019SOL     OW17515   2.160   3.939   7.893 -0.6501  0.4711 -0.1685
 2019SOL    HW117516   2.230   4.005   7.891  1.0440 -1.2744  1.0350
 2019SOL    HW217517   2.083   3.994   7.909 -1.4015 -0.8460  0.6621
 2020SOL     OW17518   2.234   2.642  17.307 -0.2922 -0.5434  0.0538
 2020SOL    HW117519   2.222   2.559  17.355 -2.2943 -1.4051 -1.9425
 2020SOL    HW217520   2.146   2.677  17.297 -0.1575  0.0500  0.9590
 2021SOL     OW17521   4.614   0.612   6.849 -0.0628  0.2888 -0.1712
 2021SOL    HW117522   4.692   0.630   6.902  0.9449  0.1451 -1.5959
 2021SOL    HW217523   4.660   0.591   6.767  2.1879 -1.3739  1.5235
 2022SOL     OW17524   3.256   1.695   3.960 -0.7296 -0.4450  0.1375
 2022SOL    HW117525   3.185   1.679   4.022 -0.4083  0.8776  0.8308
 2022SOL    HW217526   3.266   1.612   3.913 -2.0114 -0.2289 -0.5328
 2023SOL     OW17527   1.405   4.628  12.144 -0.7062 -0.1731  0.2549
 2023SOL    HW117528   1.318   4.654  12.173 -0.0712  1.6018  0.5809
 2023SOL    HW217529   1.394   4.663  12.056 -0.8284  0.9833  0.7239
 2024SOL     OW17530   0.176   1.326   2.110 -0.3377  0.0841  0.2575
 2024SOL    HW117531   0.113   1.325   2.038  0.8754  0.6841 -0.8212
 2024SOL    HW217532   0.244   1.380   2.069 -0.5375  0.1818  0.0506
 2025SOL     OW17533   1.696   1.992   6.860 -0.7536 -0.1349 -0.3513
 2025SOL    HW117534   1.632   1.936   6.816 -2.3801  0.4903  1.2219
 2025SOL    HW217535   1.648   2.074   6.860 -1.8240 -0.7624 -0.0927
 2026SOL     OW17536   1.752   0.345   9.219 -0.3953  0.2638  0.0136
 2026SOL    HW117537   1.760   0.376   9.129 -1.3069 -0.9381 -0.4936
 2026SOL    HW217538   1.835   0.305   9.242  0.2589  2.2047  0.9486
 2027SOL     OW17539   3.405   4.395   6.741 -0.6585  0.3559  0.1692
 2027SOL    HW117540   3.474   4.423   6.800  0.1416 -1.1046 -0.0744
 2027SOL    HW217541   3.449   4.419   6.660 -0.9389 -3.3210 -1.0548
 2028SOL     OW17542   1.921   4.206  14.550  0.4522  0.0428  0.2189
 2028SOL    HW117543   1.931   4.257  14.630  1.0886  1.5822 -0.8516
 2028SOL    HW217544   1.967   4.123  14.568  1.6708  0.6607 -0.0393
 2029SOL     OW17545   2.465   3.473  15.820 -0.2699 -0.2291  0.6383
 2029SOL    HW117546   2.554   3.445  15.799  0.1456  2.3203 -1.1481
 2029SOL    HW217547   2.475   3.561  15.858 -2.6712  0.0301  0.6396
 2030SOL     OW17548   1.753   3.268   4.873 -0.1490 -0.8394 -0.8301
 2030SOL    HW117549   1.839   3.228   4.886  0.6903  1.2637  0.0920
 2030SOL    HW217550   1.721   3.283   4.962  0.9693 -2.5158 -0.1467
 2031SOL     OW17551   0.124   2.069  11.762 -0.0682 -0.4559 -0.0229
 2031SOL    HW117552   0.104   2.162  11.772  0.6828 -0.5497  2.4197
 2031SOL    HW217553   0.069   2.041  11.835  3.3213  0.7342  2.9882
 2032SOL     OW17554   0.271   0.158   8.186 -0.4080  0.9639  0.2125
 2032SOL    HW117555   0.294   0.082   8.133 -0.0871  4.1510 -4.2169
 2032SOL    HW217556   0.186   0.191   8.157 -0.5539  1.4868  1.2230
 2033SOL     OW17557   3.990   3.370   4.179  0.0907 -0.2326 -0.3371
 2033SOL    HW117558   3.974   3.358   4.273  0.4277  1.1476 -0.1075
 2033SOL    HW217559   4.035   3.453   4.165  0.3783 -0.3461 -0.0845
 2034SOL     OW17560   2.730   4.234  12.867 -0.0987  0.3202 -0.2461
 2034SOL    HW117561   2.719   4.161  12.928 -2.8847  1.2184  0.3585
 2034SOL    HW217562   2.750   4.192  12.783 -1.1286 -3.4278  1.3739
 2035SOL     OW17563   2.836   3.115   8.668 -0.4129  0.2226 -0.0598
 2035SOL    HW117564   2.786   3.193   8.691  2.4624  2.6853 -2.1091
 2035SOL    HW217565   2.762   3.061   8.643 -0.5228 -0.5280  1.8738
 2036SOL     OW17566   0.298   0.869   9.475  0.1551  0.5912 -0.8340
 2036SOL    HW117567   0.332   0.872   9.564  1.1219  2.8609 -1.2860
 2036SOL    HW217568   0.207   0.898   9.473  0.6059  2.1182  0.8833
 2037SOL     OW17569   1.780   3.826   0.321 -0.4043 -0.6019  0.1519
 2037SOL    HW117570   1.796   3.916   0.291  1.4513 -0.9706  0.0347
 2037SOL    HW217571   1.684   3.827   0.328 -0.5174  0.4784 -1.6105
 2038SOL     OW17572   3.167   3.362  14.875  1.0479 -0.8706  0.3640
 2038SOL    HW117573   3.094   3.307  14.846  2.6688 -2.4080 -0.8276
 2038SOL    HW217574   3.223   3.297  14.919  0.5429 -1.8718 -0.4594
 2039SOL     OW17575   0.652   0.342   7.029  0.4328 -0.3380  0.4091
 2039SOL    HW117576   0.607   0.395   7.096  0.4874 -1.0033  0.9743
 2039SOL    HW217577   0.601   0.262   7.042 -0.4318 -0.2834 -2.7226
 2040SOL     OW17578   0.173   0.693  17.461  0.2030 -0.5434 -0.0747
 2040SOL    HW117579   0.205   0.782  17.451 -1.8342  0.3481  1.1973
 2040SOL    HW217580   0.224   0.666  17.537 -1.2793 -0.9873  0.7682
 2041SOL     OW17581   4.280   0.457   7.115 -0.1086 -0.0211 -0.4700
 2041SOL    HW117582   4.236   0.373   7.125 -0.8598  0.4442  0.0681
 2041SOL    HW217583   4.277   0.489   7.205  0.5116 -2.7445  0.5173
 2042SOL     OW17584   0.348   0.816  16.280  0.0618 -0.0973 -0.4320
 2042SOL    HW117585   0.312   0.828  16.368  0.1487  2.7607 -0.8001
 2042SOL    HW217586   0.424   0.875  16.283 -1.6215  2.1278 -1.8645
 2043SOL     OW17587   4.515   2.651   3.710 -0.2785 -0.0023 -0.0458
 2043SOL    HW117588   4.573   2.605   3.649 -0.3782 -4.0340  2.8669
 2043SOL    HW217589   4.428   2.614   3.693 -0.7555  1.2566 -0.3721
 2044SOL     OW17590   2.211   4.449   6.494  0.4946  0.0577 -0.0730
 2044SOL    HW117591   2.244   4.382   6.434 -0.5764 -0.1429 -0.4318
 2044SOL    HW217592   2.288   4.430   6.548 -0.0710  0.0397  0.7382
 2045SOL     OW17593   4.528   2.770  11.871  0.2842 -0.4947 -0.3418
 2045SOL    HW117594   4.580   2.719  11.809  0.4860 -1.0709  0.3059
 2045SOL    HW217595   4.438   2.753  11.842 -0.7001  1.7714  1.3900
 2046SOL     OW17596   1.770   0.599  10.407 -0.6970  0.5709 -0.5319
 2046SOL    HW117597   1.767   0.654  10.485  0.0987 -2.3935  1.5439
 2046SOL    HW217598   1.844   0.636  10.358 -0.4877  0.2262 -0.4739
 2047SOL     OW17599   1.315   4.299  10.260 -0.4383  0.6197  0.5507
 2047SOL    HW117600   1.385   4.345  10.307 -1.7009  0.5104  2.5633
 2047SOL    HW217601   1.262   4.370  10.225 -0.8588 -0.3732 -0.8465
 2048SOL     OW17602   3.855   4.390  14.483 -0.1678 -0.1194  0.0504
 2048SOL    HW117603   3.943   4.427  14.477 -0.1749 -0.1506 -0.2220
 2048SOL    HW217604   3.814   4.411  14.400 -0.6441  0.7377  0.4992
 2049SOL     OW17605   4.131   0.951   7.240  0.0467 -0.2714  0.0714
 2049SOL    HW117606   4.203   0.893   7.263  1.3572  1.1199 -0.5657
 2049SOL    HW217607   4.132   1.010   7.316 -1.9896 -0.9141  0.6039
 2050SOL     OW17608   1.493   0.349   3.279  0.3019 -0.7863  0.7700
 2050SOL    HW117609   1.575   0.365   3.232 -0.3875 -0.5279 -0.3606
 2050SOL    HW217610   1.482   0.255   3.273  4.0853 -1.0896 -1.4378
 2051SOL     OW17611   2.309   3.556  13.859 -0.5163 -0.7880 -0.4196
 2051SOL    HW117612   2.225   3.552  13.813 -0.9553 -1.1974  0.4246
 2051SOL    HW217613   2.368   3.575  13.786  0.7269 -0.7447  0.6029
 2052SOL     OW17614   2.044   4.416   4.395 -0.1365  0.7937  0.5488
 2052SOL    HW117615   2.022   4.325   4.378 -0.6965  1.0341 -0.0184
 2052SOL    HW217616   1.964   4.457   4.429 -2.4550 -1.3091 -2.4178
 2053SOL     OW17617   1.647   1.299   7.518 -0.2785  0.8674  0.6724
 2053SOL    HW117618   1.597   1.234   7.567  2.2715 -0.7234  1.1496
 2053SOL    HW217619   1.668   1.364   7.585  1.2151  2.7188 -1.5741
 2054SOL     OW17620   0.249   1.448   8.685  0.0320  0.3344  0.3014
 2054SOL    HW117621   0.170   1.451   8.632 -1.3939 -2.7269  2.3060
 2054SOL    HW217622   0.304   1.383   8.641 -1.2221 -0.2513 -0.3689
 2055SOL     OW17623   2.813   0.850   3.029  0.3758  0.3548  0.0199
 2055SOL    HW117624   2.907   0.845   3.046  0.3317 -2.7816 -0.6069
 2055SOL    HW217625   2.798   0.760   2.999  1.2536  0.6325 -1.2195
 2056SOL     OW17626   3.980   0.703   6.376 -0.3254  0.0872 -0.1351
 2056SOL    HW117627   3.927   0.650   6.317 -1.3603  2.1716 -1.0882
 2056SOL    HW217628   4.020   0.756   6.306  0.2240  0.9226  0.8201
 2057SOL     OW17629   4.246   2.456   4.477 -0.7001 -0.0650  0.2973
 2057SOL    HW117630   4.308   2.401   4.525  1.4220  1.2176 -1.0025
 2057SOL    HW217631   4.253   2.426   4.387 -0.6023  0.4989  0.1183
 2058SOL     OW17632   0.944   4.490   7.451  0.4240 -0.1847  0.0336
 2058SOL    HW117633   0.922   4.576   7.488  0.0870 -0.8046  1.2575
 2058SOL    HW217634   0.854   4.460   7.458  0.2837  0.4058  0.7649
 2059SOL     OW17635   0.129   1.277  14.354  0.8023  0.5644  0.2874
 2059SOL    HW117636   0.138   1.249  14.445  2.4681  2.7855  0.8000
 2059SOL    HW217637   0.188   1.217  14.310  0.5953  1.1349 -0.7698
 2060SOL     OW17638   4.232   3.186   3.004 -0.2347 -0.0603  0.2257
 2060SOL    HW117639   4.312   3.238   3.017  0.5459 -0.5705 -2.4904
 2060SOL    HW217640   4.187   3.241   2.940 -0.0011  0.6969  0.7108
 2061SOL     OW17641   0.738   3.226   8.918  0.2149  0.1298  0.0805
 2061SOL    HW117642   0.786   3.283   8.859 -1.4608  0.3189 -1.0981
 2061SOL    HW217643   0.752   3.140   8.878  0.9756  0.2774  0.0409
 2062SOL     OW17644   0.783   3.724  13.321 -0.2442  0.1467  0.3932
 2062SOL    HW117645   0.858   3.665  13.311 -0.5494 -0.6151  2.6739
 2062SOL    HW217646   0.758   3.714  13.413 -1.1685  0.3845  0.1679
 2063SOL     OW17647   2.219   1.498  10.893  0.3840 -0.0832 -0.3657
 2063SOL    HW117648   2.135   1.473  10.932 -0.5285  1.4108 -1.3755
 2063SOL    HW217649   2.224   1.580  10.942  1.4189  0.0565 -0.7035
 2064SOL     OW17650   1.099   0.400   8.668 -0.0668 -0.7793  0.0905
 2064SOL    HW117651   1.195   0.398   8.659 -0.0071  1.5878  0.2115
 2064SOL    HW217652   1.062   0.417   8.581  1.5316 -0.8688 -0.6151
 2065SOL     OW17653   1.545   0.037   0.550  0.3083  0.3093 -0.4024
 2065SOL    HW117654   1.522   0.110   0.492 -1.3507 -0.4208 -0.6233
 2065SOL    HW217655   1.611   4.712   0.498  1.4217  0.9600  0.4367
 2066SOL     OW17656   1.320   3.588   0.083 -0.1997  0.8379  0.6926
 2066SOL    HW117657   1.311   3.493   0.079 -1.5918  1.0092 -0.2430
 2066SOL    HW217658   1.230   3.620   0.070 -0.8872 -1.3856  0.0619
 2067SOL     OW17659   1.499   2.528   4.968  0.3134 -0.6163 -0.3055
 2067SOL    HW117660   1.513   2.447   4.919 -1.1082 -0.0795 -1.5783
 2067SOL    HW217661   1.566   2.586   4.931  1.3428  1.8269  5.3322
 2068SOL     OW17662   4.155   1.140   4.319  0.5132 -0.0834  0.1591
 2068SOL    HW117663   4.240   1.154   4.276  0.3547  0.1556 -0.0787
 2068SOL    HW217664   4.168   1.052   4.353  1.3152  0.0373  0.1643
 2069SOL     OW17665   2.218   4.380   8.458  0.2187  0.1137 -1.1049
 2069SOL    HW117666   2.230   4.465   8.415 -0.5774  1.8968  2.2037
 2069SOL    HW217667   2.308   4.347   8.466 -0.3967 -1.7110 -1.5977
 2070SOL     OW17668   4.154   2.682   7.469  0.6500 -0.6155 -0.1986
 2070SOL    HW117669   4.089   2.612   7.468 -0.4817  0.4251  0.1742
 2070SOL    HW217670   4.197   2.675   7.383 -0.2099  0.0444 -0.6900
 2071SOL     OW17671   4.566   4.404   2.926  0.4264 -0.2291 -0.1684
 2071SOL    HW117672   4.609   4.483   2.894 -0.1443  0.0995 -0.1366
 2071SOL    HW217673   4.605   4.341   2.865  1.1203  0.3474 -0.3126
 2072SOL     OW17674   0.379   1.221   8.586 -0.0223 -0.4988 -0.2115
 2072SOL    HW117675   0.428   1.144   8.616 -2.7467 -3.0401 -2.2100
 2072SOL    HW217676   0.377   1.202   8.492 -0.4362 -0.9968 -0.1020
 2073SOL     OW17677   3.016   1.302  12.235 -0.1545  0.0169 -0.0628
 2073SOL    HW117678   3.090   1.350  12.273  0.9807 -0.5699 -1.5490
 2073SOL    HW217679   2.958   1.275  12.306  3.8032 -1.3110  2.6615
 2074SOL     OW17680   0.172   4.386   4.293  0.1696 -0.3839 -0.1290
 2074SOL    HW117681   0.108   4.330   4.336  0.3755  0.3623  1.1300
 2074SOL    HW217682   0.253   4.391   4.344 -0.5347  1.1142  0.8044
 2075SOL     OW17683   1.136   3.463   2.045  0.5662 -1.1507  0.2301
 2075SOL    HW117684   1.224   3.453   2.082  0.6836 -0.0540  0.2305
 2075SOL    HW217685   1.137   3.557   2.032 -2.8948 -0.4612  4.8657
 2076SOL     OW17686   1.091   1.201   7.219 -0.0076 -0.0191 -0.3003
 2076SOL    HW117687   1.030   1.263   7.259  2.3900  2.0888  0.1824
 2076SOL    HW217688   1.159   1.199   7.287 -0.1213 -0.3717 -0.2001
 2077SOL     OW17689   2.670   0.654   3.578 -0.2934 -0.2962 -0.2773
 2077SOL    HW117690   2.700   0.692   3.496 -0.8477  0.5629 -0.0745
 2077SOL    HW217691   2.665   0.563   3.548  2.6453 -1.0291  1.3871
 2078SOL     OW17692   1.108   2.992   9.437  0.4389 -0.1587 -0.3000
 2078SOL    HW117693   1.113   2.903   9.403 -2.3407  0.4578 -2.3408
 2078SOL    HW217694   1.059   3.039   9.369 -2.1798 -0.0569  1.6427
 2079SOL     OW17695   3.661   0.730   8.041 -0.1210 -0.3497  0.1861
 2079SOL    HW117696   3.669   0.699   8.131  1.6662  2.0267  0.8627
 2079SOL    HW217697   3.568   0.733   8.020 -0.4683  0.6367  1.8390
 2080SOL     OW17698   1.292   1.650   9.371 -0.7071  0.1269 -0.3168
 2080SOL    HW117699   1.256   1.690   9.451  1.2531  0.3335  0.4562
 2080SOL    HW217700   1.245   1.567   9.362 -2.7543  1.2053  0.3130
 2081SOL     OW17701   1.377   4.272  14.382  0.1815 -0.4278  0.2917
 2081SOL    HW117702   1.335   4.325  14.450  2.0061 -0.3201  1.3188
 2081SOL    HW217703   1.465   4.267  14.418 -0.8069 -2.0821  2.4353
 2082SOL     OW17704   0.614   3.550   4.303  0.0575 -0.0691 -0.4211
 2082SOL    HW117705   0.606   3.582   4.213  0.5158 -1.5960 -1.0031
 2082SOL    HW217706   0.523   3.553   4.334 -0.5378 -1.2152 -2.0472
 2083SOL     OW17707   3.481   2.710   7.692  0.1793 -0.5718  0.1642
 2083SOL    HW117708   3.525   2.632   7.657 -0.9681 -0.9935 -0.3506
 2083SOL    HW217709   3.438   2.752   7.617  2.2548  1.3443  0.0460
 2084SOL     OW17710   1.228   1.043   8.719 -0.1563  0.4819  0.0061
 2084SOL    HW117711   1.264   0.959   8.691 -1.5695 -0.0474 -0.2264
 2084SOL    HW217712   1.206   1.087   8.637  1.8343 -0.4223 -1.0102
 2085SOL     OW17713   4.104   2.711  10.160 -1.4475  0.1825 -0.6363
 2085SOL    HW117714   4.052   2.700  10.081  0.2625 -1.0228 -1.5978
 2085SOL    HW217715   4.120   2.621  10.188  0.5651  0.4139 -1.0110
 2086SOL     OW17716   2.273   1.448   3.138 -0.1339  0.0196  0.2264
 2086SOL    HW117717   2.325   1.401   3.072 -1.5722 -0.3592 -0.6383
 2086SOL    HW217718   2.345   1.468   3.198 -0.0500 -0.5372  0.3098
 2087SOL     OW17719   0.171   4.106  11.271  0.5232  0.7640 -0.3983
 2087SOL    HW117720   0.134   4.142  11.352  1.4796  0.5695  0.1319
 2087SOL    HW217721   0.094   4.108  11.215 -1.1775  1.2175  1.9660
 2088SOL     OW17722   4.087   3.344   6.441  0.1967  0.2248 -0.7772
 2088SOL    HW117723   4.104   3.381   6.354  3.5911 -2.6993 -1.3809
 2088SOL    HW217724   4.118   3.410   6.503 -2.4915 -0.2824  1.0886
 2089SOL     OW17725   2.047   1.725   4.993  0.2830  0.0464 -0.0714
 2089SOL    HW117726   2.076   1.709   5.082  0.4251  1.0798  0.0748
 2089SOL    HW217727   2.124   1.767   4.953  1.2234  0.0375  1.7334
 2090SOL     OW17728   3.563   3.211   5.691  0.3091 -0.3448  0.2347
 2090SOL    HW117729   3.644   3.232   5.738 -0.3416 -3.4928  2.7723
 2090SOL    HW217730   3.544   3.120   5.713 -0.9572 -0.4035 -1.1094
 2091SOL     OW17731   1.212   3.529  10.612  0.3766  0.2397 -0.4597
 2091SOL    HW117732   1.161   3.515  10.692  1.8817  2.7990  0.9546
 2091SOL    HW217733   1.281   3.587  10.645  0.5111  0.8093 -1.7433
 2092SOL     OW17734   1.362   1.120   3.528  0.3655 -0.0942  0.3104
 2092SOL    HW117735   1.311   1.152   3.454  1.1032 -1.2844 -0.7190
 2092SOL    HW217736   1.353   1.026   3.515 -1.2943  0.0680  0.3566
 2093SOL     OW17737   0.320   4.645  15.713 -0.0912  0.0119 -1.0726
 2093SOL    HW117738   0.231   4.646  15.678 -0.6815  1.3763  0.4497
 2093SOL    HW217739   0.361   0.002  15.674 -0.2835  0.2860 -0.7368
 2094SOL     OW17740   0.890   3.984   6.655  0.1294 -0.4101  0.6270
 2094SOL    HW117741   0.832   3.926   6.703 -0.1435 -1.8391 -1.4409
 2094SOL    HW217742   0.968   3.971   6.709  1.7493  1.3748 -1.2970
 2095SOL     OW17743   3.247   1.954   4.689 -0.7864 -0.2784 -0.3407
 2095SOL    HW117744   3.259   1.865   4.722  1.5926 -0.4568 -1.6445
 2095SOL    HW217745   3.157   1.954   4.657 -1.5045 -0.8263  1.7006
 2096SOL     OW17746   2.812   0.047  13.131 -0.3385 -0.2975  0.0926
 2096SOL    HW117747   2.751   0.063  13.059 -0.1649 -3.3989 -0.7657
 2096SOL    HW217748   2.892   0.012  13.092  1.2559  2.5452  0.8166
 2097SOL     OW17749   2.610   3.829   2.627  0.3853 -0.2234  0.0400
 2097SOL    HW117750   2.658   3.754   2.591 -0.4714  0.1073 -1.7533
 2097SOL    HW217751   2.564   3.784   2.698  1.3219 -2.1280 -0.5337
 2098SOL     OW17752   0.606   0.936  12.165  0.0241 -0.2445 -1.1781
 2098SOL    HW117753   0.546   1.003  12.130 -1.8128 -1.7206 -0.8780
 2098SOL    HW217754   0.620   0.870  12.097  1.6702 -0.4747 -0.6034
 2099SOL     OW17755   1.918   1.307   2.239 -0.0358 -0.1010  0.8520
 2099SOL    HW117756   1.995   1.311   2.182 -0.1362  0.3117  0.7392
 2099SOL    HW217757   1.885   1.217   2.237 -2.3884  0.7375  1.0678
 2100SOL     OW17758   2.145   0.290  16.647 -0.0379 -0.1880  0.1919
 2100SOL    HW117759   2.107   0.205  16.669  0.1372 -0.9377 -2.3587
 2100SOL    HW217760   2.079   0.319  16.584 -3.1314 -4.4107  1.5130
 2101SOL     OW17761   4.188   4.085   7.536  0.0677 -0.6780 -0.0241
 2101SOL    HW117762   4.190   4.114   7.627 -0.9881 -2.0843  0.4552
 2101SOL    HW217763   4.100   4.054   7.519 -0.7176  0.5049  1.8871
 2102SOL     OW17764   1.685   1.385   2.377 -0.2111 -0.0442  0.0512
 2102SOL    HW117765   1.757   1.386   2.314  1.1534  0.0998  1.6032
 2102SOL    HW217766   1.732   1.421   2.452 -0.4941 -0.8510  0.6058
 2103SOL     OW17767   2.399   0.931   3.862 -0.1134  0.5890  0.2219
 2103SOL    HW117768   2.335   1.002   3.867  0.4471  1.2882 -2.5849
 2103SOL    HW217769   2.338   0.857   3.870 -0.1360  0.4917 -0.8605
 2104SOL     OW17770   0.624   3.058   6.033  0.4537  0.0306  0.0842
 2104SOL    HW117771   0.568   3.135   6.040 -0.4669 -0.4717 -1.9000
 2104SOL    HW217772   0.576   3.003   5.972 -0.1314 -0.5421  1.0582
 2105SOL     OW17773   1.919   1.781   3.815 -0.1649 -0.4255  0.0740
 2105SOL    HW117774   1.849   1.773   3.880 -0.9849  3.0862 -0.3422
 2105SOL    HW217775   1.957   1.867   3.832 -1.6039  0.6949 -2.3488
 2106SOL     OW17776   1.296   2.316   8.091 -0.1850  0.2596 -0.2398
 2106SOL    HW117777   1.314   2.297   7.999 -1.9723 -0.4485 -0.4414
 2106SOL    HW217778   1.357   2.390   8.095 -0.2055  0.1872  1.3908
 2107SOL     OW17779   0.148   4.430   1.078  0.2906 -0.2783 -0.2953
 2107SOL    HW117780   0.065   4.474   1.062  1.2290  1.6605  0.2708
 2107SOL    HW217781   0.163   4.437   1.173 -3.5410 -1.2611  0.3917
 2108SOL     OW17782   2.399   3.843   5.810  0.0082 -0.4027 -1.0287
 2108SOL    HW117783   2.461   3.903   5.852 -1.5560  1.9321 -2.0743
 2108SOL    HW217784   2.318   3.893   5.810  0.6970  0.6808 -3.5982
 2109SOL     OW17785   2.268   2.406   8.345  0.0043 -0.1360  0.3880
 2109SOL    HW117786   2.338   2.341   8.351  0.8107  0.6141 -0.7572
 2109SOL    HW217787   2.306   2.461   8.413  1.4375 -0.1451 -0.3912
 2110SOL     OW17788   3.758   1.290  15.887  0.1037  0.4895 -0.2663
 2110SOL    HW117789   3.679   1.282  15.833  0.5014 -0.3486 -0.7213
 2110SOL    HW217790   3.822   1.313  15.819 -1.0189  0.9343 -1.1676
 2111SOL     OW17791   3.678   0.871   4.990 -0.0253 -0.4844 -0.0514
 2111SOL    HW117792   3.745   0.820   4.945  1.0862 -1.3196  2.5193
 2111SOL    HW217793   3.616   0.803   5.015  0.3617 -0.6997  0.3371
 2112SOL     OW17794   2.838   2.209   4.004 -0.7042 -0.3004  1.1555
 2112SOL    HW117795   2.898   2.177   3.937 -0.8284 -0.4016  1.0938
 2112SOL    HW217796   2.817   2.295   3.968  1.0670  0.3164  1.5761
 2113SOL     OW17797   2.940   4.127   1.873 -0.1967  0.5782 -0.3032
 2113SOL    HW117798   2.855   4.144   1.832  0.4670 -0.3863 -2.1186
 2113SOL    HW217799   2.970   4.047   1.829 -1.6310  0.5653 -1.2934
 2114SOL     OW17800   3.279   4.432  12.802  0.3091  0.4394  0.1053
 2114SOL    HW117801   3.212   4.477  12.751  1.0802 -0.6029 -1.8303
 2114SOL    HW217802   3.235   4.441  12.887 -0.8640 -0.2233 -0.4334
 2115SOL     OW17803   3.029   2.365   2.067  0.5283  0.3391  0.9130
 2115SOL    HW117804   3.008   2.351   2.159  1.0842  0.8297  1.1147
 2115SOL    HW217805   3.017   2.276   2.034 -1.3830  0.9717 -0.0792
 2116SOL     OW17806   1.624   3.598   6.748  0.1290 -0.4086  0.2732
 2116SOL    HW117807   1.546   3.600   6.693 -0.0643  0.7526  0.5759
 2116SOL    HW217808   1.695   3.622   6.688 -1.7675  0.2927 -1.6619
 2117SOL     OW17809   3.587   1.877   0.214 -0.0240  0.3171 -0.2795
 2117SOL    HW117810   3.497   1.882   0.181 -0.5796 -0.1773  1.1588
 2117SOL    HW217811   3.638   1.919   0.146  1.0861  0.1034  0.4276
 2118SOL     OW17812   2.212   0.727   6.312  0.2807 -0.4512 -0.6951
 2118SOL    HW117813   2.275   0.692   6.375 -1.0936 -1.1502  0.2989
 2118SOL    HW217814   2.273   0.733   6.239  2.6975 -1.0588  1.2525
 2119SOL     OW17815   3.229   3.731   5.161  0.7215 -0.3969 -0.5111
 2119SOL    HW117816   3.224   3.758   5.253 -1.2129 -0.6358 -0.5384
 2119SOL    HW217817   3.303   3.672   5.150 -0.6645 -1.9473 -1.4970
 2120SOL     OW17818   2.475   1.910   2.808  0.1183 -0.3724  0.1346
 2120SOL    HW117819   2.484   1.974   2.878 -4.4520  0.6217 -0.1916
 2120SOL    HW217820   2.421   1.844   2.851 -2.0354 -0.0015 -1.9967
 2121SOL     OW17821   2.013   3.665   6.776  0.3221  0.6560  0.4951
 2121SOL    HW117822   2.073   3.726   6.733  0.4259  0.7704  0.8023
 2121SOL    HW217823   1.953   3.641   6.705  0.7493  0.3126  0.2517
 2122SOL     OW17824   3.038   2.958  12.326  0.6475 -0.1986 -0.1600
 2122SOL    HW117825   3.084   3.036  12.296  1.5398 -0.2274  1.1335
 2122SOL    HW217826   3.107   2.913  12.375  0.9748 -1.0458 -1.3960
 2123SOL     OW17827   0.790   0.763   7.205 -0.5345 -0.4248  0.1515
 2123SOL    HW117828   0.833   0.847   7.221  2.2709 -1.4170 -2.1714
 2123SOL    HW217829   0.698   0.787   7.197 -0.1727  1.0598  0.5342
 2124SOL     OW17830   3.656   2.244   2.917 -0.5825  0.0372  0.0139
 2124SOL    HW117831   3.668   2.289   2.834 -2.0799  0.0656 -0.1877
 2124SOL    HW217832   3.684   2.316   2.973 -0.1342  0.3092 -0.5616
 2125SOL     OW17833   1.093   2.935   8.089  0.6188 -0.0378 -0.0398
 2125SOL    HW117834   1.057   3.022   8.107  0.5189 -0.1742  0.4253
 2125SOL    HW217835   1.019   2.884   8.123 -1.4717  1.8492 -1.7640
 2126SOL     OW17836   2.283   1.225   5.863 -0.2545 -0.1565  0.5761
 2126SOL    HW117837   2.362   1.203   5.812  0.3622 -0.0731  1.4919
 2126SOL    HW217838   2.312   1.210   5.953  0.0141  0.0020  0.5172
 2127SOL     OW17839   0.757   3.242   5.371 -0.1335 -0.4809 -0.2277
 2127SOL    HW117840   0.825   3.175   5.370  1.5882  1.2431 -0.3873
 2127SOL    HW217841   0.810   3.321   5.383 -2.5105  1.4980 -2.6268
 2128SOL     OW17842   2.224   0.362   0.996 -0.3554 -0.0117  0.4080
 2128SOL    HW117843   2.259   0.444   0.961 -0.3915 -1.3053 -2.6344
 2128SOL    HW217844   2.281   0.298   0.954 -2.4919 -1.4702 -0.2787
 2129SOL     OW17845   0.030   3.286   9.006  0.3350 -0.1774  0.4945
 2129SOL    HW117846   0.106   3.307   8.952  0.4915  1.4763  1.3437
 2129SOL    HW217847   0.048   3.336   9.086  1.8189  0.1205 -0.0307
 2130SOL     OW17848   4.314   3.339   7.175  0.0683 -0.5926  0.2199
 2130SOL    HW117849   4.249   3.310   7.238  0.9499 -1.8301  0.5469
 2130SOL    HW217850   4.382   3.275   7.195 -0.9034 -1.3529  1.0301
 2131SOL     OW17851   2.058   2.120  10.446 -0.0099  0.1127  0.2571
 2131SOL    HW117852   2.011   2.201  10.429  2.0152  0.7401 -2.2011
 2131SOL    HW217853   2.014   2.094  10.528  0.2882  0.9076  0.6685
 2132SOL     OW17854   4.608   3.607   4.136 -0.4851 -0.6617 -0.0581
 2132SOL    HW117855   4.564   3.569   4.212 -0.1626 -0.5234  0.1930
 2132SOL    HW217856   4.675   3.540   4.128  0.3442  0.4337 -2.2503
 2133SOL     OW17857   1.358   2.267  10.229 -0.1123 -0.3112 -0.3702
 2133SOL    HW117858   1.443   2.240  10.194 -0.1023  0.4027 -0.8998
 2133SOL    HW217859   1.325   2.179  10.247 -0.5461 -0.3459 -1.3455
 2134SOL     OW17860   3.258   0.219   4.265 -0.0515  0.0500  0.1568
 2134SOL    HW117861   3.194   0.218   4.336 -2.4292  1.2590 -1.9710
 2134SOL    HW217862   3.225   0.301   4.228 -2.0060 -0.1738  1.3813
 2135SOL     OW17863   0.241   2.080  11.485 -0.8098 -0.2956  0.7115
 2135SOL    HW117864   0.179   2.031  11.432 -0.7103 -0.0395  0.3586
 2135SOL    HW217865   0.197   2.078  11.570 -1.8746 -1.1945  0.1387
 2136SOL     OW17866   0.999   3.694   6.885 -0.0537 -0.3052  0.2644
 2136SOL    HW117867   1.089   3.704   6.853  0.4511 -0.3982  1.6559
 2136SOL    HW217868   1.005   3.649   6.969  0.4271  1.1605  1.0258
 2137SOL     OW17869   2.221   3.035  13.131 -0.3932  0.1503 -0.2849
 2137SOL    HW117870   2.168   2.956  13.125 -1.4499  0.7771  0.7045
 2137SOL    HW217871   2.152   3.101  13.136 -1.8261 -1.3495 -0.2939
 2138SOL     OW17872   3.441   0.916  11.914  0.0099 -0.4989  0.0861
 2138SOL    HW117873   3.364   0.939  11.863 -0.0943  1.3606  1.0734
 2138SOL    HW217874   3.475   1.003  11.936  1.0738 -0.3105 -2.3935
 2139SOL     OW17875   0.393   0.425  15.892 -0.2382 -0.0216  0.2305
 2139SOL    HW117876   0.391   0.386  15.980  0.6245  0.0348  0.2795
 2139SOL    HW217877   0.479   0.465  15.888 -0.2903 -0.0387 -1.0381
 2140SOL     OW17878   2.159   3.839  12.632  0.3028  0.1450 -0.0485
 2140SOL    HW117879   2.082   3.814  12.683 -0.4890  2.1871 -0.2495
 2140SOL    HW217880   2.223   3.842  12.703  0.7016 -1.3999 -0.3349
 2141SOL     OW17881   3.495   3.926  16.157 -0.2416  0.3059 -0.6279
 2141SOL    HW117882   3.406   3.933  16.121  0.6089  0.9098 -2.6443
 2141SOL    HW217883   3.496   3.862  16.227  2.4582  1.7649  0.6823
 2142SOL     OW17884   3.857   1.237   4.756 -0.5984  0.2816 -0.3139
 2142SOL    HW117885   3.785   1.210   4.813 -1.8925  2.5833 -0.8117
 2142SOL    HW217886   3.845   1.195   4.671 -0.1746  0.0486 -0.2588
 2143SOL     OW17887   0.426   2.859  14.078 -0.0879  0.2922  0.2419
 2143SOL    HW117888   0.471   2.858  14.163  0.1726  1.4332  0.1285
 2143SOL    HW217889   0.452   2.778  14.035  2.6038  1.8192 -1.0188
 2144SOL     OW17890   2.479   1.799  15.544 -0.2227  0.1819  0.0709
 2144SOL    HW117891   2.467   1.890  15.570 -0.8089 -0.2122  1.2041
 2144SOL    HW217892   2.392   1.773  15.514  0.4170 -0.2169 -1.4534
 2145SOL     OW17893   2.936   0.140   7.959 -0.5116 -0.4951 -0.0992
 2145SOL    HW117894   3.027   0.127   7.987 -1.0845  0.6643  2.3528
 2145SOL    HW217895   2.936   0.235   7.949 -0.5063 -0.4604  0.2242
 2146SOL     OW17896   3.493   1.623   9.086  0.1149 -0.0395 -0.2302
 2146SOL    HW117897   3.502   1.597   9.178 -1.1569  0.5506  0.0657
 2146SOL    HW217898   3.410   1.670   9.093  0.5296  0.6950 -0.1767
 2147SOL     OW17899   2.430   2.904  10.449  0.0976  0.0480  0.0699
 2147SOL    HW117900   2.430   3.000  10.446  2.7641 -0.0012 -1.4982
 2147SOL    HW217901   2.512   2.876  10.490  0.3996  0.2961 -0.3631
 2148SOL     OW17902   1.184   4.599   4.884  0.0234 -0.4791 -0.4085
 2148SOL    HW117903   1.262   4.644   4.851  0.5571  0.2415  1.7954
 2148SOL    HW217904   1.192   4.625   4.976 -1.5227 -2.6191  0.3231
 2149SOL     OW17905   0.453   0.393  12.829 -0.3591 -0.5895 -0.3875
 2149SOL    HW117906   0.462   0.303  12.796 -1.0669 -0.6653 -0.3713
 2149SOL    HW217907   0.429   0.431  12.745  1.0103 -0.2712 -0.6252
 2150SOL     OW17908   2.067   2.705   8.302 -0.3971 -0.6990 -0.5749
 2150SOL    HW117909   2.014   2.626   8.295 -0.6281 -0.4635 -1.5954
 2150SOL    HW217910   2.145   2.679   8.253 -0.0103 -0.4149 -0.1054
 2151SOL     OW17911   1.387   2.323   0.788  0.0334  0.0676 -0.1646
 2151SOL    HW117912   1.454   2.260   0.763  0.6480  0.5587  0.2336
 2151SOL    HW217913   1.397   2.316   0.883  0.0148 -0.4224 -0.1979
 2152SOL     OW17914   4.551   0.992   3.121  0.3449 -0.3269 -0.3589
 2152SOL    HW117915   4.617   0.923   3.115  1.1008  0.6660 -3.1896
 2152SOL    HW217916   4.498   0.986   3.201  0.7924 -0.9220 -0.1087
 2153SOL     OW17917   3.771   2.880   7.237  0.1099  0.5032 -0.0920
 2153SOL    HW117918   3.843   2.822   7.210  0.9448 -0.0833  3.4648
 2153SOL    HW217919   3.757   2.940   7.164  1.0192  1.9487  0.9399
 2154SOL     OW17920   2.451   4.684   3.247  0.2661 -0.3671  0.6400
 2154SOL    HW117921   2.415   4.673   3.158 -1.3610  0.2115  1.2320
 2154SOL    HW217922   2.452   4.592   3.274  3.2918  0.1207  2.1334
 2155SOL     OW17923   3.551   3.345  11.741  0.0028  0.1525  0.8657
 2155SOL    HW117924   3.470   3.389  11.770 -0.7370 -0.7241  0.1362
 2155SOL    HW217925   3.533   3.337  11.647 -0.6954  0.8465  0.9370
 2156SOL     OW17926   1.960   1.127  10.695  0.6161 -0.0454  0.1441
 2156SOL    HW117927   1.897   1.184  10.740  2.1499  0.8461  1.1959
 2156SOL    HW217928   1.927   1.038  10.701 -1.1413  0.5807 -0.2269
 2157SOL     OW17929   2.732   0.006   7.486  0.7630 -0.7942 -0.4036
 2157SOL    HW117930   2.749   4.647   7.538 -0.3353  0.6607  2.2043
 2157SOL    HW217931   2.655   0.036   7.535 -0.1013  1.2395 -2.9984
 2158SOL     OW17932   4.442   2.764  17.501  0.1669 -0.1184  0.6336
 2158SOL    HW117933   4.349   2.745  17.513  0.0581 -0.7036 -1.0808
 2158SOL    HW217934   4.486   2.688  17.540  0.7656  1.0902  2.2703
 2159SOL     OW17935   1.194   2.498   4.446 -0.6571  0.5228 -0.8216
 2159SOL    HW117936   1.136   2.570   4.470  0.4816  1.0600  0.2879
 2159SOL    HW217937   1.213   2.509   4.353  0.8851 -1.4177 -0.7433
 2160SOL     OW17938   1.315   0.507   9.286 -0.2713 -0.1447 -0.5662
 2160SOL    HW117939   1.284   0.573   9.224 -1.7738  0.2908  0.6762
 2160SOL    HW217940   1.245   0.442   9.288 -0.4941  0.1626  1.2072
 2161SOL     OW17941   0.917   0.927   9.266  0.1166  0.1382  0.0402
 2161SOL    HW117942   0.945   0.902   9.354 -1.0254 -2.3591 -0.3013
 2161SOL    HW217943   0.931   0.848   9.215 -0.7580  1.5331 -2.3393
 2162SOL     OW17944   1.688   2.683   1.713  0.1728 -0.0944 -0.4759
 2162SOL    HW117945   1.765   2.629   1.695 -0.6945 -1.8787  1.1489
 2162SOL    HW217946   1.663   2.697   1.622 -1.8445  2.2418  0.4358
 2163SOL     OW17947   4.569   4.300   3.551  0.0922 -0.0290  0.4586
 2163SOL    HW117948   4.630   4.249   3.605  3.0269  3.0659  0.1019
 2163SOL    HW217949   4.488   4.311   3.601  0.2648  1.5947  0.3964
 2164SOL     OW17950   2.521   2.668   2.717  0.1126  0.2611  0.2374
 2164SOL    HW117951   2.498   2.760   2.722  2.5431  0.8250  1.1529
 2164SOL    HW217952   2.464   2.633   2.649 -2.6776  1.5332  1.9135
 2165SOL     OW17953   3.067   3.426   3.230  0.3530 -0.3545 -0.1884
 2165SOL    HW117954   3.009   3.350   3.223 -2.5810  1.8497 -0.0420
 2165SOL    HW217955   3.018   3.494   3.278 -2.2797 -0.0122 -3.3436
 2166SOL     OW17956   0.218   3.165   7.529 -0.0811  0.0884 -0.0534
 2166SOL    HW117957   0.299   3.115   7.516  0.5224  0.3481  2.9067
 2166SOL    HW217958   0.186   3.111   7.600  1.3826 -1.3981 -0.5149
 2167SOL     OW17959   3.923   3.140   4.925  0.6513  0.5436  0.1951
 2167SOL    HW117960   3.886   3.088   4.853  1.0017 -0.2512  0.6019
 2167SOL    HW217961   4.010   3.161   4.892  1.2099 -1.1929  0.6047
 2168SOL     OW17962   4.174   3.639  17.483 -0.3384 -0.2882 -0.9597
 2168SOL    HW117963   4.260   3.626  17.442 -0.7752 -0.5759 -1.7749
 2168SOL    HW217964   4.133   3.660  17.400 -2.7181  2.3622  0.9153
 2169SOL     OW17965   2.106   3.894   2.217  0.5623  0.7765 -0.0376
 2169SOL    HW117966   2.022   3.902   2.171 -0.4730  0.6885  1.8386
 2169SOL    HW217967   2.158   3.971   2.194  1.8620 -0.0360  0.1633
 2170SOL     OW17968   1.944   3.398   3.418 -0.8385 -0.1269  0.0768
 2170SOL    HW117969   1.861   3.415   3.373 -0.2446 -0.3625 -1.1052
 2170SOL    HW217970   1.942   3.459   3.492  0.6999  1.2381 -0.9928
 2171SOL     OW17971   0.297   2.491   0.426 -0.0270 -0.2798  0.1427
 2171SOL    HW117972   0.227   2.434   0.457  0.5124 -0.4539  1.0219
 2171SOL    HW217973   0.364   2.475   0.492  1.2135 -0.0070 -1.0441
 2172SOL     OW17974   1.031   4.200   9.184 -0.2791  0.2135  0.2094
 2172SOL    HW117975   1.088   4.273   9.161 -0.0064 -0.2735 -0.6598
 2172SOL    HW217976   1.065   4.132   9.126 -0.2119 -0.5619  1.1571
 2173SOL     OW17977   2.787   3.723   5.261 -0.1598 -0.6886 -0.6979
 2173SOL    HW117978   2.821   3.637   5.239 -1.0477 -0.7698 -1.7541
 2173SOL    HW217979   2.754   3.703   5.349 -1.4232  2.9470 -0.3485
 2174SOL     OW17980   3.244   4.374   9.268 -0.3247  0.2828 -0.4904
 2174SOL    HW117981   3.214   4.444   9.325 -0.3916 -0.9153  0.9563
 2174SOL    HW217982   3.237   4.301   9.330 -0.0863  0.3346 -0.4021
 2175SOL     OW17983   1.905   2.185   7.901 -0.4837 -0.2471 -0.4737
 2175SOL    HW117984   1.872   2.104   7.863 -0.1323  0.4186 -2.1795
 2175SOL    HW217985   1.850   2.192   7.980  0.4133  2.7833 -0.1188
 2176SOL     OW17986   2.262   2.676   6.300 -0.7328 -0.2066  0.0505
 2176SOL    HW117987   2.222   2.675   6.387  3.4117 -0.0985  1.9179
 2176SOL    HW217988   2.183   2.677   6.246  0.3574 -1.6744 -1.5898
 2177SOL     OW17989   2.168   0.689   5.235 -0.0166  0.6818 -0.7980
 2177SOL    HW117990   2.263   0.689   5.251 -0.6479 -1.0310  2.9446
 2177SOL    HW217991   2.165   0.772   5.188 -0.8046  0.8489 -0.4400
 2178SOL     OW17992   2.794   4.391   8.940  0.4274  0.1635  0.1518
 2178SOL    HW117993   2.873   4.376   8.992  0.8124  0.9715 -0.2103
 2178SOL    HW217994   2.744   4.310   8.951 -0.1036  0.4877  0.1211
 2179SOL     OW17995   1.019   4.572   4.262 -0.1317  0.4879 -0.0723
 2179SOL    HW117996   0.992   4.659   4.293 -1.4684  0.0482 -0.0094
 2179SOL    HW217997   1.056   4.590   4.176  1.8656  1.3561  0.9562
 2180SOL     OW17998   2.284   3.172   3.596 -0.0484  0.0811  0.5964
 2180SOL    HW117999   2.232   3.195   3.673  0.2423 -0.9217  1.0923
 2180SOL    HW218000   2.214   3.178   3.532 -1.7924 -0.0628  2.4808
 2181SOL     OW18001   1.845   3.717   2.832 -0.1732  0.0671 -0.0019
 2181SOL    HW118002   1.781   3.680   2.770  0.9495 -2.7994  0.5695
 2181SOL    HW218003   1.850   3.805   2.794 -1.6480 -0.3010 -1.0764
 2182SOL     OW18004   1.051   0.319   4.613 -0.3802 -0.1147  0.6263
 2182SOL    HW118005   1.103   0.381   4.665 -1.2149 -0.3858  1.7839
 2182SOL    HW218006   1.037   0.248   4.675  0.1425 -2.3047 -1.7571
 2183SOL     OW18007   1.912   0.401  15.885  0.4632 -0.5818 -0.0970
 2183SOL    HW118008   1.959   0.318  15.897 -0.5345 -0.9432  1.2502
 2183SOL    HW218009   1.842   0.386  15.948  0.4991 -3.6648 -0.7474
 2184SOL     OW18010   3.805   0.749  10.489 -0.8725 -0.3015  0.0796
 2184SOL    HW118011   3.890   0.779  10.456 -0.9522  0.7157  0.8025
 2184SOL    HW218012   3.758   0.830  10.508  0.1876  0.3078  0.0833
 2185SOL     OW18013   0.757   4.367   7.994  0.4047  0.0214  0.1787
 2185SOL    HW118014   0.788   4.362   8.084  0.8049 -2.8722 -0.1360
 2185SOL    HW218015   0.824   4.427   7.961 -0.2850  2.8957  4.0000
 2186SOL     OW18016   2.447   1.178   6.124 -0.2048 -0.2497  0.1449
 2186SOL    HW118017   2.361   1.146   6.152 -1.7226  2.2434 -1.6800
 2186SOL    HW218018   2.490   1.093   6.126  0.8324  0.2599 -0.1969
 2187SOL     OW18019   3.029   3.851   9.455 -0.3671 -0.0504  0.0454
 2187SOL    HW118020   3.054   3.895   9.537 -0.4525  3.2624 -1.7299
 2187SOL    HW218021   2.934   3.853   9.465 -0.5366  0.6032 -1.7977
 2188SOL     OW18022   4.592   1.031  14.609 -0.3105 -0.5715  0.0909
 2188SOL    HW118023   4.593   0.935  14.619  0.7711 -0.7554 -1.7773
 2188SOL    HW218024   4.685   1.054  14.598 -0.6900 -0.2994 -2.4957
 2189SOL     OW18025   2.784   0.421   5.360  0.3290  0.4561  0.0955
 2189SOL    HW118026   2.756   0.354   5.422 -1.0201  0.4210 -0.5693
 2189SOL    HW218027   2.746   0.494   5.409 -0.0322 -0.6101  1.4269
 2190SOL     OW18028   2.269   3.579  10.541  0.6454  0.2112 -0.1347
 2190SOL    HW118029   2.359   3.549  10.545  0.2197 -1.1697 -1.0356
 2190SOL    HW218030   2.266   3.647  10.473 -0.7600  1.5941  1.2864
 2191SOL     OW18031   3.577   3.027   2.860  0.2765 -0.3014  0.1686
 2191SOL    HW118032   3.606   3.096   2.919  1.2223 -0.4828 -0.0783
 2191SOL    HW218033   3.659   2.995   2.821 -0.2667 -2.0989  0.4790
 2192SOL     OW18034   1.246   4.430   4.291  0.3041 -0.2429  0.2004
 2192SOL    HW118035   1.184   4.461   4.358 -0.7538 -0.8193 -0.5190
 2192SOL    HW218036   1.272   4.351   4.338  2.2644  0.6893  0.7003
 2193SOL     OW18037   1.627   3.619  17.519 -1.0298 -0.6213 -0.1676
 2193SOL    HW118038   1.559   3.684  17.499 -1.2558 -0.4452  1.1684
 2193SOL    HW218039   1.624   3.638  17.613  0.2448  1.6119 -0.5770
 2194SOL     OW18040   2.293   2.813   5.862  0.1854 -0.2999 -0.1740
 2194SOL    HW118041   2.375   2.853   5.836 -0.0948  0.0907 -0.4557
 2194SOL    HW218042   2.311   2.719   5.861  2.3007  0.1044  1.4942
 2195SOL     OW18043   3.884   0.242   5.399 -0.2951  0.3370 -0.0332
 2195SOL    HW118044   3.847   0.230   5.486 -0.8663 -1.9885 -0.6125
 2195SOL    HW218045   3.818   0.293   5.352  0.0776 -0.9599 -1.9833
 2196SOL     OW18046   4.220   2.325   9.403 -0.1539 -0.2658  0.5083
 2196SOL    HW118047   4.221   2.382   9.480  0.6892  0.1221  0.2178
 2196SOL    HW218048   4.308   2.288   9.402 -0.0235  0.0222  3.5129
 2197SOL     OW18049   2.461   0.554   4.120  0.0010  0.0137  0.0621
 2197SOL    HW118050   2.489   0.646   4.114 -1.4237  0.4731  0.5277
 2197SOL    HW218051   2.490   0.529   4.208  0.4406 -0.4970 -0.2334
 2198SOL     OW18052   2.334   2.146  15.254  0.1418 -0.7404 -0.0644
 2198SOL    HW118053   2.251   2.138  15.207  0.1270  1.9736 -0.4935
 2198SOL    HW218054   2.396   2.197  15.202 -0.3253 -0.7735 -0.6558
 2199SOL     OW18055   1.395   1.807   2.027 -0.0962  0.3791 -0.2999
 2199SOL    HW118056   1.480   1.803   1.984  0.6784  1.4607  1.1558
 2199SOL    HW218057   1.424   1.818   2.117  0.9293 -0.6924 -0.5095
 2200SOL     OW18058   0.804   4.597   6.981  0.0643 -0.4121  0.5659
 2200SOL    HW118059   0.811   4.643   7.064  1.1311  0.6074 -0.0873
 2200SOL    HW218060   0.714   4.607   6.951  0.2160 -2.5756 -0.6507
 2201SOL     OW18061   2.369   4.566   1.968  0.1111 -0.3696  0.1847
 2201SOL    HW118062   2.329   4.613   1.895  0.5021  0.2840  0.3862
 2201SOL    HW218063   2.456   4.605   1.975  0.3364 -0.5554 -1.6046
 2202SOL     OW18064   3.252   4.501   2.138 -0.0079 -0.0563 -0.2320
 2202SOL    HW118065   3.303   4.505   2.220  0.7677  0.7282 -0.7502
 2202SOL    HW218066   3.303   4.425   2.110 -1.3651 -0.6360 -1.0833
 2203SOL     OW18067   4.169   1.836   6.089 -0.0325 -0.8059  0.2101
 2203SOL    HW118068   4.145   1.764   6.146 -2.6779 -1.0028 -1.1632
 2203SOL    HW218069   4.174   1.783   6.009  0.5937 -0.1573 -0.1807
 2204SOL     OW18070   0.036   3.479   6.929 -0.3901  0.0014 -0.2439
 2204SOL    HW118071   4.706   3.538   6.985  1.2276  1.5469 -0.3946
 2204SOL    HW218072   0.107   3.469   6.993 -1.1537 -0.3149  0.5678
 2205SOL     OW18073   2.336   4.586  14.588 -0.3345  0.1828  0.1130
 2205SOL    HW118074   2.261   4.530  14.610 -0.2963  0.0817 -0.0182
 2205SOL    HW218075   2.377   4.526  14.525 -1.2767 -0.6017  0.2426
 2206SOL     OW18076   1.649   4.378   4.192  0.0002  0.4680  0.1919
 2206SOL    HW118077   1.630   4.401   4.101 -0.9182 -0.8312  0.0740
 2206SOL    HW218078   1.650   4.283   4.193 -1.0790  0.4549  0.0325
 2207SOL     OW18079   2.750   3.878  11.566 -0.2117 -0.8153 -0.1174
 2207SOL    HW118080   2.663   3.903  11.598  0.6780  1.6279  0.3984
 2207SOL    HW218081   2.746   3.924  11.483 -3.5178  0.6214  0.8150
 2208SOL     OW18082   0.786   2.563   7.926 -0.3343 -0.5999  0.4067
 2208SOL    HW118083   0.861   2.512   7.958  0.9788  1.7772  1.1327
 2208SOL    HW218084   0.813   2.582   7.836  1.3351 -1.2410  0.7777
 2209SOL     OW18085   3.195   4.202   1.724 -0.0331 -0.5220 -0.0006
 2209SOL    HW118086   3.109   4.163   1.739 -0.8229  0.9018 -0.8436
 2209SOL    HW218087   3.255   4.130   1.703 -1.2541 -1.5382  0.0205
 2210SOL     OW18088   2.343   3.233   1.939  0.0740 -0.3764 -0.0630
 2210SOL    HW118089   2.313   3.320   1.914 -2.0980 -1.7914 -2.3509
 2210SOL    HW218090   2.413   3.220   1.875 -1.8188  0.1452 -2.2255
 2211SOL     OW18091   4.409   2.659   4.674 -0.1079 -0.1685  0.5881
 2211SOL    HW118092   4.350   2.731   4.654 -0.5211 -0.6459  0.0961
 2211SOL    HW218093   4.370   2.626   4.756 -1.6203 -0.3894 -0.2243
 2212SOL     OW18094   2.757   4.247  17.295  0.5383 -0.0989 -0.7017
 2212SOL    HW118095   2.716   4.168  17.262  0.9317 -0.5415 -0.1238
 2212SOL    HW218096   2.808   4.272  17.218  1.2664 -0.9271 -0.4794
 2213SOL     OW18097   1.194   1.853   2.773  0.5238 -0.3841  0.3467
 2213SOL    HW118098   1.132   1.898   2.830 -0.8404  0.4597 -1.7864
 2213SOL    HW218099   1.229   1.921   2.714 -1.2996  0.7005  0.5091
 2214SOL     OW18100   0.448   3.376   5.386  0.2634  0.3964  0.3182
 2214SOL    HW118101   0.530   3.330   5.365 -1.6179 -2.1082 -1.4875
 2214SOL    HW218102   0.394   3.303   5.415 -3.1443  1.6672 -2.7664
 2215SOL     OW18103   4.509   1.452   2.601 -0.4997  0.1159 -0.2991
 2215SOL    HW118104   4.548   1.394   2.666 -1.6529 -0.8974 -0.5049
 2215SOL    HW218105   4.415   1.462   2.615 -0.6372 -0.8806 -0.4844
 2216SOL     OW18106   0.944   0.178   6.004  0.0600 -0.4373 -0.1818
 2216SOL    HW118107   0.996   0.241   5.954 -0.9428  0.5165 -0.0101
 2216SOL    HW218108   1.004   0.111   6.038 -0.1372 -0.5314 -0.0222
 2217SOL     OW18109   0.450   0.199   5.530  0.3182 -0.2160  0.3551
 2217SOL    HW118110   0.426   0.246   5.610  1.7581  2.1101 -0.5701
 2217SOL    HW218111   0.417   0.259   5.462 -0.8061  0.5859  1.5953
 2218SOL     OW18112   3.225   4.395  10.558  0.1140 -0.2797  0.0905
 2218SOL    HW118113   3.318   4.404  10.581  0.2101 -0.2826 -0.2890
 2218SOL    HW218114   3.222   4.454  10.483  0.6948 -1.3730 -0.8014
 2219SOL     OW18115   0.497   4.512  10.714 -0.0035  0.1661  0.0539
 2219SOL    HW118116   0.505   4.582  10.779  2.4391  0.9908 -1.1448
 2219SOL    HW218117   0.588   4.497  10.687  0.0732  1.5415 -0.4197
 2220SOL     OW18118   3.361   2.682  14.787  0.3532  0.0632  0.3408
 2220SOL    HW118119   3.339   2.743  14.858  2.2245 -0.5726  1.4554
 2220SOL    HW218120   3.300   2.703  14.717 -0.5881  0.2962  1.2257
 2221SOL     OW18121   4.268   2.971   2.704 -0.0662  0.2985  0.2956
 2221SOL    HW118122   4.231   3.044   2.654  0.4591  0.5486  0.2614
 2221SOL    HW218123   4.333   2.939   2.642  0.4324  0.0025  0.9626
 2222SOL     OW18124   4.672   2.115   4.166 -0.7317 -0.3693 -0.2303
 2222SOL    HW118125   4.619   2.063   4.105 -1.4557 -1.5448  1.4048
 2222SOL    HW218126   0.022   2.141   4.108  0.3467 -1.0700  0.7790
 2223SOL     OW18127   2.434   3.675   7.365  0.0216 -0.0505  0.2281
 2223SOL    HW118128   2.346   3.706   7.345 -0.2777 -0.2636  1.2155
 2223SOL    HW218129   2.432   3.655   7.459  2.2253  0.9309  0.4870
 2224SOL     OW18130   0.436   0.560   6.521 -0.3044 -0.3165  0.0947
 2224SOL    HW118131   0.390   0.487   6.480  1.2985 -1.7143  0.7576
 2224SOL    HW218132   0.525   0.546   6.489 -1.1501 -0.9241 -1.9647
 2225SOL     OW18133   3.610   3.851   5.166 -0.3647 -0.6404 -0.0138
 2225SOL    HW118134   3.681   3.809   5.216  0.4411  2.5806  1.5747
 2225SOL    HW218135   3.549   3.879   5.234 -0.0136  0.0357  0.0270
 2226SOL     OW18136   1.302   2.476   5.606 -0.0118  0.0333 -0.4782
 2226SOL    HW118137   1.280   2.430   5.688 -0.7281 -0.7021 -1.0818
 2226SOL    HW218138   1.353   2.548   5.643  0.7205 -1.5951  1.6642
 2227SOL     OW18139   1.824   0.141   3.894  0.3049  0.2232 -0.0802
 2227SOL    HW118140   1.740   0.182   3.916  1.4597  1.0360  2.7901
 2227SOL    HW218141   1.874   0.145   3.976  2.1426  1.7585 -1.2779
 2228SOL     OW18142   3.971   3.196   7.105  0.1935 -0.2127 -0.7006
 2228SOL    HW118143   4.025   3.163   7.177 -0.4761  1.7157  0.7080
 2228SOL    HW218144   4.043   3.197   7.042 -1.7307  2.0447 -2.8701
 2229SOL     OW18145   3.803   1.788   0.508 -0.0118  0.0074 -0.0291
 2229SOL    HW118146   3.736   1.728   0.538 -1.1859  1.6004  0.5663
 2229SOL    HW218147   3.771   1.869   0.548  1.6903  0.6740 -0.0234
 2230SOL     OW18148   3.654   2.741   4.841  0.1591 -0.6584 -0.4232
 2230SOL    HW118149   3.746   2.721   4.827 -0.3612 -1.7728 -2.2454
 2230SOL    HW218150   3.623   2.653   4.863  0.0623 -0.4384  0.3471
 2231SOL     OW18151   3.124   0.567   5.461  0.4704  0.3651 -0.3776
 2231SOL    HW118152   3.055   0.630   5.479  1.4023  1.0799  0.6344
 2231SOL    HW218153   3.089   0.509   5.393  1.0177 -0.4829  0.0556
 2232SOL     OW18154   3.970   2.430   2.698 -0.0150 -0.3060  0.0487
 2232SOL    HW118155   3.898   2.397   2.644 -0.9091  0.7640  0.5801
 2232SOL    HW218156   3.939   2.520   2.709  1.0615 -0.0404  0.8302
 2233SOL     OW18157   3.754   2.513  15.902  0.2835  0.0422 -0.3519
 2233SOL    HW118158   3.676   2.549  15.945 -1.0352 -2.9819 -0.1887
 2233SOL    HW218159   3.712   2.455  15.838  1.4020  1.4232 -2.3462
 2234SOL     OW18160   4.514   2.316  12.046  0.2558  0.5581  0.1339
 2234SOL    HW118161   4.477   2.231  12.022  1.5626  0.9567 -3.3530
 2234SOL    HW218162   4.561   2.280  12.122  0.1497 -1.9210 -0.9662
 2235SOL     OW18163   1.342   3.119   3.825 -0.0378  0.3587  0.5496
 2235SOL    HW118164   1.325   3.125   3.919 -0.7024  0.7423  0.4098
 2235SOL    HW218165   1.311   3.033   3.798  2.9248 -1.0686  1.7129
 2236SOL     OW18166   0.275   1.106  12.908 -0.7831  0.2836  0.1981
 2236SOL    HW118167   0.301   1.018  12.879  0.2345  0.2100  1.3370
 2236SOL    HW218168   0.309   1.106  12.998 -0.5425 -0.0860  0.1069
 2237SOL     OW18169   3.039   4.054   2.117  0.3825  0.2280  0.1252
 2237SOL    HW118170   2.975   4.073   2.048  1.9485 -1.6312 -1.8767
 2237SOL    HW218171   2.990   4.015   2.189  2.2365 -0.3977  1.0561
 2238SOL     OW18172   2.527   2.871   5.735 -0.2898  0.7713 -0.1423
 2238SOL    HW118173   2.608   2.899   5.778  0.3860 -1.5041  0.0810
 2238SOL    HW218174   2.560   2.821   5.660 -1.8881  0.2493 -0.5016
 2239SOL     OW18175   3.577   4.282   3.450 -0.3035 -0.4427  0.0719
 2239SOL    HW118176   3.530   4.230   3.385  1.1690 -0.7784 -0.7086
 2239SOL    HW218177   3.526   4.250   3.525  0.9534 -0.1395  1.0709
 2240SOL     OW18178   2.577   4.702   3.917 -0.2586 -0.1961 -0.1800
 2240SOL    HW118179   2.503   4.693   3.857 -0.2376 -0.5369 -0.1525
 2240SOL    HW218180   2.523   0.007   3.991  1.8685 -0.3569  1.4397
 2241SOL     OW18181   3.319   4.216   4.254 -0.1945  0.1034  0.4643
 2241SOL    HW118182   3.359   4.200   4.169 -2.0654 -0.8552 -0.2378
 2241SOL    HW218183   3.321   4.133   4.303  1.9804  0.4268  0.9406
 2242SOL     OW18184   3.858   1.063   3.416 -0.7916  0.0783  0.3876
 2242SOL    HW118185   3.774   1.041   3.376  0.2378 -1.1685 -1.0826
 2242SOL    HW218186   3.875   1.149   3.378 -0.8365 -0.2011 -0.2762
 2243SOL     OW18187   1.223   1.635   1.900 -0.2675  0.3545  0.1143
 2243SOL    HW118188   1.271   1.692   1.959 -0.0359 -0.5220  0.7745
 2243SOL    HW218189   1.278   1.557   1.904 -0.3987  0.2590  0.0774
 2244SOL     OW18190   0.731   3.308   7.973  0.0945  0.2233 -0.7375
 2244SOL    HW118191   0.651   3.354   7.945  0.3954 -0.0707 -2.0880
 2244SOL    HW218192   0.704   3.216   7.966  1.2963 -0.3148  1.7259
 2245SOL     OW18193   1.650   2.874   6.135 -0.0341  0.0665  0.4762
 2245SOL    HW118194   1.709   2.946   6.155 -0.8887  0.4935  1.5100
 2245SOL    HW218195   1.707   2.799   6.147 -0.7931 -0.2469  2.1616
 2246SOL     OW18196   2.886   2.516   4.700 -0.1440 -0.4279  0.8463
 2246SOL    HW118197   2.923   2.427   4.697  1.0069  0.0169  1.5516
 2246SOL    HW218198   2.969   2.564   4.705 -0.1111 -0.4709  0.7147
 2247SOL     OW18199   2.577   2.598   7.691  0.3673 -0.1446  0.2766
 2247SOL    HW118200   2.498   2.562   7.650  1.6649  0.4527 -2.8152
 2247SOL    HW218201   2.647   2.565   7.635 -0.8656  0.3620 -1.6147
 2248SOL     OW18202   3.555   1.780   9.865 -0.9895  0.1171  0.3205
 2248SOL    HW118203   3.510   1.717   9.809 -1.7353  0.5653  0.4135
 2248SOL    HW218204   3.483   1.841   9.880 -0.9903 -0.0608  1.0468
 2249SOL     OW18205   1.490   3.583  10.974 -0.1269 -0.0315 -0.1715
 2249SOL    HW118206   1.481   3.639  11.052  0.6567 -0.2483  0.0783
 2249SOL    HW218207   1.492   3.496  11.013  0.9874  0.7669  1.5980
 2250SOL     OW18208   0.675   4.350   3.634  0.2368 -0.3719 -0.4252
 2250SOL    HW118209   0.583   4.348   3.607 -0.3553  2.7611  1.4547
 2250SOL    HW218210   0.723   4.415   3.583  0.8272 -0.6249 -0.1951
 2251SOL     OW18211   0.977   0.925   2.600  0.1088 -0.9060 -0.1718
 2251SOL    HW118212   1.020   0.875   2.670  2.4360  0.3195 -0.7185
 2251SOL    HW218213   1.021   1.008   2.617  0.5176 -0.7951 -1.7107
 2252SOL     OW18214   2.818   0.725   9.902 -0.0268  0.5695 -0.5471
 2252SOL    HW118215   2.796   0.742   9.993  2.1134 -0.2148  0.1314
 2252SOL    HW218216   2.736   0.735   9.854 -0.7673  0.6958  0.7494
 2253SOL     OW18217   1.785   0.944  14.852 -0.1896 -0.2551 -0.1225
 2253SOL    HW118218   1.846   0.983  14.915 -1.8246 -0.8897  1.8773
 2253SOL    HW218219   1.813   0.978  14.767  0.7677  0.4972  0.4966
 2254SOL     OW18220   0.107   4.654   6.736  0.1636  0.3445  0.2267
 2254SOL    HW118221   0.114   0.027   6.756 -0.8957  0.6173 -0.6619
 2254SOL    HW218222   0.053   4.649   6.657  2.0469 -2.1056 -0.9247
 2255SOL     OW18223   2.817   3.502   6.634  0.1761 -0.3168 -0.3780
 2255SOL    HW118224   2.910   3.480   6.629  0.0017 -0.6919 -1.9759
 2255SOL    HW218225   2.780   3.432   6.580 -0.3718 -0.5021  0.2467
 2256SOL     OW18226   3.749   0.051   3.327 -0.3413  0.5427 -0.5958
 2256SOL    HW118227   3.838   0.018   3.334 -0.3371  0.5567 -0.5841
 2256SOL    HW218228   3.764   0.138   3.364  0.3816  0.0137  0.3476
 2257SOL     OW18229   3.410   4.070   7.340  0.3962  0.1095 -0.1390
 2257SOL    HW118230   3.371   4.103   7.422  0.5609  1.4759 -0.6137
 2257SOL    HW218231   3.336   4.083   7.280 -0.7273 -3.2346  0.4977
 2258SOL     OW18232   3.575   4.619   9.375  0.3100  0.7706 -0.7594
 2258SOL    HW118233   3.530   4.658   9.450 -0.4385  1.6889 -1.6838
 2258SOL    HW218234   3.575   4.690   9.311  0.7117  0.4379 -1.1288
 2259SOL     OW18235   2.459   3.954  10.896 -0.3817 -0.1756 -0.1503
 2259SOL    HW118236   2.383   4.009  10.916 -1.0068 -0.8303 -0.6975
 2259SOL    HW218237   2.510   4.013  10.840  1.8906  0.6862  2.8742
 2260SOL     OW18238   0.526   2.546   6.536  0.3576  0.2814  0.3442
 2260SOL    HW118239   0.536   2.533   6.442 -0.3435  0.1661  0.2893
 2260SOL    HW218240   0.546   2.639   6.549  0.5620  0.2598  0.1773
 2261SOL     OW18241   2.302   3.912  11.932  0.4541 -0.5298 -0.1166
 2261SOL    HW118242   2.254   3.903  12.014  0.7957  2.3453  0.3956
 2261SOL    HW218243   2.318   3.821  11.904  2.3323  0.6108 -2.7591
 2262SOL     OW18244   0.990   1.207   9.536  0.5039 -0.2043  0.0993
 2262SOL    HW118245   0.944   1.157   9.469 -2.2488  0.0104  1.8268
 2262SOL    HW218246   1.081   1.183   9.523  0.0326 -2.3888  0.7606
 2263SOL     OW18247   0.690   2.761   6.082 -0.5453  0.4980 -0.2366
 2263SOL    HW118248   0.678   2.845   6.126  0.4366 -0.4958  1.8956
 2263SOL    HW218249   0.622   2.759   6.014  0.1745 -0.2062 -0.9265
 2264SOL     OW18250   2.949   1.876  11.988 -0.2106 -0.8902 -0.3646
 2264SOL    HW118251   2.915   1.803  12.040 -0.7067 -0.0492  0.4970
 2264SOL    HW218252   3.031   1.898  12.033 -1.9940  1.7162  1.5972
 2265SOL     OW18253   3.673   3.670  11.470 -0.9599 -0.2677 -0.1857
 2265SOL    HW118254   3.732   3.648  11.543 -0.2451 -1.4376 -1.1088
 2265SOL    HW218255   3.622   3.589  11.463 -1.5264  0.0555  0.2712
 2266SOL     OW18256   2.071   2.028  15.056  0.3896 -0.5299  0.2366
 2266SOL    HW118257   2.077   2.123  15.042  1.6332 -0.5423  0.6845
 2266SOL    HW218258   2.000   2.010  14.995  0.1965 -0.2411  0.3735
 2267SOL     OW18259   3.268   1.748   7.904  0.1011 -0.1199 -0.6902
 2267SOL    HW118260   3.324   1.734   7.828  1.6483  0.9345  0.2692
 2267SOL    HW218261   3.327   1.753   7.979  1.4876  0.5626 -1.8387
 2268SOL     OW18262   1.212   3.993  12.157 -0.7464 -0.2020 -0.4177
 2268SOL    HW118263   1.274   4.063  12.134  1.5408 -2.3354 -0.7357
 2268SOL    HW218264   1.275   3.939  12.205 -1.9503  0.3283  1.7361
 2269SOL     OW18265   0.319   3.217   0.972  0.1976 -0.1141  0.1418
 2269SOL    HW118266   0.343   3.237   1.062 -0.6086  1.2767  0.0628
 2269SOL    HW218267   0.395   3.207   0.915 -0.3080  0.2009 -0.5872
 2270SOL     OW18268   4.291   3.112  14.936 -0.6335 -0.8871  0.2407
 2270SOL    HW118269   4.318   3.025  14.905 -2.1550 -1.1070 -0.4511
 2270SOL    HW218270   4.223   3.141  14.876  1.2042  0.6635 -1.0617
 2271SOL     OW18271   0.816   3.802  16.355  0.2409 -0.0308 -0.3784
 2271SOL    HW118272   0.862   3.731  16.312  0.3054 -1.6072  2.2965
 2271SOL    HW218273   0.819   3.776  16.447 -0.3569 -1.0995 -0.6552
 2272SOL     OW18274   1.653   2.020   5.531  0.4220  0.0216  0.7979
 2272SOL    HW118275   1.707   2.092   5.497  0.6321 -0.2138  0.6241
 2272SOL    HW218276   1.710   1.994   5.603 -0.0963 -0.2192  1.1157
 2273SOL     OW18277   3.752   2.802   9.455  0.6622  0.7378 -0.9174
 2273SOL    HW118278   3.717   2.771   9.371 -0.7342 -1.9860  0.6964
 2273SOL    HW218279   3.739   2.731   9.517  1.7375  0.3520 -1.1296
 2274SOL     OW18280   0.205   1.428   7.082 -0.0659 -0.0268  0.6112
 2274SOL    HW118281   0.110   1.415   7.084 -0.5526  3.2386 -0.7302
 2274SOL    HW218282   0.240   1.365   7.145  2.1543 -0.6952 -1.3149
 2275SOL     OW18283   3.717   2.292   0.061 -0.6419 -0.3696 -0.1316
 2275SOL    HW118284   3.809   2.318   0.069 -0.1357 -2.3184  0.4176
 2275SOL    HW218285   3.693   2.384   0.072 -1.4109 -0.2024 -3.2087
 2276SOL     OW18286   1.725   2.208   3.895 -0.5909  1.1041  0.0504
 2276SOL    HW118287   1.665   2.222   3.822  1.1350  0.5447 -1.4714
 2276SOL    HW218288   1.677   2.215   3.977  0.8622  3.9384  0.6854
 2277SOL     OW18289   1.777   2.557   3.722  0.8806  0.4084  0.0176
 2277SOL    HW118290   1.699   2.502   3.712  0.3976  1.0812  0.1256
 2277SOL    HW218291   1.735   2.642   3.722 -0.6119 -0.3358 -0.4431
 2278SOL     OW18292   4.432   4.715   4.220  0.3422  0.5722 -0.0539
 2278SOL    HW118293   4.474   4.662   4.287 -2.1927 -1.9543 -0.4819
 2278SOL    HW218294   4.474   4.684   4.139 -1.3342 -1.3519 -0.1958
 2279SOL     OW18295   2.801   1.281   9.001  0.0851 -0.1772 -0.5820
 2279SOL    HW118296   2.720   1.331   9.016 -0.4941 -0.6855 -2.0829
 2279SOL    HW218297   2.792   1.227   9.080 -1.8106  0.9809  0.0134
 2280SOL     OW18298   4.031   2.926   1.601 -0.1101  0.0489  0.2828
 2280SOL    HW118299   3.976   3.003   1.585 -1.2593 -0.8536 -0.0601
 2280SOL    HW218300   4.083   2.938   1.522 -2.0747 -0.5827 -1.1140
 2281SOL     OW18301   3.050   4.562   7.492  0.0354 -1.2338 -0.7105
 2281SOL    HW118302   3.009   4.629   7.546 -1.0560 -2.3860 -0.0839
 2281SOL    HW218303   3.063   4.620   7.417  2.0532  0.7101  1.1795
 2282SOL     OW18304   2.783   3.626   4.171  0.1765  0.4148  0.3056
 2282SOL    HW118305   2.747   3.701   4.219 -1.1619 -0.8175  1.2309
 2282SOL    HW218306   2.867   3.624   4.217 -0.6656 -2.6187  1.7022
 2283SOL     OW18307   1.461   2.202  17.388 -0.3289 -0.1335  0.2197
 2283SOL    HW118308   1.549   2.241  17.383 -0.0904 -0.3498  2.4994
 2283SOL    HW218309   1.482   2.145  17.463  0.7453 -0.3730 -0.2539
 2284SOL     OW18310   3.416   3.465  13.403  0.2578  0.1993 -0.2513
 2284SOL    HW118311   3.504   3.457  13.439 -0.4090 -0.5667  1.2236
 2284SOL    HW218312   3.363   3.455  13.482  0.6614  1.4849  0.1843
 2285SOL     OW18313   0.981   3.988   7.919  0.0072  0.1144  0.5431
 2285SOL    HW118314   0.998   4.045   7.844 -1.5374  0.2906  0.3214
 2285SOL    HW218315   1.060   3.935   7.916 -1.2822 -1.8659  1.3040
 2286SOL     OW18316   4.223   1.096   3.460  0.3384 -0.2903  0.6294
 2286SOL    HW118317   4.305   1.136   3.491  0.1448 -0.0210  0.7912
 2286SOL    HW218318   4.231   1.115   3.366  1.6823 -0.3800  0.7227
 2287SOL     OW18319   2.688   4.616  10.734 -0.1881  0.2414  0.0477
 2287SOL    HW118320   2.762   4.555  10.730  0.8850  1.5373  0.2039
 2287SOL    HW218321   2.710   4.670  10.658  0.4827 -0.6981 -0.4255
 2288SOL     OW18322   4.106   0.363  11.156  0.2801 -0.0335  0.5493
 2288SOL    HW118323   4.062   0.370  11.071 -2.0512  0.3219  1.7847
 2288SOL    HW218324   4.181   0.422  11.144 -0.7487  1.5486  1.9402
 2289SOL     OW18325   0.571   1.103   4.234 -0.2306  0.1738  0.7113
 2289SOL    HW118326   0.528   1.166   4.292 -1.6794 -0.1734  0.0276
 2289SOL    HW218327   0.492   1.095   4.180  0.8620  0.7022 -0.9694
 2290SOL     OW18328   2.000   1.411  12.299  0.9430 -0.2878  0.0359
 2290SOL    HW118329   1.912   1.422  12.335  0.4546  2.4358 -1.9981
 2290SOL    HW218330   1.977   1.450  12.215  0.3865  0.9807  0.7815
 2291SOL     OW18331   0.591   2.899  14.302 -0.0156  0.0584 -0.4738
 2291SOL    HW118332   0.527   2.969  14.319  1.1502  1.0986 -0.3610
 2291SOL    HW218333   0.548   2.832  14.354 -0.7549 -0.2301 -1.4543
 2292SOL     OW18334   0.396   0.838   5.068 -0.1108 -0.2963 -0.1058
 2292SOL    HW118335   0.397   0.816   4.975  0.3080 -0.3288 -0.0935
 2292SOL    HW218336   0.320   0.896   5.075  1.0452  1.4311 -1.8444
 2293SOL     OW18337   0.177   1.570   0.789 -0.4339  0.0944  0.4513
 2293SOL    HW118338   0.185   1.661   0.819 -0.8919  0.1322  0.4497
 2293SOL    HW218339   0.160   1.526   0.872 -0.0648 -0.6293  0.1404
 2294SOL     OW18340   1.367   2.895  15.367  0.2123 -0.3093  1.0583
 2294SOL    HW118341   1.369   2.990  15.359 -0.2848 -0.3268  0.7313
 2294SOL    HW218342   1.457   2.884  15.399 -0.0053 -0.3602  1.6519
 2295SOL     OW18343   4.617   2.348   3.911  0.0507 -0.2140 -0.8767
 2295SOL    HW118344   4.588   2.264   3.876  1.4801 -1.1248  0.1039
 2295SOL    HW218345   4.710   2.326   3.921 -0.4450  0.1880  4.7684
 2296SOL     OW18346   1.393   4.539   2.156  0.6864  0.1756  0.0998
 2296SOL    HW118347   1.448   4.461   2.151  1.4074  0.7003 -0.0558
 2296SOL    HW218348   1.410   4.576   2.069  0.9728  0.7526  0.3999
 2297SOL     OW18349   2.117   3.302  14.269 -0.0075 -0.8005 -0.6205
 2297SOL    HW118350   2.152   3.332  14.185  1.0949  0.3840  0.2561
 2297SOL    HW218351   2.026   3.280  14.249 -0.0629 -0.2552 -0.9895
 2298SOL     OW18352   3.734   0.122  15.249 -0.1714  0.4033  0.1823
 2298SOL    HW118353   3.690   0.066  15.312 -0.3272  0.9106  0.5180
 2298SOL    HW218354   3.785   0.178  15.308  0.8555  1.1529 -1.3906
 2299SOL     OW18355   0.506   0.514   6.798  0.0782 -0.2989  0.5036
 2299SOL    HW118356   0.554   0.434   6.781  0.2252 -0.4528  1.6449
 2299SOL    HW218357   0.488   0.544   6.709 -1.9908 -2.3278  0.2391
 2300SOL     OW18358   3.804   1.374   7.365 -0.0837 -0.1396  0.2438
 2300SOL    HW118359   3.881   1.394   7.418 -0.8302 -1.3489  1.8077
 2300SOL    HW218360   3.845   1.366   7.280  0.4912  3.1467  0.2043
 2301SOL     OW18361   2.962   2.763   6.268 -0.3650  0.6240 -0.4207
 2301SOL    HW118362   3.037   2.712   6.238 -0.9960  1.0031 -2.6749
 2301SOL    HW218363   2.917   2.682   6.293  0.9462 -1.1111 -3.6503
 2302SOL     OW18364   0.237   1.901   5.117 -0.8607 -0.1947 -0.2157
 2302SOL    HW118365   0.213   1.839   5.186  1.2265 -0.8900 -0.1247
 2302SOL    HW218366   0.155   1.949   5.103 -0.8375  0.4349  1.8444
 2303SOL     OW18367   2.260   2.235   2.443 -0.4606  0.0900 -0.0151
 2303SOL    HW118368   2.211   2.257   2.364 -0.3943 -1.4134 -0.4692
 2303SOL    HW218369   2.340   2.197   2.405 -0.4489 -0.7466  0.8417
 2304SOL     OW18370   1.214   2.715   4.208  0.4695 -0.0085 -0.2024
 2304SOL    HW118371   1.293   2.712   4.155  0.0213 -0.2493 -0.8536
 2304SOL    HW218372   1.165   2.791   4.177  2.3264  0.8515 -0.9771
 2305SOL     OW18373   0.655   3.142   8.426  0.0090  0.5593  0.0739
 2305SOL    HW118374   0.743   3.134   8.462  0.0679 -2.2827 -0.7301
 2305SOL    HW218375   0.676   3.203   8.355  1.4731 -0.0452 -0.0020
 2306SOL     OW18376   0.953   0.061  15.329 -0.1281  0.0263 -0.2329
 2306SOL    HW118377   1.016   4.710  15.326  1.3811  1.3492 -0.2686
 2306SOL    HW218378   0.990   0.129  15.273  1.6255 -1.4045 -0.7891
 2307SOL     OW18379   3.846   0.855  12.502  0.2143 -0.5405 -0.2241
 2307SOL    HW118380   3.829   0.763  12.522  0.0039 -0.1420  1.4250
 2307SOL    HW218381   3.830   0.888  12.590  5.0845  1.7651 -0.1811
 2308SOL     OW18382   3.314   1.838   8.570 -0.3114  0.0883 -0.1973
 2308SOL    HW118383   3.323   1.931   8.551  0.0566  0.2475  0.8077
 2308SOL    HW218384   3.407   1.817   8.570 -0.0735  1.1784  1.1803
 2309SOL     OW18385   0.125   0.637   7.006 -0.1180  0.8241 -0.0330
 2309SOL    HW118386   0.131   0.730   6.988 -0.0944  1.3230  2.5324
 2309SOL    HW218387   0.216   0.610   6.992 -0.6119  0.2846 -2.1421
 2310SOL     OW18388   2.232   3.612  10.822 -0.6040  0.4785 -0.1432
 2310SOL    HW118389   2.159   3.575  10.872  0.2113 -1.4839 -0.3917
 2310SOL    HW218390   2.190   3.624  10.736 -2.4313 -0.6285  0.5999
 2311SOL     OW18391   4.166   2.906   7.628  0.0083 -0.4625  0.0146
 2311SOL    HW118392   4.169   2.822   7.582  1.6879 -0.1665 -0.4291
 2311SOL    HW218393   4.075   2.918   7.602 -1.1668 -2.3943  3.2396
 2312SOL     OW18394   1.184   0.664  10.216  0.1030 -0.0733 -0.2191
 2312SOL    HW118395   1.121   0.725  10.178  2.4823  3.1182  0.9421
 2312SOL    HW218396   1.268   0.703  10.191 -0.2638  0.1968 -1.0345
 2313SOL     OW18397   0.517   1.484  14.456 -0.0891 -0.3780  0.2547
 2313SOL    HW118398   0.429   1.487  14.496  0.3928  1.4584  1.1723
 2313SOL    HW218399   0.564   1.561  14.488 -3.3062  2.4362 -1.8475
 2314SOL     OW18400   0.142   2.288  10.043 -0.1673 -0.6644  0.3595
 2314SOL    HW118401   0.193   2.360  10.079  0.1956  0.3746 -2.2836
 2314SOL    HW218402   0.148   2.235  10.123  3.5017  0.3379  0.7495
 2315SOL     OW18403   1.336   3.983   1.295 -0.1357  0.0479  0.7951
 2315SOL    HW118404   1.250   4.025   1.292  0.9974  2.3184 -0.4899
 2315SOL    HW218405   1.344   3.954   1.204 -0.9809  3.0429 -0.2173
 2316SOL     OW18406   3.591   3.475  15.572 -0.0651  0.2385 -0.0260
 2316SOL    HW118407   3.505   3.438  15.555 -0.2571  0.6549  0.0440
 2316SOL    HW218408   3.642   3.398  15.597  0.1161  0.6133  0.7385
 2317SOL     OW18409   3.150   3.025   8.892  0.2015  0.3160 -0.3092
 2317SOL    HW118410   3.089   3.074   8.946 -0.7690 -0.9041 -0.3001
 2317SOL    HW218411   3.236   3.033   8.934  1.2168  0.8657 -2.4560
 2318SOL     OW18412   0.095   1.016   6.582 -0.2399 -0.1682  0.0064
 2318SOL    HW118413   0.133   1.101   6.565 -0.7639  0.1925  0.6413
 2318SOL    HW218414   0.040   1.009   6.504 -1.3091 -0.0793  0.7417
 2319SOL     OW18415   2.305   2.911   3.571  0.0856 -0.0578 -0.2235
 2319SOL    HW118416   2.233   2.880   3.626 -2.0366  1.8406 -1.8812
 2319SOL    HW218417   2.297   3.005   3.587 -1.2714  0.2183 -2.4725
 2320SOL     OW18418   0.780   3.407   6.783  0.2241  0.2665 -0.2561
 2320SOL    HW118419   0.721   3.459   6.729  0.6903  0.5499 -0.5000
 2320SOL    HW218420   0.781   3.457   6.865  0.1160  1.4991 -1.0027
 2321SOL     OW18421   4.176   2.816   1.143  0.3250 -0.1709  0.2390
 2321SOL    HW118422   4.188   2.849   1.053  0.8358 -3.8318 -1.0448
 2321SOL    HW218423   4.266   2.793   1.167  0.1362  0.2224  1.3066
 2322SOL     OW18424   1.523   2.101   7.244  0.3727  0.0863 -0.2795
 2322SOL    HW118425   1.520   2.051   7.325 -1.5373  0.6070 -0.0222
 2322SOL    HW218426   1.603   2.059   7.215  0.0215  0.4894 -1.8411
 2323SOL     OW18427   3.215   4.483   7.720  0.2004  0.6836 -0.6793
 2323SOL    HW118428   3.161   4.512   7.646 -3.1564 -0.6793  1.2615
 2323SOL    HW218429   3.272   4.559   7.734  1.5289 -0.7602  1.7750
 2324SOL     OW18430   3.532   3.175  13.306 -0.2470  0.1362  0.3076
 2324SOL    HW118431   3.545   3.086  13.275  0.5252  0.4095 -0.1666
 2324SOL    HW218432   3.597   3.181  13.377 -0.5760  0.4223  0.5864
 2325SOL     OW18433   0.535   4.026  13.434 -0.0966 -0.1007 -0.2324
 2325SOL    HW118434   0.484   4.098  13.395  0.3273 -0.3253 -1.2154
 2325SOL    HW218435   0.476   3.957  13.466  3.3443 -2.9599 -0.1408
 2326SOL     OW18436   4.270   0.680  10.015  0.6806  0.1341 -0.3452
 2326SOL    HW118437   4.191   0.729  10.039  0.5248  0.5769 -1.8156
 2326SOL    HW218438   4.333   0.744   9.985  1.0481  0.0685  0.2778
 2327SOL     OW18439   4.511   0.146   7.735  0.6257 -0.4477  0.7613
 2327SOL    HW118440   4.541   0.060   7.763  0.2522 -0.7384  0.2567
 2327SOL    HW218441   4.509   0.142   7.640  1.3502 -2.7466  0.8580
 2328SOL     OW18442   0.029   4.138   6.614  0.0982 -0.1832 -0.3851
 2328SOL    HW118443   0.015   4.230   6.591 -2.6659 -1.0384 -2.0741
 2328SOL    HW218444   0.118   4.133   6.649 -0.2187 -1.3878  0.2526
 2329SOL     OW18445   4.370   3.119   3.261 -0.4136  0.0486  0.1816
 2329SOL    HW118446   4.401   3.209   3.250  1.6922 -0.6428  0.4554
 2329SOL    HW218447   4.327   3.110   3.176 -1.2848  2.2075  0.4065
 2330SOL     OW18448   3.609   2.444  14.167 -0.2959  0.1645  0.0068
 2330SOL    HW118449   3.523   2.406  14.183 -1.3127  2.7199  0.6089
 2330SOL    HW218450   3.607   2.522  14.222  1.0908 -0.2362  0.6082
 2331SOL     OW18451   4.612   3.889   8.542  0.2848 -0.1118 -0.0812
 2331SOL    HW118452   4.696   3.926   8.517  0.2982 -1.1049 -1.5285
 2331SOL    HW218453   4.583   3.843   8.464  0.1839 -1.8344  0.9585
 2332SOL     OW18454   1.372   0.230   7.976  0.4178 -0.2667  0.0772
 2332SOL    HW118455   1.464   0.239   7.950  0.7959 -1.4997  1.0234
 2332SOL    HW218456   1.338   0.153   7.932  0.7489 -0.0806 -0.4995
 2333SOL     OW18457   0.001   0.199   9.617 -0.4996  0.0877  0.5820
 2333SOL    HW118458   4.670   0.128   9.654  0.3674 -1.2386 -0.7375
 2333SOL    HW218459   0.093   0.174   9.630 -1.0670 -1.1807  2.1260
 2334SOL     OW18460   3.639   1.010   8.155 -0.0509  1.2518  0.0849
 2334SOL    HW118461   3.613   1.000   8.246 -0.7528  0.8253 -0.1609
 2334SOL    HW218462   3.617   0.923   8.120  3.3007  0.4092  0.1109
 2335SOL     OW18463   0.810   2.487   2.684 -0.3902  0.3009 -0.1739
 2335SOL    HW118464   0.788   2.498   2.777 -1.9352  1.2287 -0.6395
 2335SOL    HW218465   0.840   2.576   2.666 -3.2324  1.1793 -0.6470
 2336SOL     OW18466   1.618   0.276   7.867 -0.4495 -0.2095 -0.7302
 2336SOL    HW118467   1.644   0.361   7.830  0.3526 -1.3083 -2.6630
 2336SOL    HW218468   1.652   0.225   7.793  0.0286 -0.7016 -0.1672
 2337SOL     OW18469   1.696   2.632   8.382 -0.0970 -0.2509 -0.4847
 2337SOL    HW118470   1.678   2.670   8.296  0.0294 -2.1526 -1.3491
 2337SOL    HW218471   1.648   2.550   8.372  1.0050 -1.0402  0.7228
 2338SOL     OW18472   2.894   3.895  14.952  0.2606 -0.1674  0.7193
 2338SOL    HW118473   2.946   3.821  14.923  0.8557 -0.0167  1.4106
 2338SOL    HW218474   2.876   3.928  14.864  2.1935  1.4037  0.9112
 2339SOL     OW18475   0.561   1.330   7.464  0.3594  0.0322 -0.0302
 2339SOL    HW118476   0.629   1.393   7.486  3.3793 -2.9786 -0.8880
 2339SOL    HW218477   0.482   1.377   7.492 -1.1661 -1.2556 -2.1559
 2340SOL     OW18478   2.770   3.728   7.981  0.1284  0.1987 -0.2171
 2340SOL    HW118479   2.736   3.644   8.010 -0.6592  0.6813  0.2625
 2340SOL    HW218480   2.827   3.760   8.051  0.5019  0.8848 -0.8318
 2341SOL     OW18481   2.546   4.256   3.065 -0.5009 -0.2062 -0.2932
 2341SOL    HW118482   2.497   4.177   3.042 -0.0760 -0.4107 -0.4985
 2341SOL    HW218483   2.630   4.218   3.090 -0.9683 -0.1156  1.4258
 2342SOL     OW18484   3.226   0.687  13.930  0.4502  0.0327  0.9602
 2342SOL    HW118485   3.258   0.634  14.002  0.0329  0.8269  1.7371
 2342SOL    HW218486   3.291   0.758  13.925  2.5253 -1.9923 -0.6262
 2343SOL     OW18487   0.394   1.574   2.761  0.0374  0.5150 -0.4166
 2343SOL    HW118488   0.332   1.527   2.818  1.0080  2.4225  2.2258
 2343SOL    HW218489   0.480   1.559   2.801  1.0218  1.1567 -2.3305
 2344SOL     OW18490   0.552   3.401  13.216 -0.1873 -0.7650 -0.0981
 2344SOL    HW118491   0.551   3.496  13.230  0.5947 -0.4434 -2.2852
 2344SOL    HW218492   0.480   3.376  13.274 -2.8882 -0.4840 -3.3325
 2345SOL     OW18493   1.446   0.403   3.537 -0.1260  0.1572 -0.4384
 2345SOL    HW118494   1.464   0.321   3.585 -1.7795  1.1047  1.7910
 2345SOL    HW218495   1.461   0.386   3.444 -0.9812  1.5612 -0.8262
 2346SOL     OW18496   3.437   2.803  11.758  0.6845 -0.1316 -0.2117
 2346SOL    HW118497   3.402   2.746  11.689 -1.3669  2.3222 -1.2169
 2346SOL    HW218498   3.357   2.822  11.807  1.6786  2.4588  0.4015
 2347SOL     OW18499   1.112   3.958   8.643 -0.0820  0.2085 -0.1661
 2347SOL    HW118500   1.042   3.914   8.595  2.4201 -2.4302 -1.4067
 2347SOL    HW218501   1.128   3.885   8.703 -0.5083  2.4793  2.7000
 2348SOL     OW18502   0.937   3.045   7.319  0.2538  0.1199 -0.1809
 2348SOL    HW118503   0.918   2.951   7.321 -2.2447  0.6411  0.1109
 2348SOL    HW218504   1.025   3.053   7.356  0.3585 -0.3933 -0.3148
 2349SOL     OW18505   1.306   2.417  13.493  0.4541 -0.3992  0.7219
 2349SOL    HW118506   1.294   2.436  13.400 -1.3626  0.9638  1.2274
 2349SOL    HW218507   1.384   2.468  13.514  0.5564 -0.9488  1.6893
 2350SOL     OW18508   2.165   3.735   3.887  0.2301  0.2303  0.1005
 2350SOL    HW118509   2.245   3.683   3.878 -0.7953 -1.3029 -0.0608
 2350SOL    HW218510   2.208   3.812   3.925 -0.2303  1.0310 -0.9931
 2351SOL     OW18511   2.362   0.148  12.411 -0.0661 -0.5363 -0.4458
 2351SOL    HW118512   2.358   0.068  12.464 -1.0025  0.5341  1.1244
 2351SOL    HW218513   2.331   0.215  12.473 -1.0230 -1.1299 -0.2836
 2352SOL     OW18514   0.968   3.064   5.403  0.1243  0.1153  0.3009
 2352SOL    HW118515   1.041   3.014   5.366  1.1064  0.9015  1.1937
 2352SOL    HW218516   0.910   2.999   5.443 -0.1646  0.3832  0.3153
 2353SOL     OW18517   4.302   2.658  14.288  0.1386  0.2602 -0.1022
 2353SOL    HW118518   4.332   2.740  14.326 -2.6301  1.8211 -1.3341
 2353SOL    HW218519   4.229   2.639  14.346  0.9814 -1.0177  0.5347
 2354SOL     OW18520   0.658   0.572   3.941  0.0514 -0.0883 -0.0325
 2354SOL    HW118521   0.710   0.650   3.963 -1.0273  0.3232  1.0530
 2354SOL    HW218522   0.728   0.508   3.954 -0.3269 -0.6003 -0.5547
 2355SOL     OW18523   4.594   1.742  10.339 -0.0393  0.5683 -0.1524
 2355SOL    HW118524   4.642   1.698  10.269 -2.1596 -1.5493 -0.2773
 2355SOL    HW218525   4.663   1.737  10.405 -2.2224  3.2191  2.2822
 2356SOL     OW18526   2.345   2.666  10.722 -0.3351 -0.8796 -0.2170
 2356SOL    HW118527   2.320   2.684  10.632 -1.0627 -2.0252 -0.2437
 2356SOL    HW218528   2.305   2.739  10.770  0.0213  0.1530 -1.4788
 2357SOL     OW18529   3.817   3.335   8.953  0.3610 -0.3610 -0.0893
 2357SOL    HW118530   3.828   3.338   9.048  3.2647 -0.2564 -0.4196
 2357SOL    HW218531   3.891   3.391   8.929 -1.0221  1.4440 -0.0679
 2358SOL     OW18532   3.865   4.031   4.532  0.4717 -0.0207  0.5111
 2358SOL    HW118533   3.868   3.966   4.601  0.2552 -1.9155 -1.2679
 2358SOL    HW218534   3.891   4.106   4.585 -0.7594  1.2732 -0.6984
 2359SOL     OW18535   3.679   3.410   4.052  0.0617  0.1183  0.6135
 2359SOL    HW118536   3.667   3.400   4.146 -1.1707 -4.6255 -0.0807
 2359SOL    HW218537   3.768   3.443   4.034 -0.0466  0.4529  0.6802
 2360SOL     OW18538   3.065   0.310   3.198 -0.1187 -0.2764 -0.2753
 2360SOL    HW118539   2.985   0.302   3.250  0.5782  0.5032  0.8995
 2360SOL    HW218540   3.088   0.400   3.221  0.8681 -0.1428 -1.7685
 2361SOL     OW18541   1.143   1.172   1.565  0.3450 -0.4160 -0.1005
 2361SOL    HW118542   1.159   1.231   1.638 -1.0306  1.4962 -1.3650
 2361SOL    HW218543   1.050   1.158   1.581  0.1934  0.3029 -0.3665
 2362SOL     OW18544   2.980   1.063   9.490  0.5883  0.3337  0.1069
 2362SOL    HW118545   3.017   1.103   9.569  2.4855 -2.5428  0.6685
 2362SOL    HW218546   2.887   1.077   9.504  0.5335  0.0934 -0.0243
 2363SOL     OW18547   3.316   1.626  17.368 -0.5411  0.3417 -0.6252
 2363SOL    HW118548   3.393   1.582  17.333 -0.5494  0.8367 -1.2840
 2363SOL    HW218549   3.256   1.615  17.294 -2.2596 -1.8214  1.1254
 2364SOL     OW18550   2.235   2.942   2.409  0.1133  0.2758 -0.6162
 2364SOL    HW118551   2.264   2.861   2.451  0.6908  0.6435 -0.3081
 2364SOL    HW218552   2.150   2.918   2.373 -0.1753  2.4631 -1.3901
 2365SOL     OW18553   3.618   0.749  14.544 -0.1148 -0.2851 -0.2816
 2365SOL    HW118554   3.670   0.825  14.570 -0.0562 -0.3927 -0.0810
 2365SOL    HW218555   3.533   0.791  14.534  0.7036  1.2508 -0.8309
 2366SOL     OW18556   0.953   4.056   2.836  0.0710  0.3867  0.3972
 2366SOL    HW118557   0.978   4.146   2.815  2.9278 -0.1773  1.3080
 2366SOL    HW218558   0.957   4.054   2.931 -0.9637 -2.0949  0.3937
 2367SOL     OW18559   0.994   1.950   2.491  0.1332  0.0325  0.2320
 2367SOL    HW118560   0.979   1.983   2.402  0.8019 -0.0888  0.0682
 2367SOL    HW218561   1.057   2.017   2.520 -0.6500  0.7028  0.3901
 2368SOL     OW18562   2.715   3.446   6.237 -0.1855 -0.4814  0.4731
 2368SOL    HW118563   2.798   3.407   6.207 -0.4923 -2.2451  1.8867
 2368SOL    HW218564   2.699   3.397   6.318 -2.1333 -1.5577 -0.5539
 2369SOL     OW18565   3.182   0.918   1.940  0.2118  0.1436  0.5359
 2369SOL    HW118566   3.217   1.007   1.940  1.0959 -0.1891 -1.3057
 2369SOL    HW218567   3.093   0.928   1.906 -0.0201 -0.0537  1.0866
 2370SOL     OW18568   4.707   2.953  12.780  0.1332  0.1946  0.2710
 2370SOL    HW118569   4.648   2.918  12.846 -0.7312 -1.1857 -1.2507
 2370SOL    HW218570   4.637   3.005  12.741  0.3127  0.8379  0.7877
 2371SOL     OW18571   3.074   4.438   1.835  0.7102  0.4018  0.3156
 2371SOL    HW118572   3.135   4.383   1.785 -0.4118 -0.5807  0.0290
 2371SOL    HW218573   3.001   4.378   1.852 -0.4632  2.2407  1.7920
 2372SOL     OW18574   3.979   1.045   6.244  0.6126 -0.1362  0.2674
 2372SOL    HW118575   3.899   1.097   6.249  1.7804  1.5885  0.9377
 2372SOL    HW218576   3.977   1.004   6.331 -1.4020  0.0374  0.2995
 2373SOL     OW18577   4.045   4.101   7.824 -0.3271 -0.0014 -0.3474
 2373SOL    HW118578   3.951   4.098   7.805 -0.0529  2.4578 -2.0035
 2373SOL    HW218579   4.060   4.036   7.893 -0.1875  1.0682  0.6269
 2374SOL     OW18580   2.352   2.077   3.798 -0.2269  0.2492  0.5014
 2374SOL    HW118581   2.303   2.002   3.832  0.6233  0.6905  2.6839
 2374SOL    HW218582   2.398   2.115   3.872  1.7140 -0.8614 -0.1175
 2375SOL     OW18583   0.017   1.913   3.195  0.0708  0.2960  0.2231
 2375SOL    HW118584   4.670   1.939   3.257 -0.9319 -1.0799 -0.3046
 2375SOL    HW218585   4.707   1.950   3.113  0.9005  0.1059 -0.1763
 2376SOL     OW18586   0.951   3.133   5.041  0.2438  0.0528  0.3314
 2376SOL    HW118587   1.021   3.101   4.984 -0.8232 -0.8286 -0.4776
 2376SOL    HW218588   0.886   3.063   5.049 -0.3043  0.8147  2.7086
 2377SOL     OW18589   0.328   1.529  14.037 -0.3669 -0.0803  0.1060
 2377SOL    HW118590   0.397   1.495  14.094 -1.4456  0.0111  1.4614
 2377SOL    HW218591   0.291   1.452  13.994  2.0902 -1.5287  0.6349
 2378SOL     OW18592   1.628   3.578   8.912 -0.4862 -0.6125  0.4038
 2378SOL    HW118593   1.560   3.557   8.848  1.1003  1.9131 -2.0862
 2378SOL    HW218594   1.702   3.520   8.897 -0.7695 -1.1356  1.0088
 2379SOL     OW18595   3.231   2.098  14.170 -0.5100 -0.1078  0.0404
 2379SOL    HW118596   3.218   2.029  14.105  1.0354 -1.4713  1.1677
 2379SOL    HW218597   3.140   2.102  14.198 -0.4255  1.6608  0.0618
 2380SOL     OW18598   4.636   3.734   0.039  0.3653 -0.4203  0.1443
 2380SOL    HW118599   4.558   3.750  17.672  0.6320  1.0952  0.1808
 2380SOL    HW218600   4.662   3.827   0.038 -0.4582 -0.1924  0.6257
 2381SOL     OW18601   2.458   4.447   6.626 -0.4479 -0.0288  0.7087
 2381SOL    HW118602   2.549   4.457   6.599 -0.6219 -0.8949 -0.2180
 2381SOL    HW218603   2.465   4.384   6.698 -2.3587 -0.2235  0.7286
 2382SOL     OW18604   3.783   0.029   5.913 -0.3517  0.3371 -0.2378
 2382SOL    HW118605   3.689   0.044   5.899  0.0476  2.0256 -1.0349
 2382SOL    HW218606   3.802   4.675   5.856  0.8652 -0.6490  1.4423
 2383SOL     OW18607   1.550   3.771   7.388  0.0769  0.4572  0.0863
 2383SOL    HW118608   1.478   3.825   7.356 -0.0188 -0.5022 -1.2947
 2383SOL    HW218609   1.529   3.687   7.348  3.3159 -0.0395 -0.5318
 2384SOL     OW18610   1.978   2.348   1.459  0.8039  0.1997 -0.3722
 2384SOL    HW118611   2.006   2.280   1.398 -0.2075 -0.4661 -0.0768
 2384SOL    HW218612   2.062   2.395   1.456  0.3642  1.0406  0.4814
 2385SOL     OW18613   1.641   4.665  10.716  0.0848 -0.6788 -0.2544
 2385SOL    HW118614   1.664   4.624  10.800  0.0417  2.0129  1.0893
 2385SOL    HW218615   1.714   4.656  10.655  0.8120  0.1086  0.4835
 2386SOL     OW18616   0.749   1.110  13.385 -0.1740 -0.0675 -0.0352
 2386SOL    HW118617   0.753   1.060  13.304  0.3796  0.4554 -0.3278
 2386SOL    HW218618   0.696   1.184  13.357 -0.1693  0.3896  1.1549
 2387SOL     OW18619   1.694   2.882  11.925 -0.4003 -0.1047 -0.3308
 2387SOL    HW118620   1.704   2.792  11.958  1.4259 -0.4876 -1.9328
 2387SOL    HW218621   1.772   2.894  11.871 -0.5630  0.4360 -0.4455
 2388SOL     OW18622   4.271   1.412   7.795  0.3260 -0.1944  0.1209
 2388SOL    HW118623   4.198   1.475   7.799 -0.7959 -1.5086  0.4479
 2388SOL    HW218624   4.344   1.470   7.815  0.0241 -0.1417  1.0899
 2389SOL     OW18625   0.381   4.119   0.635 -0.0866  0.1944 -0.2715
 2389SOL    HW118626   0.387   4.155   0.546 -0.0845 -0.7717 -0.6697
 2389SOL    HW218627   0.351   4.198   0.678  1.4579 -0.1318  1.3900
 2390SOL     OW18628   4.544   3.302   7.505  0.1337  0.3458  0.3265
 2390SOL    HW118629   4.487   3.248   7.450  1.2121 -0.2734 -0.1778
 2390SOL    HW218630   4.496   3.384   7.491 -2.9643 -1.2910  1.3335
 2391SOL     OW18631   4.471   3.001   0.770 -0.8320  0.3750  0.5483
 2391SOL    HW118632   4.543   3.047   0.812 -1.2105  0.8797  0.6442
 2391SOL    HW218633   4.493   3.027   0.680 -0.1492 -1.5263  0.1767
 2392SOL     OW18634   4.479   2.835   9.315 -0.2247  0.3339 -0.7512
 2392SOL    HW118635   4.421   2.874   9.380  0.7541  1.3084 -0.4701
 2392SOL    HW218636   4.416   2.780   9.267 -1.1684 -1.1790  2.2248
 2393SOL     OW18637   1.993   2.629   6.750  0.1725  1.1186  0.1058
 2393SOL    HW118638   1.982   2.545   6.706  0.3950  1.1307  0.0278
 2393SOL    HW218639   1.926   2.688   6.715 -0.3931 -0.9923 -2.4122
 2394SOL     OW18640   0.366   1.561   6.013  0.4936  0.4419  0.8049
 2394SOL    HW118641   0.288   1.509   5.995  0.3059  0.5263  1.3817
 2394SOL    HW218642   0.434   1.495   5.998  0.0247  0.4534 -1.3605
 2395SOL     OW18643   3.648   3.150   5.439  0.1889 -0.7037 -0.1089
 2395SOL    HW118644   3.646   3.069   5.389 -0.7575 -0.2439 -0.8265
 2395SOL    HW218645   3.604   3.120   5.519  0.4058 -0.9581 -0.0874
 2396SOL     OW18646   0.882   3.477   8.796 -0.2399  0.3971 -0.0172
 2396SOL    HW118647   0.932   3.469   8.877 -0.4611 -0.1392  0.0662
 2396SOL    HW218648   0.853   3.567   8.809  1.5677  1.2579 -1.9667
 2397SOL     OW18649   3.818   0.295   1.648 -0.2381 -0.3746  0.1596
 2397SOL    HW118650   3.797   0.388   1.635  1.5956  0.1545  0.9676
 2397SOL    HW218651   3.766   0.261   1.576 -0.3057 -0.6531  0.3419
 2398SOL     OW18652   3.292   3.615   5.649  0.2246  0.3613  0.2352
 2398SOL    HW118653   3.279   3.529   5.688 -0.4864 -0.0813 -0.9934
 2398SOL    HW218654   3.378   3.602   5.611  0.4103 -0.6546  1.0171
 2399SOL     OW18655   0.499   2.874   8.518  0.1647 -0.8003 -0.6454
 2399SOL    HW118656   0.567   2.813   8.547  0.9545  0.5278  0.2879
 2399SOL    HW218657   0.548   2.951   8.490 -3.1382  1.6966  0.5106
 2400SOL     OW18658   4.200   3.394  11.429  0.6978 -0.6780  0.0168
 2400SOL    HW118659   4.280   3.374  11.380  1.4096  0.2083  0.8046
 2400SOL    HW218660   4.221   3.474  11.477 -1.5810  0.1597 -0.3859
 2401SOL     OW18661   1.142   2.845   5.294 -0.4100  0.0016 -0.2659
 2401SOL    HW118662   1.092   2.764   5.306 -0.6902  0.7974  3.9898
 2401SOL    HW218663   1.219   2.815   5.341 -0.5229 -0.5325 -0.4238
 2402SOL     OW18664   0.930   2.914   7.075 -0.1690  0.0901 -0.2015
 2402SOL    HW118665   0.838   2.913   7.100  0.1786  0.6501  1.0750
 2402SOL    HW218666   0.958   2.982   7.136 -0.4761  1.3754 -1.5238
 2403SOL     OW18667   1.710   2.324   5.403 -0.1674  0.5292  0.0812
 2403SOL    HW118668   1.699   2.290   5.314  1.2868 -0.2292  0.2090
 2403SOL    HW218669   1.672   2.412   5.400 -0.1007  0.5206 -1.2151
 2404SOL     OW18670   1.502   0.893  12.713 -0.3476  0.2069 -0.3106
 2404SOL    HW118671   1.580   0.903  12.660  0.4749  0.1189  0.8832
 2404SOL    HW218672   1.460   0.814  12.680  0.3572  0.8927 -2.8083
 2405SOL     OW18673   2.504   0.083   7.147 -0.1729 -0.4945  0.6721
 2405SOL    HW118674   2.468   0.125   7.225  0.7627  1.1237  0.2127
 2405SOL    HW218675   2.508   4.714   7.181 -1.3110 -1.3761 -1.5205
 2406SOL     OW18676   2.787   3.391  16.183  0.1874 -0.6570 -0.8957
 2406SOL    HW118677   2.710   3.413  16.130  1.1745  1.7300 -1.3460
 2406SOL    HW218678   2.763   3.307  16.220 -2.4584  0.5993  0.2353
 2407SOL     OW18679   0.278   1.929   7.392  0.0358 -0.1690 -0.0985
 2407SOL    HW118680   0.321   2.008   7.425 -0.9234  0.3695 -0.1499
 2407SOL    HW218681   0.195   1.944   7.438 -0.1675 -0.4442 -0.3811
 2408SOL     OW18682   3.172   3.008   9.222 -0.7533 -0.4654  0.0062
 2408SOL    HW118683   3.138   3.055   9.146  1.4187 -0.5579 -1.0324
 2408SOL    HW218684   3.108   3.038   9.286 -0.5444  1.2787 -0.5851
 2409SOL     OW18685   2.499   0.191  13.787  0.4414  0.5520  0.7981
 2409SOL    HW118686   2.546   0.108  13.796 -0.3009  0.1388  0.7781
 2409SOL    HW218687   2.553   0.250  13.840  3.0743 -0.8104 -0.3579
 2410SOL     OW18688   1.122   3.435   5.756  0.2522 -0.0057  0.2608
 2410SOL    HW118689   1.029   3.456   5.749 -0.0228 -1.9798 -1.7592
 2410SOL    HW218690   1.123   3.368   5.688 -0.0838  1.4995 -1.2194
 2411SOL     OW18691   3.278   1.408   0.592  0.1414  0.6399  0.1215
 2411SOL    HW118692   3.255   1.369   0.507  0.2337  1.7028 -0.3977
 2411SOL    HW218693   3.263   1.328   0.642  2.1099 -0.1103 -0.4839
 2412SOL     OW18694   1.732   2.780   1.444  0.0430 -0.3974 -0.3052
 2412SOL    HW118695   1.783   2.835   1.385 -0.3778 -0.7739 -1.0151
 2412SOL    HW218696   1.762   2.693   1.418 -1.0405 -0.6343 -0.7429
 2413SOL     OW18697   2.851   4.564   2.876  1.0127  0.0792 -0.1047
 2413SOL    HW118698   2.843   4.483   2.826  0.2098  0.7895 -1.1336
 2413SOL    HW218699   2.765   4.567   2.917  0.7165 -0.4577 -0.6864
 2414SOL     OW18700   0.280   1.874   9.111 -0.1182  0.3541  0.0712
 2414SOL    HW118701   0.312   1.925   9.186 -0.5290  0.6513  0.0478
 2414SOL    HW218702   0.339   1.902   9.042  0.0598  1.2459  0.5852
 2415SOL     OW18703   1.991   1.570   4.522  0.0032  0.3904 -0.2817
 2415SOL    HW118704   1.992   1.481   4.489 -0.2363  0.2466  0.0991
 2415SOL    HW218705   1.934   1.556   4.597  2.9116  2.7662  2.3935
 2416SOL     OW18706   1.187   3.291   3.143  0.1011 -0.0954 -0.2384
 2416SOL    HW118707   1.112   3.350   3.147 -0.5425 -0.8338 -1.3283
 2416SOL    HW218708   1.263   3.349   3.140 -1.4268  2.1356  3.9904
 2417SOL     OW18709   1.928   4.508   7.565 -0.1083  0.2498 -0.2242
 2417SOL    HW118710   1.930   4.430   7.620  0.5421 -0.0197 -0.6365
 2417SOL    HW218711   2.000   4.562   7.599  0.5489  0.2433 -1.6183
 2418SOL     OW18712   4.507   0.974   4.818 -0.3271  0.2697  0.2844
 2418SOL    HW118713   4.448   0.971   4.743  3.1604 -0.2823 -2.4523
 2418SOL    HW218714   4.513   1.067   4.836  1.9521 -0.0024  1.0124
 2419SOL     OW18715   2.408   4.632   4.795 -0.0115 -0.0001 -0.0948
 2419SOL    HW118716   2.504   4.622   4.797 -0.2094 -1.8909 -0.3560
 2419SOL    HW218717   2.382   4.621   4.887 -0.3628 -1.9720 -0.4366
 2420SOL     OW18718   1.736   3.170   5.719 -0.2397  0.6006 -0.0449
 2420SOL    HW118719   1.680   3.243   5.691  1.7496  1.8216 -0.8804
 2420SOL    HW218720   1.695   3.163   5.805  1.9192 -1.0506  0.8521
 2421SOL     OW18721   4.288   1.164   2.794 -0.2001  0.3401  0.3034
 2421SOL    HW118722   4.374   1.204   2.794  1.1048 -2.4591 -1.3622
 2421SOL    HW218723   4.311   1.099   2.860 -0.1852 -0.3600 -0.3929
 2422SOL     OW18724   3.758   1.359   8.464 -0.0075  0.3644  0.5665
 2422SOL    HW118725   3.839   1.371   8.414  0.0877  1.0852  0.8917
 2422SOL    HW218726   3.693   1.332   8.399  1.4560 -0.6019 -0.4763
 2423SOL     OW18727   2.221   3.321   7.114 -0.7638  0.0555  0.3153
 2423SOL    HW118728   2.301   3.359   7.078 -0.7858  0.4644  0.6977
 2423SOL    HW218729   2.251   3.233   7.139 -0.6055  0.3943  1.3197
 2424SOL     OW18730   0.932   3.585   2.890 -0.5628  0.2779 -0.0520
 2424SOL    HW118731   0.858   3.532   2.862 -1.5598 -0.0477  3.2753
 2424SOL    HW218732   1.010   3.533   2.873 -0.8948  1.3142 -4.8294
 2425SOL     OW18733   1.787   2.942   1.241  0.7702  0.2945 -0.0260
 2425SOL    HW118734   1.764   2.874   1.177  1.9620 -0.4605  0.3585
 2425SOL    HW218735   1.868   2.979   1.206  0.7997 -0.4842 -0.8063
 2426SOL     OW18736   3.684   3.141   4.323 -0.2794 -0.5145 -0.0829
 2426SOL    HW118737   3.590   3.129   4.309 -0.4806  0.1169  0.7385
 2426SOL    HW218738   3.680   3.235   4.340  1.0801 -0.4220 -0.2729
 2427SOL     OW18739   0.128   4.663   6.371 -0.0698  0.2690 -0.8106
 2427SOL    HW118740   0.039   4.662   6.408  0.7930 -2.0658  1.2499
 2427SOL    HW218741   0.157   0.033   6.374 -1.4697  0.6686  0.8084
 2428SOL     OW18742   2.502   0.044   8.194  0.2370 -0.6898  0.1942
 2428SOL    HW118743   2.444   0.095   8.251  0.0938 -0.6140 -0.0187
 2428SOL    HW218744   2.574   0.106   8.204  0.2558 -0.9261  1.5615
 2429SOL     OW18745   4.625   0.208  13.353 -0.6162 -0.2365  0.5782
 2429SOL    HW118746   4.587   0.120  13.350 -0.0043 -0.4965  0.5873
 2429SOL    HW218747   4.653   0.198  13.443 -0.6729 -0.1073  0.6102
 2430SOL     OW18748   0.591   2.310  13.097  0.4419  0.1599  0.3068
 2430SOL    HW118749   0.643   2.329  13.176 -0.3323  0.9507  0.6281
 2430SOL    HW218750   0.527   2.381  13.108 -0.8589 -0.3134 -4.5928
 2431SOL     OW18751   1.077   4.456   3.419  0.0019  0.2227  0.0451
 2431SOL    HW118752   1.097   4.521   3.352  2.6688  0.6468  1.2732
 2431SOL    HW218753   0.995   4.482   3.460  1.4322  1.1639  2.3003
 2432SOL     OW18754   1.457   1.661   1.663 -0.5346  0.6599 -0.7546
 2432SOL    HW118755   1.448   1.608   1.584 -0.7006 -1.6644  0.8153
 2432SOL    HW218756   1.380   1.717   1.672 -1.3164 -0.5875  0.3510
 2433SOL     OW18757   1.714   1.936   4.334  1.0298  0.1926 -0.2187
 2433SOL    HW118758   1.765   1.857   4.318 -1.3586 -1.4598  0.2290
 2433SOL    HW218759   1.625   1.901   4.337  0.8371  0.5580 -1.6306
 2434SOL     OW18760   1.765   0.610   0.538 -0.3959 -0.3540 -0.7939
 2434SOL    HW118761   1.734   0.535   0.588  0.4950  1.0358  1.8350
 2434SOL    HW218762   1.796   0.658   0.615  0.8031  0.3391 -1.7147
 2435SOL     OW18763   2.311   2.295   8.058 -0.0982  0.2466  0.4110
 2435SOL    HW118764   2.233   2.269   8.107 -1.7585  0.8602 -1.9284
 2435SOL    HW218765   2.375   2.279   8.127 -0.1679 -0.2132  0.3669
 2436SOL     OW18766   2.210   0.967   5.085 -0.3102  0.0562 -0.3303
 2436SOL    HW118767   2.267   1.041   5.062 -0.7361 -0.0280 -1.6203
 2436SOL    HW218768   2.134   1.013   5.120 -1.3552 -0.8287 -1.4671
 2437SOL     OW18769   4.419   2.514  13.119  0.1929 -0.2522  0.5642
 2437SOL    HW118770   4.344   2.473  13.077  0.7852 -0.8081  0.0501
 2437SOL    HW218771   4.470   2.530  13.040  0.2182 -3.3444 -0.0477
 2438SOL     OW18772   2.538   3.131   1.729 -0.0604  0.0783  0.0416
 2438SOL    HW118773   2.503   3.096   1.647 -0.7322 -1.0131  0.7948
 2438SOL    HW218774   2.544   3.049   1.778 -1.2786 -0.8678 -1.3801
 2439SOL     OW18775   3.746   4.416   2.068  0.5734 -0.7827  0.2899
 2439SOL    HW118776   3.821   4.425   2.009 -2.0874 -1.0854 -3.1610
 2439SOL    HW218777   3.775   4.331   2.103  1.6475 -0.6200 -0.1807
 2440SOL     OW18778   1.475   1.964   1.478  0.2368 -0.3675  0.4773
 2440SOL    HW118779   1.433   1.921   1.403  0.6890 -0.2633  0.1644
 2440SOL    HW218780   1.396   1.988   1.526  0.6529 -0.3677  1.1579
 2441SOL     OW18781   0.182   0.298   0.199 -0.5412 -0.0949 -0.3046
 2441SOL    HW118782   0.086   0.300   0.194 -0.6727 -1.4181  1.9901
 2441SOL    HW218783   0.205   0.305   0.292  0.8837 -0.6540 -0.6180
 2442SOL     OW18784   0.181   3.239   4.394 -0.3099 -0.0804 -0.6569
 2442SOL    HW118785   0.192   3.217   4.486 -0.3540  0.1140 -0.6045
 2442SOL    HW218786   0.137   3.164   4.355 -0.6342  1.3036 -2.9397
 2443SOL     OW18787   0.539   0.876   7.211 -0.0779  0.1048  0.1628
 2443SOL    HW118788   0.508   0.945   7.153  0.6293 -0.1161 -0.4704
 2443SOL    HW218789   0.451   0.847   7.237  0.8815 -1.9125  1.1837
 2444SOL     OW18790   1.134   1.362   4.384  0.3082  0.5455  0.5744
 2444SOL    HW118791   1.039   1.348   4.376  0.3431  0.2606  0.6736
 2444SOL    HW218792   1.165   1.335   4.471 -0.2605  0.8848  0.8879
 2445SOL     OW18793   2.995   4.622   5.869  0.5119  0.0467 -0.2154
 2445SOL    HW118794   2.922   4.664   5.915 -1.2506 -1.7409 -1.3776
 2445SOL    HW218795   3.070   4.677   5.893  0.3925 -0.0685  0.4119
 2446SOL     OW18796   4.468   2.458   5.248 -0.4877 -0.3078  0.1420
 2446SOL    HW118797   4.383   2.430   5.213  0.0582  0.6104 -1.9310
 2446SOL    HW218798   4.454   2.541   5.294  0.6145  0.1234 -0.3015
 2447SOL     OW18799   2.030   0.795   1.876 -0.3381 -0.4821  0.6057
 2447SOL    HW118800   1.949   0.835   1.906 -1.0484 -1.5712  0.1368
 2447SOL    HW218801   1.994   0.779   1.789  0.9678  0.9791 -0.1877
 2448SOL     OW18802   1.852   3.264  14.175  0.1933  0.0094  0.0986
 2448SOL    HW118803   1.768   3.278  14.132  0.4094  2.4506  0.4946
 2448SOL    HW218804   1.908   3.229  14.106  0.1570  2.4864 -1.1864
 2449SOL     OW18805   2.197   0.567   1.379  0.5841 -0.0452 -0.0035
 2449SOL    HW118806   2.272   0.608   1.335  1.6841 -1.4350  0.5868
 2449SOL    HW218807   2.167   0.641   1.432 -0.1028 -0.3659  0.0565
 2450SOL     OW18808   0.281   3.199   2.943  0.2959  0.2278  0.0404
 2450SOL    HW118809   0.297   3.292   2.929  2.2710 -0.2561 -1.0752
 2450SOL    HW218810   0.240   3.197   3.029  0.9924  1.3397  0.3995
 2451SOL     OW18811   0.623   1.056   0.689 -0.2219 -0.0341 -0.4254
 2451SOL    HW118812   0.618   1.014   0.775 -0.9918  1.4481  0.2501
 2451SOL    HW218813   0.584   1.142   0.702 -2.2368 -0.9181 -0.7535
 2452SOL     OW18814   1.669   2.417   8.043  0.5598  0.3887 -0.8445
 2452SOL    HW118815   1.686   2.441   7.951 -1.4939  2.3582 -0.7106
 2452SOL    HW218816   1.594   2.473   8.063  0.5859 -0.1872  0.7949
 2453SOL     OW18817   1.217   1.638   1.048  0.0358  0.2233  0.2992
 2453SOL    HW118818   1.176   1.640   1.135 -1.9046  1.1523 -0.6463
 2453SOL    HW218819   1.179   1.716   1.007  0.8847  0.3522 -0.2284
 2454SOL     OW18820   3.018   3.010  14.778 -0.2979 -0.2403 -0.1980
 2454SOL    HW118821   2.957   2.940  14.755 -2.5865  1.8144 -0.3782
 2454SOL    HW218822   2.971   3.047  14.853  2.8981 -3.3096  3.3385
 2455SOL     OW18823   1.658   3.057  16.958  0.2021  0.5687 -0.3132
 2455SOL    HW118824   1.630   3.144  16.987  1.1811  1.0246 -0.7418
 2455SOL    HW218825   1.568   3.031  16.937 -0.3828  0.8168  1.9127
 2456SOL     OW18826   3.608   2.084   5.272 -0.4202  0.2293  0.4286
 2456SOL    HW118827   3.602   1.994   5.303 -0.3040  0.9146  2.4489
 2456SOL    HW218828   3.520   2.100   5.239  0.2141 -0.4162 -1.5930
 2457SOL     OW18829   3.320   0.146  11.742 -0.0655 -0.2435 -0.0115
 2457SOL    HW118830   3.342   0.229  11.701 -0.2354 -0.4658 -0.5557
 2457SOL    HW218831   3.225   0.157  11.752  0.3954  0.2227  3.7470
 2458SOL     OW18832   1.072   2.388   2.238 -0.7483 -0.6101 -0.4724
 2458SOL    HW118833   1.076   2.313   2.178 -1.3593 -0.5217 -0.6316
 2458SOL    HW218834   0.980   2.385   2.266 -0.6625  0.7458 -0.0487
 2459SOL     OW18835   0.809   2.437   7.146 -0.1355 -0.4485 -0.3465
 2459SOL    HW118836   0.835   2.510   7.090 -0.8912  1.1373  1.4126
 2459SOL    HW218837   0.868   2.446   7.221 -1.3463  0.3863  0.4858
 2460SOL     OW18838   0.355   2.068  14.799 -0.0426 -0.2542  0.5655
 2460SOL    HW118839   0.370   2.162  14.785 -1.0559 -0.0049  1.1311
 2460SOL    HW218840   0.261   2.061  14.784  0.2904 -3.1643 -0.1588
 2461SOL     OW18841   2.722   2.958   5.915 -0.0854  0.0910 -0.0395
 2461SOL    HW118842   2.780   3.011   5.861  3.0903 -2.0185  1.2751
 2461SOL    HW218843   2.777   2.963   5.994 -0.3560 -1.5356  0.2414
 2462SOL     OW18844   2.468   3.819   9.314 -0.3001  0.2689 -0.2870
 2462SOL    HW118845   2.424   3.863   9.241 -0.4789  0.3764 -0.1145
 2462SOL    HW218846   2.396   3.789   9.369  3.0508 -1.8985  2.9329
 2463SOL     OW18847   1.775   2.860   5.470  0.3176 -0.0355  0.1013
 2463SOL    HW118848   1.696   2.876   5.419  0.6784  0.0295 -0.4375
 2463SOL    HW218849   1.845   2.881   5.408  0.9656  0.7716  1.0959
 2464SOL     OW18850   0.825   2.584   7.626  0.3617 -0.1547 -0.0631
 2464SOL    HW118851   0.739   2.544   7.615 -0.1504  1.1723 -0.9030
 2464SOL    HW218852   0.790   2.672   7.644  0.7263  0.0822 -0.5203
 2465SOL     OW18853   4.486   4.389   7.540  0.7981 -0.2954 -0.1062
 2465SOL    HW118854   4.433   4.333   7.483  0.9405  0.6720 -1.1922
 2465SOL    HW218855   4.472   4.349   7.625 -3.0829 -0.1392 -0.6611
 2466SOL     OW18856   3.620   2.964   2.440 -0.2466 -0.4310 -0.0825
 2466SOL    HW118857   3.556   2.978   2.370  0.3323  0.1647 -0.4958
 2466SOL    HW218858   3.639   3.054   2.466 -0.8418  0.0636 -1.3574
 2467SOL     OW18859   0.410   3.366   9.098 -0.3133  0.5421  0.4289
 2467SOL    HW118860   0.483   3.427   9.110  0.8212 -0.7281 -0.0456
 2467SOL    HW218861   0.436   3.296   9.159  0.8563  0.6345  0.0349
 2468SOL     OW18862   0.373   2.030   4.217  0.3136  0.4961 -0.3372
 2468SOL    HW118863   0.304   1.964   4.209  1.9020 -1.3510  1.1593
 2468SOL    HW218864   0.364   2.078   4.135 -1.9066  0.4391 -0.1060
 2469SOL     OW18865   2.052   3.028   8.727  0.1516  0.1604  0.2948
 2469SOL    HW118866   2.052   2.947   8.675 -3.0991  0.0780  0.4286
 2469SOL    HW218867   1.970   3.073   8.706 -1.7203 -2.4962  1.9069
 2470SOL     OW18868   3.716   0.588  16.055  0.7620  1.1440 -0.0643
 2470SOL    HW118869   3.796   0.574  16.106  0.8685  0.6189 -0.3793
 2470SOL    HW218870   3.698   0.680  16.074  1.7124  1.3984 -0.4010
 2471SOL     OW18871   4.569   0.122   7.430 -0.1016  0.7359  0.3247
 2471SOL    HW118872   4.641   0.068   7.462  0.2037  0.1801 -1.3064
 2471SOL    HW218873   4.510   0.054   7.398  1.7132 -0.6283 -0.1156
 2472SOL     OW18874   4.471   2.966   4.251 -0.5106 -0.3436  0.0610
 2472SOL    HW118875   4.494   2.976   4.343 -3.1216 -2.6880  0.9408
 2472SOL    HW218876   4.472   2.870   4.249 -0.5040 -0.3277 -0.9176
 2473SOL     OW18877   4.602   4.576   1.147  0.1688 -0.0304 -0.1920
 2473SOL    HW118878   4.572   4.601   1.234  1.3320  0.2256  0.1255
 2473SOL    HW218879   4.610   4.481   1.151 -1.4578 -0.0606  1.8988
 2474SOL     OW18880   0.259   4.631   2.405 -0.2227 -0.4431  0.1883
 2474SOL    HW118881   0.178   4.654   2.450 -1.6612 -1.1359 -2.0436
 2474SOL    HW218882   0.233   4.641   2.313 -0.7058 -2.3027  0.1359
 2475SOL     OW18883   0.183   2.425   7.733  0.1788  0.6975  0.6648
 2475SOL    HW118884   0.168   2.443   7.826 -3.2130  1.1334  0.0602
 2475SOL    HW218885   0.245   2.354   7.746 -1.5823 -1.1184 -0.9699
 2476SOL     OW18886   2.401   0.188   7.641 -0.0746  0.4487 -0.3519
 2476SOL    HW118887   2.396   0.137   7.722 -1.7796  1.3535  0.1115
 2476SOL    HW218888   2.484   0.232   7.659 -0.5507  0.6397  1.4031
 2477SOL     OW18889   1.719   3.639   2.595  0.2945 -0.1173  0.0517
 2477SOL    HW118890   1.676   3.724   2.591  0.9528 -0.0015 -4.2999
 2477SOL    HW218891   1.657   3.590   2.540 -1.2757  1.6663  0.2461
 2478SOL     OW18892   2.757   4.374   1.366  0.3829  0.1306  0.3007
 2478SOL    HW118893   2.726   4.428   1.293  1.5887 -0.1745 -0.4417
 2478SOL    HW218894   2.700   4.298   1.366 -0.0693  0.4705 -0.9795
 2479SOL     OW18895   4.423   3.995   9.846 -1.0844  0.5004 -0.3030
 2479SOL    HW118896   4.468   4.059   9.790 -2.7321  1.7319 -0.2050
 2479SOL    HW218897   4.493   3.946   9.888 -1.7421  0.1481  0.3633
 2480SOL     OW18898   0.063   0.860   3.144  0.0190 -0.0161  0.2893
 2480SOL    HW118899   0.015   0.812   3.211 -1.0427  0.3343 -0.2034
 2480SOL    HW218900   0.101   0.790   3.092  0.5359 -0.5857  1.4435
 2481SOL     OW18901   1.205   3.862   7.195  0.2157  0.1295  0.4052
 2481SOL    HW118902   1.250   3.887   7.276  2.0870  0.9957 -0.8941
 2481SOL    HW218903   1.224   3.938   7.140 -2.1984  2.0580  2.2538
 2482SOL     OW18904   3.734   3.000   8.003 -0.0722 -0.4255  0.3466
 2482SOL    HW118905   3.800   2.998   8.073 -0.1089 -1.0499  0.3587
 2482SOL    HW218906   3.655   2.987   8.055  0.6529  0.8556  1.7772
 2483SOL     OW18907   1.103   2.784   8.600  0.4930  0.0314  0.0225
 2483SOL    HW118908   1.142   2.781   8.688 -0.4276 -0.5196  0.4192
 2483SOL    HW218909   1.134   2.870   8.572  0.7534  0.4331  1.5357
 2484SOL     OW18910   2.634   2.711   1.129 -0.6977  0.0312  0.2760
 2484SOL    HW118911   2.644   2.784   1.067  1.9526 -0.6165 -0.0268
 2484SOL    HW218912   2.671   2.640   1.076 -1.3825 -2.8252  3.6333
 2485SOL     OW18913   0.869   0.717  11.712 -0.5465 -0.2258 -0.2105
 2485SOL    HW118914   0.900   0.694  11.625  0.2852  0.4398 -0.0964
 2485SOL    HW218915   0.940   0.776  11.738 -0.6762  0.2285 -0.9126
 2486SOL     OW18916   0.203   1.340   6.028 -0.5965 -0.4671 -0.0774
 2486SOL    HW118917   0.227   1.295   5.947 -0.4539 -0.3498 -0.1015
 2486SOL    HW218918   0.241   1.298   6.105 -0.9749 -2.0711 -0.7750
 2487SOL     OW18919   3.294   1.178   2.857  0.3461  0.4988 -0.2955
 2487SOL    HW118920   3.355   1.245   2.887  1.3725 -2.1219  3.5582
 2487SOL    HW218921   3.267   1.220   2.776 -0.2895  1.6390  0.5013
 2488SOL     OW18922   1.583   0.092  14.113 -0.5950  0.2911 -0.7285
 2488SOL    HW118923   1.610   0.067  14.025  0.4036  0.7143 -0.5367
 2488SOL    HW218924   1.504   0.146  14.101 -0.9896 -0.6050 -2.0569
 2489SOL     OW18925   3.032   3.262   2.858 -0.2973 -0.4356  0.3532
 2489SOL    HW118926   3.086   3.245   2.781 -0.4232  0.0264  0.1601
 2489SOL    HW218927   3.073   3.206   2.924 -2.6166 -1.1795  1.1461
 2490SOL     OW18928   3.290   3.139  11.171 -0.6442 -0.9143 -0.0064
 2490SOL    HW118929   3.220   3.188  11.215  1.6922  0.9639  1.6043
 2490SOL    HW218930   3.309   3.201  11.100  1.1016  1.8402  2.9023
 2491SOL     OW18931   4.142   3.832   6.691  0.2039 -0.2066 -0.4383
 2491SOL    HW118932   4.184   3.750   6.666 -2.1842 -2.0347  1.5092
 2491SOL    HW218933   4.169   3.845   6.782 -0.5076  0.0227 -0.2510
 2492SOL     OW18934   2.764   4.442   2.474 -0.2209 -0.0825  0.5064
 2492SOL    HW118935   2.755   4.428   2.568  1.1356  1.3504  0.8493
 2492SOL    HW218936   2.829   4.375   2.450 -0.7390 -0.2089 -0.5666
 2493SOL     OW18937   0.893   2.703  11.569  0.3873 -0.1114  0.1424
 2493SOL    HW118938   0.892   2.786  11.522  2.9917 -0.7679 -1.0523
 2493SOL    HW218939   0.986   2.682  11.561  0.5185  0.9151 -1.0785
 2494SOL     OW18940   2.508   2.775  12.479 -0.4496 -0.3290 -0.1127
 2494SOL    HW118941   2.450   2.747  12.549 -0.0745 -1.0972 -0.1127
 2494SOL    HW218942   2.482   2.718  12.407 -0.9903 -1.2378  0.8119
 2495SOL     OW18943   0.326   3.829   2.597  0.0294 -0.0445  0.8606
 2495SOL    HW118944   0.357   3.880   2.522 -2.7497  0.7304  0.2423
 2495SOL    HW218945   0.344   3.743   2.560  0.6207  1.1158 -1.5283
 2496SOL     OW18946   0.163   1.078  13.547 -0.1141  0.4899  0.1826
 2496SOL    HW118947   0.120   1.141  13.605  0.4801 -0.4189  1.6066
 2496SOL    HW218948   0.100   1.007  13.558  0.7811 -0.8147 -3.0677
 2497SOL     OW18949   0.859   0.466  13.630  0.4196 -0.8896  0.1724
 2497SOL    HW118950   0.879   0.539  13.688 -1.3219  1.7663 -2.5937
 2497SOL    HW218951   0.768   0.478  13.601  0.4048  1.1209  1.0676
 2498SOL     OW18952   0.723   4.331   0.259  0.0455  0.1089  0.4248
 2498SOL    HW118953   0.679   4.303   0.179 -0.6219  2.5088 -0.0553
 2498SOL    HW218954   0.704   4.425   0.256 -0.8854 -0.1426 -1.3184
 2499SOL     OW18955   2.248   2.759   6.844  0.0211 -0.0226 -0.0712
 2499SOL    HW118956   2.324   2.723   6.890 -0.3871  0.0799  0.6729
 2499SOL    HW218957   2.268   2.733   6.754 -0.7698 -1.0500  0.0490
 2500SOL     OW18958   0.156   2.181  11.161  0.2025  0.3638  0.3821
 2500SOL    HW118959   0.098   2.237  11.110 -0.5623  0.2485  1.1262
 2500SOL    HW218960   0.243   2.214  11.138 -0.2565  0.7971 -0.7365
 2501SOL     OW18961   3.543   4.261   0.772 -0.1369  0.0995 -0.6374
 2501SOL    HW118962   3.566   4.263   0.865 -1.5250 -1.5594 -0.2513
 2501SOL    HW218963   3.452   4.289   0.785  0.0431  0.3367  0.1554
 2502SOL     OW18964   2.191   2.192   0.785 -0.6920  0.2733  0.3458
 2502SOL    HW118965   2.129   2.140   0.836 -0.5843  0.1525  0.3535
 2502SOL    HW218966   2.153   2.199   0.698 -0.2641 -0.6564  0.0844
 2503SOL     OW18967   4.148   3.873   2.126 -0.3428 -0.2494  0.0450
 2503SOL    HW118968   4.214   3.899   2.061 -0.7030  2.4186  0.7507
 2503SOL    HW218969   4.136   3.946   2.186 -3.0558 -0.0140 -0.7825
 2504SOL     OW18970   2.125   2.580   7.456 -0.1818 -0.3164 -0.2039
 2504SOL    HW118971   2.081   2.506   7.414 -1.0476  0.6039 -0.8942
 2504SOL    HW218972   2.207   2.539   7.485  2.2972  2.5924 -3.1275
 2505SOL     OW18973   3.827   4.078   8.349 -0.2567  0.1777  0.9228
 2505SOL    HW118974   3.734   4.101   8.341 -0.1178  0.7146  0.8639
 2505SOL    HW218975   3.818   3.982   8.357 -0.8239  0.2839  1.5982
 2506SOL     OW18976   3.852   1.447   4.918  0.0893  0.3811  0.0767
 2506SOL    HW118977   3.777   1.498   4.888 -0.3063 -0.2765 -0.0565
 2506SOL    HW218978   3.852   1.374   4.856 -1.6186  1.0075 -0.6565
 2507SOL     OW18979   3.863   2.442   8.628 -0.4884 -0.3716 -0.1624
 2507SOL    HW118980   3.805   2.464   8.555  0.3742 -0.6861 -0.9285
 2507SOL    HW218981   3.910   2.525   8.624 -0.1040 -0.5659  0.3037
 2508SOL     OW18982   1.997   2.230   4.806 -0.3402 -0.0717  0.2311
 2508SOL    HW118983   2.045   2.222   4.889 -2.5369 -1.2590  1.3949
 2508SOL    HW218984   1.965   2.319   4.819  0.9304  0.5607 -1.0683
 2509SOL     OW18985   2.008   4.445   2.317  0.1405 -0.1300 -0.0060
 2509SOL    HW118986   2.083   4.463   2.374  0.7422  2.3297 -1.5770
 2509SOL    HW218987   2.044   4.455   2.229  0.9793  0.3235  0.3873
 2510SOL     OW18988   4.176   3.200   4.839 -0.3974  0.4156 -0.6579
 2510SOL    HW118989   4.213   3.268   4.896  1.6546 -1.3629  0.1316
 2510SOL    HW218990   4.174   3.237   4.751 -0.5956 -0.6973 -1.1133
 2511SOL     OW18991   4.590   2.555  12.923 -0.1873  0.2212 -0.1756
 2511SOL    HW118992   4.572   2.514  12.838  0.1795 -2.5283  1.0624
 2511SOL    HW218993   4.686   2.558  12.922 -0.2463  1.2526 -1.1279
 2512SOL     OW18994   1.884   2.468   0.975  0.4059 -0.1495  0.2299
 2512SOL    HW118995   1.902   2.466   0.881 -0.4421 -2.1395  0.1289
 2512SOL    HW218996   1.807   2.412   0.984  1.1851 -0.3447  5.6377
 2513SOL     OW18997   3.538   4.495   5.503 -0.5199 -0.4369  0.4775
 2513SOL    HW118998   3.625   4.528   5.478 -0.1314 -1.9093 -0.1168
 2513SOL    HW218999   3.472   4.527   5.441  0.2319  0.9663  0.4089
 2514SOL     OW19000   2.021   3.006  17.551  0.4757  0.2390  0.0641
 2514SOL    HW119001   2.100   3.019  17.602  1.0876  1.5364 -1.2362
 2514SOL    HW219002   1.978   2.929  17.590 -0.1560  0.9938  0.8568
 2515SOL     OW19003   2.591   0.444   8.302  0.0122  0.1499  0.3538
 2515SOL    HW119004   2.611   0.371   8.361  0.3642  0.6904  0.8922
 2515SOL    HW219005   2.669   0.445   8.247  0.7053  2.4383  1.3765
 2516SOL     OW19006   0.344   3.110  11.749  0.0431 -0.5697 -0.1144
 2516SOL    HW119007   0.356   3.178  11.682 -1.9336 -0.0646  0.0351
 2516SOL    HW219008   0.408   3.147  11.810 -0.8116 -0.4389  0.6962
 2517SOL     OW19009   0.226   2.980   6.571 -0.1131 -0.3773 -0.4061
 2517SOL    HW119010   0.156   2.925   6.535 -1.1922 -0.4992  1.9023
 2517SOL    HW219011   0.263   3.024   6.494  2.3108  0.4175  1.2405
 2518SOL     OW19012   0.507   0.275  16.119  0.3229  0.3263 -0.3132
 2518SOL    HW119013   0.548   0.219  16.053  2.0721  0.4561  0.6654
 2518SOL    HW219014   0.555   0.263  16.201 -0.5909 -1.6201 -0.0710
 2519SOL     OW19015   2.565   3.143   6.073  0.1674  0.3369  0.2115
 2519SOL    HW119016   2.561   3.217   6.012 -0.3844 -0.9409 -1.2944
 2519SOL    HW219017   2.574   3.071   6.011 -0.8688 -0.6904  1.2368
 2520SOL     OW19018   1.267   4.028   2.730  0.1003  0.0418 -0.4181
 2520SOL    HW119019   1.276   4.036   2.635  0.1647  1.7915 -0.2680
 2520SOL    HW219020   1.214   3.948   2.729  2.4373 -1.5673  3.1934
 2521SOL     OW19021   3.747   4.430   5.866  0.1753 -0.0527 -0.2481
 2521SOL    HW119022   3.658   4.459   5.887 -0.1017  0.1414 -1.7117
 2521SOL    HW219023   3.731   4.405   5.775  1.0711 -2.8842  0.3691
 2522SOL     OW19024   4.337   2.483   7.218 -0.1414  0.3567 -0.5613
 2522SOL    HW119025   4.333   2.446   7.129  1.9763 -1.0708 -0.0546
 2522SOL    HW219026   4.273   2.435   7.271  0.9511  0.0180  0.4288
 2523SOL     OW19027   3.611   2.430   4.598 -0.1871  0.2070 -0.4747
 2523SOL    HW119028   3.705   2.417   4.585 -0.2686 -0.2653 -0.5817
 2523SOL    HW219029   3.602   2.414   4.692  0.5801  0.5165 -0.3441
 2524SOL     OW19030   2.829   2.860  16.712 -0.1856  0.2968  0.6789
 2524SOL    HW119031   2.908   2.826  16.754  1.0990  1.1891 -0.9837
 2524SOL    HW219032   2.814   2.952  16.734  1.5928  0.0064  3.0757
 2525SOL     OW19033   0.720   0.415   9.295  0.0689 -0.0326 -0.0601
 2525SOL    HW119034   0.660   0.348   9.327  0.5081 -0.2057  0.4007
 2525SOL    HW219035   0.659   0.480   9.260  1.0309  0.1110 -1.5031
 2526SOL     OW19036   0.415   1.570   3.109 -0.2006 -0.2456  0.0693
 2526SOL    HW119037   0.363   1.493   3.134  0.3292 -0.4893  0.4078
 2526SOL    HW219038   0.480   1.531   3.050 -1.1621  0.5504 -1.5009
 2527SOL     OW19039   1.951   3.079   4.827 -0.1890 -0.3100  0.1823
 2527SOL    HW119040   1.962   2.996   4.780  1.1411 -1.5438  2.6926
 2527SOL    HW219041   2.021   3.136   4.797 -0.2792  0.2588  1.0595
 2528SOL     OW19042   3.517   2.429   3.241  0.2564 -0.0938  0.2395
 2528SOL    HW119043   3.611   2.425   3.258  0.1611 -0.1806  0.7745
 2528SOL    HW219044   3.504   2.341   3.206  0.1888  0.0683 -0.1396
 2529SOL     OW19045   2.305   0.551   3.590 -0.3151  0.0410  0.2087
 2529SOL    HW119046   2.325   0.578   3.680  0.0462  1.1931 -0.2247
 2529SOL    HW219047   2.284   0.639   3.560 -0.6342  0.7167  2.3637
 2530SOL     OW19048   4.289   3.525  12.281 -0.7241  0.0564 -0.7733
 2530SOL    HW119049   4.347   3.590  12.240  0.3025 -1.1694 -1.2481
 2530SOL    HW219050   4.245   3.480  12.210  0.5021  1.1697 -2.2468
 2531SOL     OW19051   3.019   0.161   0.790 -0.1645 -0.0588  0.1374
 2531SOL    HW119052   3.038   0.127   0.878 -1.2099  0.9368  0.7472
 2531SOL    HW219053   2.930   0.129   0.775 -1.5381  2.8156  2.3148
 2532SOL     OW19054   1.747   3.659   5.835 -0.0598  0.0374 -0.6362
 2532SOL    HW119055   1.686   3.589   5.858 -0.7279  1.2130  1.1357
 2532SOL    HW219056   1.684   3.727   5.858 -1.5331 -1.8786  0.9573
 2533SOL     OW19057   1.989   0.155  12.163  0.5021 -0.7836  0.6600
 2533SOL    HW119058   1.926   0.167  12.092 -0.4733 -0.5774  1.5596
 2533SOL    HW219059   1.991   0.060  12.165 -0.4648 -0.8194  0.0769
 2534SOL     OW19060   2.719   3.178   4.748 -0.3919  0.2674  0.4348
 2534SOL    HW119061   2.752   3.092   4.775  1.7808 -0.0143 -3.2287
 2534SOL    HW219062   2.635   3.154   4.710 -0.5171 -0.2196  1.0168
 2535SOL     OW19063   4.368   4.591  15.682  0.1171 -0.4690  0.1804
 2535SOL    HW119064   4.276   4.598  15.707  0.2145 -3.0124  1.2489
 2535SOL    HW219065   4.400   4.569  15.769 -1.6934 -2.9928  0.1859
 2536SOL     OW19066   4.372   4.615   1.032 -0.2080  0.0795  0.4257
 2536SOL    HW119067   4.458   4.639   1.067 -0.4575 -1.5495  2.1620
 2536SOL    HW219068   4.384   4.527   0.996 -2.0692  0.2571 -0.5970
 2537SOL     OW19069   3.426   0.767   9.887  0.4514  0.1492 -0.4454
 2537SOL    HW119070   3.419   0.807   9.973  1.1715 -1.0644  0.1640
 2537SOL    HW219071   3.359   0.816   9.838 -0.9276  0.4164  1.7427
 2538SOL     OW19072   0.536   0.043  16.729 -0.5595  0.4627  0.4111
 2538SOL    HW119073   0.542   0.136  16.710  0.5673  0.1664 -0.6693
 2538SOL    HW219074   0.448   0.035  16.765 -2.3325  1.8358 -3.5710
 2539SOL     OW19075   4.352   0.186   0.342  0.3003  0.1698  0.6057
 2539SOL    HW119076   4.407   0.125   0.293 -0.7606  0.0300 -0.4197
 2539SOL    HW219077   4.349   0.154   0.433  1.0329 -2.6209 -0.3606
 2540SOL     OW19078   1.066   2.541   3.255  0.3953  0.2374 -0.5373
 2540SOL    HW119079   1.021   2.540   3.339  1.1317 -0.1287 -0.1431
 2540SOL    HW219080   1.152   2.510   3.282  0.9996  0.9790 -1.6022
 2541SOL     OW19081   2.043   2.891  15.144  0.3451  0.5234  0.1800
 2541SOL    HW119082   2.056   2.958  15.211  2.8699  1.3111 -1.1019
 2541SOL    HW219083   2.091   2.922  15.067  0.3373 -0.3058 -0.1500
 2542SOL     OW19084   2.625   0.609   6.749  0.4335  0.4668 -0.3120
 2542SOL    HW119085   2.586   0.671   6.811  1.1500  1.8785 -1.2655
 2542SOL    HW219086   2.691   0.665   6.708  2.0217 -0.0333  1.5515
 2543SOL     OW19087   4.624   3.398   2.334  0.1879 -0.3554 -0.2408
 2543SOL    HW119088   4.656   3.353   2.256  2.3764  0.2015  0.3316
 2543SOL    HW219089   4.576   3.472   2.296 -0.6963 -0.4131  0.7589
 2544SOL     OW19090   2.278   1.687   8.591 -0.4608 -0.0867  0.7692
 2544SOL    HW119091   2.317   1.609   8.551  1.3730  1.8265 -1.2036
 2544SOL    HW219092   2.184   1.682   8.576 -0.3299 -0.1489 -0.0068
 2545SOL     OW19093   0.731   1.333  12.460  0.4073  0.0048  0.3466
 2545SOL    HW119094   0.800   1.369  12.403 -0.8821  0.0601 -1.1825
 2545SOL    HW219095   0.738   1.240  12.438  1.4009  0.8544 -3.0421
 2546SOL     OW19096   0.093   4.149   5.999 -0.1784 -0.2320 -0.0955
 2546SOL    HW119097   0.014   4.129   6.049  0.8769 -2.0090  0.8561
 2546SOL    HW219098   0.086   4.244   5.989 -0.5259 -0.4049 -1.5913
 2547SOL     OW19099   0.720   3.484   7.042  0.7424  0.4092  0.2429
 2547SOL    HW119100   0.633   3.446   7.029  1.8645 -1.3844 -1.9631
 2547SOL    HW219101   0.711   3.556   7.105  2.0208  1.6170 -0.9610
 2548SOL     OW19102   0.875   2.838   8.249  0.1986  0.0779  0.2451
 2548SOL    HW119103   0.879   2.768   8.315  0.0854 -0.6940 -0.5697
 2548SOL    HW219104   0.876   2.915   8.307 -2.9859  1.4216 -1.4905
 2549SOL     OW19105   1.130   4.378   1.410 -0.5472 -0.0924 -0.0239
 2549SOL    HW119106   1.159   4.404   1.497  0.0471  1.3533 -0.6584
 2549SOL    HW219107   1.189   4.425   1.351 -1.8117  2.7986  0.9929
 2550SOL     OW19108   0.825   1.475   8.845 -0.2755 -0.2552 -0.5950
 2550SOL    HW119109   0.834   1.511   8.757 -0.2079  3.0092  0.7337
 2550SOL    HW219110   0.870   1.391   8.853 -0.1507 -0.3800 -2.7834
 2551SOL     OW19111   4.388   2.498   9.066  0.1523  0.2629  0.1745
 2551SOL    HW119112   4.449   2.461   9.130 -0.6033 -0.3525  0.5392
 2551SOL    HW219113   4.325   2.427   9.055  1.0590 -0.5410  0.1761
 2552SOL     OW19114   2.145   1.765   7.050  0.4156 -0.0211 -0.5830
 2552SOL    HW119115   2.212   1.780   7.116 -1.9974 -0.6768  2.0250
 2552SOL    HW219116   2.131   1.853   7.015  0.3112  0.6360  1.1426
 2553SOL     OW19117   3.394   3.820   8.078 -0.6116  0.8641  0.8119
 2553SOL    HW119118   3.412   3.824   8.172  2.2305  1.4174  0.2184
 2553SOL    HW219119   3.453   3.890   8.051 -1.3562  0.6073 -1.4654
 2554SOL     OW19120   3.782   3.201   3.752  0.2301  0.0005  0.1329
 2554SOL    HW119121   3.847   3.157   3.807  0.3148  1.4893  1.2092
 2554SOL    HW219122   3.809   3.173   3.664 -2.2078  2.8819 -1.5077
 2555SOL     OW19123   1.433   4.071   0.371  0.0397 -0.2753 -0.5097
 2555SOL    HW119124   1.342   4.074   0.401  0.2266 -0.0579  0.0304
 2555SOL    HW219125   1.449   3.977   0.371  0.2635 -0.2319  0.1636
 2556SOL     OW19126   2.848   0.663   7.715  0.3972 -0.0580 -0.2210
 2556SOL    HW119127   2.872   0.634   7.803  0.6479  0.4778 -0.1121
 2556SOL    HW219128   2.932   0.666   7.670 -0.1585  2.2320 -1.1406
 2557SOL     OW19129   0.182   2.762   2.860  0.4086 -0.2753 -0.0754
 2557SOL    HW119130   0.111   2.795   2.916  0.1359 -1.8493  0.5117
 2557SOL    HW219131   0.212   2.690   2.915  0.5876  0.1686  0.4095
 2558SOL     OW19132   0.598   2.186   1.011  0.5888 -0.3345 -0.4686
 2558SOL    HW119133   0.503   2.187   1.026  0.2754 -0.9232 -2.4371
 2558SOL    HW219134   0.613   2.277   0.984  0.7301  0.0213  0.8130
 2559SOL     OW19135   2.480   2.505  11.247  0.0433  0.7031  0.5924
 2559SOL    HW119136   2.562   2.464  11.220  0.0325  1.3518 -0.4344
 2559SOL    HW219137   2.430   2.482  11.168 -0.3360  2.5587  0.2830
 2560SOL     OW19138   3.905   1.666   7.887  0.2065  0.4738 -0.5478
 2560SOL    HW119139   3.979   1.690   7.831  1.0196 -2.9846 -0.9091
 2560SOL    HW219140   3.920   1.740   7.947  1.0209 -0.0003 -0.1655
 2561SOL     OW19141   2.116   1.221  17.288 -0.4378 -0.6553  0.5282
 2561SOL    HW119142   2.158   1.288  17.341 -4.8539  1.6592  1.1017
 2561SOL    HW219143   2.152   1.245  17.203 -2.4927 -1.3086 -0.5434
 2562SOL     OW19144   1.390   0.166   1.104  0.2300 -0.0750 -0.3657
 2562SOL    HW119145   1.408   0.249   1.060 -0.7854  0.0358 -0.5712
 2562SOL    HW219146   1.321   0.204   1.159  2.0151 -0.6328  2.2450
 2563SOL     OW19147   0.119   3.122   2.644 -0.2021  0.0527 -0.5284
 2563SOL    HW119148   0.109   3.129   2.739 -1.0025  0.6013 -0.6525
 2563SOL    HW219149   0.031   3.142   2.612  1.0107  2.1853 -2.6155
 2564SOL     OW19150   0.499   4.420   5.209 -0.1006 -0.8769 -0.2319
 2564SOL    HW119151   0.593   4.436   5.197 -0.5152  1.0199 -1.0440
 2564SOL    HW219152   0.484   4.426   5.303  0.8435 -3.0475  0.0436
 2565SOL     OW19153   2.384   2.909  11.585 -0.4942  0.6272  0.1674
 2565SOL    HW119154   2.440   2.917  11.508 -1.8782  2.8270 -0.5802
 2565SOL    HW219155   2.300   2.934  11.549 -1.1798 -0.5691  0.9086
 2566SOL     OW19156   1.296   0.196  15.937  0.4836  0.3893 -0.2837
 2566SOL    HW119157   1.250   0.267  15.981 -1.3994 -1.9953  1.6642
 2566SOL    HW219158   1.285   0.217  15.845 -2.8637 -3.0465 -0.6779
 2567SOL     OW19159   3.350   0.308   6.336 -0.1514  0.2040  0.4679
 2567SOL    HW119160   3.433   0.264   6.316 -0.4243 -0.7645  1.5249
 2567SOL    HW219161   3.383   0.396   6.358  2.2266 -0.7186  0.6200
 2568SOL     OW19162   3.927   2.031   3.219  0.4011  0.0969 -0.5154
 2568SOL    HW119163   3.863   2.027   3.148  1.1691 -1.0862 -1.1319
 2568SOL    HW219164   3.934   2.125   3.238  3.9716  0.2136 -2.5661
 2569SOL     OW19165   3.113   3.280  15.683  0.1721  0.3323 -0.2042
 2569SOL    HW119166   3.083   3.290  15.774 -0.7284 -0.0831 -0.4528
 2569SOL    HW219167   3.123   3.184  15.684 -0.4254  0.2728  1.0234
 2570SOL     OW19168   0.528   2.872   7.733 -0.4202 -0.2931  0.0855
 2570SOL    HW119169   0.536   2.943   7.796  1.8742 -1.8680  1.5592
 2570SOL    HW219170   0.615   2.880   7.693 -0.9497 -0.6337 -1.1437
 2571SOL     OW19171   2.941   1.101  11.111 -0.0134 -0.0920  0.7458
 2571SOL    HW119172   2.902   1.090  11.024 -1.6009  0.0516  1.4422
 2571SOL    HW219173   2.993   1.179  11.091 -0.9338  0.6310  1.1832
 2572SOL     OW19174   2.700   2.201   8.054 -0.0542  0.4236  0.4381
 2572SOL    HW119175   2.774   2.177   7.997 -0.5930 -0.8759  0.2786
 2572SOL    HW219176   2.645   2.251   7.993  1.6321 -0.0746 -1.4875
 2573SOL     OW19177   0.458   2.183  14.136  0.4189 -0.1394 -0.1218
 2573SOL    HW119178   0.536   2.224  14.173  0.2697  0.2877 -0.2781
 2573SOL    HW219179   0.399   2.240  14.185  1.3616 -0.9228  1.8989
 2574SOL     OW19180   0.391   4.330   7.690 -0.0587 -0.2787  0.0104
 2574SOL    HW119181   0.464   4.380   7.726 -0.0279  0.4872 -1.0880
 2574SOL    HW219182   0.418   4.242   7.716  0.8524  0.1590  0.5578
 2575SOL     OW19183   0.839   3.671   6.631  0.0195 -0.3369  0.5454
 2575SOL    HW119184   0.746   3.651   6.633 -0.5009  2.0422  0.5513
 2575SOL    HW219185   0.865   3.693   6.720  1.3776 -0.4452  0.1814
 2576SOL     OW19186   4.107   0.858   2.442 -0.2416 -0.0692  0.7601
 2576SOL    HW119187   4.141   0.936   2.487  0.1825 -0.5808  1.3264
 2576SOL    HW219188   4.100   0.881   2.349 -0.3225 -2.1847  0.2421
 2577SOL     OW19189   1.799   1.654   5.583  0.1525 -0.1913 -0.2195
 2577SOL    HW119190   1.709   1.674   5.557 -1.1858 -0.6291  4.0875
 2577SOL    HW219191   1.822   1.728   5.639 -1.2392 -1.5787  2.2092
 2578SOL     OW19192   0.770   1.620   3.824  0.0162 -0.1306  0.2124
 2578SOL    HW119193   0.723   1.608   3.741  4.1314  0.7545 -2.2276
 2578SOL    HW219194   0.855   1.652   3.793  0.8255 -1.2281  1.2930
 2579SOL     OW19195   3.888   0.633   5.595 -0.0439 -0.5434 -0.6863
 2579SOL    HW119196   3.926   0.573   5.531  1.8823  1.9160 -1.8765
 2579SOL    HW219197   3.797   0.605   5.604 -0.0206 -0.1242  0.9723
 2580SOL     OW19198   4.609   0.670   5.350 -0.2477  0.0005 -0.2021
 2580SOL    HW119199   4.650   0.606   5.291  2.1660  2.4134 -1.1251
 2580SOL    HW219200   4.525   0.625   5.352 -0.4022  0.3225  0.5544
 2581SOL     OW19201   1.632   4.123  15.461  0.4221  0.1527  0.1829
 2581SOL    HW119202   1.647   4.192  15.396  1.5240  0.1100  0.4021
 2581SOL    HW219203   1.723   4.096  15.473  0.9161  1.4477 -0.6156
 2582SOL     OW19204   4.283   4.202   0.609 -0.0822 -0.0167 -0.6777
 2582SOL    HW119205   4.291   4.289   0.568  0.5929 -0.5477 -1.6691
 2582SOL    HW219206   4.375   4.196   0.635 -0.7351  0.3246  1.7131
 2583SOL     OW19207   2.402   0.989  13.235  0.1135  0.3007  0.0224
 2583SOL    HW119208   2.308   1.003  13.232  0.4175  2.7760  1.3252
 2583SOL    HW219209   2.421   1.038  13.155  0.2724  0.3154  0.0677
 2584SOL     OW19210   2.754   2.535   2.714 -0.0727 -0.3810  0.6559
 2584SOL    HW119211   2.668   2.555   2.676 -0.7770  0.2350  2.6163
 2584SOL    HW219212   2.786   2.618   2.747  0.9195  0.8309 -3.3876
 2585SOL     OW19213   4.087   0.821   3.111  0.1603 -0.0583  0.0670
 2585SOL    HW119214   4.141   0.838   3.034 -0.8808  0.1579 -0.6054
 2585SOL    HW219215   4.132   0.872   3.179 -1.9798  1.6748  0.1890
 2586SOL     OW19216   1.279   0.053   1.438  0.0863 -0.5755 -0.5674
 2586SOL    HW119217   1.186   0.065   1.422  0.2419  1.2823 -0.1362
 2586SOL    HW219218   1.317   0.139   1.419 -0.9212 -0.2862 -1.2553
 2587SOL     OW19219   2.993   1.066   8.922 -0.0672 -0.0680  0.0518
 2587SOL    HW119220   2.938   1.003   8.970 -1.3734  0.9662 -0.0869
 2587SOL    HW219221   2.949   1.148   8.944  0.8365 -0.0693  1.8252
 2588SOL     OW19222   0.028   2.200   5.469 -0.1614  0.0065  0.8557
 2588SOL    HW119223   0.089   2.184   5.398  0.1396  2.9008  0.4725
 2588SOL    HW219224   0.066   2.149   5.540  0.2784 -0.7170  0.0862
 2589SOL     OW19225   0.574   4.653  12.053 -0.0821 -0.0792 -0.1674
 2589SOL    HW119226   0.620   4.643  11.970  1.5851 -0.9932  0.8446
 2589SOL    HW219227   0.625   4.590  12.105 -0.6507 -0.8577 -0.5591
 2590SOL     OW19228   4.496   0.973   3.387  0.1850 -0.0837 -0.7840
 2590SOL    HW119229   4.443   0.908   3.435  0.4420  0.5358  0.3337
 2590SOL    HW219230   4.585   0.956   3.418  0.1338 -0.2963 -0.7489
 2591SOL     OW19231   4.681   3.039   2.909 -0.1314 -0.1174 -0.0197
 2591SOL    HW119232   4.712   3.008   2.994 -0.2578 -2.5546 -0.8523
 2591SOL    HW219233   4.590   3.020   2.929 -0.3016  0.0645 -0.6269
 2592SOL     OW19234   3.770   0.922   5.826 -0.2131 -0.5491 -0.0978
 2592SOL    HW119235   3.760   0.829   5.809 -0.3287 -0.5233 -0.1676
 2592SOL    HW219236   3.842   0.942   5.767 -1.2319 -2.1918 -1.8805
 2593SOL     OW19237   2.570   0.893   3.645 -1.4510 -0.1477  0.3034
 2593SOL    HW119238   2.582   0.799   3.638 -1.7173 -0.2831  1.7235
 2593SOL    HW219239   2.500   0.894   3.710 -2.8471 -2.2467 -1.1796
 2594SOL     OW19240   4.125   4.561   0.227 -0.2318  0.0456  0.6101
 2594SOL    HW119241   4.043   4.610   0.221  0.5151  1.0779 -1.3557
 2594SOL    HW219242   4.195   4.616   0.192  0.2606 -0.7355  0.3717
 2595SOL     OW19243   4.472   3.268  11.357  0.2760 -0.1203  0.1854
 2595SOL    HW119244   4.499   3.312  11.438  1.5067 -0.8557  0.1757
 2595SOL    HW219245   4.544   3.294  11.300 -0.0099 -2.7705 -1.3758
 2596SOL     OW19246   4.701   0.456  10.750 -0.3838 -0.0746  0.8528
 2596SOL    HW119247   0.051   0.477  10.809  1.1793  0.6815 -1.2936
 2596SOL    HW219248   4.720   0.509  10.673 -2.5011 -1.4090 -0.5976
 2597SOL     OW19249   2.631   1.018   6.700  0.2511 -0.2278 -0.5006
 2597SOL    HW119250   2.624   0.969   6.618 -1.8678 -1.4337  0.3902
 2597SOL    HW219251   2.676   1.094   6.665  1.4451 -1.8845 -2.6058
 2598SOL     OW19252   2.379   3.326   1.557  0.0789  0.1554  0.1612
 2598SOL    HW119253   2.339   3.355   1.475  0.6103 -2.4720 -1.0279
 2598SOL    HW219254   2.395   3.236   1.530  1.5623 -0.2080  2.2767
 2599SOL     OW19255   0.164   0.432  17.644 -0.3981 -0.1016  0.4756
 2599SOL    HW119256   0.210   0.514  17.661  2.5230 -1.3605 -1.4754
 2599SOL    HW219257   0.160   0.386   0.042 -2.2003  2.0522  1.5881
 2600SOL     OW19258   2.929   4.210   9.297 -0.3364  0.5695 -0.0419
 2600SOL    HW119259   2.885   4.149   9.237 -0.1182  0.0362  0.3407
 2600SOL    HW219260   3.006   4.232   9.243 -0.7907  1.3463 -0.3772
 2601SOL     OW19261   0.365   2.892   9.612  0.1478  0.0009  0.2415
 2601SOL    HW119262   0.373   2.987   9.601 -0.7803 -0.0875 -1.2417
 2601SOL    HW219263   0.309   2.866   9.539 -1.4091 -0.7180  1.7046
 2602SOL     OW19264   1.684   0.171   5.116  0.2377  0.1449 -0.3245
 2602SOL    HW119265   1.636   0.101   5.072 -1.6266  1.9031 -1.1322
 2602SOL    HW219266   1.769   0.170   5.074 -0.8291 -1.9310 -2.4075
 2603SOL     OW19267   1.075   1.956   4.664 -0.1096 -0.5249  0.1559
 2603SOL    HW119268   1.072   1.862   4.679 -0.3195 -0.1266  2.5065
 2603SOL    HW219269   1.117   1.960   4.578 -1.7880  1.5180 -0.5830
 2604SOL     OW19270   3.732   3.790   9.676  0.1067 -0.2897  0.0514
 2604SOL    HW119271   3.695   3.843   9.605 -1.6722 -0.4314  0.8884
 2604SOL    HW219272   3.822   3.821   9.671 -0.2739  0.6170 -1.3413
 2605SOL     OW19273   3.288   1.137   4.153  0.2829  0.3912 -0.0628
 2605SOL    HW119274   3.287   1.232   4.143  1.3086  0.2990 -1.0942
 2605SOL    HW219275   3.332   1.131   4.238  0.9486 -3.0939 -0.6460
 2606SOL     OW19276   0.544   2.754  13.731  0.7922 -0.0769 -0.4636
 2606SOL    HW119277   0.615   2.759  13.795  1.0409  0.6014 -0.7964
 2606SOL    HW219278   0.574   2.676  13.685 -0.1246  1.0225 -2.9030
 2607SOL     OW19279   0.745   1.790   5.976  0.1173 -0.2101 -0.8187
 2607SOL    HW119280   0.832   1.794   6.016 -0.4350  0.7333  0.2657
 2607SOL    HW219281   0.697   1.858   6.022  0.6238 -0.5553  0.2218
 2608SOL     OW19282   3.484   2.981   8.091 -0.1996  0.1578 -0.3882
 2608SOL    HW119283   3.462   3.074   8.094  1.2842  0.4610  0.9009
 2608SOL    HW219284   3.452   2.956   8.177  1.9048 -2.1192 -0.2606
 2609SOL     OW19285   2.975   0.857  15.501 -0.2329 -0.5065 -0.6336
 2609SOL    HW119286   2.962   0.951  15.486  1.3993 -0.1413  0.1652
 2609SOL    HW219287   3.024   0.830  15.423  1.7587 -1.5250  0.9490
 2610SOL     OW19288   1.260   1.288   3.715 -0.2010 -0.2752  0.4191
 2610SOL    HW119289   1.294   1.216   3.661  2.2444  0.3179  1.1792
 2610SOL    HW219290   1.314   1.280   3.793 -0.3691 -0.2914  0.5340
 2611SOL     OW19291   1.693   4.555   5.873  0.0914  0.3015 -0.0225
 2611SOL    HW119292   1.653   4.504   5.802  0.0035 -1.3759  1.2216
 2611SOL    HW219293   1.751   4.612   5.823 -0.4560  2.0207  1.3092
 2612SOL     OW19294   0.569   0.975  15.657 -0.3402  0.4299 -0.4178
 2612SOL    HW119295   0.512   0.921  15.711  0.9178 -1.5021 -1.0475
 2612SOL    HW219296   0.537   1.062  15.681 -1.0165  0.7022 -2.3141
 2613SOL     OW19297   0.813   1.592  14.761 -0.8339  0.5562  0.0157
 2613SOL    HW119298   0.724   1.614  14.789 -0.2399  1.5595  1.1067
 2613SOL    HW219299   0.853   1.575  14.846  1.7743  0.0639 -1.3070
 2614SOL     OW19300   0.863   0.206   7.398 -0.1061  0.1223 -0.1841
 2614SOL    HW119301   0.913   0.280   7.362  0.6581  0.1755  0.9798
 2614SOL    HW219302   0.778   0.246   7.415 -0.3758 -0.0859 -1.0298
 2615SOL     OW19303   4.515   0.682   9.422  0.1972  0.5557  0.7387
 2615SOL    HW119304   4.496   0.748   9.488 -0.0170  0.2744  0.9567
 2615SOL    HW219305   4.482   0.612   9.477 -0.3556  1.4392  1.5386
 2616SOL     OW19306   4.634   1.391   3.676 -0.2907 -0.1464  0.0667
 2616SOL    HW119307   4.700   1.458   3.698  0.6425 -1.3924  1.0707
 2616SOL    HW219308   4.683   1.319   3.716 -1.6775 -0.4140  1.3038
 2617SOL     OW19309   2.676   3.003   2.858  0.3840  0.5487 -0.1081
 2617SOL    HW119310   2.655   3.009   2.952 -1.7262  0.7373 -0.5795
 2617SOL    HW219311   2.738   3.076   2.849 -0.3022  1.3201  1.3620
 2618SOL     OW19312   4.057   2.021   2.674 -0.2672  0.1530 -0.0462
 2618SOL    HW119313   4.025   2.061   2.593  0.7016 -2.2273 -1.6069
 2618SOL    HW219314   4.119   2.078   2.719 -0.1512  2.3030 -2.9827
 2619SOL     OW19315   2.994   1.587   6.483  0.0943  0.0519 -0.5157
 2619SOL    HW119316   3.077   1.593   6.531 -0.8557  2.0277  0.8701
 2619SOL    HW219317   2.950   1.666   6.513 -3.1492 -2.1120  0.3316
 2620SOL     OW19318   3.459   0.958   6.305 -0.1315  0.2857 -0.3943
 2620SOL    HW119319   3.522   1.014   6.351  0.4059 -0.3384 -0.3686
 2620SOL    HW219320   3.482   0.869   6.332 -0.6451  1.0397  2.4691
 2621SOL     OW19321   2.443   0.297   8.018 -0.5143  0.3144  0.6602
 2621SOL    HW119322   2.503   0.360   8.057  0.2043  0.1234 -0.1527
 2621SOL    HW219323   2.360   0.342   8.033  0.3115  2.0970 -0.1918
 2622SOL     OW19324   1.501   4.085   4.021  0.2062  0.4834 -0.5476
 2622SOL    HW119325   1.466   4.173   4.010 -1.6662  0.0168  1.7649
 2622SOL    HW219326   1.451   4.033   3.958  1.3575  1.2689 -2.1315
 2623SOL     OW19327   3.110   1.975  10.834 -0.1508 -0.1380  0.4163
 2623SOL    HW119328   3.027   1.941  10.866 -2.5261  4.0718 -1.2113
 2623SOL    HW219329   3.141   2.032  10.904 -1.0739  0.9977 -0.0960
 2624SOL     OW19330   1.982   1.271   3.759 -0.3680  0.2591  0.2854
 2624SOL    HW119331   1.978   1.367   3.766 -1.0365  0.3495 -1.3868
 2624SOL    HW219332   2.065   1.246   3.720 -0.6541 -2.3894  1.3944
 2625SOL     OW19333   1.483   3.693   1.265  0.5373  0.3177  0.9348
 2625SOL    HW119334   1.388   3.694   1.276  0.3684  1.1589 -0.6300
 2625SOL    HW219335   1.503   3.781   1.295  3.0322 -0.3936  1.3531
 2626SOL     OW19336   4.317   0.711  11.300 -0.0456 -0.0821  0.0709
 2626SOL    HW119337   4.225   0.735  11.298  0.1968  1.0264  2.4495
 2626SOL    HW219338   4.320   0.643  11.233 -0.3765 -0.6257  0.6128
 2627SOL     OW19339   1.144   3.313  13.162 -0.1015 -0.5257  0.2006
 2627SOL    HW119340   1.205   3.386  13.162 -1.6399  0.7591 -0.3401
 2627SOL    HW219341   1.085   3.325  13.088  1.9281 -0.5511 -1.4376
 2628SOL     OW19342   2.824   4.038   6.994  0.1339  0.1871  0.2723
 2628SOL    HW119343   2.829   4.134   7.000  0.4048  0.1986 -0.1507
 2628SOL    HW219344   2.754   4.039   6.928 -0.3197  0.1787  0.7496
 2629SOL     OW19345   0.111   1.180   3.330  0.1836 -0.4099  0.0672
 2629SOL    HW119346   0.097   1.106   3.388  4.2688 -0.8260  0.5165
 2629SOL    HW219347   0.136   1.138   3.247  2.3282  0.8832  0.0693
 2630SOL     OW19348   3.390   0.955   7.362 -0.0054 -0.0934 -0.3378
 2630SOL    HW119349   3.374   0.868   7.400  1.2613  1.0967  2.8800
 2630SOL    HW219350   3.383   0.943   7.267  0.0106  1.7483 -0.5538
 2631SOL     OW19351   0.612   0.205   8.095 -0.0927  0.2081 -0.3155
 2631SOL    HW119352   0.532   0.189   8.046 -0.8616 -0.3295  1.1125
 2631SOL    HW219353   0.580   0.193   8.185  0.5085  0.3295 -0.0844
 2632SOL     OW19354   4.423   4.383   0.883 -0.4690 -0.0211  0.1150
 2632SOL    HW119355   4.446   4.348   0.797 -1.1031 -2.2526  0.8585
 2632SOL    HW219356   4.433   4.301   0.932 -2.6113  0.0243  0.6200
 2633SOL     OW19357   2.815   1.446   0.302  0.3019 -0.2459 -0.0395
 2633SOL    HW119358   2.841   1.532   0.333 -0.1887 -0.5105  1.1025
 2633SOL    HW219359   2.898   1.427   0.259 -0.1814 -2.1093 -0.1557
 2634SOL     OW19360   1.637   0.310   4.800  0.5660  0.2024 -0.3857
 2634SOL    HW119361   1.723   0.270   4.812  2.2199  2.7942 -3.6103
 2634SOL    HW219362   1.648   0.386   4.858 -1.2313 -0.0458  0.2762
 2635SOL     OW19363   0.234   1.775   6.312  0.2403 -0.2365  0.1400
 2635SOL    HW119364   0.210   1.863   6.344 -0.7194 -0.5844  0.3873
 2635SOL    HW219365   0.154   1.729   6.337  1.1383 -1.0318  1.5588
 2636SOL     OW19366   2.736   1.907   5.605 -0.6355 -0.2286 -0.5331
 2636SOL    HW119367   2.732   1.959   5.525 -2.9142 -0.8572 -0.8140
 2636SOL    HW219368   2.831   1.907   5.616 -0.7071 -0.2755  0.0880
 2637SOL     OW19369   2.060   1.825   0.132  1.0743 -0.1424  0.5926
 2637SOL    HW119370   2.050   1.733   0.153 -3.2014  0.3813  0.8520
 2637SOL    HW219371   1.999   1.845   0.061 -0.8053 -0.8687  2.0306
 2638SOL     OW19372   2.912   4.099   9.675 -0.0289  0.2559 -0.3545
 2638SOL    HW119373   2.835   4.127   9.625 -0.3965 -1.9306 -1.0350
 2638SOL    HW219374   2.978   4.163   9.650  0.6647  0.4894  2.1297
 2639SOL     OW19375   0.123   0.244   6.159 -0.6717  0.2095  0.1782
 2639SOL    HW119376   0.172   0.320   6.190 -0.3342  0.5210 -1.0958
 2639SOL    HW219377   0.112   0.211   6.248  0.2228 -1.3629 -0.3038
 2640SOL     OW19378   2.396   4.649   1.469 -0.4042  0.7367 -0.3975
 2640SOL    HW119379   2.473   4.699   1.443 -1.1587  2.4529  0.6566
 2640SOL    HW219380   2.344   4.655   1.389 -2.3794 -0.4813  0.7761
 2641SOL     OW19381   3.986   1.419   7.569  0.3419 -0.3748  0.2252
 2641SOL    HW119382   4.029   1.505   7.572  1.2873 -0.9270  2.6139
 2641SOL    HW219383   3.955   1.393   7.655 -1.2017 -1.4144 -0.6583
 2642SOL     OW19384   0.563   4.284   2.671 -0.0484 -0.1952  0.6685
 2642SOL    HW119385   0.490   4.223   2.681 -0.5068  0.3518  0.5818
 2642SOL    HW219386   0.523   4.370   2.682  0.7433  0.1457  0.9283
 2643SOL     OW19387   4.427   4.429   9.351 -0.0882 -0.3606 -0.4451
 2643SOL    HW119388   4.488   4.414   9.279 -0.9700 -3.3795 -0.6046
 2643SOL    HW219389   4.473   4.375   9.416 -0.0365  1.5357  1.0773
 2644SOL     OW19390   0.473   4.335  16.099 -0.8105  0.0711 -0.2876
 2644SOL    HW119391   0.538   4.347  16.030 -0.5690 -0.8121 -0.2022
 2644SOL    HW219392   0.391   4.323  16.052 -0.0088 -3.3741 -0.7389
 2645SOL     OW19393   0.300   3.206   6.711 -0.6070 -0.0020  0.3485
 2645SOL    HW119394   0.374   3.241   6.661  0.2516 -2.4624 -0.0901
 2645SOL    HW219395   0.275   3.137   6.651  2.3512 -1.1246  0.3780
 2646SOL     OW19396   0.326   2.048   3.744  0.1526  0.5137 -0.0658
 2646SOL    HW119397   0.352   1.957   3.761 -0.2087  0.2411 -0.9859
 2646SOL    HW219398   0.349   2.050   3.651 -2.6072 -0.9680 -0.7899
 2647SOL     OW19399   4.077   4.110   4.757 -0.4242  0.6211  0.4927
 2647SOL    HW119400   4.151   4.114   4.696  0.9275  3.7440  2.3373
 2647SOL    HW219401   4.120   4.146   4.834 -0.4278 -0.8395  1.1727
 2648SOL     OW19402   2.298   0.871   4.475  0.6406 -0.3497  0.7113
 2648SOL    HW119403   2.230   0.813   4.440 -0.3759  1.4698 -0.3478
 2648SOL    HW219404   2.242   0.927   4.530  0.5224  0.6676 -0.4594
 2649SOL     OW19405   0.429   2.029   4.748  0.2146  0.4734  0.2405
 2649SOL    HW119406   0.450   1.982   4.828 -0.8698 -1.4897 -0.6338
 2649SOL    HW219407   0.505   2.088   4.743 -0.2709  1.0552 -0.3556
 2650SOL     OW19408   0.270   0.074  10.675 -0.4730  0.0942  0.0730
 2650SOL    HW119409   0.243   0.030  10.756  0.9721  2.3804  1.8060
 2650SOL    HW219410   0.218   0.026  10.611  0.6030  1.7646 -2.0180
 2651SOL     OW19411   1.971   0.097  10.191 -0.1593 -0.1689 -0.8613
 2651SOL    HW119412   2.063   0.077  10.175 -0.2596 -0.3036 -1.2719
 2651SOL    HW219413   1.924   0.070  10.112 -1.1450  0.5369 -0.5204
 2652SOL     OW19414   1.643   2.827   8.178  0.0061  0.4139 -0.2205
 2652SOL    HW119415   1.551   2.849   8.171 -0.3534 -0.7105  0.9927
 2652SOL    HW219416   1.665   2.894   8.242 -1.6534  0.5146  0.2364
 2653SOL     OW19417   1.278   2.565   8.561  0.0666 -0.3199 -0.2219
 2653SOL    HW119418   1.211   2.604   8.617  1.1906  0.4975  0.5574
 2653SOL    HW219419   1.213   2.511   8.516  0.8057  0.1770 -1.8926
 2654SOL     OW19420   3.815   0.166   5.656 -0.2164 -0.1946 -0.0923
 2654SOL    HW119421   3.722   0.177   5.639  0.1140 -2.5488 -3.3212
 2654SOL    HW219422   3.830   0.233   5.723  0.6927  0.5073 -0.9931
 2655SOL     OW19423   2.308   1.966   6.815 -0.3199 -0.5342  0.7313
 2655SOL    HW119424   2.292   2.052   6.777 -1.5267 -1.2504 -0.3908
 2655SOL    HW219425   2.250   1.914   6.759 -0.5004  0.7244 -0.2717
 2656SOL     OW19426   1.868   2.940  14.819 -0.7473 -0.4652 -0.0505
 2656SOL    HW119427   1.788   2.890  14.834  0.5459 -1.2974  3.9563
 2656SOL    HW219428   1.938   2.874  14.816 -2.2204 -2.0039 -0.6447
 2657SOL     OW19429   1.812   0.378   9.859  0.1263 -0.0690 -0.2626
 2657SOL    HW119430   1.746   0.315   9.831  0.7271 -0.9176  0.2236
 2657SOL    HW219431   1.798   0.374   9.953  0.1844  0.2905 -0.2389
 2658SOL     OW19432   1.814   0.543   2.865  0.1493  1.0843  0.3341
 2658SOL    HW119433   1.873   0.573   2.933  0.3900 -1.4266  1.2432
 2658SOL    HW219434   1.862   0.481   2.810 -2.8523  0.0088 -1.1186
 2659SOL     OW19435   3.455   0.994   1.268  0.0309  0.0959 -0.1746
 2659SOL    HW119436   3.394   0.923   1.289 -2.7262  2.1196 -1.3051
 2659SOL    HW219437   3.439   1.027   1.179  0.8985  1.5278  0.2205
 2660SOL     OW19438   3.650   0.201   0.256  0.4391 -0.0331 -0.1102
 2660SOL    HW119439   3.712   0.261   0.297  0.0992 -1.0300  1.8541
 2660SOL    HW219440   3.570   0.223   0.304  1.4840  4.0768 -0.2343
 2661SOL     OW19441   2.168   2.654   2.450 -0.1945  0.2397 -0.0045
 2661SOL    HW119442   2.242   2.598   2.474 -0.0636  0.3796 -0.0829
 2661SOL    HW219443   2.165   2.650   2.354 -0.2555  2.2985 -0.0991
 2662SOL     OW19444   3.020   1.231  17.040 -0.5441  0.2793 -0.0861
 2662SOL    HW119445   3.077   1.216  17.115 -1.5679  0.0483  0.6447
 2662SOL    HW219446   3.077   1.268  16.972 -0.2779  2.4992  1.3580
 2663SOL     OW19447   2.588   0.203   4.812  0.5587 -0.1853 -0.2772
 2663SOL    HW119448   2.626   0.155   4.886  0.7979  2.7404  1.4899
 2663SOL    HW219449   2.495   0.180   4.820  0.3928  0.2884 -0.9041
 2664SOL     OW19450   1.879   1.522   1.122 -0.0157  0.2801  0.4878
 2664SOL    HW119451   1.948   1.459   1.103 -0.8455 -0.8978  1.3952
 2664SOL    HW219452   1.903   1.557   1.208 -0.5334 -1.8304  1.4958
 2665SOL     OW19453   2.795   2.381   3.377 -0.0642 -0.0501 -0.0184
 2665SOL    HW119454   2.706   2.370   3.413  0.3086 -0.5775  0.7566
 2665SOL    HW219455   2.766   2.393   3.287  0.0312 -0.1928 -0.0673
 2666SOL     OW19456   2.081   2.185   0.547 -0.3151 -0.7309 -0.3421
 2666SOL    HW119457   2.130   2.111   0.510 -3.1947 -2.7615 -0.1464
 2666SOL    HW219458   2.072   2.237   0.467  0.3946 -2.0471 -1.2931
 2667SOL     OW19459   2.351   2.234   1.129 -0.2959  0.5488  0.1347
 2667SOL    HW119460   2.341   2.329   1.125  1.5251  0.7855  1.4474
 2667SOL    HW219461   2.259   2.220   1.150 -0.6089  0.9174 -0.9948
 2668SOL     OW19462   3.083   2.116   0.346 -0.3450 -0.1862 -0.1414
 2668SOL    HW119463   3.160   2.078   0.302  0.0699  0.0073  0.4133
 2668SOL    HW219464   3.081   2.071   0.430  1.0919  0.9611  0.5119
 2669SOL     OW19465   4.525   2.435   2.607  0.5097 -0.4650  0.0451
 2669SOL    HW119466   4.486   2.467   2.526  2.4392  3.2448  0.5781
 2669SOL    HW219467   4.447   2.434   2.661  1.1612  2.4756  1.0239
 2670SOL     OW19468   0.392   0.512  10.944 -0.0765  0.1206  0.0366
 2670SOL    HW119469   0.475   0.551  10.919  0.0340 -0.2835 -0.2372
 2670SOL    HW219470   0.329   0.571  10.903  1.7617  0.7478 -1.8409
 2671SOL     OW19471   2.761   1.479  13.790 -0.7069 -0.3653 -0.2881
 2671SOL    HW119472   2.851   1.499  13.815 -1.4919  0.3438  1.9757
 2671SOL    HW219473   2.718   1.557  13.825 -0.9539  0.3258 -2.1137
 2672SOL     OW19474   3.972   1.134   7.738 -0.6023  0.4099 -0.5788
 2672SOL    HW119475   3.945   1.222   7.761 -0.1796  0.1129  1.0271
 2672SOL    HW219476   4.063   1.149   7.763 -0.8271  1.3071 -0.3065
 2673SOL     OW19477   1.730   0.919   3.457 -0.2225  0.9606  0.2605
 2673SOL    HW119478   1.706   1.009   3.480  0.0292  1.3538 -0.9711
 2673SOL    HW219479   1.817   0.944   3.426  0.9427 -2.5803  0.7072
 2674SOL     OW19480   3.402   2.737  10.826  0.0964 -0.4542  0.4279
 2674SOL    HW119481   3.385   2.822  10.867 -0.9254 -1.3104  1.8278
 2674SOL    HW219482   3.385   2.681  10.902 -0.4637 -1.1561 -0.2158
 2675SOL     OW19483   3.703   2.809   2.650  0.0912 -0.3422 -0.1906
 2675SOL    HW119484   3.679   2.724   2.614 -0.1851 -0.5442  0.4668
 2675SOL    HW219485   3.666   2.868   2.583 -1.8042 -2.1118 -0.7168
 2676SOL     OW19486   1.595   4.617   2.329  0.1442  0.0299  0.8172
 2676SOL    HW119487   1.613   4.525   2.349 -0.6586  0.2578  2.5851
 2676SOL    HW219488   1.522   4.611   2.268  0.0377  0.9776  0.8535
 2677SOL     OW19489   3.556   0.487   8.212  1.1148  0.1284 -0.4297
 2677SOL    HW119490   3.607   0.406   8.219 -1.4133 -1.3699  0.7329
 2677SOL    HW219491   3.474   0.464   8.169  0.0269 -2.1503  2.8571
 2678SOL     OW19492   0.281   0.086   7.281 -0.0917  0.0878 -0.3210
 2678SOL    HW119493   0.226   0.058   7.354  2.6803 -1.4039  1.1593
 2678SOL    HW219494   0.355   0.112   7.335  0.1277 -0.1402 -0.5116
 2679SOL     OW19495   3.863   2.605   1.471 -0.3423  0.1370  0.1896
 2679SOL    HW119496   3.780   2.557   1.468  1.9445 -3.8176  0.4853
 2679SOL    HW219497   3.871   2.631   1.379  0.5247  1.3286  0.5973
 2680SOL     OW19498   4.153   1.485   3.844 -0.0794  0.2677 -0.4509
 2680SOL    HW119499   4.229   1.460   3.792  0.4720  1.0349 -0.0178
 2680SOL    HW219500   4.150   1.412   3.905  0.1377 -0.1969 -0.9950
 2681SOL     OW19501   1.573   0.122   1.769 -0.4385  0.3351  0.4087
 2681SOL    HW119502   1.654   0.135   1.818 -0.4335  1.2151  0.1542
 2681SOL    HW219503   1.549   0.212   1.750  0.4869  1.0044  2.4473
 2682SOL     OW19504   2.039   0.104   5.249  0.5796  0.0094  0.3415
 2682SOL    HW119505   2.046   0.011   5.266 -1.6475 -0.3129 -0.5026
 2682SOL    HW219506   1.970   0.096   5.183 -1.3353  0.8640  2.2414
 2683SOL     OW19507   3.330   3.445   2.816  0.0791  0.2975  0.0189
 2683SOL    HW119508   3.320   3.428   2.909  2.7845  2.4516  0.6676
 2683SOL    HW219509   3.410   3.394   2.808  0.6822  0.9781  1.9341
 2684SOL     OW19510   2.951   4.348   5.875 -0.5818 -0.3577  0.1693
 2684SOL    HW119511   2.856   4.349   5.887 -0.6626  3.2547 -0.5768
 2684SOL    HW219512   2.964   4.443   5.877 -0.4997 -0.4009  2.1156
 2685SOL     OW19513   2.323   2.615   5.533  0.0400  0.5548 -0.5325
 2685SOL    HW119514   2.345   2.549   5.467  0.3737  1.8433 -1.7193
 2685SOL    HW219515   2.330   2.560   5.611  0.1447  0.1970 -0.7897
 2686SOL     OW19516   3.129   2.738   4.104 -0.0132 -0.4103 -0.2041
 2686SOL    HW119517   3.088   2.813   4.061 -1.5786 -0.7521  0.6964
 2686SOL    HW219518   3.063   2.669   4.103  0.1966 -0.6182  0.1615
 2687SOL     OW19519   1.227   1.151  11.967 -0.3914  0.5682  0.2587
 2687SOL    HW119520   1.163   1.219  11.989  0.1885  1.7364 -1.7215
 2687SOL    HW219521   1.181   1.070  11.992  0.6391  0.7306  2.7319
 2688SOL     OW19522   1.536   3.334   6.811  0.3719 -0.3833  0.0218
 2688SOL    HW119523   1.598   3.274   6.852 -1.3367 -2.7545 -0.8970
 2688SOL    HW219524   1.585   3.416   6.805 -1.0702  0.6346  1.8720
 2689SOL     OW19525   1.784   2.394   6.298 -0.1310 -0.0717  0.3761
 2689SOL    HW119526   1.708   2.448   6.318  1.1172  0.8409  2.7006
 2689SOL    HW219527   1.756   2.303   6.310 -1.4022  0.1473 -0.9462
 2690SOL     OW19528   0.177   0.219   8.955 -0.2503  0.9212 -0.1884
 2690SOL    HW119529   0.106   0.280   8.936 -1.0953 -0.0881 -0.2686
 2690SOL    HW219530   0.136   0.148   8.905  0.9962  0.2035 -0.1938
 2691SOL     OW19531   0.814   2.115   1.188  0.1922 -0.3457 -0.1120
 2691SOL    HW119532   0.728   2.145   1.157 -0.1429  0.5075  1.5714
 2691SOL    HW219533   0.868   2.190   1.166  2.2084 -1.8891 -0.3574
 2692SOL     OW19534   0.624   1.388   5.263  0.1809  0.4997  0.2792
 2692SOL    HW119535   0.535   1.423   5.254 -0.3977 -0.7447  1.2194
 2692SOL    HW219536   0.676   1.440   5.202  1.0561  1.1883  1.5917
 2693SOL     OW19537   2.634   0.173  12.181 -0.6940 -0.2374 -0.4176
 2693SOL    HW119538   2.618   0.125  12.262 -3.3783 -0.2891 -0.9917
 2693SOL    HW219539   2.624   0.267  12.197  0.1364  0.0558 -1.6213
 2694SOL     OW19540   0.207   0.435  15.711 -0.2196  0.2371 -0.1568
 2694SOL    HW119541   0.148   0.389  15.770  0.8526  0.6291  1.2116
 2694SOL    HW219542   0.276   0.450  15.776 -0.4707  1.4101 -0.1571
 2695SOL     OW19543   2.059   3.428   8.066 -0.3191  0.0266 -0.0324
 2695SOL    HW119544   2.104   3.512   8.067  0.1599 -0.2295  0.8540
 2695SOL    HW219545   2.109   3.378   8.131  1.0232  0.9609 -0.3470
 2696SOL     OW19546   0.132   2.139  16.410  0.2007  0.3149  0.5972
 2696SOL    HW119547   0.094   2.172  16.329 -0.8864  0.0112  0.9908
 2696SOL    HW219548   0.216   2.184  16.409 -0.6351  1.8818  1.5681
 2697SOL     OW19549   2.670   1.658   8.642  0.1171 -0.0846 -0.1383
 2697SOL    HW119550   2.759   1.684   8.667  0.0449 -0.7178  0.7913
 2697SOL    HW219551   2.638   1.669   8.732  1.5096  0.6956  0.2730
 2698SOL     OW19552   2.816   4.376   9.513  0.1856  0.2504  0.0921
 2698SOL    HW119553   2.898   4.423   9.526  0.3910  0.1005 -0.6657
 2698SOL    HW219554   2.848   4.319   9.443 -1.4065 -1.5800  0.8199
 2699SOL     OW19555   1.053   1.207   5.784 -0.4036 -0.0405  0.0442
 2699SOL    HW119556   1.057   1.111   5.788 -1.0900 -0.1665 -2.1279
 2699SOL    HW219557   1.030   1.209   5.691 -0.4967  0.3608  0.0788
 2700SOL     OW19558   4.084   3.100   6.314 -0.8261 -0.1882 -0.2602
 2700SOL    HW119559   4.060   3.180   6.360  0.0299  0.7276 -1.4145
 2700SOL    HW219560   4.129   3.051   6.383 -1.8244 -1.6559 -0.6348
 2701SOL     OW19561   4.020   0.360   5.726  0.1477 -0.3389 -0.2064
 2701SOL    HW119562   4.061   0.421   5.788 -0.8518 -0.3289  0.4529
 2701SOL    HW219563   3.930   0.379   5.753  1.1309  2.9154  0.8508
 2702SOL     OW19564   1.704   2.588   5.571  0.3391 -0.2743 -0.1623
 2702SOL    HW119565   1.724   2.674   5.534  2.1586 -1.0039 -0.8727
 2702SOL    HW219566   1.618   2.576   5.531  0.2592 -0.6374  0.1199
 2703SOL     OW19567   3.407   4.217   6.005  0.2688 -0.0959 -0.6657
 2703SOL    HW119568   3.330   4.198   5.951  0.0655  0.6248 -0.6214
 2703SOL    HW219569   3.373   4.302   6.034 -1.1655 -0.6961 -0.5734
 2704SOL     OW19570   2.774   4.673  16.553  0.0383  0.0021  0.4176
 2704SOL    HW119571   2.720   4.718  16.488 -0.1789 -0.2307  0.4397
 2704SOL    HW219572   2.863   4.679  16.517  0.3912  0.0732  1.2991
 2705SOL     OW19573   1.256   1.867   6.885 -0.1561  0.0820  0.1303
 2705SOL    HW119574   1.162   1.888   6.881 -0.2688 -0.1783  1.2883
 2705SOL    HW219575   1.258   1.772   6.898  0.4502  0.1303  0.3733
 2706SOL     OW19576   2.002   1.235  13.069 -0.4829 -0.2074 -0.0008
 2706SOL    HW119577   2.048   1.298  13.013 -0.6841 -2.0251 -2.1906
 2706SOL    HW219578   1.999   1.288  13.149  2.0462 -2.3678  1.5544
 2707SOL     OW19579   3.762   3.793   7.938  0.6025  0.6212  0.3016
 2707SOL    HW119580   3.757   3.879   7.979  1.2327  0.8030  0.0042
 2707SOL    HW219581   3.672   3.771   7.914  0.5760  1.3849 -0.3239
 2708SOL     OW19582   4.292   3.842   5.410 -0.5826 -0.0159  0.2655
 2708SOL    HW119583   4.359   3.786   5.371  0.3943  0.9923  0.4858
 2708SOL    HW219584   4.330   3.854   5.497  1.4487 -1.5252 -0.4107
 2709SOL     OW19585   1.763   1.269   0.762 -0.8233 -0.4455 -0.8949
 2709SOL    HW119586   1.679   1.311   0.781 -0.4037  0.7918 -1.7884
 2709SOL    HW219587   1.817   1.340   0.729 -2.7846  0.8453 -1.3302
 2710SOL     OW19588   1.729   1.503   6.169 -0.1583 -0.3899 -0.1702
 2710SOL    HW119589   1.795   1.469   6.108  0.2473 -1.0045  0.6138
 2710SOL    HW219590   1.790   1.562   6.212  1.0279 -0.7944 -1.2973
 2711SOL     OW19591   1.414   0.862   9.288 -0.1074  0.4090 -0.5688
 2711SOL    HW119592   1.461   0.793   9.334  0.5382  1.1845 -0.0568
 2711SOL    HW219593   1.485   0.926   9.283 -0.8621  1.5224  2.8695
 2712SOL     OW19594   0.227   1.698  14.884 -0.0994  0.2596 -0.5182
 2712SOL    HW119595   0.184   1.771  14.841 -1.1983 -0.2084 -0.2176
 2712SOL    HW219596   0.287   1.671  14.814  1.2088 -1.8448  1.3934
 2713SOL     OW19597   1.949   3.093   4.056  0.2205 -0.2041  0.2811
 2713SOL    HW119598   1.861   3.088   4.093 -0.1630  1.8429 -0.3198
 2713SOL    HW219599   1.986   3.175   4.091  3.3502 -0.8324 -1.5014
 2714SOL     OW19600   0.355   0.313   4.844  0.0777 -0.4667  0.4519
 2714SOL    HW119601   0.281   0.307   4.783 -0.9821 -1.2320  1.8168
 2714SOL    HW219602   0.315   0.353   4.922  2.5741  0.2020  1.3869
 2715SOL     OW19603   3.146   4.153  10.153 -0.4106  0.1816  0.3422
 2715SOL    HW119604   3.136   4.104  10.234  2.3926 -4.2461 -1.9846
 2715SOL    HW219605   3.237   4.181  10.154 -0.4051  0.1391  0.9176
 2716SOL     OW19606   0.073   2.524   5.446  1.4328  0.1075 -0.6837
 2716SOL    HW119607   0.135   2.464   5.405  1.9512  0.8961 -1.0257
 2716SOL    HW219608   0.004   2.460   5.468  1.7378 -0.4935 -1.4712
 2717SOL     OW19609   2.135   3.534   4.939  0.2972  0.2804  0.1690
 2717SOL    HW119610   2.124   3.508   5.031 -2.1606 -1.7650 -0.6887
 2717SOL    HW219611   2.222   3.569   4.956  0.7811 -0.1409 -1.4353
 2718SOL     OW19612   2.743   1.486   8.206 -0.3992 -0.4401  0.0278
 2718SOL    HW119613   2.688   1.553   8.247 -0.0641  0.8591 -1.6710
 2718SOL    HW219614   2.823   1.490   8.258 -0.0723 -0.2122 -0.4995
 2719SOL     OW19615   0.554   2.779   3.764 -0.4157 -0.0990  0.6945
 2719SOL    HW119616   0.631   2.754   3.816 -1.0560 -1.4286  1.0130
 2719SOL    HW219617   0.542   2.703   3.707 -4.7187  1.0142  0.1378
 2720SOL     OW19618   2.888   1.416   5.781  0.1582  0.0070 -0.1299
 2720SOL    HW119619   2.817   1.379   5.833  1.2972 -0.6542  0.9611
 2720SOL    HW219620   2.919   1.480   5.845  2.3596 -0.4987 -0.6619
 2721SOL     OW19621   4.397   4.367   3.118  0.2119  0.1610  0.8246
 2721SOL    HW119622   4.450   4.387   3.040 -1.3177 -2.0843 -0.7568
 2721SOL    HW219623   4.472   4.345   3.174 -0.3643  0.5428  1.7527
 2722SOL     OW19624   0.132   3.395   6.659 -0.2690 -0.0220  0.4686
 2722SOL    HW119625   0.132   3.436   6.746 -0.2287  0.3372  0.2983
 2722SOL    HW219626   0.191   3.321   6.675  1.7434  1.9693  2.3135
 2723SOL     OW19627   4.264   0.587   6.448  0.3599 -0.1704 -0.1899
 2723SOL    HW119628   4.277   0.629   6.533 -0.7781 -1.8547  0.8272
 2723SOL    HW219629   4.189   0.637   6.414  0.1839  1.0933  2.0278
 2724SOL     OW19630   3.238   1.423   4.092 -0.2623  0.2596  0.2378
 2724SOL    HW119631   3.164   1.438   4.151 -0.9377  0.6050 -0.7015
 2724SOL    HW219632   3.191   1.415   4.009 -0.9097  0.4113  0.5847
 2725SOL     OW19633   1.808   4.202  14.908 -0.3647  0.0643  0.4849
 2725SOL    HW119634   1.855   4.251  14.976  2.1169 -0.0476 -1.1581
 2725SOL    HW219635   1.868   4.231  14.839 -2.0495  1.8581 -0.2010
 2726SOL     OW19636   2.108   3.915   8.912  0.3476 -0.1805 -0.5668
 2726SOL    HW119637   2.155   3.985   8.867  1.3162 -0.0420  0.6859
 2726SOL    HW219638   2.154   3.919   8.996  1.4140 -0.8751 -1.1214
 2727SOL     OW19639   1.519   3.735   3.522  0.4174 -0.2709  0.2532
 2727SOL    HW119640   1.565   3.805   3.569 -2.0205 -0.1503  2.4917
 2727SOL    HW219641   1.574   3.734   3.444  2.1225 -0.1777  1.4627
 2728SOL     OW19642   1.133   1.938  14.742  0.3060 -0.5164 -0.3240
 2728SOL    HW119643   1.137   2.016  14.686 -0.5870 -0.7385 -0.6973
 2728SOL    HW219644   1.066   1.954  14.808  0.4254 -0.0498 -0.3150
 2729SOL     OW19645   0.085   1.558   7.940  0.7583  0.1487  0.2449
 2729SOL    HW119646   0.138   1.558   7.860 -1.6350  0.5953 -1.3483
 2729SOL    HW219647   0.108   1.639   7.986  1.1165 -0.5636  1.3060
 2730SOL     OW19648   3.849   4.320   0.110 -0.3683 -0.2358 -0.0614
 2730SOL    HW119649   3.838   4.408   0.075 -3.4228 -0.0223  1.3779
 2730SOL    HW219650   3.756   4.297   0.119 -0.5727  0.5249 -0.3056
 2731SOL     OW19651   1.859   0.400   6.232  0.5344  0.1773 -0.1805
 2731SOL    HW119652   1.911   0.447   6.297 -1.7791  0.8388  1.1840
 2731SOL    HW219653   1.803   0.355   6.295  0.4607  0.8716  0.2586
 2732SOL     OW19654   4.685   3.528  16.248 -0.0455 -0.0924 -0.0665
 2732SOL    HW119655   4.699   3.473  16.171 -0.2318 -0.9778  0.5432
 2732SOL    HW219656   4.631   3.483  16.312 -0.8082 -0.0340 -0.6783
 2733SOL     OW19657   1.677   3.610   7.554  0.0095 -0.3143  0.1756
 2733SOL    HW119658   1.760   3.653   7.577  0.6149 -1.9378  1.0381
 2733SOL    HW219659   1.632   3.666   7.492 -1.3237  0.4798  1.8575
 2734SOL     OW19660   4.141   1.026  10.638 -0.2737  0.3624 -0.4039
 2734SOL    HW119661   4.164   1.119  10.628 -2.2031  0.7389 -1.1633
 2734SOL    HW219662   4.086   1.036  10.715  3.1391  0.3782  2.0512
 2735SOL     OW19663   0.289   3.562  10.416 -0.3958  0.1629  0.4659
 2735SOL    HW119664   0.331   3.643  10.388  0.4228  0.2330  1.9300
 2735SOL    HW219665   0.364   3.502  10.409  1.0096  1.9773 -0.0117
 2736SOL     OW19666   0.359   2.541   2.988 -0.1585 -0.5051  0.1189
 2736SOL    HW119667   0.398   2.581   3.066 -1.0074 -0.5997  0.5879
 2736SOL    HW219668   0.422   2.571   2.922 -0.1303  0.9566  0.8050
 2737SOL     OW19669   1.191   4.107   5.333  0.0369 -0.5596 -0.6308
 2737SOL    HW119670   1.115   4.086   5.387 -1.3536 -0.6975 -2.6442
 2737SOL    HW219671   1.254   4.129   5.402 -1.0818 -0.1113  0.2619
 2738SOL     OW19672   3.717   1.047   0.176 -0.5851  0.3634  0.0818
 2738SOL    HW119673   3.711   1.082   0.265  1.1039 -2.3818  1.2937
 2738SOL    HW219674   3.786   0.982   0.190  1.1652  2.0786 -0.8536
 2739SOL     OW19675   1.128   0.344   8.069 -0.9103  0.2944  0.9080
 2739SOL    HW119676   1.216   0.333   8.033 -1.1171 -0.6593  0.7023
 2739SOL    HW219677   1.146   0.378   8.157  1.6101 -1.5895  1.1193
 2740SOL     OW19678   2.497   2.489   3.470  0.8419 -0.3862  0.4391
 2740SOL    HW119679   2.511   2.546   3.546 -2.1418  2.0662 -0.8856
 2740SOL    HW219680   2.442   2.543   3.414 -1.3121 -2.4925  0.5291
 2741SOL     OW19681   2.089   0.002   5.810  0.1844 -0.3440  0.5506
 2741SOL    HW119682   2.071   4.713   5.903  0.2851  0.1906  0.6223
 2741SOL    HW219683   2.174   0.044   5.817  0.9577 -2.0596  1.5529
 2742SOL     OW19684   4.568   1.807  14.138 -0.9532  0.2269 -0.4438
 2742SOL    HW119685   4.641   1.799  14.199 -2.3131 -3.0206  0.7607
 2742SOL    HW219686   4.624   1.806  14.060 -0.6494  1.2731 -0.2410
 2743SOL     OW19687   2.652   0.597   3.841  0.7947  0.2981  0.2234
 2743SOL    HW119688   2.663   0.631   3.752  0.6629 -2.5250 -0.8745
 2743SOL    HW219689   2.578   0.536   3.837  0.5041  0.8377 -2.7840
 2744SOL     OW19690   1.514   3.242  17.563  0.5483  0.0129 -0.6741
 2744SOL    HW119691   1.444   3.222  17.625  2.3803 -2.6502  0.5286
 2744SOL    HW219692   1.570   3.167  17.582  0.4067 -0.9082 -3.8751
 2745SOL     OW19693   1.804   0.836   5.807 -0.1431 -0.6358  0.0235
 2745SOL    HW119694   1.844   0.799   5.729 -1.1345 -1.0182 -0.3016
 2745SOL    HW219695   1.852   0.786   5.873 -0.3569 -0.1923  0.5170
 2746SOL     OW19696   2.018   3.358   8.397  0.2191 -0.3751  0.6763
 2746SOL    HW119697   1.980   3.427   8.343  2.1433  0.2242  0.0898
 2746SOL    HW219698   2.052   3.292   8.338 -0.9143 -0.0408 -0.3614
 2747SOL     OW19699   0.396   3.850   8.302 -0.2726 -0.2496  0.0201
 2747SOL    HW119700   0.483   3.890   8.306 -0.4097  0.1951 -1.4970
 2747SOL    HW219701   0.369   3.847   8.394  0.9641  0.3739  0.4181
 2748SOL     OW19702   3.954   3.829   3.537 -0.0444 -0.2195 -0.4082
 2748SOL    HW119703   3.911   3.913   3.521 -0.1684 -0.4166 -1.1276
 2748SOL    HW219704   4.011   3.821   3.460  0.0083  4.0990 -0.8110
 2749SOL     OW19705   3.722   4.074   1.787  0.1478  0.4944 -0.2744
 2749SOL    HW119706   3.689   4.021   1.715  0.7021 -1.6489  1.0645
 2749SOL    HW219707   3.765   4.015   1.849  0.1210  2.3553  1.5416
 2750SOL     OW19708   0.285   1.492   5.066  0.0469 -0.2224  0.4682
 2750SOL    HW119709   0.295   1.558   4.998  2.6271 -1.7450 -0.5929
 2750SOL    HW219710   0.324   1.420   5.017  0.4164 -0.4895  1.1494
 2751SOL     OW19711   2.436   2.002   5.605 -1.2672  0.9107  0.4232
 2751SOL    HW119712   2.523   2.001   5.563 -1.5530 -2.4047 -0.0751
 2751SOL    HW219713   2.466   1.979   5.693 -0.6565  0.3799  0.0809
 2752SOL     OW19714   2.895   1.374   5.529 -0.1501  0.3675  0.5087
 2752SOL    HW119715   2.899   1.408   5.618  0.4236  1.6329 -0.0058
 2752SOL    HW219716   2.906   1.453   5.476 -2.3895  0.3748  0.0361
 2753SOL     OW19717   2.109   4.300   5.504  0.5381  0.2520  0.3984
 2753SOL    HW119718   2.177   4.281   5.440  0.9164  2.3257  0.1886
 2753SOL    HW219719   2.042   4.235   5.485  1.1017 -0.3285  0.3750
 2754SOL     OW19720   2.069   0.818   3.888  0.1050  0.1765  0.0668
 2754SOL    HW119721   2.000   0.764   3.927 -0.9017  1.3815 -0.0349
 2754SOL    HW219722   2.050   0.900   3.934 -3.5512 -1.6312  1.7986
 2755SOL     OW19723   2.988   3.545   2.277  0.8545 -0.2049  0.2085
 2755SOL    HW119724   2.929   3.513   2.209  1.4765 -1.5426  0.2882
 2755SOL    HW219725   2.972   3.487   2.351 -3.5542 -0.3750 -0.9300
 2756SOL     OW19726   3.260   1.588   3.657 -0.3682 -0.8832 -0.4606
 2756SOL    HW119727   3.250   1.654   3.589  0.4389  2.0459  2.2760
 2756SOL    HW219728   3.319   1.633   3.718  0.8049  0.9487 -2.9489
 2757SOL     OW19729   0.097   1.770  14.582  0.1821  0.1172  0.1943
 2757SOL    HW119730   0.033   1.710  14.545  1.2622 -0.8565 -0.0945
 2757SOL    HW219731   0.162   1.707  14.612  0.9060 -0.2451 -2.1308
 2758SOL     OW19732   3.589   3.886  17.159 -0.2683 -0.0503  0.1097
 2758SOL    HW119733   3.562   3.964  17.110  1.4352 -0.9932 -2.3457
 2758SOL    HW219734   3.514   3.874  17.217 -1.5084 -0.1656 -1.5055
 2759SOL     OW19735   3.599   4.646   3.893  0.5026 -0.0448  0.0831
 2759SOL    HW119736   3.611   4.653   3.988 -1.5127 -1.4261  0.4152
 2759SOL    HW219737   3.526   4.588   3.873  0.0699  0.1520  1.1021
 2760SOL     OW19738   1.367   3.158  12.819  0.4039  0.2270 -0.3164
 2760SOL    HW119739   1.416   3.178  12.899  0.6511 -1.1236 -0.1294
 2760SOL    HW219740   1.279   3.137  12.851  0.3763  2.9854  1.4181
 2761SOL     OW19741   1.984   4.600  14.353  0.0569  0.1586 -0.2818
 2761SOL    HW119742   1.947   4.622  14.268  0.0488 -0.0266 -0.3271
 2761SOL    HW219743   1.963   4.685  14.391 -0.5276 -0.9704  1.9187
 2762SOL     OW19744   0.021   1.238   0.433 -0.1393  0.2424  0.0682
 2762SOL    HW119745   0.043   1.331   0.444 -1.9995  0.5080  1.4085
 2762SOL    HW219746   0.106   1.194   0.430 -1.3829 -2.2231  1.2397
 2763SOL     OW19747   3.742   4.218  15.101 -0.0276 -0.3042 -0.2352
 2763SOL    HW119748   3.837   4.210  15.105 -0.0209 -1.3713 -2.3955
 2763SOL    HW219749   3.725   4.141  15.048 -0.4444  1.4732 -2.6963
 2764SOL     OW19750   1.716   2.278   2.501  0.5296 -0.4418 -0.3939
 2764SOL    HW119751   1.701   2.345   2.434 -2.5218 -1.0916 -0.3735
 2764SOL    HW219752   1.807   2.253   2.491  0.0674 -1.9764 -0.6821
 2765SOL     OW19753   1.254   4.098   6.345 -0.1001  0.0979 -0.4324
 2765SOL    HW119754   1.196   4.151   6.399  0.2506 -1.1021  1.1051
 2765SOL    HW219755   1.328   4.068   6.397  0.4021  0.2747 -1.0481
 2766SOL     OW19756   2.587   1.136   3.949  0.1045 -0.0772 -0.5844
 2766SOL    HW119757   2.577   1.138   4.044 -0.9329  1.8164 -0.7292
 2766SOL    HW219758   2.524   1.072   3.916  0.8911 -1.6001  0.8751
 2767SOL     OW19759   2.920   2.222   7.626 -0.1077  0.1909  0.2611
 2767SOL    HW119760   2.976   2.273   7.683  0.5568  1.3401 -1.4158
 2767SOL    HW219761   2.955   2.133   7.637 -0.3175  0.1018  0.2148
 2768SOL     OW19762   2.671   1.398   5.131 -0.2570  0.3718 -0.5555
 2768SOL    HW119763   2.639   1.349   5.207  1.7721 -2.1486 -1.3373
 2768SOL    HW219764   2.670   1.337   5.058 -2.4035  1.3907 -1.3941
 2769SOL     OW19765   3.928   2.600   5.887 -0.1678  0.1337 -0.1245
 2769SOL    HW119766   3.924   2.557   5.972  1.4397 -1.9816 -1.0968
 2769SOL    HW219767   4.023   2.608   5.877 -0.2457  0.1119 -0.9031
 2770SOL     OW19768   2.247   3.956   3.404 -0.0923  0.0681  0.4046
 2770SOL    HW119769   2.311   3.907   3.455 -0.0230 -1.3691 -1.0574
 2770SOL    HW219770   2.209   3.883   3.355  0.5965 -0.1070  0.1476
 2771SOL     OW19771   2.477   0.598   6.267 -0.0841 -0.5086 -0.1566
 2771SOL    HW119772   2.457   0.554   6.184 -2.1143 -0.1164  0.1375
 2771SOL    HW219773   2.565   0.635   6.257  0.0153 -0.3283  1.4196
 2772SOL     OW19774   1.073   2.923   4.094 -0.4268  0.1102  0.0231
 2772SOL    HW119775   1.001   2.949   4.152 -0.3835 -1.8457  0.9704
 2772SOL    HW219776   1.032   2.915   4.008  1.4845 -0.6797 -0.8071
 2773SOL     OW19777   3.326   3.313   6.187  0.2490  0.3291 -0.1846
 2773SOL    HW119778   3.372   3.372   6.128  0.0785  1.3723  0.7192
 2773SOL    HW219779   3.291   3.246   6.129 -1.2318  0.8331  0.1375
 2774SOL     OW19780   0.655   1.453  10.728 -1.0799  0.4811 -0.6171
 2774SOL    HW119781   0.734   1.483  10.773 -0.7434 -0.1162 -0.8098
 2774SOL    HW219782   0.684   1.417  10.644  2.5792 -0.3996  1.0261
 2775SOL     OW19783   1.879   3.772   8.500 -0.0322  0.0296  0.5245
 2775SOL    HW119784   1.974   3.760   8.494 -0.0066 -0.0469  1.0686
 2775SOL    HW219785   1.882   3.824   8.580  0.0190  2.4882 -1.0638
 2776SOL     OW19786   2.112   3.376  16.219  0.2696 -0.2209 -0.2742
 2776SOL    HW119787   2.016   3.373  16.214  0.3500  0.5742 -2.2092
 2776SOL    HW219788   2.136   3.432  16.146 -0.4454 -0.3037 -0.5780
 2777SOL     OW19789   0.399   0.876   6.532  0.4990  0.9920 -0.0561
 2777SOL    HW119790   0.480   0.838   6.497 -1.3552 -0.0170 -3.2556
 2777SOL    HW219791   0.437   0.956   6.566  1.0579  1.1069 -0.9398
 2778SOL     OW19792   3.843   2.486   9.339  0.2788 -0.0905  0.2482
 2778SOL    HW119793   3.816   2.404   9.298  1.6460 -1.4283  2.0140
 2778SOL    HW219794   3.797   2.549   9.282  0.6322 -0.0209  0.0375
 2779SOL     OW19795   2.792   2.067   9.044  0.2397  0.4816  0.2220
 2779SOL    HW119796   2.812   1.974   9.041  2.7543  1.0146  0.6373
 2779SOL    HW219797   2.776   2.077   9.138 -2.0681  0.8655 -0.2069
 2780SOL     OW19798   0.440   1.789  11.211 -0.6548  0.0382 -0.0931
 2780SOL    HW119799   0.471   1.843  11.284  0.5883 -1.0824  0.2101
 2780SOL    HW219800   0.502   1.807  11.140 -0.8334 -1.5326 -0.6539
 2781SOL     OW19801   1.738   4.531  10.202 -0.2968 -0.1247 -0.9456
 2781SOL    HW119802   1.829   4.535  10.172 -0.2177 -0.5385 -0.7643
 2781SOL    HW219803   1.738   4.596  10.273  0.8663  0.1387 -1.1897
 2782SOL     OW19804   2.962   1.145   5.966 -0.0598 -0.0223  0.2609
 2782SOL    HW119805   3.018   1.188   6.030 -0.7152 -1.1952  1.6261
 2782SOL    HW219806   2.886   1.133   6.023  0.0884  1.3836  0.7744
 2783SOL     OW19807   4.266   4.135   0.202  0.2478  0.7403  0.4844
 2783SOL    HW119808   4.185   4.176   0.233  0.6694  0.5043  1.8933
 2783SOL    HW219809   4.252   4.041   0.216  0.0604  0.7308  0.2543
 2784SOL     OW19810   4.255   1.005   8.586 -0.0859  0.1515  0.3086
 2784SOL    HW119811   4.253   1.094   8.549  2.0853  0.0665 -0.0341
 2784SOL    HW219812   4.275   1.024   8.678  0.5698 -3.2402  0.8552
 2785SOL     OW19813   0.221   1.395   4.074 -0.3259 -0.0513 -0.0539
 2785SOL    HW119814   0.280   1.354   4.010  0.3150 -0.7988  1.0165
 2785SOL    HW219815   0.290   1.409   4.139 -0.6933  1.4589  0.0009
 2786SOL     OW19816   1.711   3.126   4.220 -0.7862 -0.4260  0.3235
 2786SOL    HW119817   1.717   3.114   4.314  2.2611  1.2863  0.3797
 2786SOL    HW219818   1.715   3.221   4.210  1.1362 -0.4867  0.4665
 2787SOL     OW19819   0.269   3.247   2.236 -0.5908 -0.0079  0.0038
 2787SOL    HW119820   0.315   3.185   2.179  2.4430  1.9664  0.2902
 2787SOL    HW219821   0.180   3.245   2.201  0.2741 -2.6477 -2.0928
 2788SOL     OW19822   2.394   3.705   3.753  0.1162 -0.7176  0.6176
 2788SOL    HW119823   2.461   3.652   3.796  1.7380  1.1322  0.3884
 2788SOL    HW219824   2.432   3.792   3.762  1.2221 -1.3098  1.6099
 2789SOL     OW19825   1.432   1.747   6.386  0.1759  0.4881  0.2930
 2789SOL    HW119826   1.385   1.687   6.443  0.2651  0.3820  0.2541
 2789SOL    HW219827   1.409   1.713   6.300 -2.7668 -1.4628  1.8561
 2790SOL     OW19828   3.863   0.981   6.878 -0.4225 -0.0876 -0.4669
 2790SOL    HW119829   3.930   1.016   6.819 -0.4857  1.6719  0.5204
 2790SOL    HW219830   3.888   1.012   6.964 -1.8541  2.4002 -0.9619
 2791SOL     OW19831   3.421   4.698  14.803 -0.4290  0.3377  0.1891
 2791SOL    HW119832   3.353   0.000  14.867 -1.0971 -0.9351 -0.0717
 2791SOL    HW219833   3.374   4.640  14.744 -1.7399  4.2962 -2.6724
 2792SOL     OW19834   1.423   3.486   3.150 -0.5101 -0.5174 -0.5788
 2792SOL    HW119835   1.360   3.557   3.145 -0.5283 -0.4723  0.2412
 2792SOL    HW219836   1.448   3.500   3.242 -0.8286 -0.2626 -0.5324
 2793SOL     OW19837   1.366   3.556   6.591 -0.0000  0.1191 -0.0937
 2793SOL    HW119838   1.306   3.582   6.521  0.0345 -1.7585 -0.8313
 2793SOL    HW219839   1.382   3.467   6.560  4.8933  1.5126 -1.5140
 2794SOL     OW19840   0.383   3.895   6.770  0.1211  0.4451 -0.1647
 2794SOL    HW119841   0.336   3.966   6.726 -1.7464 -2.2872 -2.4948
 2794SOL    HW219842   0.436   3.939   6.837  1.7686 -1.2566 -0.3562
 2795SOL     OW19843   3.185   4.448   8.247 -0.2848 -0.4326  0.0884
 2795SOL    HW119844   3.225   4.524   8.289  0.9700  0.9394 -3.6009
 2795SOL    HW219845   3.170   4.386   8.318  0.9177  0.2250  0.9160
 2796SOL     OW19846   2.865   3.369   8.892  0.0832 -0.1356  0.5552
 2796SOL    HW119847   2.924   3.318   8.948  0.5623 -0.0645  0.1197
 2796SOL    HW219848   2.919   3.383   8.813 -0.4686  0.3752  0.2685
 2797SOL     OW19849   0.366   4.380  13.413  0.0457  0.3525 -0.7187
 2797SOL    HW119850   0.333   4.427  13.489  1.4304 -1.0027  0.7303
 2797SOL    HW219851   0.319   4.297  13.414  0.0405  0.2998 -3.3499
 2798SOL     OW19852   0.881   0.497  16.539 -0.5088  0.5810  0.5447
 2798SOL    HW119853   0.827   0.531  16.611 -1.1913  0.3926  0.1302
 2798SOL    HW219854   0.827   0.511  16.461  0.0643  0.8414  0.2021
 2799SOL     OW19855   4.316   2.976   4.905  0.3900  0.8354 -0.2160
 2799SOL    HW119856   4.344   2.946   4.819 -1.6911 -1.2460 -0.1971
 2799SOL    HW219857   4.238   3.029   4.887 -0.0714  0.5662  0.9635
 2800SOL     OW19858   3.570   1.587  12.734 -0.0810  0.3657  0.1868
 2800SOL    HW119859   3.598   1.637  12.657  0.5811  1.4974  1.1666
 2800SOL    HW219860   3.613   1.631  12.807 -0.4200 -2.0813  1.8600
 2801SOL     OW19861   4.096   3.051  12.008 -0.5764  0.2573  0.6750
 2801SOL    HW119862   4.029   3.107  11.968 -0.2989 -0.0204 -0.1855
 2801SOL    HW219863   4.038   3.007  12.070 -0.7031 -0.4214  0.0837
 2802SOL     OW19864   4.303   2.756   7.238 -0.1912  0.0513 -0.4548
 2802SOL    HW119865   4.344   2.820   7.180  0.9254 -1.9588 -1.9220
 2802SOL    HW219866   4.293   2.675   7.187  0.5575 -0.0837 -0.3810
 2803SOL     OW19867   4.086   2.029   6.848  0.3376 -0.1892 -0.5677
 2803SOL    HW119868   4.046   2.084   6.781  1.2744  2.0210  0.7027
 2803SOL    HW219869   4.131   2.098   6.896 -2.1316 -0.5460  2.2674
 2804SOL     OW19870   4.131   3.138   7.323  0.4611 -0.1221  0.4633
 2804SOL    HW119871   4.196   3.076   7.357 -0.3652 -1.1414  0.1519
 2804SOL    HW219872   4.090   3.163   7.406  1.8342  0.0990  1.0792
 2805SOL     OW19873   4.496   3.973   3.485 -0.3066 -0.3521 -0.2784
 2805SOL    HW119874   4.425   3.913   3.466  1.6038 -3.2096  1.5314
 2805SOL    HW219875   4.541   3.979   3.400  0.8941  0.9619  0.4421
 2806SOL     OW19876   2.238   1.143   3.963  0.4405  0.3207  0.5891
 2806SOL    HW119877   2.148   1.114   3.977  1.0768 -1.2071  1.5311
 2806SOL    HW219878   2.223   1.211   3.898  0.2318  0.1411  0.4470
 2807SOL     OW19879   0.218   1.047   2.139  0.0021 -0.1959  0.0623
 2807SOL    HW119880   0.127   1.023   2.156 -0.6938  2.3088 -0.2054
 2807SOL    HW219881   0.214   1.142   2.149  2.2122 -0.1813  0.8160
 2808SOL     OW19882   0.837   3.619   4.066 -0.3622 -0.0470  0.0202
 2808SOL    HW119883   0.744   3.598   4.056  0.4244 -3.1645 -0.5320
 2808SOL    HW219884   0.878   3.545   4.023 -0.1290  0.7544 -1.1285
 2809SOL     OW19885   4.061   1.282  16.894  0.3527  0.8600 -0.3957
 2809SOL    HW119886   4.113   1.222  16.841 -0.4985  0.5976 -0.9334
 2809SOL    HW219887   4.003   1.228  16.948  1.2614 -0.4854 -0.7596
 2810SOL     OW19888   1.097   4.572   6.386  0.1367 -0.6512 -0.1353
 2810SOL    HW119889   1.024   4.513   6.367 -0.3931  0.1823 -0.6680
 2810SOL    HW219890   1.130   4.538   6.469 -1.3545  0.4660  0.9160
 2811SOL     OW19891   4.559   1.272   5.829 -0.0481  0.5243  0.2790
 2811SOL    HW119892   4.464   1.261   5.817  0.3359 -1.6286 -0.9838
 2811SOL    HW219893   4.568   1.366   5.842 -2.4346  0.2368  3.8559
 2812SOL     OW19894   4.208   1.321   4.037 -0.0887 -0.0655 -0.1277
 2812SOL    HW119895   4.291   1.343   4.080  0.8611 -2.0755 -0.9563
 2812SOL    HW219896   4.150   1.339   4.111 -0.5207  0.4697 -0.5937
 2813SOL     OW19897   2.541   3.465  13.957  0.1505  0.4764 -0.0976
 2813SOL    HW119898   2.580   3.543  13.996 -0.9653  0.8330  0.2879
 2813SOL    HW219899   2.465   3.509  13.920 -0.6172 -1.1411 -0.4471
 2814SOL     OW19900   1.748   0.212   3.424 -0.2948 -0.1105  0.3275
 2814SOL    HW119901   1.779   0.144   3.363 -0.0856 -0.0471  0.3632
 2814SOL    HW219902   1.727   0.164   3.504  3.4605  0.1547  1.4718
 2815SOL     OW19903   2.427   0.619   4.414 -1.1237  0.4529  0.9874
 2815SOL    HW119904   2.522   0.619   4.407 -0.9954  2.0950  2.7374
 2815SOL    HW219905   2.397   0.707   4.438  0.4976  1.3071 -0.0858
 2816SOL     OW19906   2.555   2.934   3.463  0.3885 -0.3751  0.0851
 2816SOL    HW119907   2.469   2.900   3.488  1.4057 -1.2318  2.4154
 2816SOL    HW219908   2.581   2.881   3.387  1.5023  1.0147 -0.4915
 2817SOL     OW19909   3.672   0.186  13.711  0.2268 -0.0408  0.6654
 2817SOL    HW119910   3.760   0.160  13.740  0.4760  0.5944  0.4759
 2817SOL    HW219911   3.701   0.228  13.630  0.8002 -3.3558 -0.8532
 2818SOL     OW19912   2.083   4.563   5.268 -0.8254  0.3687  0.2752
 2818SOL    HW119913   2.150   4.537   5.330  2.0688  1.4714 -2.3902
 2818SOL    HW219914   2.028   4.486   5.279 -0.2317  0.1115  1.4115
 2819SOL     OW19915   0.527   2.196   4.396  0.1831 -0.4647 -0.0853
 2819SOL    HW119916   0.563   2.111   4.421 -0.4627 -0.4311  0.9649
 2819SOL    HW219917   0.444   2.175   4.355  0.3890 -1.6540  0.1148
 2820SOL     OW19918   1.024   1.659   2.681 -0.5216  0.0044  0.5645
 2820SOL    HW119919   1.091   1.606   2.638 -0.8978 -0.5361  0.6381
 2820SOL    HW219920   1.087   1.722   2.717  1.3008 -1.2239 -0.4321
 2821SOL     OW19921   2.009   2.382   3.202  0.1791 -0.0905  0.4545
 2821SOL    HW119922   1.963   2.397   3.284  0.6067  0.3562  0.6137
 2821SOL    HW219923   1.943   2.326   3.162  1.5797 -0.6550 -1.0901
 2822SOL     OW19924   3.912   4.553   2.948 -0.0162 -0.4735  0.2474
 2822SOL    HW119925   3.900   4.520   3.037 -2.5626  0.1343  0.1150
 2822SOL    HW219926   3.832   4.605   2.940  1.3105  1.4980 -0.1511
 2823SOL     OW19927   0.940   0.451  17.411  0.7923 -0.6692  0.7874
 2823SOL    HW119928   0.895   0.506  17.347  1.7083 -1.1206 -0.2462
 2823SOL    HW219929   1.033   0.467  17.400  0.9610 -1.8080  0.4860
 2824SOL     OW19930   0.326   2.369   5.522  0.1380  0.0563  1.0483
 2824SOL    HW119931   0.307   2.326   5.439  0.8431  0.9172  0.4371
 2824SOL    HW219932   0.292   2.308   5.588 -2.2849  2.3982  1.9339
 2825SOL     OW19933   1.265   2.094   9.033  0.8230 -0.0677  0.4081
 2825SOL    HW119934   1.215   2.078   8.952 -0.7939  1.4625  1.1055
 2825SOL    HW219935   1.269   2.005   9.068 -2.1044  0.2704  1.5940
 2826SOL     OW19936   0.239   2.213   4.926  0.3036 -0.0866  0.0337
 2826SOL    HW119937   0.327   2.196   4.892 -0.3365 -1.2580 -1.0136
 2826SOL    HW219938   0.243   2.308   4.943  2.0467 -0.3132  0.9229
 2827SOL     OW19939   0.850   2.489   8.798  0.2416  0.5883  0.1651
 2827SOL    HW119940   0.853   2.410   8.852  0.5918 -1.9273 -3.5365
 2827SOL    HW219941   0.771   2.529   8.836  1.8324  0.3482  3.6668
 2828SOL     OW19942   4.528   4.217   0.690  0.5739 -0.4663 -0.5299
 2828SOL    HW119943   4.563   4.130   0.707 -1.0193 -0.8637  0.7616
 2828SOL    HW219944   4.611   4.262   0.677  1.0083 -0.6140  1.7705
 2829SOL     OW19945   0.868   0.182   2.962 -0.3862  0.5737 -0.5474
 2829SOL    HW119946   0.797   0.189   2.899  0.1970  0.4871 -1.2198
 2829SOL    HW219947   0.881   0.087   2.952  0.4456  0.4401  1.6195
 2830SOL     OW19948   2.996   0.142   6.308 -0.1853  0.6011  0.2868
 2830SOL    HW119949   2.959   0.062   6.343 -1.5378  0.9521 -0.3430
 2830SOL    HW219950   2.933   0.179   6.246 -0.3600 -1.0174 -0.4865
 2831SOL     OW19951   4.178   1.523  16.449  0.3765  0.5783  0.3349
 2831SOL    HW119952   4.150   1.455  16.387  0.1966 -0.6347  1.7719
 2831SOL    HW219953   4.239   1.573  16.394  0.4305  0.3777  0.2120
 2832SOL     OW19954   0.304   2.773   1.532 -0.1934  0.1020  0.4460
 2832SOL    HW119955   0.220   2.755   1.575 -0.6860 -0.8714 -0.9394
 2832SOL    HW219956   0.282   2.776   1.439  1.9505  2.4423  0.0091
 2833SOL     OW19957   1.607   2.878   2.133  0.1647 -0.2444 -0.0182
 2833SOL    HW119958   1.643   2.835   2.211 -0.6129 -0.5702  0.1635
 2833SOL    HW219959   1.539   2.815   2.108 -1.4036  0.9495  1.2009
 2834SOL     OW19960   1.328   4.232   4.494  0.3037 -0.4643  0.0112
 2834SOL    HW119961   1.376   4.205   4.572 -0.7933 -1.6589  0.2696
 2834SOL    HW219962   1.353   4.161   4.435 -1.2460 -1.0084  0.0170
 2835SOL     OW19963   1.885   4.090   2.119  0.6374 -0.0006 -0.2176
 2835SOL    HW119964   1.975   4.109   2.093  0.9935 -0.3946  0.7257
 2835SOL    HW219965   1.856   4.179   2.141 -2.8655 -0.7225 -1.8896
 2836SOL     OW19966   0.243   2.438   0.855  0.4378  0.2408  0.1215
 2836SOL    HW119967   0.149   2.446   0.836  0.9985  2.5256 -1.7050
 2836SOL    HW219968   0.249   2.517   0.909 -0.3378  1.7350 -1.9707
 2837SOL     OW19969   2.675   2.624   1.998 -0.4885 -0.2483 -0.0672
 2837SOL    HW119970   2.769   2.644   1.992 -0.8953  0.9272 -2.5151
 2837SOL    HW219971   2.665   2.561   1.926  1.7308 -0.1333 -0.4988
 2838SOL     OW19972   2.104   4.057   7.159  0.7174 -0.5619 -0.4153
 2838SOL    HW119973   2.178   4.085   7.213 -0.4852  0.9988  0.3902
 2838SOL    HW219974   2.148   3.983   7.115  2.3993  0.4865 -0.4993
 2839SOL     OW19975   2.593   0.234  11.453  0.5637  0.5095 -0.3185
 2839SOL    HW119976   2.624   0.146  11.431 -1.6047 -0.4347  0.4377
 2839SOL    HW219977   2.581   0.243  11.548 -0.4716  0.8811 -0.4930
 2840SOL     OW19978   4.308   3.588   5.876  0.0480  0.2789 -0.1381
 2840SOL    HW119979   4.391   3.552   5.905  0.2247  0.1848 -0.7532
 2840SOL    HW219980   4.308   3.677   5.911  1.9437  0.1245  0.2353
 2841SOL     OW19981   4.415   1.904   8.807  0.1308 -0.3890  0.3822
 2841SOL    HW119982   4.415   1.982   8.862 -1.0278  0.6027 -1.0222
 2841SOL    HW219983   4.484   1.924   8.744 -1.4688 -3.0229 -2.2471
 2842SOL     OW19984   0.249   0.022  16.222 -0.6781 -0.9387  0.5309
 2842SOL    HW119985   0.202   4.673  16.269 -0.6263 -1.5965 -0.3922
 2842SOL    HW219986   0.273   4.692  16.144 -2.0354 -0.4700 -0.2073
 2843SOL     OW19987   4.455   4.547  14.661 -0.1499 -0.5942  0.1283
 2843SOL    HW119988   4.419   4.520  14.746 -0.6945 -0.9405 -0.2116
 2843SOL    HW219989   4.392   4.608  14.622  0.7217 -1.7135 -3.0358
 2844SOL     OW19990   4.421   3.601   2.985 -0.0976  0.1589 -0.1143
 2844SOL    HW119991   4.405   3.575   2.894  0.1540  2.3909 -0.7880
 2844SOL    HW219992   4.360   3.675   2.979 -0.5433 -0.3593 -1.9344
 2845SOL     OW19993   3.871   0.187  14.798  0.1780 -0.0972 -0.2878
 2845SOL    HW119994   3.854   0.244  14.874  1.0396  1.0127 -0.9176
 2845SOL    HW219995   3.792   0.213  14.751 -0.5005 -0.1601  0.8195
 2846SOL     OW19996   0.562   3.713  13.141 -0.5380  0.6221 -0.0256
 2846SOL    HW119997   0.635   3.724  13.202 -1.5092 -0.3825  1.3216
 2846SOL    HW219998   0.600   3.697  13.055  1.6378  0.3807  0.9750
 2847SOL     OW19999   0.433   0.733  16.028 -0.4168  0.6980 -0.4471
 2847SOL    HW120000   0.381   0.754  16.105 -2.3789 -0.2686 -1.5099
 2847SOL    HW220001   0.365   0.732  15.960 -2.4143  3.2168  1.5423
 2848SOL     OW20002   0.125   4.322   9.977 -0.1100 -0.2864 -0.0370
 2848SOL    HW120003   0.185   4.349  10.047 -0.5328  0.2372  0.1237
 2848SOL    HW220004   0.045   4.373   9.990 -0.0675 -0.6261  1.5664
 2849SOL     OW20005   2.602   0.930   5.642  0.0021  0.2365  0.2485
 2849SOL    HW120006   2.513   0.916   5.608  0.6677 -1.6438 -0.6945
 2849SOL    HW220007   2.644   0.973   5.567 -0.5204  2.0988  1.0323
 2850SOL     OW20008   0.332   0.168   3.808 -0.4019  1.0145 -0.6447
 2850SOL    HW120009   0.281   0.243   3.839 -0.8691  1.3431 -2.1855
 2850SOL    HW220010   0.274   0.108   3.854  0.0164 -0.3502 -1.9110
 2851SOL     OW20011   1.536   2.258   2.682  0.9205  0.6232 -0.4698
 2851SOL    HW120012   1.511   2.165   2.682  1.5725  0.4418 -0.3990
 2851SOL    HW220013   1.589   2.261   2.603  0.4627 -0.2251 -0.8127
 2852SOL     OW20014   1.550   4.263   0.960  0.1642  0.1974  0.9225
 2852SOL    HW120015   1.492   4.259   1.036  1.6629 -1.5217  1.9673
 2852SOL    HW220016   1.627   4.300   1.004  0.4692 -1.2437  1.5967
 2853SOL     OW20017   2.365   2.495  10.938  0.1030  0.4477  0.1516
 2853SOL    HW120018   2.275   2.463  10.946  1.0306 -2.8162 -2.5460
 2853SOL    HW220019   2.358   2.541  10.854 -0.6279 -0.3632 -0.2334
 2854SOL     OW20020   3.500   2.383  10.604  0.1991  0.1644 -0.0961
 2854SOL    HW120021   3.421   2.340  10.570 -1.2191  3.0883 -0.4475
 2854SOL    HW220022   3.564   2.316  10.577  1.8374  1.4573  0.5966
 2855SOL     OW20023   4.494   3.278   5.154 -0.5076  0.4751  0.0326
 2855SOL    HW120024   4.573   3.315   5.196 -1.5939 -0.2510  2.7372
 2855SOL    HW220025   4.499   3.183   5.169  0.6898  0.8120  1.9135
 2856SOL     OW20026   2.327   2.687   5.090 -0.3703  0.5412  0.3709
 2856SOL    HW120027   2.295   2.767   5.049 -0.2385 -1.0811 -2.9529
 2856SOL    HW220028   2.285   2.619   5.036  0.3662 -0.1528  0.6662
 2857SOL     OW20029   3.607   2.444   2.700  0.8441 -0.1651 -0.2540
 2857SOL    HW120030   3.535   2.467   2.641  0.2959  0.7889  0.7959
 2857SOL    HW220031   3.591   2.510   2.767  2.4787 -0.5181  0.4815
 2858SOL     OW20032   3.797   4.046  15.752  0.5653  0.6303 -0.1081
 2858SOL    HW120033   3.726   4.102  15.721 -0.8107 -1.8605 -1.4341
 2858SOL    HW220034   3.762   4.026  15.839 -0.5751 -0.5829 -0.8534
 2859SOL     OW20035   2.977   2.146  14.629 -0.1194 -0.3398  0.1597
 2859SOL    HW120036   3.042   2.188  14.573 -0.0078  0.3277  0.7963
 2859SOL    HW220037   2.944   2.075  14.574  1.8398  0.3011 -1.8187
 2860SOL     OW20038   0.749   0.832   4.010 -0.0953  0.2266  0.1641
 2860SOL    HW120039   0.803   0.910   4.016 -0.3511  0.4790 -0.7663
 2860SOL    HW220040   0.671   0.860   3.961  0.3410  1.4030  0.1508
 2861SOL     OW20041   4.591   2.314   3.102 -0.1693  0.3070 -0.1247
 2861SOL    HW120042   4.619   2.316   3.194 -1.0581  0.3521  0.1511
 2861SOL    HW220043   4.654   2.252   3.066  0.5879  1.4340 -0.7207
 2862SOL     OW20044   3.597   0.538   8.546 -0.4169  0.0998  0.0831
 2862SOL    HW120045   3.680   0.577   8.574 -0.1461  0.8612 -1.7583
 2862SOL    HW220046   3.620   0.452   8.512  1.3603  1.0225 -1.0461
 2863SOL     OW20047   1.535   2.437  16.608  0.0616  0.8174 -0.3909
 2863SOL    HW120048   1.507   2.510  16.552  2.4144  2.6781  0.8464
 2863SOL    HW220049   1.457   2.393  16.641  1.1849 -0.7798  0.1288
 2864SOL     OW20050   0.728   2.053  10.444  0.0762  0.1649  0.0424
 2864SOL    HW120051   0.695   2.121  10.503 -0.0680 -1.3434  1.6956
 2864SOL    HW220052   0.706   1.976  10.496 -2.6704 -0.6376 -2.2962
 2865SOL     OW20053   4.577   3.458   8.020  0.1813  0.4102 -0.4065
 2865SOL    HW120054   4.538   3.535   7.978  1.1446 -0.1197 -2.2997
 2865SOL    HW220055   4.642   3.435   7.954 -0.5398 -3.3538  0.2230
 2866SOL     OW20056   3.361   1.439  12.646  0.0218  0.5008  1.0363
 2866SOL    HW120057   3.331   1.397  12.727 -0.5460 -2.6157 -0.7655
 2866SOL    HW220058   3.438   1.484  12.680 -0.7024  3.6522 -1.5022
 2867SOL     OW20059   0.872   0.822   6.534  0.0608 -0.1370  0.0243
 2867SOL    HW120060   0.904   0.789   6.450 -2.5502 -0.2063 -0.9406
 2867SOL    HW220061   0.902   0.755   6.595  1.0992  0.1265 -0.1876
 2868SOL     OW20062   4.062   1.395   5.670 -0.6777  0.6112 -0.4923
 2868SOL    HW120063   4.023   1.474   5.708  0.7542  0.8592  0.4528
 2868SOL    HW220064   3.985   1.338   5.674  1.3801 -1.9081  3.4911
 2869SOL     OW20065   0.995   0.120   4.419 -0.6571  0.5072  0.0062
 2869SOL    HW120066   1.030   0.193   4.470  2.1078  0.3683 -1.6795
 2869SOL    HW220067   1.003   0.169   4.337 -0.2181  0.6224  0.1197
 2870SOL     OW20068   2.367   0.321   3.453 -0.6189 -0.2761 -0.1132
 2870SOL    HW120069   2.355   0.416   3.442 -0.4307 -0.5447 -2.6575
 2870SOL    HW220070   2.335   0.308   3.543  0.3430 -1.6403  0.0223
 2871SOL     OW20071   3.476   1.019   4.752  0.4417  0.0646 -0.0710
 2871SOL    HW120072   3.445   1.012   4.843  0.2751 -0.8573 -0.2034
 2871SOL    HW220073   3.419   1.092   4.727 -1.8857 -2.3931 -1.9526
 2872SOL     OW20074   2.339   1.674  17.526  0.1877 -0.4939 -0.0044
 2872SOL    HW120075   2.308   1.584  17.514 -0.8758 -0.3033  1.3858
 2872SOL    HW220076   2.306   1.692  17.614 -0.8604 -0.4251 -0.4023
 2873SOL     OW20077   3.475   2.612   5.688  0.1092  0.7245 -0.4144
 2873SOL    HW120078   3.557   2.590   5.731  0.5021  2.5008 -0.2462
 2873SOL    HW220079   3.434   2.526   5.693 -2.3119  1.9015  0.2142
 2874SOL     OW20080   3.548   0.116   6.302  0.1955  0.0708  0.0574
 2874SOL    HW120081   3.584   0.029   6.283 -0.5194 -0.0489 -0.7428
 2874SOL    HW220082   3.538   0.152   6.213 -0.1958  0.6011  0.3150
 2875SOL     OW20083   2.254   4.632   5.506 -0.4661  0.2634  0.2950
 2875SOL    HW120084   2.276   4.709   5.454 -1.6316 -0.5378 -1.4084
 2875SOL    HW220085   2.197   4.672   5.571 -1.5103 -1.8038  0.6681
 2876SOL     OW20086   0.311   2.703  12.456  0.0449  0.5220 -0.6804
 2876SOL    HW120087   0.272   2.742  12.534  1.0981  2.0336 -0.9179
 2876SOL    HW220088   0.391   2.669  12.497  0.3578 -0.4186 -2.0717
 2877SOL     OW20089   4.700   0.996   5.815 -0.4137  0.0613 -0.5113
 2877SOL    HW120090   4.652   1.079   5.805 -1.0059  0.0096  1.9001
 2877SOL    HW220091   0.074   1.011   5.821 -0.6442  1.3412  0.0082
 2878SOL     OW20092   4.532   2.158   6.247 -0.0160  0.2624  0.6516
 2878SOL    HW120093   4.555   2.070   6.277 -2.1407 -0.7584 -0.6936
 2878SOL    HW220094   4.449   2.136   6.203  0.0775  0.1465  0.5332
 2879SOL     OW20095   3.034   1.233  15.592 -0.8207  0.0639  0.2630
 2879SOL    HW120096   2.993   1.319  15.593  0.0842  0.5248 -0.9988
 2879SOL    HW220097   2.969   1.164  15.600 -0.6141  0.0432  1.7805
 2880SOL     OW20098   0.711   3.651  12.279  0.7053  0.7431  0.6223
 2880SOL    HW120099   0.796   3.609  12.268  0.5573  0.3145  1.1334
 2880SOL    HW220100   0.745   3.740  12.289  1.0229  0.8469 -1.5335
 2881SOL     OW20101   3.434   3.508  10.174  0.2567  0.3285  0.5310
 2881SOL    HW120102   3.458   3.420  10.203 -1.3873 -1.2065 -2.7817
 2881SOL    HW220103   3.393   3.527  10.259  0.4777 -0.3585  0.7851
 2882SOL     OW20104   1.957   0.255  16.922  0.3310  0.5492 -0.0396
 2882SOL    HW120105   2.051   0.271  16.926  0.2126  0.9772  0.8928
 2882SOL    HW220106   1.927   0.344  16.900  0.2207  0.7434  0.9172
 2883SOL     OW20107   3.705   0.469   3.319  0.4201 -0.0190 -0.1562
 2883SOL    HW120108   3.697   0.423   3.236  0.9471 -2.3675  1.1169
 2883SOL    HW220109   3.612   0.486   3.334  0.5626  1.6895 -1.1840
 2884SOL     OW20110   4.528   4.521   4.398  0.1049 -0.4448  0.7019
 2884SOL    HW120111   4.604   4.520   4.455 -0.0830 -0.8734  0.9473
 2884SOL    HW220112   4.462   4.547   4.461 -0.1452  1.1721 -0.2158
 2885SOL     OW20113   1.204   4.418   4.021 -0.0056 -0.0638 -0.2742
 2885SOL    HW120114   1.192   4.512   4.020  1.1129  0.0999  1.6285
 2885SOL    HW220115   1.225   4.410   4.114 -0.2779 -1.3761 -0.3111
 2886SOL     OW20116   0.721   4.624   2.606  0.0253 -0.8129  0.3924
 2886SOL    HW120117   0.645   4.615   2.549  0.0907 -0.0433  0.1826
 2886SOL    HW220118   0.776   4.559   2.563  0.7112 -0.4559  0.7411
 2887SOL     OW20119   0.034   1.003   3.523  0.3519  0.1551  0.2260
 2887SOL    HW120120   0.071   0.925   3.564 -0.4318  0.0624  0.7679
 2887SOL    HW220121   0.012   1.059   3.598 -2.5793 -0.2738 -0.3178
 2888SOL     OW20122   4.071   3.552   8.513 -0.3206  0.5187  0.2182
 2888SOL    HW120123   4.118   3.470   8.498 -1.6511  0.0155 -1.1214
 2888SOL    HW220124   4.141   3.616   8.500 -0.4857  0.8642  1.0217
 2889SOL     OW20125   4.121   4.072   1.925  0.1248  0.1810  0.1206
 2889SOL    HW120126   4.031   4.080   1.957  0.0300 -0.9699  0.1200
 2889SOL    HW220127   4.156   4.151   1.966 -1.9773  1.0839  0.1816
 2890SOL     OW20128   0.849   2.471   1.973  0.1577  0.2308  0.4607
 2890SOL    HW120129   0.772   2.521   1.944 -0.7291 -1.0806  0.5435
 2890SOL    HW220130   0.822   2.452   2.063 -0.3358 -1.2647 -0.0052
 2891SOL     OW20131   2.631   4.506   1.163  0.3849  0.4984 -0.0583
 2891SOL    HW120132   2.541   4.520   1.135  0.0153 -0.8917  0.4463
 2891SOL    HW220133   2.660   4.593   1.135 -0.8057  1.1390  0.7217
 2892SOL     OW20134   2.695   4.024   1.798  0.0668 -0.0181  0.0167
 2892SOL    HW120135   2.621   4.066   1.755  0.5427  1.5360  0.7307
 2892SOL    HW220136   2.666   3.997   1.884  0.6367  0.8950  0.4971
 2893SOL     OW20137   1.126   3.354   8.590 -0.2649 -0.0872  0.2591
 2893SOL    HW120138   1.163   3.315   8.510  0.2098  1.0223 -0.0628
 2893SOL    HW220139   1.142   3.447   8.574 -0.5907  0.2915  2.1303
 2894SOL     OW20140   2.923   2.988   6.108 -0.0807 -0.0249  0.0221
 2894SOL    HW120141   2.917   2.911   6.165 -0.8809  0.7247  0.9468
 2894SOL    HW220142   2.901   3.055   6.172 -1.7729 -1.2457  0.7423
 2895SOL     OW20143   1.910   0.050   0.252  0.3145 -0.1414  0.1334
 2895SOL    HW120144   1.897   0.012   0.165 -2.1134 -0.2117  0.5261
 2895SOL    HW220145   1.857   4.712   0.306  0.8245 -1.8022 -1.1775
 2896SOL     OW20146   1.507   2.259   4.859 -0.1302 -0.3112 -0.3639
 2896SOL    HW120147   1.587   2.216   4.827  0.1068 -0.8079  0.8894
 2896SOL    HW220148   1.436   2.227   4.803 -0.9041 -0.0600  0.4714
 2897SOL     OW20149   1.678   3.715   6.189 -0.7336 -0.0340  0.2074
 2897SOL    HW120150   1.769   3.732   6.162 -0.2545 -0.7881  1.3216
 2897SOL    HW220151   1.675   3.754   6.277  3.8804  0.8497  0.0184
 2898SOL     OW20152   1.086   4.447  13.697 -0.2770 -0.2453  0.0695
 2898SOL    HW120153   1.016   4.507  13.673  0.7115  0.5877 -0.7837
 2898SOL    HW220154   1.133   4.454  13.613 -0.9453 -1.1844 -0.3737
 2899SOL     OW20155   2.975   2.790   5.543 -0.2334 -0.1862 -0.2525
 2899SOL    HW120156   3.022   2.873   5.532  0.3075 -0.4103  0.3106
 2899SOL    HW220157   3.029   2.738   5.603  0.5027  1.8795  0.8538
 2900SOL     OW20158   0.995   2.901   8.904  0.6344 -0.0669 -0.1094
 2900SOL    HW120159   1.017   2.809   8.891  0.3245  0.2382 -2.7382
 2900SOL    HW220160   1.075   2.932   8.947  0.3735  1.0621 -0.4400
 2901SOL     OW20161   2.478   3.367  14.221  0.0220  0.0489  0.0196
 2901SOL    HW120162   2.398   3.337  14.265  0.8889  0.3410  1.8066
 2901SOL    HW220163   2.460   3.459  14.201  1.6763 -0.0511 -1.8964
 2902SOL     OW20164   4.123   0.940   1.245  0.5091  0.1488 -0.3790
 2902SOL    HW120165   4.033   0.913   1.263  0.7307  0.1807  0.7485
 2902SOL    HW220166   4.167   0.905   1.323 -0.2088  0.0216 -0.0357
 2903SOL     OW20167   0.336   2.629   2.651  0.2330  0.2379  0.1220
 2903SOL    HW120168   0.307   2.588   2.569 -2.1715 -1.9565  2.0834
 2903SOL    HW220169   0.260   2.654   2.703  1.6498  1.1639  1.7488
 2904SOL     OW20170   0.493   3.164  10.501 -0.3562 -0.5125  0.0944
 2904SOL    HW120171   0.493   3.104  10.427  0.3630 -0.4241  0.0162
 2904SOL    HW220172   0.430   3.126  10.563 -0.9745 -1.8539 -1.3508
 2905SOL     OW20173   0.673   2.961   7.097  0.4626 -0.2836 -0.2279
 2905SOL    HW120174   0.582   2.948   7.123  0.9090  0.9224  1.8861
 2905SOL    HW220175   0.666   3.050   7.063  1.0756  0.1593  0.8211
 2906SOL     OW20176   2.729   4.459   6.615  0.1885  0.0175 -0.3255
 2906SOL    HW120177   2.793   4.393   6.638 -1.6176 -1.3304  0.8035
 2906SOL    HW220178   2.774   4.541   6.636 -0.1892  0.4740 -1.3004
 2907SOL     OW20179   4.030   4.375   5.231 -0.1003 -0.8481  0.0652
 2907SOL    HW120180   4.029   4.447   5.295 -2.2933 -0.3792 -0.5001
 2907SOL    HW220181   4.097   4.326   5.280 -0.3695  0.4812  1.7678
 2908SOL     OW20182   0.178   1.423   9.693 -0.7107  0.1807 -0.2097
 2908SOL    HW120183   0.225   1.409   9.611 -2.2865  1.5643 -1.3492
 2908SOL    HW220184   0.191   1.518   9.700  1.1930  0.2498 -4.5582
 2909SOL     OW20185   2.115   0.001   3.830  0.4024  0.1107 -0.2111
 2909SOL    HW120186   2.171   4.706   3.754 -0.6454  1.4985 -1.2712
 2909SOL    HW220187   2.055   0.068   3.798 -2.1825 -0.8077  2.6974
 2910SOL     OW20188   2.253   0.524  14.759 -0.0033  0.3599  0.0418
 2910SOL    HW120189   2.203   0.443  14.755 -0.4064  0.5509  1.3151
 2910SOL    HW220190   2.340   0.502  14.724 -0.2020 -0.3818  0.0072
 2911SOL     OW20191   3.439   2.949   7.828  0.2058 -0.2467  0.2023
 2911SOL    HW120192   3.444   2.951   7.924  0.1289 -0.6634  0.2166
 2911SOL    HW220193   3.440   2.854   7.819  1.8674 -0.2091 -0.0045
 2912SOL     OW20194   3.723   1.630   6.483  0.2304 -0.4854  0.1941
 2912SOL    HW120195   3.780   1.597   6.552  0.3427  0.5622  0.5925
 2912SOL    HW220196   3.671   1.692   6.534  2.3491  0.7910  0.7776
 2913SOL     OW20197   0.702   2.231   4.645 -0.4419 -0.6409 -0.3474
 2913SOL    HW120198   0.638   2.249   4.576  0.8049  0.1131 -1.2983
 2913SOL    HW220199   0.766   2.189   4.588  0.1777 -0.8596  0.5131
 2914SOL     OW20200   1.666   1.029   3.176 -0.2573  0.2796  0.4615
 2914SOL    HW120201   1.618   0.970   3.234  2.1879 -1.8800  0.2771
 2914SOL    HW220202   1.733   0.966   3.148 -0.7592 -2.1046  4.6588
 2915SOL     OW20203   0.103   2.465  10.377  0.3593  0.4239  0.4227
 2915SOL    HW120204   0.129   2.475  10.285 -2.4538  0.0323 -0.4133
 2915SOL    HW220205   0.009   2.474  10.364  0.2195  1.4497  2.2537
 2916SOL     OW20206   3.193   2.936   7.626 -0.2368 -0.2886 -0.5428
 2916SOL    HW120207   3.134   2.912   7.697 -2.1546 -0.2894 -2.1043
 2916SOL    HW220208   3.282   2.932   7.659 -0.1838 -3.3151 -1.0069
 2917SOL     OW20209   3.709   1.626   8.150  0.3422 -0.6573 -0.2173
 2917SOL    HW120210   3.672   1.629   8.062 -1.1512 -1.2666  0.3948
 2917SOL    HW220211   3.761   1.707   8.150 -0.4476 -0.1540 -0.3829
 2918SOL     OW20212   2.120   3.691   7.909 -0.1256 -0.0352 -0.1813
 2918SOL    HW120213   2.159   3.679   7.996  0.7168  0.8627 -0.4369
 2918SOL    HW220214   2.133   3.784   7.891  1.1696 -0.0313  0.7794
 2919SOL     OW20215   2.142   2.348   2.206  0.1669 -0.2272 -0.1020
 2919SOL    HW120216   2.080   2.355   2.134  0.5454  0.0194 -0.3983
 2919SOL    HW220217   2.171   2.438   2.197 -0.1053 -0.2474 -1.2341
 2920SOL     OW20218   0.497   2.834  15.016 -1.0428  0.4703  0.3366
 2920SOL    HW120219   0.498   2.880  14.932  1.0586  1.3144  0.8030
 2920SOL    HW220220   0.592   2.835  15.027 -0.7513 -0.4132 -2.0492
 2921SOL     OW20221   4.476   0.973  11.014  0.6198  0.0402 -0.0190
 2921SOL    HW120222   4.471   1.022  11.096  2.3952 -1.8675  1.2192
 2921SOL    HW220223   4.401   0.915  11.024  2.4388 -2.3821 -0.5194
 2922SOL     OW20224   0.380   0.629   6.999 -0.0517  0.7035 -0.1929
 2922SOL    HW120225   0.430   0.571   6.941  0.6037  0.0781  0.9944
 2922SOL    HW220226   0.408   0.710   6.956  0.3455  0.5127 -0.2931
 2923SOL     OW20227   3.072   0.194   4.018 -0.2546 -0.1629 -0.3329
 2923SOL    HW120228   3.154   0.205   4.066 -1.4529 -1.2816  1.9833
 2923SOL    HW220229   3.083   0.101   3.997 -0.5845 -0.0390 -1.0428
 2924SOL     OW20230   0.107   3.794  12.587  0.0796 -0.1224  0.3838
 2924SOL    HW120231   0.174   3.750  12.534 -0.2423 -2.3513  1.8666
 2924SOL    HW220232   0.085   3.738  12.661 -0.1270  1.4015  1.4639
 2925SOL     OW20233   0.030   4.211   1.451 -0.4411  0.3449  0.5390
 2925SOL    HW120234   0.082   4.131   1.456 -0.8733  0.0283  0.0067
 2925SOL    HW220235   4.670   4.184   1.495 -0.9672 -0.7144 -1.0417
 2926SOL     OW20236   2.636   1.698   7.475 -0.3434  0.0622  0.5868
 2926SOL    HW120237   2.587   1.633   7.524  0.0136 -0.6794 -0.0315
 2926SOL    HW220238   2.598   1.691   7.387 -0.6153  0.0181  0.7073
 2927SOL     OW20239   0.400   1.987   1.784 -0.2732 -0.3077  0.2708
 2927SOL    HW120240   0.411   2.066   1.732  1.8579 -0.0829  1.0603
 2927SOL    HW220241   0.475   1.985   1.843 -0.8689 -0.5980  1.0177
 2928SOL     OW20242   4.696   1.626   6.284 -0.6191 -0.6159 -0.8640
 2928SOL    HW120243   4.630   1.694   6.276  1.4994  1.5668  0.1284
 2928SOL    HW220244   4.638   1.560   6.321  0.5206 -1.5444 -0.7015
 2929SOL     OW20245   4.517   1.253   4.921 -0.0027 -0.7429 -0.0115
 2929SOL    HW120246   4.611   1.270   4.922  0.0855 -1.2039 -0.4869
 2929SOL    HW220247   4.501   1.229   5.013 -1.0421  0.0771  0.0140
 2930SOL     OW20248   3.893   4.420   7.190 -0.6789  0.1590  0.6772
 2930SOL    HW120249   3.883   4.362   7.265 -0.2033 -2.8077 -1.5659
 2930SOL    HW220250   3.886   4.353   7.122  3.9446 -0.4669  0.8168
 2931SOL     OW20251   4.482   0.730   3.837 -0.3872 -0.2545  0.0705
 2931SOL    HW120252   4.490   0.822   3.812 -0.3079 -0.3730 -0.3504
 2931SOL    HW220253   4.395   0.729   3.876 -1.2832  1.1732 -1.8799
 2932SOL     OW20254   4.438   4.393   0.232  0.3078  1.0025  0.2682
 2932SOL    HW120255   4.393   4.312   0.207  1.9714  0.0368  0.4522
 2932SOL    HW220256   4.482   4.413   0.150  1.0702 -3.7503 -0.5070
 2933SOL     OW20257   0.946   1.207   9.247  0.0493 -0.2118  0.2283
 2933SOL    HW120258   1.010   1.232   9.181 -1.8986 -0.5941 -1.8292
 2933SOL    HW220259   0.926   1.115   9.234  0.4822 -0.5348  1.8908
 2934SOL     OW20260   2.352   2.158   6.107  0.6498  0.6333 -0.4484
 2934SOL    HW120261   2.332   2.156   6.201  0.5897 -2.5534 -0.5199
 2934SOL    HW220262   2.309   2.075   6.085 -1.2741  1.5849 -0.3258
 2935SOL     OW20263   0.600   2.648   1.950  0.1164  1.0474 -0.2460
 2935SOL    HW120264   0.613   2.730   1.998  1.8154  1.2244 -1.0217
 2935SOL    HW220265   0.533   2.671   1.886  2.7195  3.7137 -2.0508
 2936SOL     OW20266   1.689   1.247  15.165 -0.3918 -0.3560 -0.0206
 2936SOL    HW120267   1.704   1.314  15.231 -0.8901 -1.3788  1.1295
 2936SOL    HW220268   1.596   1.225  15.176 -0.2619 -1.0661 -0.2945
 2937SOL     OW20269   2.156   0.783   8.546 -0.1698 -0.2166  0.2076
 2937SOL    HW120270   2.060   0.788   8.547 -0.1985 -1.3345  2.3004
 2937SOL    HW220271   2.162   0.701   8.595  1.4476 -1.1524 -1.5734
 2938SOL     OW20272   0.996   0.852   6.859 -0.3671  0.2387 -0.1583
 2938SOL    HW120273   1.020   0.931   6.810 -0.7997 -1.0783 -2.4600
 2938SOL    HW220274   0.903   0.848   6.839 -0.7653 -0.5912  1.9164
 2939SOL     OW20275   2.493   0.723  12.605  0.0448  0.4412  0.5273
 2939SOL    HW120276   2.417   0.678  12.567 -1.3221  1.2449  2.3231
 2939SOL    HW220277   2.496   0.800  12.548  0.1722  0.7556  0.9588
 2940SOL     OW20278   0.843   2.643  15.928  0.4872  1.2388 -0.4447
 2940SOL    HW120279   0.849   2.667  15.836  1.4653  0.7354 -0.5134
 2940SOL    HW220280   0.773   2.695  15.966 -0.1425 -1.6225  2.3323
 2941SOL     OW20281   2.534   1.551   7.922  0.7842 -0.1838 -0.1767
 2941SOL    HW120282   2.500   1.585   8.005  1.8369 -2.0531  1.0097
 2941SOL    HW220283   2.622   1.585   7.907  0.6919  0.5674  0.9891
 2942SOL     OW20284   3.079   4.374   4.279 -0.8055  0.0445 -0.3985
 2942SOL    HW120285   3.137   4.419   4.341 -0.3654  1.5270 -1.8913
 2942SOL    HW220286   3.139   4.308   4.247  1.3119  1.9370 -0.3321
 2943SOL     OW20287   4.450   4.679   4.841  0.1018  0.8300 -0.0325
 2943SOL    HW120288   4.359   4.648   4.843  0.3147  0.2478  0.7344
 2943SOL    HW220289   4.446   0.032   4.780  0.8572  0.6198 -0.3229
 2944SOL     OW20290   3.344   2.988  13.613 -0.2192 -0.6100  0.3739
 2944SOL    HW120291   3.373   3.071  13.649 -1.5772 -0.1006  0.3149
 2944SOL    HW220292   3.423   2.958  13.569 -0.4150 -0.3202 -0.1857
 2945SOL     OW20293   4.548   3.365  11.628 -0.5498 -0.1730  0.4121
 2945SOL    HW120294   4.643   3.374  11.620 -0.5160 -0.7934  0.1163
 2945SOL    HW220295   4.510   3.447  11.661  1.3927  0.3779  1.2727
 2946SOL     OW20296   2.377   0.011  11.708 -0.1564 -0.3341  0.0669
 2946SOL    HW120297   2.351   0.044  11.794 -1.0271  0.9983 -0.7230
 2946SOL    HW220298   2.299   4.698  11.664 -0.7371 -0.1241  0.9356
 2947SOL     OW20299   2.105   3.265   5.088  0.6158  0.2516  0.2547
 2947SOL    HW120300   2.120   3.172   5.105  0.4396  0.4578  1.4649
 2947SOL    HW220301   2.178   3.271   5.026 -1.1025 -0.7902 -1.9131
 2948SOL     OW20302   4.306   1.719  10.746  0.0170 -0.6105  0.1380
 2948SOL    HW120303   4.242   1.648  10.754 -0.9937  0.4188  1.1712
 2948SOL    HW220304   4.372   1.665  10.702 -0.4101  0.1940 -1.5000
 2949SOL     OW20305   1.247   2.459   6.698  0.6196  0.1296  0.3980
 2949SOL    HW120306   1.223   2.374   6.733 -0.2772 -0.1977 -0.9921
 2949SOL    HW220307   1.161   2.501   6.694  0.9140  0.7163  0.0740
 2950SOL     OW20308   3.120   0.718  11.822 -0.7139  0.2215 -0.0366
 2950SOL    HW120309   3.188   0.652  11.813  1.3676  2.7064 -2.4607
 2950SOL    HW220310   3.061   0.691  11.752 -1.0871  0.9750 -0.0185
 2951SOL     OW20311   0.031   2.065   8.993  0.2748  0.6630 -0.3959
 2951SOL    HW120312   0.047   2.100   9.081 -2.1856 -1.0405  0.7177
 2951SOL    HW220313   0.021   1.970   9.001  0.5456  0.7298  0.6829
 2952SOL     OW20314   1.984   0.278   0.894 -0.3044  0.2909 -0.0210
 2952SOL    HW120315   2.042   0.204   0.877  1.2810  1.3423  0.7148
 2952SOL    HW220316   2.055   0.334   0.927 -0.4469 -0.7337  2.0238
 2953SOL     OW20317   2.065   0.798   2.510 -0.2266  0.1881  0.3262
 2953SOL    HW120318   2.130   0.757   2.453 -1.9122 -3.4127  0.9853
 2953SOL    HW220319   1.984   0.767   2.469  0.2786  0.7698 -1.0856
 2954SOL     OW20320   4.136   3.437  12.504 -0.5591  0.2195 -0.2908
 2954SOL    HW120321   4.213   3.465  12.456 -0.7878  0.7005 -0.3736
 2954SOL    HW220322   4.108   3.366  12.446 -2.6665  0.4391  0.4358
 2955SOL     OW20323   2.994   4.174   1.507 -0.4836  0.1675 -0.3376
 2955SOL    HW120324   3.003   4.200   1.416  2.2582 -2.2465 -0.7444
 2955SOL    HW220325   2.957   4.086   1.499 -1.0393  0.4488 -0.9155
 2956SOL     OW20326   3.866   2.575   6.430  0.3315  0.2257 -0.6079
 2956SOL    HW120327   3.779   2.615   6.429 -0.3242 -1.0798  1.5964
 2956SOL    HW220328   3.913   2.637   6.375  1.3678  1.8224  2.0574
 2957SOL     OW20329   0.002   3.306   5.320 -0.0498  0.3963  0.1158
 2957SOL    HW120330   0.078   3.364   5.321  0.1253  0.1194  1.8485
 2957SOL    HW220331   0.049   3.224   5.338  1.0789  0.9240 -0.4006
 2958SOL     OW20332   2.257   1.488  17.271 -0.3401 -0.4553  0.3033
 2958SOL    HW120333   2.246   1.478  17.177  0.9161  0.8440  0.0090
 2958SOL    HW220334   2.296   1.575  17.266  0.0756 -0.8057 -2.4911
 2959SOL     OW20335   3.717   2.253   1.472 -0.6598 -0.3102  0.2490
 2959SOL    HW120336   3.653   2.325   1.475 -0.3889 -0.1212  1.7083
 2959SOL    HW220337   3.783   2.299   1.419 -1.4975  1.2172  0.5245
 2960SOL     OW20338   2.911   2.838  14.471 -0.4889  0.3853  0.0726
 2960SOL    HW120339   2.908   2.928  14.438  0.8495 -0.0842 -1.3393
 2960SOL    HW220340   2.845   2.837  14.540  1.5120  0.5482  2.0007
 2961SOL     OW20341   4.342   1.972   2.377 -0.4975  0.2700  0.1185
 2961SOL    HW120342   4.251   1.999   2.389  0.0934  1.8892  0.8551
 2961SOL    HW220343   4.363   2.026   2.300  0.2853  0.7613  0.6842
 2962SOL     OW20344   2.873   2.840  12.161 -0.0917 -0.0784  0.0757
 2962SOL    HW120345   2.790   2.877  12.190 -0.7095  0.0821 -1.8838
 2962SOL    HW220346   2.936   2.886  12.217  1.1631 -0.9309 -0.6421
 2963SOL     OW20347   4.276   3.886   2.517 -0.2363  0.3043 -0.3196
 2963SOL    HW120348   4.299   3.916   2.429  1.1377 -0.5530 -0.2600
 2963SOL    HW220349   4.235   3.964   2.554  0.2091  0.6195 -0.4948
 2964SOL     OW20350   4.701   4.505   3.357  0.0815  0.4639  0.2930
 2964SOL    HW120351   4.704   4.545   3.270  1.9694 -1.3780 -0.5003
 2964SOL    HW220352   4.650   4.430   3.328  0.8810  0.5179 -1.2710
 2965SOL     OW20353   0.414   2.200  11.075 -0.2851  0.0134  0.5455
 2965SOL    HW120354   0.422   2.293  11.055 -1.8983 -0.2188 -1.1209
 2965SOL    HW220355   0.508   2.184  11.065 -0.9674 -2.9473 -1.1159
 2966SOL     OW20356   3.406   4.166   3.288 -0.3076  0.4077 -0.3413
 2966SOL    HW120357   3.331   4.226   3.283  0.8347  2.0115  1.7433
 2966SOL    HW220358   3.391   4.090   3.233 -0.9344  0.1149  0.2306
 2967SOL     OW20359   4.396   3.366   3.166  0.3300  0.2287  0.4851
 2967SOL    HW120360   4.416   3.403   3.251 -0.8618 -0.0991  0.9060
 2967SOL    HW220361   4.417   3.438   3.107 -0.4409 -1.0082 -1.3184
 2968SOL     OW20362   4.632   2.606   8.445 -0.2789  0.8118  0.3486
 2968SOL    HW120363   4.625   2.695   8.480  0.5868  1.0584 -0.1137
 2968SOL    HW220364   4.720   2.610   8.407  0.2791 -3.1853  1.2690
 2969SOL     OW20365   4.337   1.222   0.551 -0.1805  0.5096  0.0499
 2969SOL    HW120366   4.377   1.254   0.470 -3.0768  0.5793 -1.3366
 2969SOL    HW220367   4.267   1.162   0.525 -0.6156  1.0835 -0.1053
 2970SOL     OW20368   4.645   2.895   8.915  0.5174  0.2718  0.2427
 2970SOL    HW120369   4.703   2.937   8.851  0.0162 -0.0758 -0.4347
 2970SOL    HW220370   4.706   2.861   8.981  0.8208 -1.2254 -0.8152
 2971SOL     OW20371   2.396   0.234   8.770  0.7783  0.1645  0.0130
 2971SOL    HW120372   2.426   0.325   8.767  0.4099  0.2126 -2.6729
 2971SOL    HW220373   2.372   0.216   8.679 -0.8993  2.6682 -0.0393
 2972SOL     OW20374   1.007   2.217   5.616 -0.7738 -0.2559  0.0311
 2972SOL    HW120375   1.008   2.297   5.668 -0.6908  1.2255 -2.2560
 2972SOL    HW220376   0.939   2.169   5.662  0.5422 -1.3260  0.8797
 2973SOL     OW20377   1.710   2.929   2.724  0.2922  0.5817  0.1783
 2973SOL    HW120378   1.655   2.911   2.800  1.4940 -0.3741  0.8286
 2973SOL    HW220379   1.792   2.881   2.741 -0.7378 -0.3086  2.6484
 2974SOL     OW20380   4.429   1.230  10.545  0.6999 -0.4937  0.4028
 2974SOL    HW120381   4.507   1.274  10.512  0.9252 -0.9501  0.3324
 2974SOL    HW220382   4.462   1.197  10.628 -0.5292 -2.8545 -0.0382
 2975SOL     OW20383   2.572   4.024  16.965 -0.6629  0.1662  0.4181
 2975SOL    HW120384   2.653   4.012  16.917 -0.5994 -1.4279  0.9570
 2975SOL    HW220385   2.541   4.107  16.927 -4.2223 -0.8626  1.0776
 2976SOL     OW20386   2.743   3.351   5.297 -0.2763  0.2575 -0.0564
 2976SOL    HW120387   2.650   3.363   5.318 -0.9307  0.5142 -3.0712
 2976SOL    HW220388   2.746   3.351   5.201 -2.6310  0.9406 -0.1440
 2977SOL     OW20389   0.759   1.890  13.950  0.6026  0.1768  0.1013
 2977SOL    HW120390   0.827   1.908  14.014  1.9714  1.3720 -1.7101
 2977SOL    HW220391   0.753   1.795  13.961 -0.0562  0.1545 -0.3903
 2978SOL     OW20392   3.835   3.197  12.039 -0.0764  0.7442  0.0389
 2978SOL    HW120393   3.866   3.238  12.119  1.3302 -1.8707  0.8315
 2978SOL    HW220394   3.837   3.270  11.977  0.4466  0.6592 -0.0432
 2979SOL     OW20395   4.526   1.324  11.633 -0.1057 -0.0910  0.3546
 2979SOL    HW120396   4.454   1.265  11.654  0.2773 -0.2635  1.1500
 2979SOL    HW220397   4.564   1.259  11.574  0.5735  1.2944 -0.7408
 2980SOL     OW20398   3.863   2.224   3.832  0.1444  0.5645 -0.1647
 2980SOL    HW120399   3.887   2.198   3.921  0.4805  2.5059  0.3086
 2980SOL    HW220400   3.772   2.195   3.836 -0.0240  0.7746 -2.5882
 2981SOL     OW20401   0.396   0.866   2.502 -0.3861 -0.3321  0.1165
 2981SOL    HW120402   0.313   0.845   2.460  0.3464 -1.4173 -0.8122
 2981SOL    HW220403   0.455   0.884   2.429  0.8001  0.4700  1.2615
 2982SOL     OW20404   0.825   3.264   9.850 -0.1240  0.5118  0.5101
 2982SOL    HW120405   0.844   3.352   9.817  0.2872  0.0511 -0.4916
 2982SOL    HW220406   0.917   3.244   9.864  0.0521  1.7244  1.0108
 2983SOL     OW20407   0.490   4.244  16.786  0.3350 -0.1433  0.3595
 2983SOL    HW120408   0.501   4.262  16.879  1.8204 -1.3769  0.4310
 2983SOL    HW220409   0.513   4.327  16.742 -0.6931 -0.6189 -1.0759
 2984SOL     OW20410   1.655   0.089   5.364  0.2546  0.5979 -0.5711
 2984SOL    HW120411   1.631   0.093   5.272  0.2712  1.6360 -0.5301
 2984SOL    HW220412   1.709   0.011   5.374  0.8670  1.0266 -0.5658
 2985SOL     OW20413   0.068   3.195  11.792  0.7239 -0.8220 -0.3329
 2985SOL    HW120414   0.121   3.122  11.761 -0.5174 -1.8212 -0.1011
 2985SOL    HW220415   0.075   3.262  11.723  2.2633  0.8793  1.4717
 2986SOL     OW20416   0.864   4.073   0.918 -0.2545 -0.7358 -0.0336
 2986SOL    HW120417   0.945   4.024   0.902 -0.7588 -1.5007 -0.1796
 2986SOL    HW220418   0.833   4.028   0.996  0.5310 -2.8518 -0.9539
 2987SOL     OW20419   0.090   2.331  11.773  0.1029  0.4017  0.1818
 2987SOL    HW120420   0.180   2.327  11.741 -0.1004 -1.2549 -0.2063
 2987SOL    HW220421   0.091   2.379  11.855 -1.9345 -1.1762  1.1182
 2988SOL     OW20422   0.421   1.085  16.777  0.0891  0.1670  0.7936
 2988SOL    HW120423   0.514   1.096  16.756  0.0327  0.4787  0.6977
 2988SOL    HW220424   0.391   1.051  16.693  1.7746  0.7748 -0.0512
 2989SOL     OW20425   2.669   4.439   4.029 -0.4259  0.2690  0.1781
 2989SOL    HW120426   2.683   4.534   4.030  0.6330  0.1077  0.8400
 2989SOL    HW220427   2.590   4.435   3.975  0.0826 -0.6259 -0.4991
 2990SOL     OW20428   0.424   2.870   4.256  0.7158  0.0604 -0.2690
 2990SOL    HW120429   0.467   2.956   4.252 -0.7930  0.9316  2.0894
 2990SOL    HW220430   0.424   2.844   4.164 -0.1001 -1.1291  0.0680
 2991SOL     OW20431   1.997   3.726   1.568  0.0745 -0.0940 -0.2631
 2991SOL    HW120432   1.914   3.728   1.519  0.9211  1.3970 -1.6449
 2991SOL    HW220433   1.975   3.655   1.628 -0.0276  0.1270 -0.0366
 2992SOL     OW20434   3.330   2.617   3.956 -0.0578  0.0005 -0.3126
 2992SOL    HW120435   3.304   2.625   4.048  3.4795 -0.3412  0.7260
 2992SOL    HW220436   3.308   2.703   3.919 -2.3976 -0.0164  1.0591
 2993SOL     OW20437   0.659   2.229  10.657 -0.2561 -0.8639  0.7316
 2993SOL    HW120438   0.731   2.277  10.697  0.0462 -1.6622  1.1363
 2993SOL    HW220439   0.590   2.271  10.709 -0.5580 -0.3769 -0.0636
 2994SOL     OW20440   0.850   0.896   3.363  0.0605 -0.6329 -0.7331
 2994SOL    HW120441   0.785   0.883   3.432  0.7314 -2.8185 -0.5190
 2994SOL    HW220442   0.931   0.889   3.414 -0.0038  1.2321 -0.3853
 2995SOL     OW20443   4.592   3.972   1.188 -0.1998 -0.2255  0.4266
 2995SOL    HW120444   4.660   3.925   1.236  1.3116 -0.5562 -2.0471
 2995SOL    HW220445   4.638   4.029   1.127 -0.7016  0.3201  0.5620
 2996SOL     OW20446   3.154   3.544   6.025 -0.3795  0.3363  0.6972
 2996SOL    HW120447   3.081   3.496   6.063 -0.8768  2.0355  1.8931
 2996SOL    HW220448   3.148   3.635   6.055 -0.6324  0.3776  0.5289
 2997SOL     OW20449   0.062   1.221   7.323  0.6845 -0.4812  0.1747
 2997SOL    HW120450   0.150   1.207   7.287  0.2049 -1.0561 -0.7854
 2997SOL    HW220451   0.067   1.173   7.406 -0.9555 -1.5322 -0.3279
 2998SOL     OW20452   2.564   4.581   5.211  0.1750  0.3719  0.8017
 2998SOL    HW120453   2.555   4.487   5.196 -1.9426  0.8517 -0.9419
 2998SOL    HW220454   2.640   4.592   5.267 -0.7420  0.5896  2.0140
 2999SOL     OW20455   2.470   2.541   5.307  0.1699  0.2395  0.3265
 2999SOL    HW120456   2.432   2.572   5.225  0.1891  0.8505  0.5543
 2999SOL    HW220457   2.552   2.589   5.303  0.8044 -0.9208 -0.7844
 3000SOL     OW20458   0.750   4.061   7.563 -0.0611 -0.5147 -0.2737
 3000SOL    HW120459   0.792   3.975   7.553  0.0282 -0.6537  1.3144
 3000SOL    HW220460   0.731   4.054   7.657 -1.4783 -0.9019 -0.5941
 3001SOL     OW20461   1.006   0.565   7.884  0.0141 -0.1537 -0.0174
 3001SOL    HW120462   1.081   0.557   7.944 -0.8931  0.3301  1.1880
 3001SOL    HW220463   1.026   0.642   7.832  2.3228 -1.6691 -1.3632
 3002SOL     OW20464   0.621   1.616   3.588 -0.2921  0.0735  0.2130
 3002SOL    HW120465   0.631   1.692   3.532  3.0839 -0.3668  0.2102
 3002SOL    HW220466   0.577   1.554   3.529  0.1930  0.6106 -0.7099
 3003SOL     OW20467   1.573   0.791   3.655 -0.3333 -0.2611  0.5594
 3003SOL    HW120468   1.637   0.829   3.595 -1.0374  0.2848  0.1484
 3003SOL    HW220469   1.597   0.836   3.735 -1.2763  1.4177 -0.0858
 3004SOL     OW20470   0.718   0.482   9.595 -0.3690 -0.4676  0.3148
 3004SOL    HW120471   0.700   0.482   9.501  1.2358  1.9039  0.0138
 3004SOL    HW220472   0.743   0.574   9.598 -1.1746 -0.3239  2.3914
 3005SOL     OW20473   2.874   4.004  15.205  0.2192  0.8627  0.1251
 3005SOL    HW120474   2.878   3.971  15.115 -1.2294 -0.5772  0.5860
 3005SOL    HW220475   2.958   4.050  15.206  0.3794  0.5575  0.7311
 3006SOL     OW20476   0.694   0.340  11.041 -0.0510 -0.8016  0.0643
 3006SOL    HW120477   0.646   0.270  11.086 -0.2493  0.6042  2.0792
 3006SOL    HW220478   0.619   0.398  11.025 -0.4326 -1.3201 -0.0260
 3007SOL     OW20479   3.601   2.470  10.853 -0.0315 -0.1677  0.2032
 3007SOL    HW120480   3.575   2.445  10.764 -0.2305 -1.6960  0.6936
 3007SOL    HW220481   3.615   2.565  10.852 -1.2867  0.0027 -2.1216
 3008SOL     OW20482   3.300   1.423  14.768 -0.1178  0.0183 -0.0820
 3008SOL    HW120483   3.392   1.430  14.742  0.1711 -2.2998  0.3332
 3008SOL    HW220484   3.281   1.513  14.742 -0.1225  0.0072 -0.1179
 3009SOL     OW20485   1.653   4.434   2.691 -0.5169  0.5163 -0.2221
 3009SOL    HW120486   1.626   4.517   2.654  0.8807  0.4898 -1.3056
 3009SOL    HW220487   1.582   4.419   2.753 -0.3137  1.4129  0.2260
 3010SOL     OW20488   3.490   3.084   7.145 -0.1636  0.0579 -0.0876
 3010SOL    HW120489   3.498   3.172   7.182  1.0703  0.2398 -0.7820
 3010SOL    HW220490   3.573   3.074   7.099  0.7231 -0.3005  1.6194
 3011SOL     OW20491   0.748   1.522   3.191 -0.0747 -0.0304 -0.7820
 3011SOL    HW120492   0.679   1.475   3.238  0.6125 -0.6362 -0.3820
 3011SOL    HW220493   0.828   1.489   3.232 -2.6403 -2.7993  1.9633
 3012SOL     OW20494   4.566   1.626   1.802  0.1063  0.4081  0.5366
 3012SOL    HW120495   4.538   1.540   1.833 -0.5143 -0.0398 -1.2716
 3012SOL    HW220496   4.532   1.619   1.713  0.9607  1.9823  0.0830
 3013SOL     OW20497   4.367   1.918   9.142 -0.3204 -0.3491  0.0569
 3013SOL    HW120498   4.415   1.985   9.094 -1.0956 -0.0397 -0.3005
 3013SOL    HW220499   4.422   1.903   9.218  2.0050 -1.1941 -1.7889
 3014SOL     OW20500   3.952   0.763  14.086 -0.3279  0.3595  0.3715
 3014SOL    HW120501   3.991   0.817  14.155 -1.4064  0.8065  0.6282
 3014SOL    HW220502   3.983   0.809  14.008  0.2948 -0.3645  0.1853
 3015SOL     OW20503   0.579   2.384   7.880  0.5875 -0.2465  0.2375
 3015SOL    HW120504   0.533   2.443   7.821 -1.6726  0.8344  3.1207
 3015SOL    HW220505   0.664   2.429   7.890  0.0218  0.8501  0.1012
 3016SOL     OW20506   2.188   2.119   5.619 -0.0791  0.0294 -0.1719
 3016SOL    HW120507   2.260   2.060   5.637 -0.2976 -0.4673 -0.9304
 3016SOL    HW220508   2.239   2.180   5.565 -0.2443 -0.6586 -1.0981
 3017SOL     OW20509   0.112   3.896   7.927  0.0104 -0.0162 -0.1282
 3017SOL    HW120510   0.092   3.968   7.867  3.2127  2.1790  1.4007
 3017SOL    HW220511   0.091   3.825   7.867 -0.2240  1.0328 -1.2951
 3018SOL     OW20512   1.740   0.891   1.895 -0.2516  0.2573 -0.1417
 3018SOL    HW120513   1.648   0.916   1.892  0.0144  1.2838  0.0453
 3018SOL    HW220514   1.786   0.954   1.839  1.7570 -1.8725 -0.8977
 3019SOL     OW20515   2.636   2.499   1.319 -0.1427 -0.5463  0.2124
 3019SOL    HW120516   2.647   2.572   1.259 -1.6853  2.1542  3.2354
 3019SOL    HW220517   2.690   2.532   1.391  1.0669 -2.2851  0.1152
 3020SOL     OW20518   1.408   1.567   2.227  0.0576 -0.1602 -0.0258
 3020SOL    HW120519   1.326   1.597   2.187 -1.0930 -2.5720  0.5574
 3020SOL    HW220520   1.414   1.474   2.204  2.3983 -0.3515  1.3877
 3021SOL     OW20521   2.540   0.383   1.541 -0.6771 -0.1277 -0.7777
 3021SOL    HW120522   2.574   0.406   1.454  0.3900 -0.0123 -0.3269
 3021SOL    HW220523   2.621   0.342   1.570 -0.3924  0.5873 -0.5614
 3022SOL     OW20524   0.583   0.531  13.026  0.5896  0.2862 -0.4956
 3022SOL    HW120525   0.554   0.504  12.938  1.8799  0.2483 -0.9150
 3022SOL    HW220526   0.560   0.451  13.072  0.0564  1.7666  1.7816
 3023SOL     OW20527   1.190   0.240   2.429 -0.0671  0.1808  0.3227
 3023SOL    HW120528   1.155   0.236   2.340 -0.1268 -1.2084  0.4158
 3023SOL    HW220529   1.142   0.177   2.483 -1.0795 -0.8049 -1.7262
 3024SOL     OW20530   0.323   2.181   1.002  0.0738  0.0684 -0.1732
 3024SOL    HW120531   0.303   2.267   0.965 -0.9434  0.0306  0.2980
 3024SOL    HW220532   0.251   2.128   0.968  1.2309 -0.3056 -2.0570
 3025SOL     OW20533   0.593   3.618  10.621  0.1281  0.1942 -0.0337
 3025SOL    HW120534   0.529   3.685  10.597 -1.2712 -0.7026  1.1405
 3025SOL    HW220535   0.584   3.548  10.557  1.4788 -0.0706  0.0577
 3026SOL     OW20536   2.654   0.435   1.905  0.2353  0.2623  0.0258
 3026SOL    HW120537   2.737   0.403   1.942  0.1417  1.5740  1.3426
 3026SOL    HW220538   2.661   0.415   1.812 -2.4564 -1.9326  0.2791
 3027SOL     OW20539   1.336   3.235   8.040  0.5989  0.2988  0.1209
 3027SOL    HW120540   1.355   3.233   7.947  0.2207  2.0112  0.0039
 3027SOL    HW220541   1.418   3.217   8.085  0.7871  1.3033  0.1763
 3028SOL     OW20542   1.865   4.355   5.234 -0.1620 -0.3422 -0.3504
 3028SOL    HW120543   1.866   4.372   5.140  1.6505 -0.8917 -0.4381
 3028SOL    HW220544   1.876   4.261   5.241  0.9711 -0.2249 -0.5556
 3029SOL     OW20545   4.420   0.987   5.929 -0.3912 -0.4215  0.4006
 3029SOL    HW120546   4.444   1.010   5.839  2.0068 -1.4470  0.7841
 3029SOL    HW220547   4.464   0.902   5.931 -2.7591 -1.6758 -0.9830
 3030SOL     OW20548   4.519   2.251   7.305 -0.0382  0.6968  0.0377
 3030SOL    HW120549   4.486   2.166   7.275 -2.2208  1.8590 -0.8710
 3030SOL    HW220550   4.445   2.280   7.358 -1.5297 -0.6655 -1.2718
 3031SOL     OW20551   0.672   3.608   3.475 -0.0581 -0.2943  0.0212
 3031SOL    HW120552   0.659   3.532   3.418 -3.0373  1.2368 -1.3350
 3031SOL    HW220553   0.755   3.584   3.516  0.9689 -0.3507 -2.0826
 3032SOL     OW20554   2.261   4.637  11.223  0.1175 -0.3489  0.6815
 3032SOL    HW120555   2.291   0.003  11.195  0.5797 -0.4260  0.9257
 3032SOL    HW220556   2.272   4.587  11.142  2.5799  1.6685 -0.2395
 3033SOL     OW20557   2.461   1.677  11.928 -0.0203 -0.1742  0.5145
 3033SOL    HW120558   2.497   1.731  11.857  2.5288 -0.5281  1.5448
 3033SOL    HW220559   2.368   1.674  11.906  0.4820  0.2654 -1.6435
 3034SOL     OW20560   2.515   4.711   0.703  0.1896  0.4030 -0.3878
 3034SOL    HW120561   2.573   0.011   0.630 -2.3984  0.3108 -2.4671
 3034SOL    HW220562   2.471   4.636   0.662  0.9856 -0.3358  0.1025
 3035SOL     OW20563   3.105   4.539  12.635  0.5707 -0.1606  0.5133
 3035SOL    HW120564   3.079   4.483  12.561  1.4010 -1.4656  1.2020
 3035SOL    HW220565   3.180   4.580  12.593  2.1786 -1.4701  2.1466
 3036SOL     OW20566   1.129   1.035   8.409  0.0735  0.4914 -0.0785
 3036SOL    HW120567   1.189   1.073   8.344  0.6812  2.8013  1.8213
 3036SOL    HW220568   1.083   0.969   8.357 -0.7152  0.8420  0.1725
 3037SOL     OW20569   0.020   1.707  15.884  0.1201  0.1723 -0.4849
 3037SOL    HW120570   0.065   1.789  15.864  2.7784 -0.8318  1.3611
 3037SOL    HW220571   4.681   1.705  15.809 -1.4686 -1.4946  0.8198
 3038SOL     OW20572   0.002   2.525  16.858 -0.5725 -0.0201  0.2085
 3038SOL    HW120573   4.635   2.552  16.884 -1.2328  0.4579 -2.4877
 3038SOL    HW220574   4.712   2.445  16.806  0.8865 -1.2549  1.8073
 3039SOL     OW20575   2.534   0.099   2.675 -0.3474 -0.2318 -0.6344
 3039SOL    HW120576   2.504   0.106   2.766  2.6268 -2.2892  0.5069
 3039SOL    HW220577   2.486   0.166   2.627  1.4696  0.8506 -0.9152
 3040SOL     OW20578   1.307   1.623   4.390  0.4658  0.5799  0.1532
 3040SOL    HW120579   1.263   1.545   4.356  1.3526 -0.0109  0.3800
 3040SOL    HW220580   1.330   1.577   4.471 -1.1118 -1.7975 -0.7665
 3041SOL     OW20581   3.595   1.932  14.863  0.2540  0.2078 -0.2735
 3041SOL    HW120582   3.591   1.930  14.768 -2.8340 -0.8317 -0.1262
 3041SOL    HW220583   3.670   1.991  14.869  1.4678 -1.6951  3.2528
 3042SOL     OW20584   2.524   0.511   3.034 -0.0124 -0.1132  0.0178
 3042SOL    HW120585   2.442   0.519   2.986  0.5463 -0.9353 -1.0743
 3042SOL    HW220586   2.520   0.586   3.094  1.2593 -1.6849  2.0763
 3043SOL     OW20587   3.271   2.353   7.586  0.2893  1.0381 -0.2042
 3043SOL    HW120588   3.342   2.413   7.567 -1.5865  2.7716 -1.7209
 3043SOL    HW220589   3.215   2.378   7.513 -1.5548 -0.8445  0.5507
 3044SOL     OW20590   3.616   1.578   6.105  0.2716 -0.0190 -0.2085
 3044SOL    HW120591   3.616   1.640   6.178 -1.0856 -0.5053  0.2105
 3044SOL    HW220592   3.605   1.493   6.148  3.1353 -0.8933 -1.1795
 3045SOL     OW20593   2.221   4.178   3.992  0.0588 -0.1673 -0.1294
 3045SOL    HW120594   2.249   4.226   3.914  0.4460 -0.9606 -0.4693
 3045SOL    HW220595   2.126   4.177   3.978 -0.1615 -0.4535  1.3679
 3046SOL     OW20596   1.002   2.576   6.690 -0.1614  0.4450  0.0428
 3046SOL    HW120597   0.950   2.629   6.751  1.3227  0.2905  1.4437
 3046SOL    HW220598   0.932   2.528   6.646  0.9223 -1.5833  0.5660
 3047SOL     OW20599   4.380   0.136   9.149 -0.0589 -0.1860 -0.0807
 3047SOL    HW120600   4.459   0.185   9.125  0.7573 -1.4502  0.0315
 3047SOL    HW220601   4.419   0.089   9.224 -1.1185 -1.0723 -0.0847
 3048SOL     OW20602   4.518   1.785  14.486  0.0651 -0.0422  0.0078
 3048SOL    HW120603   4.543   1.693  14.492  1.5406  0.3109 -0.7647
 3048SOL    HW220604   4.439   1.786  14.432  0.2888 -1.4977 -0.3457
 3049SOL     OW20605   4.630   4.701   9.764  0.8401 -0.8595 -0.4187
 3049SOL    HW120606   4.643   0.025   9.848 -3.2478  1.5928 -1.1002
 3049SOL    HW220607   4.630   4.610   9.793  1.2744 -0.3559  1.1539
 3050SOL     OW20608   3.956   0.377  10.493 -0.1712  0.1498 -0.2068
 3050SOL    HW120609   3.935   0.317  10.564 -2.0993  1.1318  0.0699
 3050SOL    HW220610   3.891   0.345  10.431 -0.6332  0.4509  0.1173
 3051SOL     OW20611   2.808   3.962  11.015 -0.4360  0.6698 -0.8857
 3051SOL    HW120612   2.901   3.958  10.994 -0.0608  1.6305  0.6231
 3051SOL    HW220613   2.766   3.955  10.929 -1.5542  0.2525 -0.3170
 3052SOL     OW20614   1.410   1.126   5.235 -0.3135  0.6352  0.0045
 3052SOL    HW120615   1.332   1.139   5.182 -0.0831 -2.2673 -1.0193
 3052SOL    HW220616   1.374   1.161   5.317  0.9548  0.8919  0.4685
 3053SOL     OW20617   0.470   3.902   2.084 -0.0253 -0.0520  0.1009
 3053SOL    HW120618   0.455   3.868   1.996 -1.2785 -0.3516  0.4323
 3053SOL    HW220619   0.524   3.830   2.118  1.5055 -0.4228 -3.1584
 3054SOL     OW20620   4.060   3.310   8.766 -0.4528 -0.7464  0.2977
 3054SOL    HW120621   4.136   3.263   8.731  0.2973  1.1498 -0.5986
 3054SOL    HW220622   4.107   3.366   8.827  0.8474 -0.6351 -0.8099
 3055SOL     OW20623   3.789   1.792   5.436  0.2039  0.2083 -0.1618
 3055SOL    HW120624   3.791   1.777   5.530 -1.4565  1.1863  0.0441
 3055SOL    HW220625   3.848   1.867   5.429  0.6520 -0.0796  0.5286
 3056SOL     OW20626   1.959   0.350  10.337  0.3994 -0.1585  0.0064
 3056SOL    HW120627   1.997   0.278  10.286  2.4059  1.9379 -1.4469
 3056SOL    HW220628   1.942   0.306  10.421  1.0856 -1.4950 -0.5574
 3057SOL     OW20629   1.963   0.501   9.357 -0.0152 -0.3768 -0.2134
 3057SOL    HW120630   1.972   0.515   9.451  1.3555  4.4150 -1.0630
 3057SOL    HW220631   1.964   0.405   9.354  1.3440 -0.4461  2.1170
 3058SOL     OW20632   0.278   0.406   9.128 -0.5893 -0.0166  0.2756
 3058SOL    HW120633   0.294   0.482   9.073  0.2802  0.7239  1.5617
 3058SOL    HW220634   0.211   0.360   9.078 -1.3297  2.6468 -1.1605
 3059SOL     OW20635   3.607   0.666   5.334 -0.8457  0.0942  0.0416
 3059SOL    HW120636   3.516   0.694   5.325 -1.1405 -0.6732  0.5865
 3059SOL    HW220637   3.652   0.750   5.333 -1.2423  0.2891 -1.1825
 3060SOL     OW20638   1.529   4.540  14.607  0.2853 -0.0731 -0.1680
 3060SOL    HW120639   1.435   4.524  14.604 -0.1374  2.9510 -2.3749
 3060SOL    HW220640   1.556   4.470  14.666 -4.2862 -1.7183 -0.0369
 3061SOL     OW20641   1.060   0.210   6.763  0.2008 -0.0152  0.8650
 3061SOL    HW120642   1.114   0.132   6.774  1.8527  0.9983  0.0190
 3061SOL    HW220643   1.068   0.244   6.852  0.2795 -0.2070  0.9312
 3062SOL     OW20644   4.683   4.631   9.504  0.6969 -0.2758  0.0391
 3062SOL    HW120645   0.007   4.553   9.536  0.2881 -0.3041  0.5369
 3062SOL    HW220646   4.663   4.673   9.588  3.0750  1.0286 -0.0578
 3063SOL     OW20647   3.784   2.342   6.533  0.3992  0.1830 -0.3620
 3063SOL    HW120648   3.837   2.413   6.495  0.8240  0.8391  1.4313
 3063SOL    HW220649   3.713   2.390   6.575  2.4246  0.3761  2.9019
 3064SOL     OW20650   3.692   4.672   6.634 -0.2182  0.6721 -0.3612
 3064SOL    HW120651   3.757   4.615   6.675 -0.2795 -0.7091 -2.1673
 3064SOL    HW220652   3.643   4.711   6.707  0.4453 -0.1829  0.5488
 3065SOL     OW20653   1.132   1.121  16.454  0.1703  0.5890  0.4422
 3065SOL    HW120654   1.071   1.096  16.523 -1.3552 -1.9512 -1.8100
 3065SOL    HW220655   1.180   1.182  16.510  0.5298  1.4835 -0.8505
 3066SOL     OW20656   0.712   0.580  16.737  0.5937 -0.1902  0.0940
 3066SOL    HW120657   0.742   0.583  16.827  1.2851  1.0368 -0.1792
 3066SOL    HW220658   0.668   0.664  16.745  0.5491 -0.1120 -0.9483
 3067SOL     OW20659   1.367   0.869   3.188 -0.5275  0.3898 -0.6085
 3067SOL    HW120660   1.388   0.776   3.200  1.6107  0.7853 -1.2321
 3067SOL    HW220661   1.346   0.878   3.095 -1.6933  0.0611 -0.3736
 3068SOL     OW20662   4.034   4.001  13.107  0.2477  0.8580  0.2576
 3068SOL    HW120663   4.050   4.092  13.131  0.4380  0.7211  0.6504
 3068SOL    HW220664   4.049   3.995  13.013 -1.3337  1.9848 -0.0683
 3069SOL     OW20665   2.083   4.334  10.883 -0.1771 -0.0516 -0.1166
 3069SOL    HW120666   2.030   4.345  10.804 -0.6166  0.2174  0.2116
 3069SOL    HW220667   2.032   4.269  10.932 -0.1542  1.2686  1.6814
 3070SOL     OW20668   2.388   0.251   2.417  0.3657  0.3771  0.1392
 3070SOL    HW120669   2.448   0.313   2.377  0.9888 -0.4980 -0.2711
 3070SOL    HW220670   2.401   0.163   2.381  2.2756 -0.4473  2.9239
 3071SOL     OW20671   1.666   1.520   7.274 -0.3393 -0.0281 -0.3545
 3071SOL    HW120672   1.689   1.436   7.237  0.0682  0.4011 -1.0637
 3071SOL    HW220673   1.637   1.498   7.363  0.0522  0.8465 -0.0116
 3072SOL     OW20674   4.564   3.856   7.192  1.0621  0.2077 -0.0271
 3072SOL    HW120675   4.513   3.887   7.266 -0.1690 -0.5509 -0.5535
 3072SOL    HW220676   4.651   3.845   7.230  0.4875 -1.0396  0.8909
 3073SOL     OW20677   2.631   1.311   9.349 -0.4474 -1.1279  0.3429
 3073SOL    HW120678   2.697   1.340   9.285 -0.7476  0.7028  0.8752
 3073SOL    HW220679   2.662   1.221   9.365 -4.1331 -2.6066 -0.8314
 3074SOL     OW20680   1.368   1.322   0.436  0.5534 -0.0875  0.9386
 3074SOL    HW120681   1.351   1.305   0.343  2.3155 -2.5138  1.0543
 3074SOL    HW220682   1.296   1.374   0.471 -0.0343  0.5937 -1.2502
 3075SOL     OW20683   1.633   1.471   1.029 -0.6548 -0.2355 -0.1128
 3075SOL    HW120684   1.592   1.501   1.110 -0.5708  3.0368 -1.2683
 3075SOL    HW220685   1.718   1.512   1.040 -0.8421 -0.1338  0.9472
 3076SOL     OW20686   1.013   2.605  12.657 -0.0954  0.1527  0.5990
 3076SOL    HW120687   1.045   2.644  12.575  1.6069 -1.2444  0.6026
 3076SOL    HW220688   1.026   2.514  12.633  0.9842  0.4826 -0.0851
 3077SOL     OW20689   0.048   2.802  13.183  0.3368  0.3583 -0.1025
 3077SOL    HW120690   0.019   2.722  13.227  0.3005  2.2165  3.3103
 3077SOL    HW220691   0.064   2.854  13.262 -1.6931  1.3629 -0.3497
 3078SOL     OW20692   3.928   2.249   4.135  0.5418  0.8755 -0.4514
 3078SOL    HW120693   3.997   2.245   4.201 -0.6395 -1.5012  0.6412
 3078SOL    HW220694   3.880   2.166   4.140 -1.4440  2.0113 -0.4124
 3079SOL     OW20695   1.627   1.154   0.130  0.2470  0.1766  0.1121
 3079SOL    HW120696   1.540   1.153   0.090  0.7374 -0.1907 -0.9557
 3079SOL    HW220697   1.677   1.104   0.064 -0.7695 -6.1170  4.1091
 3080SOL     OW20698   2.914   0.354   8.538  0.1099 -0.2390  0.5639
 3080SOL    HW120699   3.007   0.359   8.559  1.1737 -1.6405 -3.7826
 3080SOL    HW220700   2.890   0.431   8.486 -1.1542 -1.2828 -0.4194
 3081SOL     OW20701   1.932   1.108   4.846 -0.0858 -0.3577  0.6277
 3081SOL    HW120702   1.919   1.178   4.783 -1.9717 -0.9084  0.4087
 3081SOL    HW220703   1.909   1.156   4.926 -0.2081 -1.3471  1.1895
 3082SOL     OW20704   1.145   0.432   6.928  0.2986 -0.0742  0.3031
 3082SOL    HW120705   1.187   0.474   7.003  1.5347  1.4592 -1.2784
 3082SOL    HW220706   1.059   0.475   6.928 -0.0819 -0.8543 -2.6576
 3083SOL     OW20707   1.098   3.102   7.851  1.0926 -0.0359  0.0255
 3083SOL    HW120708   1.178   3.055   7.829  2.8043  2.1774  1.6445
 3083SOL    HW220709   1.117   3.130   7.940  1.0545 -1.5390  0.5153
 3084SOL     OW20710   1.240   3.531   9.511  0.4732  0.3464  0.6953
 3084SOL    HW120711   1.241   3.626   9.522 -3.0301  0.5523 -0.8216
 3084SOL    HW220712   1.195   3.502   9.590  1.9701  0.2881  1.5218
 3085SOL     OW20713   1.073   3.353   5.146  0.6611  0.1370 -0.1760
 3085SOL    HW120714   1.098   3.402   5.067 -1.3295  0.3581 -0.6771
 3085SOL    HW220715   1.009   3.290   5.113  1.2365  0.0851 -1.1987
 3086SOL     OW20716   2.651   2.916  12.294 -0.3507 -0.3546 -0.2498
 3086SOL    HW120717   2.585   2.984  12.301 -0.0343 -0.3968  3.0381
 3086SOL    HW220718   2.618   2.845  12.349  0.6154 -0.4609  0.1966
 3087SOL     OW20719   2.644   0.979   1.605 -0.2669 -0.0447  0.4369
 3087SOL    HW120720   2.661   1.073   1.596  0.5019 -0.2543 -0.3365
 3087SOL    HW220721   2.648   0.943   1.517 -0.4384  1.7713 -0.3228
 3088SOL     OW20722   3.726   2.863   3.613  0.0928 -0.5855 -0.4382
 3088SOL    HW120723   3.735   2.949   3.573 -1.6639  0.1465  0.7371
 3088SOL    HW220724   3.772   2.813   3.545  1.6446 -3.9597  3.0819
 3089SOL     OW20725   0.481   4.110   7.453 -0.5768  0.9094  0.9751
 3089SOL    HW120726   0.569   4.125   7.488  0.1249  1.6916 -1.1406
 3089SOL    HW220727   0.449   4.197   7.430 -0.8602  1.0980  2.0734
 3090SOL     OW20728   1.205   4.542   9.611  0.6961  0.6604  0.3086
 3090SOL    HW120729   1.285   4.491   9.600  0.6353  0.6803 -0.2131
 3090SOL    HW220730   1.240   4.628   9.588 -0.1102 -0.1141 -3.6919
 3091SOL     OW20731   2.512   3.341  15.191  0.3615 -0.5058 -0.6423
 3091SOL    HW120732   2.533   3.360  15.283  0.2070  0.2227 -0.7588
 3091SOL    HW220733   2.540   3.417  15.141 -0.1639 -1.2983 -2.1403
 3092SOL     OW20734   4.020   2.700   0.708  0.6252 -0.6543  0.3163
 3092SOL    HW120735   3.961   2.647   0.762  1.8405 -0.2980  1.9945
 3092SOL    HW220736   3.979   2.697   0.621 -0.0733  0.5595  0.6007
 3093SOL     OW20737   3.586   1.304   5.856  0.1742  0.0888  0.2710
 3093SOL    HW120738   3.610   1.397   5.853 -0.3881  0.2219 -0.1007
 3093SOL    HW220739   3.505   1.313   5.907  1.4701 -1.8900  2.6541
 3094SOL     OW20740   4.143   0.848   6.986  0.0561 -0.3557  0.4824
 3094SOL    HW120741   4.236   0.873   6.985  0.2815 -1.2656 -1.2407
 3094SOL    HW220742   4.122   0.899   7.064 -0.1333  0.5523 -0.1597
 3095SOL     OW20743   2.588   2.897   8.400 -0.2827  0.4913 -0.0888
 3095SOL    HW120744   2.621   2.968   8.344 -1.7751 -1.8435 -3.8762
 3095SOL    HW220745   2.496   2.923   8.408 -0.4104  0.2570 -0.7838
 3096SOL     OW20746   4.225   1.777  17.234 -0.0135 -0.1083 -0.1490
 3096SOL    HW120747   4.170   1.738  17.166 -0.9527 -0.9260  1.1023
 3096SOL    HW220748   4.215   1.868  17.205  3.2749  0.8012  1.5391
 3097SOL     OW20749   4.379   1.741  11.966 -0.7143  0.2402  0.3532
 3097SOL    HW120750   4.458   1.722  12.016  0.1251 -1.2014 -1.4878
 3097SOL    HW220751   4.327   1.769  12.041  1.8334  0.6373  1.9410
 3098SOL     OW20752   1.795   1.871   3.583 -0.0630 -0.5044  0.3373
 3098SOL    HW120753   1.720   1.911   3.625 -0.2421  0.0046 -0.4784
 3098SOL    HW220754   1.849   1.834   3.654  4.8970  0.4560 -2.9112
 3099SOL     OW20755   1.849   1.027   6.064  0.6505  0.0536  0.3909
 3099SOL    HW120756   1.875   0.939   6.093  1.4445 -0.1832 -1.0272
 3099SOL    HW220757   1.867   1.086   6.138 -0.9572 -0.5649  1.2817
 3100SOL     OW20758   2.606   1.667  10.040  0.1354  0.0026  0.2282
 3100SOL    HW120759   2.530   1.609  10.032 -0.2261  0.5894 -0.5570
 3100SOL    HW220760   2.568   1.754  10.030 -0.3231 -0.0360  1.6185
 3101SOL     OW20761   4.247   3.952   8.455 -0.3258  0.3647  0.1422
 3101SOL    HW120762   4.196   3.978   8.532 -0.8281  0.3507 -0.1863
 3101SOL    HW220763   4.249   4.032   8.402  0.0990 -0.2903 -0.8402
 3102SOL     OW20764   4.003   1.200   1.924 -0.1687 -0.2914 -0.6368
 3102SOL    HW120765   3.951   1.121   1.937 -0.6448  0.2245  0.6570
 3102SOL    HW220766   3.935   1.252   1.881 -2.1573 -0.1974  2.5884
 3103SOL     OW20767   0.706   3.276   3.654  0.1271  0.1691 -0.2873
 3103SOL    HW120768   0.670   3.233   3.577  3.6585 -0.7234 -1.4658
 3103SOL    HW220769   0.656   3.223   3.716  0.5293  1.5739  1.2507
 3104SOL     OW20770   3.749   2.459   3.986 -0.3207 -0.5557 -0.5094
 3104SOL    HW120771   3.751   2.384   4.045  2.2500  0.5298  0.7587
 3104SOL    HW220772   3.689   2.429   3.917  0.3594  0.1140 -1.4036
 3105SOL     OW20773   1.089   3.503  17.482  0.2735  0.5511 -0.4387
 3105SOL    HW120774   1.063   3.540  17.566 -2.1004 -1.0910 -0.4739
 3105SOL    HW220775   1.011   3.516  17.428  0.0845 -0.9469 -0.5060
 3106SOL     OW20776   1.840   1.636   2.780  0.1984  0.9036 -0.1060
 3106SOL    HW120777   1.900   1.608   2.849 -1.6482 -2.5175  0.1337
 3106SOL    HW220778   1.833   1.729   2.801  2.0154  0.4427  2.6200
 3107SOL     OW20779   1.937   3.553   1.740 -0.0459  0.6215 -0.2489
 3107SOL    HW120780   1.990   3.476   1.717  0.1407  0.1362  1.8187
 3107SOL    HW220781   1.870   3.514   1.796 -0.3532  2.0417  0.3814
 3108SOL     OW20782   1.341   0.900   7.772  0.3772  0.0674 -0.1305
 3108SOL    HW120783   1.276   0.893   7.702 -0.1500 -0.0663  0.3778
 3108SOL    HW220784   1.386   0.980   7.746  2.2371 -0.4871  1.3802
 3109SOL     OW20785   0.181   1.810  12.841  0.0699 -0.3743 -0.1767
 3109SOL    HW120786   0.106   1.864  12.818 -1.2563 -1.2936  2.0110
 3109SOL    HW220787   0.160   1.726  12.799 -4.5829  0.1710  1.0689
 3110SOL     OW20788   0.279   0.577  10.543 -0.6402 -0.0556  0.3404
 3110SOL    HW120789   0.184   0.583  10.541 -0.5174  0.8801 -2.5019
 3110SOL    HW220790   0.301   0.649  10.603 -0.4779  0.8913 -0.8458
 3111SOL     OW20791   3.732   0.924   5.327 -0.1279  0.0709  0.0823
 3111SOL    HW120792   3.698   1.009   5.299 -1.6479 -1.1116 -1.5882
 3111SOL    HW220793   3.811   0.915   5.275 -1.1377 -0.2206 -1.3825
 3112SOL     OW20794   1.629   3.351   5.114  0.0848  0.3331 -0.1564
 3112SOL    HW120795   1.612   3.403   5.193 -0.7819 -0.5073  0.2124
 3112SOL    HW220796   1.550   3.297   5.121 -0.7552  1.7527  1.1322
 3113SOL     OW20797   0.162   0.368   3.072 -0.2735  0.2011  0.2358
 3113SOL    HW120798   0.118   0.374   3.157  0.3522  0.8966  0.5120
 3113SOL    HW220799   0.236   0.311   3.095  0.2579  0.7391 -0.1256
 3114SOL     OW20800   4.400   3.301   3.575 -0.2770  0.0135  0.5328
 3114SOL    HW120801   4.462   3.287   3.647 -0.3845 -3.1130  0.0065
 3114SOL    HW220802   4.350   3.219   3.578  1.3431 -0.9728  0.3018
 3115SOL     OW20803   3.556   0.061   2.729 -0.0330  0.0145 -0.2494
 3115SOL    HW120804   3.490   0.125   2.702  2.0244  3.0766  2.0863
 3115SOL    HW220805   3.604   0.049   2.648  1.0838 -0.9296  0.5488
 3116SOL     OW20806   2.954   4.316   3.641 -0.1741 -0.2487 -0.5945
 3116SOL    HW120807   3.005   4.253   3.590 -2.3037 -3.3605  1.0671
 3116SOL    HW220808   3.004   4.314   3.723 -1.9776 -0.6782  0.5014
 3117SOL     OW20809   1.577   3.704   8.494 -0.1132 -0.2976 -0.4046
 3117SOL    HW120810   1.532   3.781   8.457 -0.7313 -0.5975 -0.2647
 3117SOL    HW220811   1.657   3.745   8.525 -0.0575 -0.9860  0.3317
 3118SOL     OW20812   0.931   1.628  16.008  0.5789  0.4546 -0.3042
 3118SOL    HW120813   0.905   1.601  16.096 -0.5011 -2.8960 -1.6333
 3118SOL    HW220814   0.858   1.589  15.958 -1.4942  0.8109  2.4588
 3119SOL     OW20815   2.647   1.447  12.530 -0.1374  1.1158 -0.1434
 3119SOL    HW120816   2.572   1.399  12.567  0.7659 -0.2327 -0.0762
 3119SOL    HW220817   2.608   1.514  12.474 -1.3054  0.3787 -0.2269
 3120SOL     OW20818   0.317   1.540  15.108  0.8707 -0.4175 -0.1489
 3120SOL    HW120819   0.293   1.586  15.028 -0.9615 -1.2141 -0.0572
 3120SOL    HW220820   0.319   1.449  15.081 -1.6588  0.0840 -2.0445
 3121SOL     OW20821   1.586   1.990  16.727  0.2945  0.2581 -0.3115
 3121SOL    HW120822   1.645   2.008  16.654  1.2042  0.8116  0.5558
 3121SOL    HW220823   1.573   2.077  16.766 -0.3467  0.3628 -0.7534
 3122SOL     OW20824   4.472   1.005   6.536  0.2563 -0.6137  0.2449
 3122SOL    HW120825   4.426   0.939   6.484  0.1493 -0.8761  0.6739
 3122SOL    HW220826   4.539   1.029   6.472  0.9537 -2.6563  0.1966
 3123SOL     OW20827   4.494   1.306   0.345 -0.1072  0.2613 -0.5100
 3123SOL    HW120828   4.581   1.294   0.383  1.1070  1.3275 -2.9652
 3123SOL    HW220829   4.520   1.346   0.262 -1.2734  1.2424 -0.4027
 3124SOL     OW20830   0.148   0.335   4.678 -0.0549 -0.3075  0.8307
 3124SOL    HW120831   0.109   0.408   4.727 -0.9271 -1.2680  1.5756
 3124SOL    HW220832   0.080   0.268   4.684  1.3119 -1.7379  0.4089
 3125SOL     OW20833   3.570   2.305  10.308 -0.2833 -0.2113 -0.2552
 3125SOL    HW120834   3.664   2.299  10.327  0.3276 -0.4852 -3.3427
 3125SOL    HW220835   3.561   2.400  10.306  0.2262 -0.1230  1.2223
 3126SOL     OW20836   4.035   2.773   6.297 -0.0346 -0.1134 -0.5928
 3126SOL    HW120837   4.023   2.861   6.331 -0.8117 -0.7331  0.7185
 3126SOL    HW220838   3.958   2.770   6.240  0.8714 -0.4695 -1.8161
 3127SOL     OW20839   0.793   4.504   3.458 -0.7001 -0.3488  0.0633
 3127SOL    HW120840   0.725   4.569   3.442 -0.7159 -0.3945 -0.0572
 3127SOL    HW220841   0.789   4.446   3.382 -0.5321 -0.4338  0.1209
 3128SOL     OW20842   0.549   4.513  16.734  0.0081 -0.4273 -0.1701
 3128SOL    HW120843   0.565   4.607  16.727  0.4386 -0.4444  0.6468
 3128SOL    HW220844   0.457   4.518  16.760 -0.0983  3.3038 -1.3705
 3129SOL     OW20845   0.645   2.010   7.358  0.5405  0.5890  0.0721
 3129SOL    HW120846   0.729   2.001   7.402  0.3446 -0.1220  0.2987
 3129SOL    HW220847   0.665   2.077   7.291  2.3937  1.1188  1.1593
 3130SOL     OW20848   3.625   2.855   4.411  0.1871 -0.3815 -0.2228
 3130SOL    HW120849   3.562   2.924   4.390  1.9512  0.9671 -1.0942
 3130SOL    HW220850   3.566   2.780   4.399 -2.0215  1.1636  0.9182
 3131SOL     OW20851   2.377   3.732   8.856  0.0827 -0.2884  0.0876
 3131SOL    HW120852   2.470   3.750   8.867 -0.3094  1.4486  0.5692
 3131SOL    HW220853   2.384   3.659   8.794 -0.2132  1.1417 -1.6267
 3132SOL     OW20854   4.268   3.790  15.108  0.5435  0.5497 -0.5327
 3132SOL    HW120855   4.297   3.818  15.195  0.0726  0.6866 -0.4170
 3132SOL    HW220856   4.239   3.878  15.086 -2.4357 -0.5948 -1.2187
 3133SOL     OW20857   4.397   3.914  15.377 -0.4501 -0.1206  0.5958
 3133SOL    HW120858   4.380   4.007  15.365 -0.7213 -0.2411  0.0112
 3133SOL    HW220859   4.321   3.889  15.430 -0.2875  2.4648  1.9984
 3134SOL     OW20860   2.990   2.576   3.490 -0.2991  0.6661 -0.2231
 3134SOL    HW120861   2.945   2.588   3.573  0.6528 -0.7267  0.4895
 3134SOL    HW220862   2.923   2.531   3.439  0.0279 -0.6866  0.5532
 3135SOL     OW20863   3.695   2.651   8.446  0.1894 -0.2954 -0.1711
 3135SOL    HW120864   3.650   2.604   8.516 -0.1931  0.3811  0.0301
 3135SOL    HW220865   3.698   2.740   8.480 -0.6166 -0.8903  1.4385
 3136SOL     OW20866   3.094   2.430   7.389 -0.5083 -0.0727 -0.3622
 3136SOL    HW120867   3.020   2.385   7.348 -0.2475 -0.5052 -0.3497
 3136SOL    HW220868   3.078   2.519   7.358 -0.8128  0.0126  0.0443
 3137SOL     OW20869   1.711   1.571  13.996 -0.3640  0.1294  0.3284
 3137SOL    HW120870   1.616   1.558  14.001 -0.2193 -0.5906  1.1953
 3137SOL    HW220871   1.723   1.610  13.909  0.2164  0.8741  0.7457
 3138SOL     OW20872   2.052   1.540   2.341 -0.1049 -0.5051 -0.6301
 3138SOL    HW120873   2.046   1.615   2.400  0.0362 -1.5312  0.6685
 3138SOL    HW220874   1.976   1.492   2.372 -0.0329 -0.1749  0.0582
 3139SOL     OW20875   4.456   1.080   7.953  0.1755 -0.2676  0.2186
 3139SOL    HW120876   4.528   1.105   8.012 -1.3375 -0.1309  1.9979
 3139SOL    HW220877   4.387   1.087   8.019  0.5154 -0.3809  0.5847
 3140SOL     OW20878   3.422   0.320  15.922 -0.1465 -0.1862 -0.3552
 3140SOL    HW120879   3.396   0.279  16.005  1.1337  2.4275  1.3051
 3140SOL    HW220880   3.348   0.375  15.896 -0.1362 -0.5154 -1.0703
 3141SOL     OW20881   1.533   2.558  10.182  0.3846 -0.0007  0.0108
 3141SOL    HW120882   1.474   2.532  10.253  0.2198  0.5791  0.0791
 3141SOL    HW220883   1.494   2.533  10.099 -1.9673  0.9106  0.8408
 3142SOL     OW20884   1.128   0.333   5.888  0.3077  0.1284 -0.4839
 3142SOL    HW120885   1.175   0.313   5.807  0.6065 -2.0670  0.2122
 3142SOL    HW220886   1.203   0.350   5.946  0.2617 -2.3015  0.3096
 3143SOL     OW20887   0.342   0.799   2.164 -0.4298  0.4302  0.2864
 3143SOL    HW120888   0.276   0.831   2.226 -0.1044 -2.5859  2.2133
 3143SOL    HW220889   0.281   0.766   2.097  0.8404  0.8387 -1.0543
 3144SOL     OW20890   2.250   1.521  12.270  0.0803 -0.2061 -0.6876
 3144SOL    HW120891   2.228   1.544  12.180  2.1604 -0.7756 -1.3258
 3144SOL    HW220892   2.187   1.451  12.289  0.8994 -0.5230  0.8986
 3145SOL     OW20893   2.626   1.405  11.054 -0.3442 -0.5013 -0.1565
 3145SOL    HW120894   2.587   1.326  11.093  0.9152 -1.4005 -0.7185
 3145SOL    HW220895   2.686   1.432  11.124 -1.3904 -2.5946  1.5660
 3146SOL     OW20896   3.250   4.096  17.287  0.3473  0.0835 -0.5316
 3146SOL    HW120897   3.257   4.191  17.288  0.7502  0.0461 -0.0974
 3146SOL    HW220898   3.203   4.080  17.205 -0.1879 -1.2860  0.0456
 3147SOL     OW20899   3.881   4.432  14.785  0.2273  0.3948 -0.1157
 3147SOL    HW120900   3.873   4.456  14.693 -0.2862  0.6418 -0.0041
 3147SOL    HW220901   3.953   4.369  14.793 -1.7832 -1.7926  0.7290
 3148SOL     OW20902   0.122   2.039   8.395  0.5055 -0.2885  0.0137
 3148SOL    HW120903   0.148   1.976   8.463  2.7497  0.7470  0.1084
 3148SOL    HW220904   0.206   2.071   8.362 -0.4268  1.2157 -0.9064
 3149SOL     OW20905   2.792   1.115   6.205  0.4639  0.2100 -0.0429
 3149SOL    HW120906   2.725   1.156   6.260 -1.3194 -0.3744 -1.7818
 3149SOL    HW220907   2.852   1.073   6.266 -2.7333 -0.6054  2.5307
 3150SOL     OW20908   3.202   1.256   4.999  0.4004  0.3921  0.5079
 3150SOL    HW120909   3.179   1.333   5.052  1.5160  0.4652  0.8694
 3150SOL    HW220910   3.284   1.296   4.971 -0.0968  0.2586 -1.1306
 3151SOL     OW20911   0.143   4.501   8.114  0.3648 -0.4417 -0.0945
 3151SOL    HW120912   0.205   4.439   8.074 -0.4061 -0.9292 -0.5249
 3151SOL    HW220913   0.178   4.583   8.081  1.8877 -1.5841 -1.3338
 3152SOL     OW20914   0.335   4.121   6.589  0.1055  0.7341 -0.0476
 3152SOL    HW120915   0.326   4.141   6.496  0.8053 -3.4294 -1.0097
 3152SOL    HW220916   0.426   4.142   6.613  0.0818  0.6562  0.1156
 3153SOL     OW20917   0.257   0.346   6.641  0.0527 -0.1366 -0.2168
 3153SOL    HW120918   0.205   0.314   6.715 -2.1090 -1.1433 -2.2005
 3153SOL    HW220919   0.348   0.330   6.669  0.1909  0.3369 -0.4036
 3154SOL     OW20920   3.950   3.494   4.718 -0.1821  0.4094  0.7389
 3154SOL    HW120921   3.993   3.522   4.798 -1.6465  2.9770  0.5999
 3154SOL    HW220922   4.026   3.462   4.669 -1.2481 -2.1371  0.7303
 3155SOL     OW20923   0.399   1.527   3.795 -0.2308 -0.0094  0.1011
 3155SOL    HW120924   0.397   1.445   3.843  1.5713  0.0702  0.3182
 3155SOL    HW220925   0.467   1.508   3.730  0.3370  1.6079  0.2152
 3156SOL     OW20926   2.190   1.897   8.141  0.3733  0.3217 -0.7528
 3156SOL    HW120927   2.171   1.990   8.149  0.9834  0.3343  0.5429
 3156SOL    HW220928   2.148   1.869   8.060 -0.5908 -0.7026  0.1151
 3157SOL     OW20929   3.280   3.673  12.174 -0.6335 -0.0541 -0.0961
 3157SOL    HW120930   3.315   3.756  12.143  0.2298  0.1112  1.3412
 3157SOL    HW220931   3.282   3.680  12.270  2.5633 -1.7472 -0.0399
 3158SOL     OW20932   0.027   1.797   9.093 -0.5770  0.1888 -0.3275
 3158SOL    HW120933   0.115   1.828   9.112 -0.3180 -0.5299 -0.3740
 3158SOL    HW220934   4.710   1.763   9.174 -0.5560  1.9072  0.4066
 3159SOL     OW20935   4.517   2.932   7.423 -0.2018 -0.0122  0.0561
 3159SOL    HW120936   4.594   2.914   7.476 -0.5040  0.1906  0.5567
 3159SOL    HW220937   4.486   2.842   7.419  0.2340 -0.1303 -0.6895
 3160SOL     OW20938   4.611   4.044   6.950  0.1429  0.0010 -0.4433
 3160SOL    HW120939   4.605   3.978   7.018 -0.9696  1.3921  0.8123
 3160SOL    HW220940   4.577   3.992   6.877 -0.1973 -0.2285 -0.1223
 3161SOL     OW20941   2.816   4.244  11.458 -0.0365 -0.7260 -0.4990
 3161SOL    HW120942   2.754   4.303  11.416 -0.5538 -2.0780 -1.6469
 3161SOL    HW220943   2.809   4.180  11.387 -2.0214 -1.1429  0.0771
 3162SOL     OW20944   3.488   0.820   3.483  0.3003 -0.0249  0.2379
 3162SOL    HW120945   3.512   0.770   3.562  0.4177 -0.6218 -0.1806
 3162SOL    HW220946   3.395   0.803   3.470  0.1327  0.9038  0.2312
 3163SOL     OW20947   4.051   3.456   8.181  0.1625  0.4282  0.0220
 3163SOL    HW120948   3.986   3.387   8.191 -0.4430  0.9207 -0.5458
 3163SOL    HW220949   4.128   3.434   8.234  1.9628 -0.3433 -2.9023
 3164SOL     OW20950   0.953   3.897   7.476  0.1587 -0.6425 -0.0864
 3164SOL    HW120951   0.885   3.837   7.447  0.2019 -0.8830  0.3038
 3164SOL    HW220952   1.022   3.839   7.508  1.5584  1.4377  0.6851
 3165SOL     OW20953   1.306   0.951   1.590 -0.5678  0.1013  0.3395
 3165SOL    HW120954   1.249   1.016   1.550 -1.0990 -1.1767 -0.9640
 3165SOL    HW220955   1.262   0.874   1.556  1.3289  0.1703 -2.2709
 3166SOL     OW20956   4.440   2.266  14.641 -0.4034 -0.3275  0.7659
 3166SOL    HW120957   4.441   2.273  14.545 -0.2733 -0.4981  0.7551
 3166SOL    HW220958   4.369   2.328  14.659 -0.4147 -0.4974  1.3020
 3167SOL     OW20959   2.363   2.989   6.646  0.0171  0.4229 -0.1751
 3167SOL    HW120960   2.412   2.907   6.652 -0.5436  0.3227  3.2852
 3167SOL    HW220961   2.323   2.969   6.562 -0.6604  1.5126 -0.1129
 3168SOL     OW20962   3.637   1.422   5.177 -0.3129  0.2623 -0.6138
 3168SOL    HW120963   3.587   1.463   5.248  0.9571  2.2562 -0.8655
 3168SOL    HW220964   3.592   1.456   5.100  2.2427  5.0083 -0.0229
 3169SOL     OW20965   4.512   1.878   5.318  0.3026 -0.5811  0.6287
 3169SOL    HW120966   4.548   1.966   5.301 -0.0178 -0.3464  1.1544
 3169SOL    HW220967   4.435   1.900   5.370 -0.1634  2.8646 -1.4588
 3170SOL     OW20968   3.184   3.397   9.257  0.8874 -0.4806 -0.4697
 3170SOL    HW120969   3.251   3.345   9.301  1.0022  0.4521  0.4603
 3170SOL    HW220970   3.109   3.395   9.316  0.2523  2.0741 -1.1758
 3171SOL     OW20971   2.190   4.438   4.907 -0.2597  0.3189  0.0820
 3171SOL    HW120972   2.253   4.418   4.838 -1.0111  1.3342 -0.9040
 3171SOL    HW220973   2.244   4.495   4.961  0.3768 -1.1478  1.0084
 3172SOL     OW20974   2.820   1.907   2.370 -0.0100 -0.7842 -0.2352
 3172SOL    HW120975   2.765   1.828   2.364 -0.5485 -0.3265 -1.2020
 3172SOL    HW220976   2.904   1.866   2.390 -0.1557 -0.8415  0.2557
 3173SOL     OW20977   0.983   4.571   8.710  0.1706 -0.3016  1.0948
 3173SOL    HW120978   0.907   4.595   8.764 -0.4739 -1.1278  0.5616
 3173SOL    HW220979   1.010   4.660   8.686  0.5520 -0.9630 -0.9261
 3174SOL     OW20980   3.004   3.786   5.730  0.2977 -0.4022 -0.3839
 3174SOL    HW120981   3.000   3.693   5.708  2.3316 -0.3324 -0.9948
 3174SOL    HW220982   3.098   3.799   5.720  0.0782  1.1472 -0.4215
 3175SOL     OW20983   1.865   1.202   8.806  0.9605  0.3113 -0.5635
 3175SOL    HW120984   1.864   1.183   8.900 -0.8247 -4.2618 -1.5090
 3175SOL    HW220985   1.802   1.273   8.791  0.7479  0.3149  0.3062
 3176SOL     OW20986   2.974   1.171   7.797  0.1385 -0.0795 -0.4462
 3176SOL    HW120987   2.989   1.256   7.839  0.4247  0.6218 -1.9465
 3176SOL    HW220988   2.924   1.191   7.718  0.1460  2.0991  0.0800
 3177SOL     OW20989   3.345   0.758   5.394 -0.3014 -0.6777 -0.2799
 3177SOL    HW120990   3.295   0.678   5.408  0.2763 -0.5047  2.6683
 3177SOL    HW220991   3.273   0.821   5.392  1.5683  1.5174  2.2864
 3178SOL     OW20992   4.421   0.587   1.766 -0.4793  0.0170  0.4172
 3178SOL    HW120993   4.327   0.606   1.768 -1.1778 -3.0105 -2.9444
 3178SOL    HW220994   4.429   0.577   1.671  2.5166 -1.9890  0.9120
 3179SOL     OW20995   3.771   0.580  12.553 -0.0776 -0.0131  0.1465
 3179SOL    HW120996   3.679   0.597  12.532  0.4462  1.6485 -0.8149
 3179SOL    HW220997   3.780   0.506  12.494  0.2311 -0.5101  0.8212
 3180SOL     OW20998   1.598   4.049   1.196  0.5135  0.0030  0.0593
 3180SOL    HW120999   1.648   4.085   1.269  1.0407  0.5689 -0.5843
 3180SOL    HW221000   1.509   4.063   1.230  0.7931  2.2271 -0.1593
 3181SOL     OW21001   3.285   1.758  13.686  0.3051 -0.3008 -0.4001
 3181SOL    HW121002   3.310   1.745  13.595  0.1988 -2.5226 -0.1089
 3181SOL    HW221003   3.369   1.745  13.729  0.0917 -1.2666 -0.2626
 3182SOL     OW21004   2.250   0.260   9.539 -0.2844  0.6561  0.3595
 3182SOL    HW121005   2.168   0.211   9.548  0.1996  0.1092  1.7160
 3182SOL    HW221006   2.249   0.270   9.444 -1.8614  0.5613  0.3577
 3183SOL     OW21007   0.212   1.268  13.982  0.2808 -0.0632  0.1123
 3183SOL    HW121008   0.208   1.220  14.064 -0.7353 -1.1113 -0.5470
 3183SOL    HW221009   0.121   1.297  13.969  0.2040  0.4270  1.8089
 3184SOL     OW21010   0.569   4.708   0.901 -0.0511 -0.1749 -0.1016
 3184SOL    HW121011   0.529   0.066   0.938  0.0990 -1.9608  3.9397
 3184SOL    HW221012   0.504   4.666   0.844 -0.8794 -1.8422  2.0673
 3185SOL     OW21013   3.583   1.782   8.626 -0.4905  0.1454  0.7945
 3185SOL    HW121014   3.627   1.740   8.552  0.6376  0.3479  1.3426
 3185SOL    HW221015   3.591   1.718   8.697  0.6657 -1.7056 -1.0125
 3186SOL     OW21016   4.483   3.614   4.387  0.1254 -0.0433  0.0435
 3186SOL    HW121017   4.415   3.578   4.445 -0.5218  0.9391 -0.1059
 3186SOL    HW221018   4.449   3.699   4.359  0.7124  0.5600  1.1856
 3187SOL     OW21019   1.974   2.418   8.318 -0.0468 -0.6040 -0.3057
 3187SOL    HW121020   1.933   2.408   8.404 -0.3099  1.2658 -0.2085
 3187SOL    HW221021   2.066   2.398   8.331 -0.2483 -0.4556  1.2698
 3188SOL     OW21022   3.826   0.217  17.014 -0.5145 -0.0212  0.1352
 3188SOL    HW121023   3.771   0.292  16.990  0.2841  0.2062 -0.9684
 3188SOL    HW221024   3.853   0.241  17.102 -3.6409  1.2312  0.7668
 3189SOL     OW21025   2.249   3.413  11.722 -0.7760  0.4004  0.3909
 3189SOL    HW121026   2.286   3.325  11.719 -0.7467  0.4691 -1.6774
 3189SOL    HW221027   2.302   3.459  11.657  0.5075 -0.3485  0.9165
 3190SOL     OW21028   1.322   2.952   8.285  0.6014  0.0073  0.1019
 3190SOL    HW121029   1.368   3.021   8.333  1.3923 -0.5861  0.2073
 3190SOL    HW221030   1.261   2.997   8.228  1.8493  1.7566  0.1486
 3191SOL     OW21031   2.392   2.490   2.523 -0.4579  0.2270  0.1918
 3191SOL    HW121032   2.387   2.422   2.456 -1.1797  3.0950 -2.6618
 3191SOL    HW221033   2.399   2.437   2.602 -0.4312 -0.8110 -0.5137
 3192SOL     OW21034   0.088   3.421   8.229 -0.2210  0.4870 -0.6298
 3192SOL    HW121035   0.129   3.495   8.275  0.5864 -0.2708 -0.1481
 3192SOL    HW221036   0.095   3.445   8.136 -0.5149  2.6774 -0.0999
 3193SOL     OW21037   1.303   1.571   6.959 -0.1458  0.7271 -0.3140
 3193SOL    HW121038   1.373   1.544   6.899  0.9405  0.1935  1.1737
 3193SOL    HW221039   1.235   1.504   6.949  2.2517 -1.8173  0.3788
 3194SOL     OW21040   2.308   3.910  15.389 -0.5872  0.0477 -0.3669
 3194SOL    HW121041   2.279   3.921  15.480 -0.8887 -1.2831 -0.3025
 3194SOL    HW221042   2.311   4.002  15.362  2.2856  0.5799  1.7925
 3195SOL     OW21043   3.491   4.283   2.619  0.1128 -0.6082  0.4979
 3195SOL    HW121044   3.475   4.320   2.706  0.8848  1.4192 -0.2190
 3195SOL    HW221045   3.420   4.319   2.566  1.0100 -0.3036 -0.4874
 3196SOL     OW21046   3.298   1.011   4.970 -0.0161 -0.8258 -0.0207
 3196SOL    HW121047   3.335   1.020   5.058  0.3524 -2.3394 -0.0278
 3196SOL    HW221048   3.253   1.095   4.967  2.4043  0.4804 -0.0447
 3197SOL     OW21049   3.314   4.483   1.146  0.1876 -0.4655  0.1554
 3197SOL    HW121050   3.354   4.500   1.231  0.5103 -1.6888  0.2491
 3197SOL    HW221051   3.316   4.388   1.157 -0.7224 -0.4657  0.2971
 3198SOL     OW21052   0.704   0.512  11.722  0.1946  0.2714 -0.3287
 3198SOL    HW121053   0.758   0.589  11.741 -1.4968  0.6705  2.9471
 3198SOL    HW221054   0.665   0.543  11.640 -1.1911  1.0886  0.6366
 3199SOL     OW21055   3.818   0.309   6.044  0.2105 -0.2478  0.4689
 3199SOL    HW121056   3.798   0.344   5.958 -1.9931  1.7557  1.7680
 3199SOL    HW221057   3.831   0.218   6.018 -0.5127 -0.1467 -0.2247
 3200SOL     OW21058   3.932   4.069   0.474  0.0373  0.4205 -0.0463
 3200SOL    HW121059   3.863   4.131   0.498  1.1631  0.9032  1.9650
 3200SOL    HW221060   3.973   4.130   0.414  0.6320 -0.8442 -0.9258
 3201SOL     OW21061   1.926   3.277  16.963  0.1921  0.4231 -0.0258
 3201SOL    HW121062   1.847   3.299  16.914  0.2559 -0.7066 -0.6404
 3201SOL    HW221063   1.983   3.348  16.934 -0.6597  0.6102 -1.2163
 3202SOL     OW21064   1.208   1.528   5.457  0.3876  0.4616  0.0682
 3202SOL    HW121065   1.291   1.544   5.412  0.4309  1.6552  0.5538
 3202SOL    HW221066   1.170   1.468   5.393  0.8277  0.7821 -0.4922
 3203SOL     OW21067   3.045   0.923   8.279 -0.1459  0.8139  0.3900
 3203SOL    HW121068   2.950   0.911   8.287 -0.0203 -0.3562  0.0322
 3203SOL    HW221069   3.042   0.984   8.204 -0.0489  1.0973  0.6170
 3204SOL     OW21070   3.304   3.147  14.992  0.1740 -0.6384  0.3376
 3204SOL    HW121071   3.358   3.118  14.919  0.8090 -1.7465  1.2568
 3204SOL    HW221072   3.278   3.062  15.026  0.1449  0.0149  1.9495
 3205SOL     OW21073   3.608   1.517  15.519 -0.2620  0.6019 -0.0368
 3205SOL    HW121074   3.643   1.570  15.448 -1.3295  1.9105  0.4211
 3205SOL    HW221075   3.619   1.424  15.497  0.4838  0.6073  0.3380
 3206SOL     OW21076   4.115   2.268   5.783  0.3611  1.0424  0.3570
 3206SOL    HW121077   4.196   2.311   5.809  1.9697 -1.8344  0.1261
 3206SOL    HW221078   4.101   2.319   5.704  1.3949  2.0489  0.8170
 3207SOL     OW21079   3.492   0.364   1.507  0.0065  0.3572 -0.0839
 3207SOL    HW121080   3.572   0.417   1.513  0.3557  0.0935 -2.2464
 3207SOL    HW221081   3.533   0.278   1.510 -1.6076 -0.3568  1.1078
 3208SOL     OW21082   2.850   3.182  17.264 -0.1556  0.2654 -0.1141
 3208SOL    HW121083   2.916   3.208  17.328 -0.6024  0.1446  0.3993
 3208SOL    HW221084   2.826   3.095  17.297 -0.5927  0.0353 -1.0229
 3209SOL     OW21085   1.824   1.621   6.595 -0.0851  0.3772 -0.6455
 3209SOL    HW121086   1.739   1.625   6.639  0.7719  2.8112  0.7994
 3209SOL    HW221087   1.863   1.564   6.661  0.1116  1.1760 -0.0649
 3210SOL     OW21088   3.366   2.467  14.971 -0.4064  0.1704 -0.4224
 3210SOL    HW121089   3.381   2.519  14.893  2.6435 -0.0953  0.0158
 3210SOL    HW221090   3.375   2.378  14.935  2.1585  0.9631 -1.7207
 3211SOL     OW21091   1.763   0.536  13.479  0.9301 -0.1081  0.7809
 3211SOL    HW121092   1.803   0.459  13.520 -0.1684 -0.4646  1.1717
 3211SOL    HW221093   1.834   0.596  13.457 -0.8895  2.0035  0.7330
 3212SOL     OW21094   3.050   1.015  15.245 -0.0908  0.4680 -0.0093
 3212SOL    HW121095   2.958   1.041  15.233 -0.2739 -0.5355 -0.7857
 3212SOL    HW221096   3.088   1.000  15.158  1.7292  0.1963  0.8328
 3213SOL     OW21097   2.351   1.066  16.173 -0.3973 -0.8639 -0.3545
 3213SOL    HW121098   2.418   1.030  16.114  1.3259 -0.0474  1.0909
 3213SOL    HW221099   2.289   1.098  16.108  0.7953  3.3708  0.6027
 3214SOL     OW21100   2.912   1.361   9.308  0.2799  0.4957 -0.3681
 3214SOL    HW121101   2.951   1.354   9.395 -0.9201 -0.9271  0.0520
 3214SOL    HW221102   2.864   1.279   9.301  0.8577  0.3034 -1.9429
 3215SOL     OW21103   1.449   2.563   8.101  0.2895  0.1635  0.5594
 3215SOL    HW121104   1.433   2.602   8.187 -1.1318  2.4706 -0.7457
 3215SOL    HW221105   1.419   2.633   8.044 -2.5408 -1.6980 -0.2084
 3216SOL     OW21106   4.197   1.958   3.260  0.7323  0.7333  0.2007
 3216SOL    HW121107   4.170   1.895   3.327  0.9221 -0.3510 -0.7416
 3216SOL    HW221108   4.116   2.011   3.261  0.8646  0.9243  1.0792
 3217SOL     OW21109   4.706   2.706   9.279  0.4470 -0.4886 -0.3391
 3217SOL    HW121110   4.720   2.667   9.192 -0.0589  3.0040 -1.9826
 3217SOL    HW221111   4.633   2.768   9.271 -0.4739 -1.1638  2.9752
 3218SOL     OW21112   0.081   0.957  12.772 -0.4810 -0.2585 -0.5283
 3218SOL    HW121113   0.138   1.025  12.807 -1.6527 -0.8295  2.5260
 3218SOL    HW221114   0.035   0.937  12.854  1.2143 -0.4952  0.3761
 3219SOL     OW21115   2.961   0.131   5.198  0.3684 -0.0442  0.4488
 3219SOL    HW121116   2.979   0.128   5.104  0.1960 -0.9176  0.4442
 3219SOL    HW221117   2.933   0.222   5.209 -2.6258 -0.6880 -1.6657
 3220SOL     OW21118   0.746   1.054  12.388  0.0721  0.1849  0.3708
 3220SOL    HW121119   0.718   0.991  12.322  3.5965 -0.3202 -0.6728
 3220SOL    HW221120   0.746   0.997  12.465  0.4769  0.8594  0.8719
 3221SOL     OW21121   0.053   1.715   1.990  0.0251  0.1556  0.0433
 3221SOL    HW121122   4.690   1.739   2.029 -0.5644  3.1274 -3.0126
 3221SOL    HW221123   0.019   1.713   1.901  0.3038  0.7090 -0.0715
 3222SOL     OW21124   1.853   0.334  13.651 -0.1988 -0.4966  0.0229
 3222SOL    HW121125   1.943   0.323  13.684  0.6643 -0.3846 -2.2545
 3222SOL    HW221126   1.802   0.341  13.731  0.3129 -0.6682  0.3615
 3223SOL     OW21127   1.044   1.825   9.131  0.1475 -0.3015  0.1768
 3223SOL    HW121128   0.985   1.898   9.113 -0.4507 -1.8678 -4.2037
 3223SOL    HW221129   0.993   1.762   9.181 -0.2713  0.7883  1.1233
 3224SOL     OW21130   4.079   3.726   5.245 -0.0913 -0.3835  0.0245
 3224SOL    HW121131   4.162   3.711   5.291  1.3179 -0.4719 -2.5538
 3224SOL    HW221132   4.051   3.810   5.282  0.6074 -0.4301  0.6671
 3225SOL     OW21133   2.494   2.001  15.002 -0.6878 -0.8267  0.3329
 3225SOL    HW121134   2.578   1.955  15.007 -0.3702 -0.1255  1.3017
 3225SOL    HW221135   2.523   2.091  14.991 -0.7472 -1.0538 -1.7235
 3226SOL     OW21136   4.352   3.891   7.446 -0.0662 -0.1251 -0.0792
 3226SOL    HW121137   4.294   3.956   7.487  0.1493  0.4735 -0.7153
 3226SOL    HW221138   4.293   3.830   7.402 -0.3091  1.3441 -1.7703
 3227SOL     OW21139   1.824   0.421   5.767 -0.0855  0.5594  0.5096
 3227SOL    HW121140   1.748   0.363   5.772 -0.0352  0.4697  0.2321
 3227SOL    HW221141   1.821   0.426   5.672 -4.6063  0.7991  0.6631
 3228SOL     OW21142   4.671   2.028   2.197  0.0868  0.4131 -0.5072
 3228SOL    HW121143   0.003   2.097   2.156 -0.6458  1.0282 -0.3972
 3228SOL    HW221144   4.631   2.079   2.267  0.3446 -2.0461  1.4628
 3229SOL     OW21145   3.519   0.741   0.698  0.2734 -0.6780  0.4532
 3229SOL    HW121146   3.551   0.823   0.737 -0.3196 -0.2032 -0.0621
 3229SOL    HW221147   3.460   0.708   0.766 -1.8472 -0.2728 -1.1861
 3230SOL     OW21148   3.236   1.117  15.415  0.4906  0.0779  0.0059
 3230SOL    HW121149   3.170   1.071  15.364  1.4156  0.4007 -1.5059
 3230SOL    HW221150   3.182   1.169  15.475 -1.1513  0.8117 -2.0768
 3231SOL     OW21151   1.860   1.237   2.756 -0.1876 -0.3629 -0.2985
 3231SOL    HW121152   1.950   1.227   2.787  0.5791  1.4568 -1.9707
 3231SOL    HW221153   1.844   1.149   2.724 -1.7242 -0.5198  0.8779
 3232SOL     OW21154   3.132   1.569   6.212 -0.1300 -0.4938 -0.1492
 3232SOL    HW121155   3.203   1.622   6.175 -1.1784  0.1394 -1.2499
 3232SOL    HW221156   3.109   1.602   6.299 -0.5984 -1.2416  0.0010
 3233SOL     OW21157   3.026   2.623  12.716  0.4340 -0.0057  0.1478
 3233SOL    HW121158   2.948   2.582  12.753  0.6809  0.4464  1.1718
 3233SOL    HW221159   3.026   2.709  12.758 -1.2368  0.2108 -0.2897
 3234SOL     OW21160   1.524   1.795   9.039  0.0543 -0.1729 -0.4569
 3234SOL    HW121161   1.511   1.716   8.986  0.4748 -0.5110 -0.0519
 3234SOL    HW221162   1.448   1.798   9.097 -1.3877 -1.6831 -2.2739
 3235SOL     OW21163   4.015   2.700   7.161 -0.4394  0.4589  0.0830
 3235SOL    HW121164   4.023   2.757   7.085  1.0669  0.4736  0.2499
 3235SOL    HW221165   4.097   2.725   7.204 -0.2979 -1.3025  0.8521
 3236SOL     OW21166   1.112   4.604   2.230  0.2091  0.1884  0.2653
 3236SOL    HW121167   1.202   4.581   2.207  0.0358  0.7336 -0.9512
 3236SOL    HW221168   1.071   4.521   2.253 -0.0866  0.4994  0.8564
 3237SOL     OW21169   0.387   3.851  16.615  0.0610  0.4645  0.3239
 3237SOL    HW121170   0.439   3.919  16.573  0.2738 -0.4103 -0.8322
 3237SOL    HW221171   0.456   3.818  16.673  1.0896 -0.0621 -1.1937
 3238SOL     OW21172   1.464   1.081   2.674  0.1172  0.1153  0.6473
 3238SOL    HW121173   1.513   1.077   2.592  0.7028  0.7536  0.9628
 3238SOL    HW221174   1.530   1.132   2.722 -1.0292  1.0280  1.2476
 3239SOL     OW21175   2.309   2.526   7.899  0.3795  0.4575  0.4348
 3239SOL    HW121176   2.298   2.442   7.943  0.2939  0.0912 -0.2989
 3239SOL    HW221177   2.389   2.557   7.942  1.3765  0.5361 -1.4878
 3240SOL     OW21178   0.979   4.259  14.041 -0.0050  0.1741 -0.0165
 3240SOL    HW121179   0.942   4.171  14.044 -1.6752  0.9352  1.9671
 3240SOL    HW221180   0.956   4.277  14.132  0.9951 -0.1821  0.2974
 3241SOL     OW21181   0.657   2.488   2.924  0.0682 -0.0273  0.2803
 3241SOL    HW121182   0.685   2.399   2.944 -1.0739 -0.1448  1.3938
 3241SOL    HW221183   0.595   2.468   2.854  0.7844  0.1717 -0.4166
 3242SOL     OW21184   0.248   2.017   4.559  0.3822 -0.2136 -0.7084
 3242SOL    HW121185   0.267   2.033   4.652 -0.8345  0.9182 -0.6465
 3242SOL    HW221186   0.319   1.954   4.544  0.0941 -0.2396 -1.9527
 3243SOL     OW21187   0.444   1.774   0.886  0.0233 -0.8985  0.2258
 3243SOL    HW121188   0.445   1.742   0.976 -0.6774  0.1502  0.6070
 3243SOL    HW221189   0.520   1.832   0.880 -0.2642 -0.7881 -2.3106
 3244SOL     OW21190   2.672   1.746   1.366  0.3276  0.0251 -0.0262
 3244SOL    HW121191   2.705   1.836   1.364  1.5883 -0.4900 -2.5276
 3244SOL    HW221192   2.639   1.743   1.276  0.4371 -1.1530 -0.0322
 3245SOL     OW21193   3.182   1.576  15.528  0.4863  0.3943 -0.0226
 3245SOL    HW121194   3.105   1.530  15.561  1.9157 -1.3904  0.8343
 3245SOL    HW221195   3.217   1.614  15.608  1.8185  1.0481 -0.9182
 3246SOL     OW21196   3.016   0.888   4.647  0.0091  0.4868  0.3877
 3246SOL    HW121197   2.930   0.861   4.617 -0.8910  1.3893  2.1973
 3246SOL    HW221198   3.074   0.851   4.580 -0.4256  2.6646 -1.1747
 3247SOL     OW21199   3.622   2.225   4.135 -0.4643  0.1748  0.3322
 3247SOL    HW121200   3.567   2.154   4.168  1.7620 -2.2176 -1.1266
 3247SOL    HW221201   3.644   2.275   4.213 -0.4961  2.4777 -1.1193
 3248SOL     OW21202   0.432   2.874   8.027 -0.5264 -0.5573  0.9415
 3248SOL    HW121203   0.491   2.804   8.055 -2.1808 -1.6958  1.6201
 3248SOL    HW221204   0.364   2.820   7.987  0.1425 -0.0371 -0.8964
 3249SOL     OW21205   3.273   3.004  11.469 -0.3713  0.2755 -0.9632
 3249SOL    HW121206   3.222   3.081  11.445  0.5628  1.2465  0.1412
 3249SOL    HW221207   3.300   3.020  11.560  1.1483  0.9568 -1.5376
 3250SOL     OW21208   3.751   3.220   9.282  0.1383  0.0473 -0.3190
 3250SOL    HW121209   3.676   3.268   9.247  0.9868  1.4858 -0.1843
 3250SOL    HW221210   3.704   3.147   9.321 -0.3579  0.4892 -0.0819
 3251SOL     OW21211   3.664   0.947   3.678  0.4793  0.3239 -0.5822
 3251SOL    HW121212   3.649   1.038   3.702 -2.3551 -0.2073 -0.3758
 3251SOL    HW221213   3.609   0.944   3.600 -1.3354 -0.3017  0.6978
 3252SOL     OW21214   4.309   1.224   8.260 -0.8764 -0.4483  0.5194
 3252SOL    HW121215   4.258   1.301   8.233  0.9603  0.3910 -0.5872
 3252SOL    HW221216   4.312   1.241   8.354  3.0724 -0.8477  0.4622
 3253SOL     OW21217   2.394   3.895  16.166 -0.1316  0.0333 -0.1240
 3253SOL    HW121218   2.402   3.989  16.152  0.9528  0.0883  0.8139
 3253SOL    HW221219   2.443   3.889  16.248 -0.9313  0.9985  0.4096
 3254SOL     OW21220   4.438   2.076  11.931  0.2952 -0.8797  0.2959
 3254SOL    HW121221   4.450   2.005  11.868  0.1572 -0.6901  0.0547
 3254SOL    HW221222   4.348   2.062  11.961 -0.6336 -0.7714 -2.4547
 3255SOL     OW21223   3.656   3.221   8.273 -0.0241  0.2874 -0.0345
 3255SOL    HW121224   3.670   3.263   8.357 -1.1923  0.2772  0.1588
 3255SOL    HW221225   3.711   3.142   8.281 -0.3720  0.1137  0.6256
 3256SOL     OW21226   1.502   0.237   7.125 -0.0110 -0.0280 -0.3124
 3256SOL    HW121227   1.409   0.229   7.147  0.3844  0.9470  1.6941
 3256SOL    HW221228   1.512   0.331   7.115  0.3548  0.0835  1.1299
 3257SOL     OW21229   3.771   0.958   2.961 -0.1638 -0.4513 -0.3871
 3257SOL    HW121230   3.678   0.941   2.969  0.1928 -2.0477  0.3105
 3257SOL    HW221231   3.799   0.945   3.051 -1.0241 -1.3441 -0.2605
 3258SOL     OW21232   1.682   0.488   4.994 -0.0074 -0.6564 -0.1404
 3258SOL    HW121233   1.703   0.581   5.005 -0.9083 -0.5822  0.8890
 3258SOL    HW221234   1.592   0.498   4.964  0.1150  1.3347  0.1582
 3259SOL     OW21235   0.973   2.752   7.386  0.0595 -0.0325  0.4207
 3259SOL    HW121236   1.000   2.667   7.350  2.4538  0.3329  1.3757
 3259SOL    HW221237   0.916   2.742   7.462 -0.4966  1.5177  0.2006
 3260SOL     OW21238   4.009   1.921   7.379  0.1315  0.1634 -0.1166
 3260SOL    HW121239   4.070   1.962   7.441  1.6474  0.4029 -1.7403
 3260SOL    HW221240   3.943   1.899   7.444 -0.9144 -2.4445 -2.0942
 3261SOL     OW21241   3.702   2.168   7.623  0.0725  0.6300 -0.1264
 3261SOL    HW121242   3.749   2.243   7.588 -0.0524  0.3793 -0.8352
 3261SOL    HW221243   3.726   2.178   7.715 -1.4414  1.8620  0.1274
 3262SOL     OW21244   4.606   0.624   3.639 -0.8432 -0.1394 -0.2855
 3262SOL    HW121245   4.535   0.616   3.576 -0.6048  2.5757 -0.9320
 3262SOL    HW221246   4.567   0.671   3.713  1.5366  1.4166 -0.0061
 3263SOL     OW21247   1.127   1.834   0.852 -0.0122 -0.1300 -0.6876
 3263SOL    HW121248   1.139   1.927   0.833 -1.5883  0.2581  0.2020
 3263SOL    HW221249   1.141   1.794   0.766  2.1466 -1.6198  0.3508
 3264SOL     OW21250   0.360   2.785  11.023  0.2105  0.3359 -0.7495
 3264SOL    HW121251   0.330   2.728  10.952  0.9669  0.2691 -1.0157
 3264SOL    HW221252   0.299   2.759  11.092  0.1301  1.0680 -0.5488
 3265SOL     OW21253   3.635   2.210   5.708 -0.4191 -0.2783  0.2833
 3265SOL    HW121254   3.656   2.167   5.791  0.7027 -1.6100 -0.6870
 3265SOL    HW221255   3.652   2.303   5.723 -0.8536 -0.2896  0.8573
 3266SOL     OW21256   0.373   1.236  15.332 -0.1353  0.2422 -0.0277
 3266SOL    HW121257   0.437   1.174  15.368  0.3167 -1.6351 -4.0258
 3266SOL    HW221258   0.424   1.317  15.333 -0.2998  0.2706  3.6580
 3267SOL     OW21259   0.499   4.664  14.955 -0.9423 -0.7998  0.1581
 3267SOL    HW121260   0.559   4.705  15.017 -1.1048 -2.4302  1.3977
 3267SOL    HW221261   0.550   4.628  14.882 -0.1334  2.4583 -0.8565
 3268SOL     OW21262   4.636   4.669   6.544  0.7647 -0.0372 -0.0111
 3268SOL    HW121263   4.570   4.637   6.605  0.2881 -1.4964 -1.2972
 3268SOL    HW221264   4.589   0.016   6.495  1.5310 -1.1979 -2.3210
 3269SOL     OW21265   1.171   4.667   5.153  0.1198 -0.3973  0.1566
 3269SOL    HW121266   1.146   0.020   5.208 -0.6488  0.0935 -0.8475
 3269SOL    HW221267   1.242   4.624   5.202  1.9473  1.3178 -1.0107
 3270SOL     OW21268   3.333   1.339   7.568 -0.2632 -0.1596  0.1993
 3270SOL    HW121269   3.402   1.282   7.602  1.7721  1.4643 -1.2156
 3270SOL    HW221270   3.389   1.364   7.495 -0.7973 -1.2157 -0.5698
 3271SOL     OW21271   2.128   0.424   6.634  0.0112 -0.8038  0.1086
 3271SOL    HW121272   2.211   0.439   6.590 -0.4111  0.4891 -0.2412
 3271SOL    HW221273   2.165   0.425   6.723 -0.8866 -1.8471  0.5011
 3272SOL     OW21274   4.583   0.968   9.070  0.2988 -0.4853  0.5852
 3272SOL    HW121275   4.532   0.907   9.124 -1.8799 -2.7207 -4.0926
 3272SOL    HW221276   4.610   1.039   9.129 -2.6240 -0.0722  1.4217
 3273SOL     OW21277   2.695   4.661   6.324  0.0401 -0.0580  0.6489
 3273SOL    HW121278   2.719   0.008   6.386  2.6947 -1.0677  0.7243
 3273SOL    HW221279   2.606   4.638   6.350 -0.9678  2.2522 -0.7099
 3274SOL     OW21280   4.178   2.786  12.551 -0.4911  0.0780 -0.5746
 3274SOL    HW121281   4.118   2.713  12.565 -1.2798  0.6173 -1.0876
 3274SOL    HW221282   4.215   2.773  12.464  0.7591  1.2963 -0.2340
 3275SOL     OW21283   1.717   0.012   2.984  0.2611  0.7170  0.6109
 3275SOL    HW121284   1.624   0.007   2.963  0.7729 -0.9507 -1.2264
 3275SOL    HW221285   1.761   0.049   2.908 -0.8522  0.4558 -0.1620
 3276SOL     OW21286   4.237   0.627   8.206  0.4501  0.1454  0.3088
 3276SOL    HW121287   4.210   0.703   8.155 -1.8491 -1.7217 -1.2716
 3276SOL    HW221288   4.194   0.560   8.153  1.2919 -0.6319  0.6089
 3277SOL     OW21289   3.838   2.832  16.597  0.6340 -0.4684 -0.1291
 3277SOL    HW121290   3.829   2.865  16.686 -0.8962 -0.8356 -0.1454
 3277SOL    HW221291   3.850   2.738  16.614  2.5648 -0.3629 -0.8632
 3278SOL     OW21292   0.689   2.129   5.519  1.0262  0.0827  0.2079
 3278SOL    HW121293   0.732   2.065   5.576  0.4364 -0.5921 -0.1096
 3278SOL    HW221294   0.709   2.211   5.565 -0.0931  1.3887 -1.6159
 3279SOL     OW21295   3.406   0.915   2.197  0.6420 -0.0514  0.2741
 3279SOL    HW121296   3.393   0.838   2.141 -1.3117  0.2562  0.2945
 3279SOL    HW221297   3.321   0.956   2.182  0.5915 -0.9773 -1.9623
 3280SOL     OW21298   1.165   2.914  15.029  0.5593  0.4803 -0.6149
 3280SOL    HW121299   1.088   2.900  14.974 -0.1183  3.1475 -0.3191
 3280SOL    HW221300   1.146   2.860  15.106  0.2129  0.5634 -0.6430
 3281SOL     OW21301   2.704   0.804   2.000 -0.0404  0.5654  0.5333
 3281SOL    HW121302   2.661   0.785   1.916 -1.1845 -0.5257  1.3440
 3281SOL    HW221303   2.646   0.873   2.032 -1.0966  0.5932 -1.4332
 3282SOL     OW21304   3.826   0.565  15.549  0.0256 -0.1732  0.1368
 3282SOL    HW121305   3.836   0.481  15.594 -0.5804 -0.4289 -0.2090
 3282SOL    HW221306   3.846   0.623  15.622 -2.4066  0.4050  0.3478
 3283SOL     OW21307   0.713   4.367   2.890 -0.0233  0.2308 -0.3901
 3283SOL    HW121308   0.688   4.306   2.821 -3.3449  1.5348 -0.3283
 3283SOL    HW221309   0.641   4.352   2.952  0.1268 -4.5823 -1.3349
 3284SOL     OW21310   0.357   2.186  10.570 -0.6356 -0.3771  0.2831
 3284SOL    HW121311   0.445   2.158  10.595 -0.6560  0.8290  1.6682
 3284SOL    HW221312   0.317   2.100  10.553 -1.2825 -0.4519  2.1434
 3285SOL     OW21313   2.842   0.741   4.229 -0.3514 -0.9441  0.2271
 3285SOL    HW121314   2.918   0.697   4.267 -0.3422  0.0067  1.3469
 3285SOL    HW221315   2.858   0.729   4.136 -1.2214 -1.1985  0.1080
 3286SOL     OW21316   4.483   2.724   2.263 -0.3107 -0.6997 -0.5096
 3286SOL    HW121317   4.472   2.630   2.275  1.5104 -0.6885  1.2515
 3286SOL    HW221318   4.529   2.730   2.179  0.4655  0.9131  0.0247
 3287SOL     OW21319   3.198   4.048  16.378  0.2379 -0.0011  0.1067
 3287SOL    HW121320   3.203   3.983  16.308 -0.2387  0.8164 -0.6836
 3287SOL    HW221321   3.123   4.098  16.345 -0.8089  0.3521  3.0095
 3288SOL     OW21322   2.015   2.663   3.512 -0.1015  0.0535 -0.9096
 3288SOL    HW121323   2.033   2.710   3.594 -0.7329 -2.2120  0.5404
 3288SOL    HW221324   2.099   2.671   3.469  0.2987  0.4520 -0.0579
 3289SOL     OW21325   0.260   2.243  13.944  0.0834  0.1090  0.4335
 3289SOL    HW121326   0.190   2.282  13.996 -1.0630  0.0146 -1.0476
 3289SOL    HW221327   0.330   2.218  14.004  0.3020  1.0896  0.5716
 3290SOL     OW21328   2.804   0.407   8.141 -0.0102  0.0361  0.3150
 3290SOL    HW121329   2.771   0.318   8.145 -1.4831  0.6522  1.9481
 3290SOL    HW221330   2.877   0.394   8.081 -0.1132 -0.2864  0.2639
 3291SOL     OW21331   2.613   4.645  13.806  0.3290 -0.3998  0.7638
 3291SOL    HW121332   2.554   4.592  13.752 -0.4068 -0.3100  1.4823
 3291SOL    HW221333   2.699   4.606  13.791  0.4743  0.6029 -1.0251
 3292SOL     OW21334   4.402   1.178   4.270  0.2007 -0.6334  0.7703
 3292SOL    HW121335   4.431   1.231   4.195  0.8744 -0.3565  1.2290
 3292SOL    HW221336   4.438   1.235   4.338  0.6304 -1.2724  1.0783
 3293SOL     OW21337   4.535   3.595   9.070 -0.1273 -0.5140  0.0696
 3293SOL    HW121338   4.517   3.537   8.996 -4.0207  3.0447 -1.8049
 3293SOL    HW221339   4.480   3.562   9.140 -2.2264  0.3241 -1.1789
 3294SOL     OW21340   4.248   2.822  14.883  0.5457 -0.6392  0.0298
 3294SOL    HW121341   4.240   2.790  14.793  1.1297  0.2884 -0.3612
 3294SOL    HW221342   4.287   2.744  14.922  0.0207 -0.1154  1.5858
 3295SOL     OW21343   1.612   1.932   3.750 -0.2673  0.5712  0.2583
 3295SOL    HW121344   1.543   1.996   3.732 -1.2367 -0.4876  0.2348
 3295SOL    HW221345   1.605   1.934   3.845 -1.7484  0.3234  0.1549
 3296SOL     OW21346   1.758   1.368   0.062 -0.2966  0.3103 -0.1395
 3296SOL    HW121347   1.819   1.386   0.134 -2.2598 -0.5123  1.7202
 3296SOL    HW221348   1.719   1.286   0.090  1.7451 -1.0128 -1.2138
 3297SOL     OW21349   3.427   0.375   1.064  0.2676 -0.3986 -0.5573
 3297SOL    HW121350   3.481   0.296   1.063  3.6936  1.9117  1.6456
 3297SOL    HW221351   3.442   0.411   0.977  0.8810  0.8318  0.0334
 3298SOL     OW21352   2.101   3.042   6.769 -0.4203  0.4375 -0.3791
 3298SOL    HW121353   2.051   2.991   6.705  0.8791 -1.5646  0.2166
 3298SOL    HW221354   2.188   3.007   6.749 -0.9291 -0.1441 -1.5750
 3299SOL     OW21355   2.996   2.094   1.967 -0.1231  0.3231  0.6328
 3299SOL    HW121356   3.059   2.021   1.971 -0.6078 -0.2707 -2.4821
 3299SOL    HW221357   2.935   2.068   2.037 -0.9821  0.6057 -0.0224
 3300SOL     OW21358   0.836   0.212   6.615 -0.1135  0.5176 -0.4339
 3300SOL    HW121359   0.919   0.208   6.663  0.1809  0.3085 -0.9559
 3300SOL    HW221360   0.803   0.124   6.632 -0.9803  1.0614  0.6554
 3301SOL     OW21361   4.274   1.920   9.426 -0.7738 -0.2479 -0.5016
 3301SOL    HW121362   4.263   1.973   9.506 -0.7627 -1.3305  0.2118
 3301SOL    HW221363   4.360   1.950   9.396 -0.9206  0.9739  0.2577
 3302SOL     OW21364   0.837   2.647   4.223  0.0490 -0.0107 -0.6279
 3302SOL    HW121365   0.885   2.686   4.296  1.9421 -1.0478 -1.3192
 3302SOL    HW221366   0.858   2.554   4.236 -0.9892  0.0395  1.3129
 3303SOL     OW21367   3.578   3.094  11.906  0.3888  0.3229 -0.1177
 3303SOL    HW121368   3.576   3.164  11.840  0.1155 -0.2287 -0.6953
 3303SOL    HW221369   3.637   3.135  11.968 -0.5723  1.2371  0.2039
 3304SOL     OW21370   1.001   2.910   3.749  0.6412 -0.1798 -0.5385
 3304SOL    HW121371   0.914   2.939   3.776  0.4424 -1.7052  0.4781
 3304SOL    HW221372   1.002   2.943   3.660  1.8397 -1.4208 -0.9915
 3305SOL     OW21373   2.628   3.134   6.727  0.4370  0.1499 -0.5645
 3305SOL    HW121374   2.537   3.109   6.746  0.5123 -0.8576 -1.5451
 3305SOL    HW221375   2.660   3.050   6.696  3.0866  1.0635 -0.3211
 3306SOL     OW21376   2.406   0.735  17.494  0.3467 -0.1128 -0.2822
 3306SOL    HW121377   2.499   0.718  17.510  0.4191  1.3969  0.8936
 3306SOL    HW221378   2.397   0.826  17.468  1.8383 -0.7037 -2.8968
 3307SOL     OW21379   0.548   4.486   7.884  0.3798  0.2241 -0.1042
 3307SOL    HW121380   0.558   4.401   7.927  1.1824 -0.6856 -2.0825
 3307SOL    HW221381   0.636   4.513   7.856 -0.6655  3.3770 -0.3916
 3308SOL     OW21382   2.073   1.285   3.230 -0.4383  0.2730 -0.0786
 3308SOL    HW121383   2.145   1.340   3.197  0.0997 -1.9291 -2.5321
 3308SOL    HW221384   2.034   1.342   3.297 -2.1842 -0.2947 -0.6301
 3309SOL     OW21385   4.587   2.581   7.384  0.2430  0.1526 -0.2540
 3309SOL    HW121386   4.612   2.509   7.441  1.7948 -0.1157 -1.2744
 3309SOL    HW221387   4.511   2.547   7.337 -0.7553 -0.6611  1.9457
 3310SOL     OW21388   4.072   0.237   1.772  0.3877  0.1845  0.4844
 3310SOL    HW121389   3.985   0.225   1.732 -0.1211  0.8074  1.4107
 3310SOL    HW221390   4.100   0.325   1.745 -2.0757  1.3915  1.8643
 3311SOL     OW21391   3.019   1.560   9.111 -0.5265  0.1275 -0.6614
 3311SOL    HW121392   2.962   1.489   9.140  2.0339 -1.7421 -0.1945
 3311SOL    HW221393   3.048   1.506   9.037  1.4006  0.4320 -0.1197
 3312SOL     OW21394   1.447   0.606   3.182 -0.2923 -0.1727 -0.7753
 3312SOL    HW121395   1.534   0.637   3.209 -0.3356 -0.7597  0.0394
 3312SOL    HW221396   1.433   0.525   3.231  1.5895  0.8088  1.3978
 3313SOL     OW21397   1.061   2.647   8.869 -0.0195  0.1256 -0.3622
 3313SOL    HW121398   0.988   2.593   8.840 -0.9363  0.9479  0.4337
 3313SOL    HW221399   1.105   2.590   8.932 -1.9781 -2.0818 -1.0062
 3314SOL     OW21400   2.666   1.625   6.650  0.3977 -0.1726  0.4137
 3314SOL    HW121401   2.699   1.589   6.733 -0.7135  0.1187  0.9871
 3314SOL    HW221402   2.701   1.714   6.651  0.1405 -0.0739  1.8613
 3315SOL     OW21403   2.467   3.311   7.381  0.4032  0.1006  0.1919
 3315SOL    HW121404   2.444   3.331   7.290 -0.4932 -0.8597  0.2027
 3315SOL    HW221405   2.397   3.360   7.424  0.3811  0.2308  0.0033
 3316SOL     OW21406   3.477   0.484  12.469  0.1888  0.1023 -0.8193
 3316SOL    HW121407   3.417   0.476  12.543 -0.0377  0.5934 -0.9453
 3316SOL    HW221408   3.454   0.405  12.420  0.8090 -0.0866 -0.8053
 3317SOL     OW21409   0.262   1.109   6.804 -0.0440  0.5908  0.0314
 3317SOL    HW121410   0.187   1.115   6.746 -0.5764  1.5472  0.8120
 3317SOL    HW221411   0.326   1.075   6.741 -1.1598 -0.6297 -0.4229
 3318SOL     OW21412   1.182   4.126  16.005 -0.1053  0.0340 -0.2192
 3318SOL    HW121413   1.267   4.167  15.987 -0.0079 -0.0559  0.0372
 3318SOL    HW221414   1.186   4.054  15.942  1.4777  1.4777 -1.7721
 3319SOL     OW21415   1.348   3.405   4.808  0.1897 -0.1837 -0.0428
 3319SOL    HW121416   1.370   3.324   4.762 -2.4657 -0.6753 -0.4518
 3319SOL    HW221417   1.255   3.394   4.825  0.2828 -1.2343 -0.2163
 3320SOL     OW21418   2.289   0.773  14.802 -0.3424  0.1858  0.0388
 3320SOL    HW121419   2.194   0.771  14.800 -0.2995  0.1586 -1.8719
 3320SOL    HW221420   2.312   0.682  14.782  2.4566  0.9024 -0.0010
 3321SOL     OW21421   3.069   3.423   7.133  0.7787  0.2714 -0.1614
 3321SOL    HW121422   3.145   3.419   7.191  0.4205 -0.2490  0.2655
 3321SOL    HW221423   3.108   3.458   7.053  1.3504 -2.8609 -1.2361
 3322SOL     OW21424   1.176   0.945  13.488  0.0230 -0.6892  0.1604
 3322SOL    HW121425   1.152   0.902  13.570 -0.5376 -1.0926 -0.2195
 3322SOL    HW221426   1.115   1.020  13.490 -1.5533 -1.9394 -1.3191
 3323SOL     OW21427   2.030   2.065   3.878 -0.0780 -0.1421 -0.0606
 3323SOL    HW121428   1.955   2.122   3.861 -0.5325 -1.1854 -1.5400
 3323SOL    HW221429   2.104   2.102   3.829  0.1158 -1.0401 -0.4548
 3324SOL     OW21430   1.649   3.210   3.330  0.6585 -0.1227  0.0970
 3324SOL    HW121431   1.649   3.286   3.272 -1.0058 -0.3781 -0.2618
 3324SOL    HW221432   1.688   3.146   3.271  3.6109 -0.1588  2.1103
 3325SOL     OW21433   2.183   1.855   3.627 -0.1029 -0.2491 -0.0736
 3325SOL    HW121434   2.176   1.774   3.577  0.9712 -0.2799 -0.1651
 3325SOL    HW221435   2.190   1.829   3.719 -0.4358  1.8579  0.5520
 3326SOL     OW21436   3.486   2.888   7.324 -0.3605  0.1584  0.0256
 3326SOL    HW121437   3.577   2.875   7.297  0.6262  3.2785  1.8843
 3326SOL    HW221438   3.466   2.967   7.273  0.4421 -0.0209 -0.5765
 3327SOL     OW21439   3.468   4.415   5.763 -0.1412 -0.3573 -0.3073
 3327SOL    HW121440   3.448   4.322   5.766 -0.5657 -0.1994  1.8655
 3327SOL    HW221441   3.513   4.415   5.679 -0.9280 -2.2599 -0.7295
 3328SOL     OW21442   0.241   1.243   3.576 -0.7097  0.2004 -0.2232
 3328SOL    HW121443   0.281   1.326   3.551 -1.6814  2.2205  4.8969
 3328SOL    HW221444   0.189   1.222   3.498 -1.4738  0.9491  0.0909
 3329SOL     OW21445   4.117   2.164  14.777 -0.1248  0.2305  0.4042
 3329SOL    HW121446   4.197   2.160  14.829 -0.1734  1.6822  0.6120
 3329SOL    HW221447   4.111   2.258  14.760 -1.1534  0.2755  0.9664
 3330SOL     OW21448   3.828   0.534  12.829  0.3280 -0.3880  0.4206
 3330SOL    HW121449   3.815   0.560  12.738 -0.6436  0.8956  0.9345
 3330SOL    HW221450   3.810   0.615  12.877 -0.4266  0.9295 -2.1088
 3331SOL     OW21451   1.887   0.022   1.159  0.1898 -0.0297 -0.3067
 3331SOL    HW121452   1.934   4.679   1.105  0.2169 -0.6394  0.4448
 3331SOL    HW221453   1.843   0.079   1.096  0.9532  0.4445 -0.4242
 3332SOL     OW21454   3.468   3.795  12.605  0.4168  0.3054 -0.2351
 3332SOL    HW121455   3.551   3.791  12.652  0.2065  1.4954  0.2285
 3332SOL    HW221456   3.438   3.879  12.639  0.7491 -0.3009  1.5606
 3333SOL     OW21457   0.788   0.194  16.823  0.5648 -1.2090  0.5550
 3333SOL    HW121458   0.824   0.205  16.735  0.8914 -0.8938  0.7303
 3333SOL    HW221459   0.724   0.265  16.817  2.4133  0.6659  2.7632
 3334SOL     OW21460   1.730   0.196   0.979  0.4346  0.3255  0.1203
 3334SOL    HW121461   1.787   0.236   0.913  0.6992 -0.8456 -0.3488
 3334SOL    HW221462   1.666   0.154   0.922  3.3894 -0.4095 -2.6737
 3335SOL     OW21463   3.952   2.340   1.322 -0.0974  0.2438  0.0487
 3335SOL    HW121464   3.979   2.431   1.309  0.1058  0.0218 -1.1045
 3335SOL    HW221465   4.033   2.300   1.354 -0.5575  0.8645  1.9826
 3336SOL     OW21466   0.962   3.182   9.264 -0.6863 -0.2392  0.1724
 3336SOL    HW121467   0.973   3.274   9.241 -0.8518  0.1720  1.7529
 3336SOL    HW221468   0.866   3.175   9.270 -0.9323 -0.0311 -3.4755
 3337SOL     OW21469   2.720   0.733   6.233  0.0999 -0.3167 -0.1246
 3337SOL    HW121470   2.777   0.777   6.169 -0.6369  0.5457 -0.1761
 3337SOL    HW221471   2.779   0.725   6.307 -0.7601  3.9095  1.0119
 3338SOL     OW21472   2.672   0.210   3.631 -0.1218 -0.0335 -0.3603
 3338SOL    HW121473   2.600   0.223   3.693  1.4342 -0.4961  1.5286
 3338SOL    HW221474   2.743   0.235   3.689  0.3828  0.1878 -1.0756
 3339SOL     OW21475   2.494   1.344   2.905  0.8838 -0.0802 -0.7642
 3339SOL    HW121476   2.506   1.270   2.846 -1.4122  0.0064 -1.3242
 3339SOL    HW221477   2.466   1.401   2.833 -2.2771 -0.5416  0.1168
 3340SOL     OW21478   1.073   2.608  14.915  0.0401  0.1625 -0.1570
 3340SOL    HW121479   1.110   2.656  14.989  1.7548 -0.8718 -0.3518
 3340SOL    HW221480   1.029   2.687  14.884 -0.4313 -0.4673 -1.0886
 3341SOL     OW21481   1.254   0.358   8.298 -0.2179  0.6533 -0.7398
 3341SOL    HW121482   1.322   0.415   8.333 -0.8654  1.0029 -0.0484
 3341SOL    HW221483   1.304   0.278   8.283  2.0208  1.9074  0.0874
 3342SOL     OW21484   2.056   3.978   5.949  0.6025 -0.1552  0.6288
 3342SOL    HW121485   2.087   4.044   6.011  1.4629  1.2296 -1.2718
 3342SOL    HW221486   2.108   3.990   5.869  1.1695  0.4331  1.0923
 3343SOL     OW21487   1.775   2.968   5.024 -0.1105 -0.1873 -0.6854
 3343SOL    HW121488   1.824   3.025   5.083 -0.3785  0.4841 -1.1049
 3343SOL    HW221489   1.835   2.983   4.951  0.0411  2.6969  0.0245
 3344SOL     OW21490   2.800   1.262  12.400 -1.1146  0.2297 -0.2362
 3344SOL    HW121491   2.746   1.322  12.451 -0.9326 -0.6785  1.0565
 3344SOL    HW221492   2.750   1.264  12.319  0.2768  0.5676 -1.0715
 3345SOL     OW21493   4.397   1.531   6.112  0.2052 -0.8147 -0.3499
 3345SOL    HW121494   4.449   1.473   6.168  0.3517  0.4369  0.8423
 3345SOL    HW221495   4.460   1.537   6.040  0.5721  1.1685  0.1147
 3346SOL     OW21496   3.395   3.072   9.008 -0.3570 -0.2303 -0.1365
 3346SOL    HW121497   3.444   3.148   9.041  0.0204 -0.3194 -0.4983
 3346SOL    HW221498   3.411   3.004   9.073  1.6641  1.1777  0.8675
 3347SOL     OW21499   3.029   0.911  10.117  0.0960  0.6855 -0.4598
 3347SOL    HW121500   3.002   0.994  10.078 -0.1468 -0.3964 -2.6105
 3347SOL    HW221501   2.960   0.850  10.090 -0.5500  0.6348  1.3035
 3348SOL     OW21502   3.041   0.041   1.037 -0.7498  0.0088  0.2729
 3348SOL    HW121503   2.987   0.005   1.106 -1.0635  1.0146  0.5425
 3348SOL    HW221504   3.062   0.125   1.076  2.6463 -0.2302 -1.0308
 3349SOL     OW21505   0.127   3.169   8.030  0.5412  0.7062  0.7268
 3349SOL    HW121506   0.165   3.175   7.942 -1.8614  0.3384 -0.3490
 3349SOL    HW221507   0.172   3.238   8.077  2.3824  0.3669 -0.5439
 3350SOL     OW21508   4.333   0.361   4.171  0.4889  0.1436 -0.5971
 3350SOL    HW121509   4.288   0.278   4.185  0.5130  0.6410  2.4160
 3350SOL    HW221510   4.409   0.349   4.229 -0.2801 -0.1295  0.3507
 3351SOL     OW21511   3.541   2.971   5.842  0.3478 -0.2707 -0.1571
 3351SOL    HW121512   3.546   2.912   5.767 -2.5030 -1.0345  0.2514
 3351SOL    HW221513   3.628   2.957   5.879 -0.5077  0.9545  2.2819
 3352SOL     OW21514   3.860   1.944   2.324 -0.0028  0.0737  0.3399
 3352SOL    HW121515   3.869   1.954   2.229 -0.2563  0.9239  0.4001
 3352SOL    HW221516   3.924   2.008   2.355 -0.5783  0.9896 -0.3629
 3353SOL     OW21517   1.046   4.254   4.580 -0.2486 -0.0610  1.0620
 3353SOL    HW121518   1.123   4.225   4.531 -1.9692 -1.1645 -0.9542
 3353SOL    HW221519   1.059   4.209   4.664  0.4224 -1.4701  0.1968
 3354SOL     OW21520   2.916   4.396   7.800  0.0514  0.6633  0.1521
 3354SOL    HW121521   2.898   4.479   7.844  1.8738  0.3682  1.4891
 3354SOL    HW221522   2.988   4.370   7.857  1.7588  1.4535 -1.6581
 3355SOL     OW21523   2.999   3.650   6.376  0.5900 -0.1621 -0.2291
 3355SOL    HW121524   2.966   3.736   6.402  1.4435 -0.0065  0.3391
 3355SOL    HW221525   2.966   3.640   6.287 -1.2852  7.4173 -0.4019
 3356SOL     OW21526   0.355   1.646   7.975  0.4496 -0.3476  0.2627
 3356SOL    HW121527   0.382   1.558   8.000  0.2617 -0.5018 -0.0761
 3356SOL    HW221528   0.359   1.693   8.058  0.4081  0.2313 -0.0596
 3357SOL     OW21529   1.586   1.088   0.388  0.1548  0.1054  0.0677
 3357SOL    HW121530   1.529   1.164   0.378  1.0825  0.7133 -0.6745
 3357SOL    HW221531   1.629   1.100   0.303  1.2895  2.8757  1.0248
 3358SOL     OW21532   4.223   3.182  10.020  0.1979 -0.4186  0.0812
 3358SOL    HW121533   4.184   3.167   9.934 -0.1970 -0.7202  0.3135
 3358SOL    HW221534   4.184   3.114  10.075  0.0014 -0.8328 -0.5701
 3359SOL     OW21535   2.371   3.329   7.860 -0.7697 -0.5849 -0.0219
 3359SOL    HW121536   2.327   3.400   7.813 -0.1816  0.3066  0.7642
 3359SOL    HW221537   2.300   3.277   7.898  0.0159 -2.3127 -0.9388
 3360SOL     OW21538   2.106   4.085  15.214 -1.0105 -0.3933 -0.8172
 3360SOL    HW121539   2.073   4.050  15.297  0.0875  0.4873 -0.0114
 3360SOL    HW221540   2.163   4.153  15.249 -1.3330 -0.4853 -0.1119
 3361SOL     OW21541   4.464   2.445   2.312 -0.0327 -0.1564 -0.2357
 3361SOL    HW121542   4.508   2.421   2.231  1.5028 -0.3559  0.6560
 3361SOL    HW221543   4.405   2.374   2.338  0.0108 -0.6257 -1.4168
 3362SOL     OW21544   1.692   1.891   8.378  0.1666 -0.4193  0.0756
 3362SOL    HW121545   1.694   1.980   8.344 -1.2439 -0.7116 -0.7608
 3362SOL    HW221546   1.631   1.835   8.330  3.4516 -1.7331 -2.5740
 3363SOL     OW21547   0.861   3.610  14.329 -0.0097  0.0891  0.0520
 3363SOL    HW121548   0.791   3.596  14.392  0.8488  0.3767  1.0603
 3363SOL    HW221549   0.820   3.564  14.256 -0.5160 -1.1190  1.1012
 3364SOL     OW21550   0.862   3.060   1.921 -0.2148 -0.3869  0.2911
 3364SOL    HW121551   0.855   3.027   2.010 -1.9492 -0.2169  0.2223
 3364SOL    HW221552   0.951   3.094   1.932 -0.9410  2.0167 -1.1068
 3365SOL     OW21553   3.618   1.210   3.734 -0.0492 -0.0365  0.3419
 3365SOL    HW121554   3.645   1.281   3.793  0.6718 -0.3549  0.4025
 3365SOL    HW221555   3.551   1.254   3.682 -2.7544 -3.3298  1.0620
 3366SOL     OW21556   3.603   0.764  15.091 -0.0650 -0.2128 -0.4040
 3366SOL    HW121557   3.613   0.716  15.173 -1.8872  0.2483  0.0858
 3366SOL    HW221558   3.517   0.805  15.101 -0.5753 -1.7481  1.6174
 3367SOL     OW21559   2.609   1.147  14.458 -0.2608 -0.4940 -0.8317
 3367SOL    HW121560   2.529   1.112  14.420 -0.8931 -1.1402  1.1322
 3367SOL    HW221561   2.636   1.217  14.398  2.3700 -0.9152 -0.1399
 3368SOL     OW21562   3.709   1.662   8.433 -0.7225  0.1826  0.5564
 3368SOL    HW121563   3.704   1.652   8.337  2.4752 -0.0941  0.4280
 3368SOL    HW221564   3.733   1.574   8.462  1.0370  0.7483  0.8203
 3369SOL     OW21565   2.891   1.863   5.281 -0.0110  0.5060  0.1951
 3369SOL    HW121566   2.830   1.925   5.321  0.3780  1.8776 -1.3247
 3369SOL    HW221567   2.840   1.809   5.221 -1.1910  0.6313  1.0979
 3370SOL     OW21568   0.187   4.707   3.944 -0.2112  0.1778 -0.0881
 3370SOL    HW121569   0.199   4.613   3.959 -2.6755  0.1727  1.6951
 3370SOL    HW221570   0.128   0.002   4.018  1.4400 -0.7624  1.4301
 3371SOL     OW21571   1.275   2.147   1.506  0.5105 -0.0476  0.1871
 3371SOL    HW121572   1.346   2.208   1.491  0.7879 -1.1254 -2.8067
 3371SOL    HW221573   1.244   2.138   1.416 -0.0287  0.4274  0.3261
 3372SOL     OW21574   2.917   3.270   4.895 -0.2185  0.1361 -0.3357
 3372SOL    HW121575   2.849   3.235   4.837 -1.1696  0.1406  0.7756
 3372SOL    HW221576   2.995   3.283   4.842  0.0965  0.3167  0.1690
 3373SOL     OW21577   2.789   0.489  17.423  0.3280  1.0155 -0.2053
 3373SOL    HW121578   2.728   0.488  17.349  0.3187  1.6460 -0.2036
 3373SOL    HW221579   2.860   0.429  17.399 -0.7841 -0.9498  1.4762
 3374SOL     OW21580   3.220   2.640  16.852 -0.3082  0.6858 -0.2293
 3374SOL    HW121581   3.226   2.544  16.858 -0.6165  0.6707 -0.1630
 3374SOL    HW221582   3.312   2.663  16.865 -0.3842  1.6067 -1.3080
 3375SOL     OW21583   2.886   0.415   5.713  0.0674  0.6294  0.4067
 3375SOL    HW121584   2.886   0.409   5.809  0.1383 -2.0631  0.2387
 3375SOL    HW221585   2.976   0.396   5.689  0.1953  1.0851  0.5174
 3376SOL     OW21586   1.011   3.374   7.091  0.3900 -0.1502  0.8545
 3376SOL    HW121587   1.023   3.463   7.124 -0.5145 -0.0683  0.9713
 3376SOL    HW221588   0.920   3.381   7.062  0.3917 -0.6579  0.7257
 3377SOL     OW21589   0.880   1.324   7.649  0.2456 -0.0543  0.0999
 3377SOL    HW121590   0.799   1.290   7.685  0.1297 -0.6754 -0.7449
 3377SOL    HW221591   0.858   1.416   7.660 -2.3362 -0.7414  0.5703
 3378SOL     OW21592   2.275   2.315  12.639 -0.5819 -0.3807 -0.8159
 3378SOL    HW121593   2.250   2.289  12.550 -0.6907  0.4743 -1.0384
 3378SOL    HW221594   2.221   2.394  12.647 -1.5532 -1.2505  1.0889
 3379SOL     OW21595   1.967   2.053   2.203  0.6287  0.8071  0.2217
 3379SOL    HW121596   2.030   2.072   2.133 -0.9719 -1.1748 -1.7715
 3379SOL    HW221597   1.894   2.021   2.151  0.3809  0.9191  0.4993
 3380SOL     OW21598   1.041   0.205   0.666 -0.2903  0.0236  0.1729
 3380SOL    HW121599   1.044   0.297   0.640 -0.3484 -0.3289 -1.0825
 3380SOL    HW221600   1.131   0.182   0.645  0.3757  0.2832  2.6842
 3381SOL     OW21601   2.757   2.341   2.471 -0.3027  0.1808 -0.5240
 3381SOL    HW121602   2.720   2.379   2.551 -0.0182 -1.4603  0.3695
 3381SOL    HW221603   2.838   2.392   2.464 -1.6011  2.0843 -1.8958
 3382SOL     OW21604   3.457   2.508   5.382  0.6280  0.1795  0.4439
 3382SOL    HW121605   3.490   2.484   5.468 -0.4780  1.4163  1.2142
 3382SOL    HW221606   3.412   2.432   5.344 -0.0912 -0.3187  2.3361
 3383SOL     OW21607   3.446   2.893   6.491 -0.2511  0.0107  0.1621
 3383SOL    HW121608   3.355   2.899   6.461  0.5462  2.3227 -1.7768
 3383SOL    HW221609   3.428   2.905   6.585  1.7013  2.2339  0.2462
 3384SOL     OW21610   4.624   3.637   3.164 -0.5710 -0.2233  0.0432
 3384SOL    HW121611   4.562   3.634   3.091 -0.6514  1.3489  0.0603
 3384SOL    HW221612   4.663   3.550   3.151 -1.1255  0.1609 -4.1511
 3385SOL     OW21613   1.621   4.334   2.427  0.5295 -0.3605 -0.5542
 3385SOL    HW121614   1.709   4.299   2.413  0.9275  0.5677 -0.3334
 3385SOL    HW221615   1.621   4.346   2.522  2.5253 -0.6926 -0.5284
 3386SOL     OW21616   2.805   0.514   1.108 -0.5292 -0.0879  0.3094
 3386SOL    HW121617   2.880   0.517   1.168  0.9700  0.2186 -1.5744
 3386SOL    HW221618   2.843   0.469   1.032 -0.7964  1.6669 -0.8344
 3387SOL     OW21619   2.782   2.442   1.820 -0.1406  0.1871 -0.4319
 3387SOL    HW121620   2.742   2.355   1.829 -1.6173  0.8936 -0.1343
 3387SOL    HW221621   2.866   2.417   1.782  0.4676 -0.3133  1.2441
 3388SOL     OW21622   3.607   0.338   0.549  0.3019  0.0555  0.0587
 3388SOL    HW121623   3.542   0.408   0.551 -0.2299 -0.4513  0.4598
 3388SOL    HW221624   3.562   0.265   0.507 -0.0368 -0.1206  0.7365
 3389SOL     OW21625   0.586   1.422   2.940  0.5145  0.2891 -0.1992
 3389SOL    HW121626   0.575   1.330   2.914  1.7379  0.1662 -0.2548
 3389SOL    HW221627   0.655   1.444   2.878  2.5543 -3.0033  0.8639
 3390SOL     OW21628   0.460   3.266   4.800 -0.3660 -0.5209 -0.1067
 3390SOL    HW121629   0.394   3.284   4.868  0.5907 -3.0266  1.4770
 3390SOL    HW221630   0.500   3.182   4.823 -0.0753 -0.1580  0.7135
 3391SOL     OW21631   0.273   2.932  15.143 -0.6231 -0.0543  0.4528
 3391SOL    HW121632   0.198   2.902  15.091  0.1409  0.7429 -1.0995
 3391SOL    HW221633   0.348   2.924  15.085 -1.3672 -1.2675 -0.3423
 3392SOL     OW21634   1.255   1.887   3.076 -0.0398 -0.1303  0.2069
 3392SOL    HW121635   1.350   1.878   3.085  0.0094  1.7316  1.5497
 3392SOL    HW221636   1.212   1.801   3.075 -1.4769  0.5680  2.0458
 3393SOL     OW21637   1.576   0.759   0.956 -0.2705  0.1506  0.3776
 3393SOL    HW121638   1.539   0.842   0.924 -0.6375  0.2049  0.9290
 3393SOL    HW221639   1.588   0.782   1.049 -2.7417 -2.9355  1.4564
 3394SOL     OW21640   1.469   1.595   4.835  0.1443  0.3428 -0.0391
 3394SOL    HW121641   1.464   1.690   4.844 -2.2784  0.0457  1.6762
 3394SOL    HW221642   1.432   1.554   4.913  2.2728 -1.6436 -0.0805
 3395SOL     OW21643   0.033   2.168   4.426 -0.1418 -0.0856  0.1531
 3395SOL    HW121644   4.712   2.147   4.343 -4.3014  4.4307  1.0820
 3395SOL    HW221645   0.107   2.107   4.431 -0.8132 -1.0984 -2.6216
 3396SOL     OW21646   3.085   1.580   6.846 -0.0295  0.4625 -0.2444
 3396SOL    HW121647   3.110   1.670   6.870 -1.4402  0.5912  0.7101
 3396SOL    HW221648   3.146   1.573   6.772 -0.8929 -0.9748 -0.7997
 3397SOL     OW21649   2.964   1.994  16.086  0.2864 -0.4259 -0.3996
 3397SOL    HW121650   2.990   2.074  16.040 -0.1738 -0.7918 -1.2943
 3397SOL    HW221651   2.869   1.994  16.085  0.2877 -0.3143 -0.7660
 3398SOL     OW21652   2.918   2.805   8.210  0.1666 -0.0757  0.0722
 3398SOL    HW121653   2.825   2.814   8.232  0.4999  0.1280  1.4046
 3398SOL    HW221654   2.931   2.716   8.242 -0.7992  0.0077  0.6890
 3399SOL     OW21655   1.482   0.339   5.219  0.3972 -0.0572 -0.1394
 3399SOL    HW121656   1.574   0.323   5.196  0.4288  1.7704 -1.2448
 3399SOL    HW221657   1.442   0.252   5.214  0.5815 -0.2427  1.5739
 3400SOL     OW21658   1.330   3.654   4.648  0.2337 -0.2740 -0.5673
 3400SOL    HW121659   1.301   3.587   4.710  0.1510 -2.0121 -2.4463
 3400SOL    HW221660   1.300   3.606   4.570  1.2883 -2.4869  0.3614
 3401SOL     OW21661   4.343   3.853   4.996  0.6457 -0.1014  0.5541
 3401SOL    HW121662   4.390   3.824   4.918 -0.8462  1.5746 -0.9870
 3401SOL    HW221663   4.408   3.900   5.048 -0.3990  1.5548  0.3792
 3402SOL     OW21664   1.167   2.264   7.169 -0.4063 -0.4568  0.3936
 3402SOL    HW121665   1.237   2.210   7.132 -1.1648 -3.4539  3.3959
 3402SOL    HW221666   1.143   2.317   7.093  2.3199 -2.6779 -2.0099
 3403SOL     OW21667   0.284   2.870   1.917  0.1839 -0.3972 -0.2525
 3403SOL    HW121668   0.276   2.814   1.994 -0.5919 -0.1179 -0.1264
 3403SOL    HW221669   0.324   2.954   1.941 -0.0074 -0.6676  1.0011
 3404SOL     OW21670   1.597   2.046   8.971 -0.0191 -0.2298  0.3004
 3404SOL    HW121671   1.584   1.960   9.011  0.8013 -0.1848  0.6610
 3404SOL    HW221672   1.531   2.047   8.901 -1.4465  2.4407  1.6865
 3405SOL     OW21673   2.105   0.191   8.010  0.7923 -0.1787 -0.1706
 3405SOL    HW121674   2.085   0.238   7.929  1.9896  2.5171  1.1121
 3405SOL    HW221675   2.199   0.180   7.993  0.7729  0.4838 -0.7104
 3406SOL     OW21676   1.276   2.356   5.888 -0.0358  0.4238  0.3620
 3406SOL    HW121677   1.290   2.381   5.980  1.2170 -0.9523  0.5403
 3406SOL    HW221678   1.365   2.325   5.873  1.1280  4.7596 -1.7881
 3407SOL     OW21679   1.186   2.100   0.770  0.0947  0.2139 -0.5757
 3407SOL    HW121680   1.249   2.075   0.702  1.0752 -0.3656  0.5415
 3407SOL    HW221681   1.209   2.187   0.802  0.8625 -0.3253  0.3319
 3408SOL     OW21682   3.530   1.842   6.540 -0.8401  1.0476 -0.1758
 3408SOL    HW121683   3.498   1.926   6.506 -0.5954  1.1680 -0.1106
 3408SOL    HW221684   3.467   1.829   6.610  0.5005 -1.7804  0.5084
 3409SOL     OW21685   1.928   2.426  11.301 -0.0921  0.3011 -0.3242
 3409SOL    HW121686   1.931   2.363  11.373  1.2233  0.0034 -0.6353
 3409SOL    HW221687   1.849   2.405  11.253 -1.0252  2.8545  0.0594
 3410SOL     OW21688   2.244   2.493   4.900  0.4425  0.2276  0.1694
 3410SOL    HW121689   2.199   2.497   4.816  2.1454  0.6502 -0.7100
 3410SOL    HW221690   2.173   2.470   4.960  0.4782  1.0753  0.5357
 3411SOL     OW21691   0.166   2.664   7.543 -0.6780 -0.1837 -0.5378
 3411SOL    HW121692   0.206   2.626   7.465  1.6883  1.7564 -0.2626
 3411SOL    HW221693   0.184   2.599   7.610  0.9076  0.9930  0.1677
 3412SOL     OW21694   4.000   0.825   8.615  0.8190  0.0791  0.6932
 3412SOL    HW121695   4.045   0.765   8.554  0.6171  2.3906 -1.7383
 3412SOL    HW221696   4.071   0.887   8.633  0.0597  1.1029  0.1487
 3413SOL     OW21697   3.517   4.139   6.646 -0.2452 -0.3189  0.0271
 3413SOL    HW121698   3.490   4.210   6.705  1.3971 -0.7648  1.3135
 3413SOL    HW221699   3.611   4.147   6.660  0.0781 -0.7840 -1.8574
 3414SOL     OW21700   0.972   3.964  16.534 -0.3094 -0.2281 -0.0192
 3414SOL    HW121701   0.960   3.999  16.622 -1.3759  3.1576 -1.5205
 3414SOL    HW221702   0.959   3.872  16.557 -1.7454 -0.0523 -0.1043
 3415SOL     OW21703   0.293   1.040   3.816  0.2322 -0.0307  0.0519
 3415SOL    HW121704   0.256   1.096   3.747  0.0825 -0.3588 -0.1342
 3415SOL    HW221705   0.248   0.959   3.792  0.5170 -0.4968  1.1134
 3416SOL     OW21706   0.680   1.995   1.929 -0.3485 -0.2200  0.6031
 3416SOL    HW121707   0.737   1.931   1.888  0.2202  0.8547 -0.2851
 3416SOL    HW221708   0.701   2.080   1.890  1.7391 -0.7976  0.4858
 3417SOL     OW21709   0.024   2.343   2.380  0.3635  0.2502 -0.1010
 3417SOL    HW121710   4.667   2.391   2.408 -1.1789 -1.6774 -1.0435
 3417SOL    HW221711   0.001   2.256   2.413  2.3663 -0.9893 -1.9409
 3418SOL     OW21712   0.723   3.369   8.249  0.2636 -0.1631  0.7413
 3418SOL    HW121713   0.711   3.355   8.155 -0.7077 -0.3534  0.9016
 3418SOL    HW221714   0.660   3.431   8.285  0.5538  0.9269 -0.6318
 3419SOL     OW21715   2.478   1.276   5.652 -0.1216 -0.5739 -0.2112
 3419SOL    HW121716   2.572   1.258   5.641  0.0992 -0.7230  1.8850
 3419SOL    HW221717   2.476   1.371   5.643 -0.3431 -0.5885 -0.3187
 3420SOL     OW21718   1.344   0.038   5.870  0.1911 -0.5907  0.5968
 3420SOL    HW121719   1.436   0.019   5.851  0.0367 -0.7003 -0.0335
 3420SOL    HW221720   1.350   0.055   5.964 -2.4920 -5.9965  1.7789
 3421SOL     OW21721   0.935   3.307   2.995 -0.5131 -0.0632  0.5483
 3421SOL    HW121722   0.964   3.263   3.074  0.1036 -0.7539 -0.0660
 3421SOL    HW221723   0.906   3.237   2.936  2.5324  0.1989 -1.2663
 3422SOL     OW21724   4.349   2.275   1.907  0.2483 -0.3434 -0.1462
 3422SOL    HW121725   4.284   2.288   1.838 -0.9479  1.5333  1.3498
 3422SOL    HW221726   4.430   2.253   1.860  0.9747 -0.9796  1.3867
 3423SOL     OW21727   4.612   3.873   4.111 -0.2130  0.0525 -0.1466
 3423SOL    HW121728   4.648   3.883   4.023 -3.0346  1.1957 -1.1656
 3423SOL    HW221729   4.611   3.778   4.126  0.4770  0.1401  0.4110
 3424SOL     OW21730   1.563   3.889   9.029 -0.2889 -0.0439  0.4693
 3424SOL    HW121731   1.583   3.801   8.998  0.0743 -0.0543  0.7222
 3424SOL    HW221732   1.647   3.907   9.072  0.1921 -0.5564 -0.2474
 3425SOL     OW21733   0.298   4.441  10.477  0.2160  0.0960  0.2254
 3425SOL    HW121734   0.282   4.389  10.399  0.0042 -0.0359  0.3578
 3425SOL    HW221735   0.363   4.507  10.452  1.0743 -0.7244  0.2863
 3426SOL     OW21736   4.295   1.579   2.411  0.1472 -0.6495  0.3176
 3426SOL    HW121737   4.365   1.640   2.435  1.3307 -1.4801 -1.0558
 3426SOL    HW221738   4.223   1.633   2.444 -2.0347 -3.2730 -0.1781
 3427SOL     OW21739   1.910   4.336   9.467  0.1682 -0.4166 -0.3035
 3427SOL    HW121740   1.969   4.327   9.542  0.4196  0.3740 -0.4006
 3427SOL    HW221741   1.954   4.405   9.417 -0.3611  0.8461  0.9685
 3428SOL     OW21742   0.827   3.722   8.871  0.2131 -0.0517 -0.0331
 3428SOL    HW121743   0.733   3.725   8.889 -0.1295  0.1976 -1.9013
 3428SOL    HW221744   0.856   3.810   8.895 -0.9418  0.3080  0.0290
 3429SOL     OW21745   4.015   1.793   0.265 -0.1856  0.1736  0.2968
 3429SOL    HW121746   4.109   1.782   0.254 -0.2439 -0.2070  0.1788
 3429SOL    HW221747   3.988   1.725   0.204 -3.2742  1.7933 -0.1424
 3430SOL     OW21748   1.338   2.963  14.418 -0.2312 -0.0843 -0.6896
 3430SOL    HW121749   1.254   2.979  14.461 -1.0610 -1.2777 -1.8682
 3430SOL    HW221750   1.398   2.988  14.488 -0.1354 -0.4157 -0.6529
 3431SOL     OW21751   0.369   4.708   3.352  0.6236  0.1173  0.6159
 3431SOL    HW121752   0.448   0.025   3.389 -0.3127  2.5197  0.1156
 3431SOL    HW221753   0.364   0.033   3.268  0.6863  1.1630  1.1905
 3432SOL     OW21754   4.367   0.030   6.969 -0.8276  0.8880 -0.0765
 3432SOL    HW121755   4.335   0.087   6.900  0.2895  2.2644  0.5288
 3432SOL    HW221756   4.313   0.041   7.047  1.2253  0.3642  1.4523
 3433SOL     OW21757   2.517   4.319  14.524 -0.1132  0.4808  0.1157
 3433SOL    HW121758   2.581   4.250  14.541 -0.8592 -0.6610 -1.7250
 3433SOL    HW221759   2.581   4.390  14.534 -2.0949  2.2148  0.4823
 3434SOL     OW21760   1.357   1.637   6.650  0.0682 -0.5242  0.3434
 3434SOL    HW121761   1.364   1.559   6.595  2.6781 -0.2843  0.3206
 3434SOL    HW221762   1.274   1.677   6.626  0.3596 -0.5124 -0.6314
 3435SOL     OW21763   2.213   0.291   9.275 -0.5064 -0.1344  0.2358
 3435SOL    HW121764   2.194   0.377   9.237  0.5881 -0.8998 -2.0638
 3435SOL    HW221765   2.129   0.252   9.248 -0.2068  1.0935 -2.5340
 3436SOL     OW21766   1.086   0.344   8.995 -0.0647 -0.2412  0.1396
 3436SOL    HW121767   1.043   0.429   8.987  0.0078 -0.2965 -0.8093
 3436SOL    HW221768   1.090   0.318   8.903 -2.0065  0.1582 -0.0574
 3437SOL     OW21769   4.274   1.959   5.764 -0.1066 -0.6482 -0.4150
 3437SOL    HW121770   4.334   2.022   5.802 -0.8839  0.1966 -0.5743
 3437SOL    HW221771   4.329   1.881   5.770 -0.1534 -0.7348 -1.0003
 3438SOL     OW21772   3.904   1.481  15.451  0.3016  0.0432 -0.5275
 3438SOL    HW121773   3.861   1.538  15.388 -0.3101 -0.6643 -0.7449
 3438SOL    HW221774   3.979   1.529  15.488 -0.8435  0.6010  1.0605
 3439SOL     OW21775   0.898   2.372   4.208 -0.2529 -0.2550  0.0388
 3439SOL    HW121776   0.971   2.411   4.160  0.9122  1.1539  2.9818
 3439SOL    HW221777   0.898   2.286   4.165 -0.4184 -0.6288  0.7713
 3440SOL     OW21778   3.838   2.658   4.318 -0.4088 -0.0171 -0.5442
 3440SOL    HW121779   3.862   2.743   4.357  2.3110 -0.9445 -0.2065
 3440SOL    HW221780   3.920   2.620   4.286 -0.1496  1.3582 -1.5501
 3441SOL     OW21781   3.052   1.883   5.042 -0.1909 -0.2520 -0.3602
 3441SOL    HW121782   3.026   1.851   5.129  1.0609  0.5689  0.3142
 3441SOL    HW221783   3.144   1.909   5.054  0.3885 -2.5758  0.3213
 3442SOL     OW21784   3.887   4.099  14.778  0.4628  0.1425  0.2005
 3442SOL    HW121785   3.943   4.053  14.714 -0.5260 -1.3261  0.3826
 3442SOL    HW221786   3.958   4.156  14.806 -0.7481  0.5417  2.4219
 3443SOL     OW21787   3.857   0.743   3.642 -0.0606 -0.0500  0.3908
 3443SOL    HW121788   3.811   0.826   3.656  0.4893  0.3774 -0.3826
 3443SOL    HW221789   3.781   0.685   3.648  0.4858 -0.6969  1.0176
 3444SOL     OW21790   1.159   1.775   6.562  0.6455  0.0304 -0.4252
 3444SOL    HW121791   1.180   1.859   6.604 -2.0509  0.8217 -0.6422
 3444SOL    HW221792   1.068   1.800   6.545  0.0140 -1.9254  0.1135
 3445SOL     OW21793   3.587   4.673  14.582  0.0494  0.4178  0.2691
 3445SOL    HW121794   3.571   4.687  14.676  0.7014  0.1474  0.4221
 3445SOL    HW221795   3.500   4.644  14.553  0.8413 -1.8054  0.1351
 3446SOL     OW21796   0.893   0.188   5.029  0.4834 -0.1888 -0.5450
 3446SOL    HW121797   0.962   0.237   4.985  0.0608  1.3909  0.5500
 3446SOL    HW221798   0.924   0.098   5.017  1.2667 -0.1198  1.0677
 3447SOL     OW21799   0.896   1.892   1.277  0.2082 -0.1864 -0.0709
 3447SOL    HW121800   0.858   1.969   1.236 -0.0640 -1.9071 -3.1227
 3447SOL    HW221801   0.848   1.822   1.233 -2.0519  0.8070  0.8606
 3448SOL     OW21802   2.918   0.698  11.635 -0.1101 -0.0782  0.1314
 3448SOL    HW121803   2.962   0.756  11.573  0.5155 -1.3887 -0.6672
 3448SOL    HW221804   2.842   0.667  11.587 -1.3977  2.9755  0.1989
 3449SOL     OW21805   3.920   4.102   5.053 -0.0611 -0.1377 -0.0741
 3449SOL    HW121806   3.941   4.166   5.121  3.0972 -0.5268 -0.7149
 3449SOL    HW221807   4.006   4.061   5.057 -1.2623 -2.6489  0.1489
 3450SOL     OW21808   0.454   4.086   7.809  0.1821  0.2520  0.3264
 3450SOL    HW121809   0.533   4.052   7.851  0.9010 -1.5419 -2.4993
 3450SOL    HW221810   0.391   4.014   7.805 -0.6449  0.9856  0.2997
 3451SOL     OW21811   3.622   4.314   2.292 -0.2360 -0.0763  0.0112
 3451SOL    HW121812   3.654   4.338   2.379 -0.2591 -0.3382  0.0931
 3451SOL    HW221813   3.611   4.400   2.252 -0.4307 -0.9250 -1.7375
 3452SOL     OW21814   0.309   4.337   2.492 -0.0310  0.2502  0.0494
 3452SOL    HW121815   0.397   4.316   2.460 -1.5516 -3.3413 -1.7993
 3452SOL    HW221816   0.288   4.424   2.458 -3.8352  0.1713  2.2573
 3453SOL     OW21817   2.093   3.400   5.314 -0.3926  0.0255 -0.5171
 3453SOL    HW121818   2.098   3.336   5.242  0.7391 -3.0084  2.2386
 3453SOL    HW221819   1.999   3.415   5.303 -0.4708 -0.0586  0.0855
 3454SOL     OW21820   3.551   3.922   7.149  0.3664  0.2289  0.1126
 3454SOL    HW121821   3.486   3.970   7.200 -0.3608 -1.5679  0.9146
 3454SOL    HW221822   3.485   3.861   7.116  1.8792 -1.2158 -0.2787
 3455SOL     OW21823   1.171   1.398   0.898  0.4088 -0.5772  0.2003
 3455SOL    HW121824   1.094   1.448   0.869 -0.1276 -1.4177  0.1534
 3455SOL    HW221825   1.232   1.465   0.928 -0.2279  0.7611 -1.4444
 3456SOL     OW21826   0.079   3.860   8.737  0.4583  0.1718  0.1778
 3456SOL    HW121827   0.012   3.883   8.673  0.8124 -2.9928 -1.2926
 3456SOL    HW221828   0.107   3.943   8.776 -2.2081  0.2087  2.0306
 3457SOL     OW21829   4.165   2.808  11.802  0.5773  0.3860 -0.3913
 3457SOL    HW121830   4.164   2.896  11.765 -1.6125  0.6011  0.1869
 3457SOL    HW221831   4.184   2.823  11.895  1.1533 -1.6792 -0.1693
 3458SOL     OW21832   0.045   4.022  10.049  0.2437 -0.0541  0.1078
 3458SOL    HW121833   0.059   4.112  10.018 -0.1340 -0.4635 -1.2389
 3458SOL    HW221834   4.685   3.997  10.004 -1.6789 -0.3712  3.6844
 3459SOL     OW21835   3.717   2.729   7.971 -0.1915 -0.2497  0.3114
 3459SOL    HW121836   3.704   2.823   7.960 -2.6171 -0.7547 -1.3104
 3459SOL    HW221837   3.661   2.710   8.046  0.1801  0.3427  0.7335
 3460SOL     OW21838   0.528   1.488  15.353 -0.2478  0.3300 -0.7290
 3460SOL    HW121839   0.475   1.497  15.432  1.6623 -0.0939  0.6147
 3460SOL    HW221840   0.619   1.502  15.382 -1.3750 -1.2079  3.5957
 3461SOL     OW21841   4.279   4.224   8.363 -0.5034 -0.7554 -0.2877
 3461SOL    HW121842   4.285   4.315   8.336 -0.3104 -0.7284 -0.1526
 3461SOL    HW221843   4.195   4.224   8.409  0.1350  0.4602  0.8879
 3462SOL     OW21844   4.477   3.844   8.308 -0.1525 -0.0915  0.5644
 3462SOL    HW121845   4.486   3.749   8.304  4.1406  0.3546  0.4930
 3462SOL    HW221846   4.392   3.853   8.352  0.4262  1.0000  1.4452
 3463SOL     OW21847   4.489   0.524   5.826 -0.0893 -0.5808  0.0203
 3463SOL    HW121848   4.574   0.481   5.819 -1.0667 -2.7387  1.5293
 3463SOL    HW221849   4.512   0.615   5.808 -0.5938  0.0025  2.4095
 3464SOL     OW21850   1.128   3.991   6.763 -0.8300 -0.5349  0.1724
 3464SOL    HW121851   1.114   4.062   6.825 -1.4089  0.5004 -1.1414
 3464SOL    HW221852   1.220   3.972   6.785 -0.2275  2.7300  0.5357
 3465SOL     OW21853   3.725   2.117   5.952 -0.2985  0.1917 -0.2903
 3465SOL    HW121854   3.726   2.105   6.047  1.6320  0.6382 -0.2529
 3465SOL    HW221855   3.810   2.081   5.924 -0.4742 -2.4325  2.5200
 3466SOL     OW21856   4.660   4.611   7.807  0.0521 -0.5661  0.2294
 3466SOL    HW121857   4.590   4.572   7.858 -0.4837 -0.3717 -0.3605
 3466SOL    HW221858   0.000   4.537   7.806 -0.5921 -1.0668 -1.4933
 3467SOL     OW21859   3.685   2.187  11.864 -0.0482  0.2315 -0.1541
 3467SOL    HW121860   3.703   2.200  11.957 -0.3606 -2.2980  0.2568
 3467SOL    HW221861   3.731   2.264  11.831  0.4778 -0.6216 -1.4146
 3468SOL     OW21862   0.895   0.855   1.404  0.3959  0.2029 -0.2785
 3468SOL    HW121863   0.802   0.840   1.389 -0.0197  1.7564  0.7823
 3468SOL    HW221864   0.898   0.887   1.494 -1.4952  1.7695 -0.7883
 3469SOL     OW21865   0.953   1.467  11.382 -0.1542  0.1040 -0.0006
 3469SOL    HW121866   0.905   1.415  11.445 -2.8967  2.8776  0.2064
 3469SOL    HW221867   0.888   1.482  11.313  1.0095 -1.5325 -1.4800
 3470SOL     OW21868   2.081   0.302   3.211  0.1768  0.2539  0.3750
 3470SOL    HW121869   2.092   0.303   3.307  0.0311  0.9882  0.3865
 3470SOL    HW221870   2.170   0.321   3.180  0.0536  0.1042 -0.0688
 3471SOL     OW21871   1.945   4.095   7.981  0.2117 -0.1093 -0.2253
 3471SOL    HW121872   1.851   4.077   7.986  0.2529 -0.8734 -2.3045
 3471SOL    HW221873   1.963   4.157   8.053  0.2049  0.9856 -1.1668
 3472SOL     OW21874   1.531   0.379   1.695  0.4012 -0.6939  0.0622
 3472SOL    HW121875   1.462   0.391   1.630 -1.1790  0.9571  2.0758
 3472SOL    HW221876   1.608   0.376   1.638 -0.5911  0.1110 -1.3342
 3473SOL     OW21877   1.965   2.559   9.859 -0.0597  0.4806 -0.4684
 3473SOL    HW121878   1.910   2.550   9.781 -0.8699  1.1646  0.0186
 3473SOL    HW221879   1.902   2.568   9.930  2.0043  0.1611  1.3926
 3474SOL     OW21880   4.106   2.242  17.014 -0.5439  0.7792  0.1561
 3474SOL    HW121881   4.107   2.197  16.929  1.8485 -0.8168  1.0247
 3474SOL    HW221882   4.113   2.168  17.075  0.6803  1.0478  0.3452
 3475SOL     OW21883   3.522   3.148  11.342  0.3318 -0.0390 -0.1721
 3475SOL    HW121884   3.437   3.114  11.313  0.6524 -1.3602  0.4587
 3475SOL    HW221885   3.543   3.098  11.421  1.1562 -0.3258 -0.5786
 3476SOL     OW21886   4.345   0.533   2.329 -0.1616 -0.1112 -0.2724
 3476SOL    HW121887   4.399   0.597   2.375 -1.3199 -0.1312  1.1043
 3476SOL    HW221888   4.318   0.588   2.255 -2.3035 -0.2078  0.4424
 3477SOL     OW21889   3.868   1.953   7.619  0.4047  0.2792  0.4608
 3477SOL    HW121890   3.913   1.977   7.700 -0.2986  0.9105  0.6706
 3477SOL    HW221891   3.792   2.012   7.624  0.6373  0.4447  1.9466
 3478SOL     OW21892   2.053   0.455  15.003  0.3284 -0.1026 -0.2874
 3478SOL    HW121893   2.143   0.476  15.026 -0.2358  1.5464  0.3970
 3478SOL    HW221894   2.006   0.460  15.086  1.6043 -0.6148  0.4709
 3479SOL     OW21895   2.216   4.266   0.943 -0.0385 -0.1962  0.4913
 3479SOL    HW121896   2.252   4.193   0.994  1.3674 -0.6933 -1.2093
 3479SOL    HW221897   2.128   4.272   0.980  0.2927 -0.2701  1.2999
 3480SOL     OW21898   2.544   2.458   6.836 -0.1968 -0.1506 -0.7611
 3480SOL    HW121899   2.539   2.458   6.740 -0.3777 -2.4384 -0.7665
 3480SOL    HW221900   2.591   2.539   6.853 -2.6709  0.7623  1.5610
 3481SOL     OW21901   4.176   0.852   7.675  0.4806  0.2719  0.1844
 3481SOL    HW121902   4.257   0.899   7.695  0.4389  0.5714 -0.3491
 3481SOL    HW221903   4.112   0.922   7.688 -1.9381 -1.4700 -2.3549
 3482SOL     OW21904   0.353   1.043   9.709 -0.1439  0.0228 -0.5035
 3482SOL    HW121905   0.442   1.078   9.700 -0.8610  1.8307 -0.7285
 3482SOL    HW221906   0.359   0.955   9.745  0.2181  1.5799  3.3074
 3483SOL     OW21907   2.485   3.975   2.387  0.1297 -0.1482 -0.1530
 3483SOL    HW121908   2.530   3.951   2.468 -0.6045  0.7280  0.5181
 3483SOL    HW221909   2.398   3.936   2.402  0.5847 -1.3971 -0.7537
 3484SOL     OW21910   0.632   2.296  17.582  0.1687 -0.6596 -0.1304
 3484SOL    HW121911   0.680   2.339  17.653 -0.1312 -0.1411 -0.2407
 3484SOL    HW221912   0.705   2.264  17.530  1.8255 -0.5548  2.1650
 3485SOL     OW21913   1.409   1.281   6.810  0.2820  0.6050  0.5708
 3485SOL    HW121914   1.405   1.276   6.714  2.3026 -1.3007  0.6053
 3485SOL    HW221915   1.324   1.259   6.847  0.4498 -1.8631 -0.5195
 3486SOL     OW21916   0.201   1.000   5.119 -0.0326 -0.1964  0.4285
 3486SOL    HW121917   0.227   1.012   5.211 -2.5330  2.0574  0.8605
 3486SOL    HW221918   0.106   0.988   5.124 -0.0266 -0.6100 -0.4939
 3487SOL     OW21919   3.404   3.252  14.719  0.7929  0.9926  0.3475
 3487SOL    HW121920   3.496   3.232  14.699  0.5503  1.2258 -0.9944
 3487SOL    HW221921   3.359   3.167  14.717 -0.6060  1.7317  0.7280
 3488SOL     OW21922   2.991   3.777  12.266 -0.4627  0.2966 -0.2222
 3488SOL    HW121923   3.068   3.722  12.251 -1.0228 -0.5138 -0.1070
 3488SOL    HW221924   2.964   3.735  12.348  1.0675 -0.1526  0.0555
 3489SOL     OW21925   1.050   1.409  15.229 -0.6132 -0.7707 -0.1065
 3489SOL    HW121926   0.978   1.437  15.174  1.2059  2.1693 -0.9654
 3489SOL    HW221927   1.021   1.414  15.320 -0.3874 -1.0798 -0.0149
 3490SOL     OW21928   4.376   0.990  11.292  0.0670  0.4460 -0.6156
 3490SOL    HW121929   4.285   1.019  11.285 -0.4168 -0.7381  0.9439
 3490SOL    HW221930   4.359   0.897  11.303  1.4412  0.2162 -0.4051
 3491SOL     OW21931   0.790   3.317   2.022  0.1416  0.1502 -0.1194
 3491SOL    HW121932   0.829   3.238   1.986 -0.6808  0.2067 -1.1095
 3491SOL    HW221933   0.717   3.344   1.967  1.4496 -0.1643 -2.0191
 3492SOL     OW21934   3.498   3.242   3.441 -0.5163 -0.3267  0.3504
 3492SOL    HW121935   3.476   3.221   3.532 -1.1541  1.0322  0.5074
 3492SOL    HW221936   3.560   3.177   3.408 -1.2345 -0.3973 -0.8511
 3493SOL     OW21937   2.650   1.957   6.764 -1.0356  0.2003  0.0312
 3493SOL    HW121938   2.624   2.038   6.809 -0.1654  0.3757  0.2217
 3493SOL    HW221939   2.666   1.908   6.845  0.0187  2.6880  1.3491
 3494SOL     OW21940   2.059   4.577   0.321  0.3918  0.1368 -0.7952
 3494SOL    HW121941   2.119   4.617   0.384 -0.8487  0.2518  0.3331
 3494SOL    HW221942   2.002   4.651   0.299 -0.4178 -0.3193 -0.2075
 3495SOL     OW21943   2.396   3.422   5.185 -0.2117  0.3498  0.9230
 3495SOL    HW121944   2.431   3.435   5.273 -1.7022 -1.4211  1.7945
 3495SOL    HW221945   2.342   3.501   5.192 -1.0772 -0.1100 -0.4607
 3496SOL     OW21946   3.852   4.353   3.163  0.7897 -0.2735 -0.6637
 3496SOL    HW121947   3.911   4.332   3.236 -1.5407  0.0904  1.3247
 3496SOL    HW221948   3.769   4.322   3.200  0.5081  1.4325  0.1275
 3497SOL     OW21949   3.010   2.256   7.071  0.2812 -0.0889  0.0186
 3497SOL    HW121950   3.102   2.258   7.098  0.2442  0.6406  0.0785
 3497SOL    HW221951   2.965   2.294   7.147  0.3921  0.9660 -0.4471
 3498SOL     OW21952   3.777   2.249  13.245 -0.0491 -0.0351 -0.0390
 3498SOL    HW121953   3.692   2.228  13.283 -1.2021  1.7614 -1.5924
 3498SOL    HW221954   3.821   2.248  13.330  0.8737  0.3289 -0.5152
 3499SOL     OW21955   3.276   2.846   3.081 -0.0919 -0.0071  0.4208
 3499SOL    HW121956   3.319   2.901   3.147 -0.3862  2.5504 -1.4983
 3499SOL    HW221957   3.202   2.810   3.130 -0.2397 -0.1501  0.0914
 3500SOL     OW21958   1.512   3.109  11.293  0.5623 -0.1083 -0.2298
 3500SOL    HW121959   1.573   3.042  11.325 -1.1143 -2.5043 -2.0180
 3500SOL    HW221960   1.437   3.061  11.256  1.6211 -0.4551 -1.9236
 3501SOL     OW21961   3.223   4.682   6.217  0.1623 -0.2852  0.2729
 3501SOL    HW121962   3.286   4.686   6.289 -1.2985  0.6624  1.5196
 3501SOL    HW221963   3.148   4.721   6.264  0.4086  1.9218 -1.1474
 3502SOL     OW21964   2.164   0.009   2.685  0.2129 -0.1363 -0.1859
 3502SOL    HW121965   2.156   0.102   2.662 -2.1256 -0.3903 -0.4054
 3502SOL    HW221966   2.255   0.003   2.712 -0.1496 -0.8689  0.8618
 3503SOL     OW21967   1.286   4.647   0.797 -0.8626  0.3365  0.2117
 3503SOL    HW121968   1.312   4.556   0.785 -0.2446  0.5004  0.3120
 3503SOL    HW221969   1.232   4.650   0.876  1.2147  0.5711  1.6106
 3504SOL     OW21970   4.006   2.173   7.276 -0.3178  0.1542  0.6854
 3504SOL    HW121971   4.019   2.184   7.182 -2.6239  3.5157  0.7543
 3504SOL    HW221972   3.974   2.083   7.290  0.4076 -0.5615 -2.3604
 3505SOL     OW21973   1.786   1.364   8.242  0.2803 -0.1897  0.6577
 3505SOL    HW121974   1.874   1.335   8.218 -0.6948 -1.2116 -1.6415
 3505SOL    HW221975   1.788   1.457   8.219  0.1323  0.0346  1.5499
 3506SOL     OW21976   1.501   2.577   2.853 -0.3778 -0.3918  0.2507
 3506SOL    HW121977   1.422   2.558   2.803 -0.1468 -0.8822  0.0693
 3506SOL    HW221978   1.563   2.558   2.782  0.8458 -3.9257  2.2604
 3507SOL     OW21979   2.330   0.685   5.914 -0.5425  0.1496  0.6090
 3507SOL    HW121980   2.270   0.750   5.951 -1.7237 -1.2179  1.0999
 3507SOL    HW221981   2.318   0.699   5.820  2.3413 -1.0945  0.0393
 3508SOL     OW21982   3.969   3.971   4.209 -0.0568 -0.4048  0.1100
 3508SOL    HW121983   4.009   4.036   4.267  0.8832  0.5552 -1.5982
 3508SOL    HW221984   3.887   3.940   4.246 -0.5937  1.4235  0.4530
 3509SOL     OW21985   1.893   2.335  10.570 -0.2371 -0.3810  0.1101
 3509SOL    HW121986   1.932   2.270  10.629  2.6111  1.0184 -0.2408
 3509SOL    HW221987   1.966   2.376  10.523 -0.5924  0.9534  0.7150
 3510SOL     OW21988   0.428   1.979   2.683 -0.2605 -0.5937  0.7402
 3510SOL    HW121989   0.473   1.939   2.757 -2.2387 -1.1605  1.6473
 3510SOL    HW221990   0.454   1.911   2.621  0.2551  0.1796  0.1079
 3511SOL     OW21991   2.143   3.424   3.231 -0.2078 -0.0294  0.0256
 3511SOL    HW121992   2.070   3.401   3.288 -0.5780  1.3499  0.0966
 3511SOL    HW221993   2.207   3.468   3.287  0.7364 -0.8239 -0.4245
 3512SOL     OW21994   1.227   3.473  16.777 -0.6399  0.3070  1.0165
 3512SOL    HW121995   1.290   3.545  16.776  1.5326 -1.5889  1.1417
 3512SOL    HW221996   1.277   3.392  16.786 -0.6051  0.1101 -1.0812
 3513SOL     OW21997   4.029   3.584   6.574  0.0777  0.1032 -0.5569
 3513SOL    HW121998   3.947   3.632   6.584 -0.1335 -1.0062  2.9681
 3513SOL    HW221999   4.019   3.581   6.479  1.9976 -0.9679 -0.7240
 3514SOL     OW22000   0.801   2.470  11.673  0.2324  0.1760  0.1597
 3514SOL    HW122001   0.821   2.548  11.621  1.7121 -0.4047 -0.1304
 3514SOL    HW222002   0.832   2.399  11.616 -1.8203 -0.8436  0.3185
 3515SOL     OW22003   3.323   0.166   6.705  0.2914  0.3396 -0.0156
 3515SOL    HW122004   3.399   0.224   6.715  1.5832 -1.6308  1.4418
 3515SOL    HW222005   3.261   0.228   6.666  2.0358  3.0082  1.4281
 3516SOL     OW22006   2.545   2.527   8.244  0.0344 -1.0135 -0.3137
 3516SOL    HW122007   2.506   2.440   8.252  1.6532 -1.5174  2.0083
 3516SOL    HW222008   2.596   2.522   8.164 -0.4702 -1.0019 -0.6393
 3517SOL     OW22009   3.965   1.824  15.440  0.5957 -0.1557  0.2704
 3517SOL    HW122010   4.036   1.816  15.376  1.2560 -2.1842  1.2424
 3517SOL    HW222011   3.978   1.908  15.484 -1.7848 -0.4706  1.5642
 3518SOL     OW22012   4.063   0.643  11.209 -0.2852 -0.1510 -0.0088
 3518SOL    HW122013   3.985   0.687  11.242 -2.2752 -1.1120 -3.4210
 3518SOL    HW222014   4.046   0.639  11.115 -1.0488 -0.6625  0.1493
 3519SOL     OW22015   3.323   2.986  15.331  0.3664  0.4567 -0.0980
 3519SOL    HW122016   3.237   3.012  15.364 -0.7227  1.0936 -3.5026
 3519SOL    HW222017   3.373   3.036  15.396 -0.0267  1.7988 -0.8239
 3520SOL     OW22018   4.428   2.105   7.961  0.6623  0.3215 -0.5349
 3520SOL    HW122019   4.375   2.168   8.010 -1.0360 -0.5417 -1.2625
 3520SOL    HW222020   4.411   2.133   7.871 -2.8895 -1.4002 -0.4311
 3521SOL     OW22021   3.451   2.240   7.827  0.8222  0.4304  0.1970
 3521SOL    HW122022   3.439   2.275   7.739  1.3241 -0.0973 -0.0761
 3521SOL    HW222023   3.423   2.149   7.820  0.4256  0.5838 -0.2286
 3522SOL     OW22024   2.533   3.032   4.341  0.4903 -0.6255 -0.3189
 3522SOL    HW122025   2.485   3.007   4.262  1.9517  1.4024 -1.8463
 3522SOL    HW222026   2.548   2.947   4.382  2.2085 -0.3671 -0.4080
 3523SOL     OW22027   1.282   0.310   3.811  0.0135 -0.3549 -0.8975
 3523SOL    HW122028   1.218   0.248   3.775 -0.2964 -0.5532  0.0007
 3523SOL    HW222029   1.333   0.340   3.736  1.9039 -2.2552 -0.3804
 3524SOL     OW22030   3.339   3.337   6.468  0.0847  0.0582  0.6921
 3524SOL    HW122031   3.358   3.318   6.377  1.8650 -1.3600  1.3644
 3524SOL    HW222032   3.366   3.427   6.488 -1.7734  0.9947 -1.0004
 3525SOL     OW22033   3.940   3.056   2.878  0.1110 -0.5321  0.3310
 3525SOL    HW122034   4.015   3.101   2.917 -1.1920 -0.4537  2.7280
 3525SOL    HW222035   3.932   3.097   2.792 -0.2992  2.6671  1.9037
 3526SOL     OW22036   1.269   1.006  16.256  0.1659 -0.1230 -0.2182
 3526SOL    HW122037   1.219   1.073  16.304  0.2008  1.2195 -2.0774
 3526SOL    HW222038   1.350   1.010  16.307  0.1612 -1.7381 -0.0958
 3527SOL     OW22039   3.758   0.665   4.222  0.1046  0.0059 -0.1861
 3527SOL    HW122040   3.755   0.625   4.136 -0.1888 -1.9090  0.7221
 3527SOL    HW222041   3.664   0.682   4.236 -0.0400  0.9224 -2.2514
 3528SOL     OW22042   2.108   1.043   3.394 -0.7599 -0.6879  0.0105
 3528SOL    HW122043   2.177   1.096   3.432  0.4113 -2.8148  0.8112
 3528SOL    HW222044   2.053   1.117   3.369 -0.0343 -0.2732 -0.3414
 3529SOL     OW22045   3.684   2.032  17.674 -0.2155 -0.3218  0.2743
 3529SOL    HW122046   3.694   2.119   0.026  1.1948  0.1948 -1.2691
 3529SOL    HW222047   3.775   2.004  17.664 -0.5809 -0.8495 -1.7598
 3530SOL     OW22048   3.589   2.471   6.040  0.1062 -0.1091  0.5605
 3530SOL    HW122049   3.528   2.397   6.034 -1.0292  0.8614  0.0971
 3530SOL    HW222050   3.663   2.436   6.089 -0.6079 -0.2019  1.5790
 3531SOL     OW22051   1.746   0.582   8.390 -0.3828 -0.1816  0.3795
 3531SOL    HW122052   1.801   0.644   8.437  2.6269 -1.5606 -1.3534
 3531SOL    HW222053   1.814   0.515   8.396 -0.9969 -0.7069  1.6186
 3532SOL     OW22054   0.072   2.776   1.698 -0.2733 -0.0897 -0.0874
 3532SOL    HW122055   0.028   2.702   1.739 -0.9128 -0.4765 -1.4326
 3532SOL    HW222056   0.107   2.811   1.779 -1.0231 -0.5786  0.4475
 3533SOL     OW22057   4.649   3.011   3.855  0.8154  0.1038 -0.2957
 3533SOL    HW122058   4.616   2.933   3.901 -1.2558  2.0949  1.5806
 3533SOL    HW222059   0.004   3.026   3.911  0.6194  0.1974 -0.0554
 3534SOL     OW22060   3.858   3.230   3.216 -0.2400 -0.1842 -0.4705
 3534SOL    HW122061   3.819   3.310   3.180  0.0271  0.2776  0.2555
 3534SOL    HW222062   3.950   3.255   3.211 -0.1163 -0.5324  0.1480
 3535SOL     OW22063   4.434   0.949   2.357 -0.3710 -0.3184  0.0989
 3535SOL    HW122064   4.415   0.966   2.265 -0.2949  2.3408  0.5718
 3535SOL    HW222065   4.351   0.983   2.391 -0.1891  1.8134 -1.5908
 3536SOL     OW22066   2.553   2.722   8.711 -0.3072 -0.4724 -0.1761
 3536SOL    HW122067   2.618   2.773   8.662  0.9080 -1.3649  0.5206
 3536SOL    HW222068   2.609   2.648   8.736  0.7481  0.5836  0.5611
 3537SOL     OW22069   1.673   2.876   8.703  0.0301  0.8585  0.3912
 3537SOL    HW122070   1.696   2.797   8.752 -1.8846 -0.1487 -0.3267
 3537SOL    HW222071   1.745   2.879   8.640  0.0303  1.4216  0.4123
 3538SOL     OW22072   4.419   3.737   6.488  0.1619  0.3825 -0.2953
 3538SOL    HW122073   4.383   3.690   6.563  0.6193  1.0346  0.3366
 3538SOL    HW222074   4.489   3.791   6.526 -0.3932  0.8960 -0.0073
 3539SOL     OW22075   3.758   4.213   0.610  0.6525 -0.3109  0.1444
 3539SOL    HW122076   3.675   4.209   0.658  0.4563  0.5511 -0.1221
 3539SOL    HW222077   3.820   4.247   0.673 -0.8028 -0.0112  1.4159
 3540SOL     OW22078   4.284   3.310  12.715 -0.5660 -0.1017  0.3943
 3540SOL    HW122079   4.221   3.366  12.671  0.2291 -1.0543 -1.9807
 3540SOL    HW222080   4.276   3.234  12.657  0.5563  1.6626 -2.0668
 3541SOL     OW22081   3.105   1.625   8.151  0.3765  0.1829 -0.0781
 3541SOL    HW122082   3.083   1.714   8.125 -1.0419 -0.0872  0.1810
 3541SOL    HW222083   3.048   1.615   8.227  0.2140  0.8522 -0.1085
 3542SOL     OW22084   2.170   4.257   6.974  0.5235  0.4926  0.5327
 3542SOL    HW122085   2.135   4.177   7.013 -0.9930  0.7773 -0.2158
 3542SOL    HW222086   2.172   4.321   7.045  1.0158 -0.2232  1.1579
 3543SOL     OW22087   3.652   3.759   5.690  0.1370  0.0568 -0.2701
 3543SOL    HW122088   3.596   3.836   5.678  0.3417  0.3625  0.7442
 3543SOL    HW222089   3.729   3.796   5.647 -0.4877  1.3401 -0.2899
 3544SOL     OW22090   2.479   4.287   4.728 -0.3202 -0.3706 -0.1278
 3544SOL    HW122091   2.541   4.291   4.655 -0.4209  0.4524 -0.1672
 3544SOL    HW222092   2.399   4.320   4.686 -0.5241  1.5064  1.7280
 3545SOL     OW22093   4.199   4.706   8.136  0.2049  0.8814 -0.3889
 3545SOL    HW122094   4.288   0.003   8.167  0.4281  2.1318 -1.7134
 3545SOL    HW222095   4.178   0.060   8.079 -0.0811  1.3249  0.3045
 3546SOL     OW22096   2.371   4.103   7.913 -0.5653  0.0547 -0.2297
 3546SOL    HW122097   2.463   4.122   7.894 -0.0795 -1.1147  0.9823
 3546SOL    HW222098   2.356   4.157   7.991 -0.9720  0.2105 -0.4156
 3547SOL     OW22099   3.715   3.219   2.492 -0.5883  0.8037 -0.2729
 3547SOL    HW122100   3.787   3.158   2.511 -0.9122  0.3417 -0.5334
 3547SOL    HW222101   3.765   3.270   2.428 -0.8109  0.4958 -0.6960
 3548SOL     OW22102   0.507   4.065  14.515  0.2582  0.2036  0.4100
 3548SOL    HW122103   0.462   4.057  14.599 -0.0423 -2.3887  0.0009
 3548SOL    HW222104   0.448   4.012  14.461 -0.5119 -0.4153  1.8252
 3549SOL     OW22105   4.158   2.079  16.479 -0.2797 -0.2883 -0.1282
 3549SOL    HW122106   4.158   2.162  16.432  0.3954  0.5688  1.4002
 3549SOL    HW222107   4.224   2.034  16.427 -0.4049  0.6616 -1.0930
 3550SOL     OW22108   2.157   2.332   4.225 -0.2795 -0.5535  0.1831
 3550SOL    HW122109   2.138   2.272   4.298  1.0012 -0.8540  0.2582
 3550SOL    HW222110   2.069   2.364   4.205  0.2197  0.6734 -0.0538
 3551SOL     OW22111   1.060   1.711  12.089 -0.0092  0.8619 -0.3219
 3551SOL    HW122112   1.064   1.667  12.004 -1.8583  3.2960 -1.6678
 3551SOL    HW222113   1.035   1.798  12.058 -0.9872 -0.3351 -2.9223
 3552SOL     OW22114   2.915   4.120   9.984  0.7703 -0.3317  0.5145
 3552SOL    HW122115   2.979   4.116  10.055  1.0542 -0.4874  0.2532
 3552SOL    HW222116   2.856   4.052  10.017 -0.4798  0.7853  0.5765
 3553SOL     OW22117   3.229   1.045  14.657 -0.3106 -0.3648 -0.3741
 3553SOL    HW122118   3.141   1.066  14.688 -0.4262 -1.5150  0.0817
 3553SOL    HW222119   3.277   1.092  14.724  1.1357 -3.8410  1.0447
 3554SOL     OW22120   3.961   1.720   3.196  0.2880 -0.5927  0.1214
 3554SOL    HW122121   3.993   1.809   3.214 -1.3966  0.1786 -0.6992
 3554SOL    HW222122   3.877   1.733   3.151  0.5085  0.2975 -0.0394
 3555SOL     OW22123   2.523   1.750   0.174  0.0467  0.1318 -0.1342
 3555SOL    HW122124   2.483   1.664   0.158  0.8426 -0.3721  0.5712
 3555SOL    HW222125   2.614   1.722   0.183  0.2774  1.4897  1.6609
 3556SOL     OW22126   0.226   0.255   9.350 -0.3296  0.4146  0.3897
 3556SOL    HW122127   0.240   0.318   9.280 -4.2917 -0.2694 -1.0260
 3556SOL    HW222128   0.134   0.256   9.377 -0.1945 -2.5163  0.9961
 3557SOL     OW22129   3.204   3.574  11.564  0.1262  0.3664  0.1284
 3557SOL    HW122130   3.125   3.601  11.611 -0.5522 -0.5098 -0.4765
 3557SOL    HW222131   3.190   3.597  11.472  0.8371  0.8697  0.1486
 3558SOL     OW22132   3.912   3.459   3.799  0.4855  0.3091  0.1628
 3558SOL    HW122133   3.967   3.442   3.722  2.4762  1.2711  1.3680
 3558SOL    HW222134   3.856   3.382   3.807 -0.1889  0.8160  0.3560
 3559SOL     OW22135   1.236   3.691   3.481 -0.3104 -0.5747  0.0874
 3559SOL    HW122136   1.212   3.772   3.435  0.1068 -0.7995 -0.5319
 3559SOL    HW222137   1.328   3.709   3.497 -0.0612 -1.6351 -0.1894
 3560SOL     OW22138   0.153   4.484  16.295  0.4624 -0.2583  0.1727
 3560SOL    HW122139   0.202   4.433  16.230 -0.7721 -1.2829  0.0611
 3560SOL    HW222140   0.084   4.422  16.317 -0.8617  0.4252 -2.0224
 3561SOL     OW22141   1.847   2.396  10.921  0.0494 -0.0867 -0.0303
 3561SOL    HW122142   1.775   2.439  10.969  0.1450 -0.2334  0.2435
 3561SOL    HW222143   1.793   2.342  10.863 -1.3528 -0.9012  2.0306
 3562SOL     OW22144   4.482   2.740   8.005 -0.7172 -0.0774  0.2895
 3562SOL    HW122145   4.439   2.670   7.956  0.6652 -1.6375  1.3147
 3562SOL    HW222146   4.424   2.756   8.080 -0.5960  1.2357  0.0916
 3563SOL     OW22147   3.746   0.872  11.751  0.0101 -0.3677 -0.1270
 3563SOL    HW122148   3.666   0.821  11.744 -0.8536  1.0196 -0.3361
 3563SOL    HW222149   3.817   0.812  11.777  1.6513 -0.1306 -4.0054
 3564SOL     OW22150   4.376   3.931   7.789  0.4268 -0.2050 -0.4571
 3564SOL    HW122151   4.377   4.020   7.751  1.1856 -0.3296 -0.7254
 3564SOL    HW222152   4.413   3.948   7.875  0.2920  0.9706 -0.6171
 3565SOL     OW22153   3.998   2.091   3.616 -0.1732  0.3085 -0.3301
 3565SOL    HW122154   4.085   2.070   3.648 -0.0861  1.1870 -0.0113
 3565SOL    HW222155   3.951   2.121   3.694 -1.1595 -1.5269 -0.2042
 3566SOL     OW22156   3.181   2.055   7.688 -0.0645 -0.2778 -0.2707
 3566SOL    HW122157   3.150   1.966   7.675 -1.4366  0.2565 -0.6770
 3566SOL    HW222158   3.218   2.066   7.600 -0.0829 -1.6302 -0.4364
 3567SOL     OW22159   1.856   1.915  13.473 -0.6127  0.0139 -0.2489
 3567SOL    HW122160   1.762   1.903  13.487  0.1514 -3.0215  2.4241
 3567SOL    HW222161   1.882   1.843  13.414  0.5619  0.1900  0.0552
 3568SOL     OW22162   1.026   2.319  11.874  0.7034  0.4424  0.4332
 3568SOL    HW122163   0.934   2.303  11.893  0.8258 -2.1572 -1.0085
 3568SOL    HW222164   1.053   2.232  11.843 -0.0028  0.4509 -0.1883
 3569SOL     OW22165   0.516   4.263  16.374 -0.0319  0.1640 -0.3561
 3569SOL    HW122166   0.576   4.328  16.411 -0.0092 -1.1247  1.9041
 3569SOL    HW222167   0.507   4.294  16.285 -0.4816 -0.7850 -0.6435
 3570SOL     OW22168   1.551   2.487   2.385  0.0032 -0.2377 -0.1638
 3570SOL    HW122169   1.527   2.525   2.300  1.6612  0.7140 -0.2146
 3570SOL    HW222170   1.489   2.539   2.436  0.4207 -0.4636  0.5624
 3571SOL     OW22171   0.405   2.617   5.820  0.3061 -0.1363  0.2809
 3571SOL    HW122172   0.398   2.544   5.881  1.0032 -0.5242 -0.1086
 3571SOL    HW222173   0.316   2.621   5.784  0.7619  2.0051 -0.5980
 3572SOL     OW22174   1.443   3.956   5.079  0.5453 -0.0880  0.3777
 3572SOL    HW122175   1.386   3.968   5.155  0.2766  2.4481 -0.2473
 3572SOL    HW222176   1.405   3.886   5.025  1.6070 -2.0893  2.2020
 3573SOL     OW22177   3.252   1.268   3.385  0.1551  0.1082 -0.0086
 3573SOL    HW122178   3.240   1.173   3.380  1.6977 -0.0990  0.0445
 3573SOL    HW222179   3.319   1.293   3.322 -0.5566 -3.2765 -2.0824
 3574SOL     OW22180   4.043   0.896  10.408  0.6451 -0.2394 -0.0176
 3574SOL    HW122181   4.062   0.944  10.489 -0.5030 -0.5215  0.4274
 3574SOL    HW222182   4.127   0.867  10.374  1.1273  2.1063 -0.8688
 3575SOL     OW22183   0.446   3.651   8.634  0.2719 -0.0258 -0.3640
 3575SOL    HW122184   0.516   3.588   8.619 -0.3615 -0.5321 -1.2135
 3575SOL    HW222185   0.476   3.683   8.719  1.3170 -0.6933 -0.4899
 3576SOL     OW22186   2.248   3.128  16.197  0.2424  0.0832 -0.4789
 3576SOL    HW122187   2.318   3.154  16.138  0.9699  0.8623  0.7157
 3576SOL    HW222188   2.201   3.211  16.196 -1.2593 -0.7292  1.9281
 3577SOL     OW22189   1.454   4.495  15.541  0.0938  0.2146 -0.3458
 3577SOL    HW122190   1.435   4.515  15.449  1.3732 -1.3532 -0.9561
 3577SOL    HW222191   1.465   4.586  15.569  0.3579  0.1995 -0.3927
 3578SOL     OW22192   4.307   0.890   1.907 -0.3134  0.3094  0.1140
 3578SOL    HW122193   4.213   0.905   1.916 -0.8060 -1.1939 -2.3874
 3578SOL    HW222194   4.343   0.931   1.985  1.9878 -1.6274  0.0589
 3579SOL     OW22195   3.028   2.037  14.870 -0.0710 -0.4994  0.0465
 3579SOL    HW122196   3.080   1.957  14.879 -0.5411 -0.7316  0.7756
 3579SOL    HW222197   3.008   2.036  14.777  0.5002  0.9968 -0.0879
 3580SOL     OW22198   3.907   3.209  15.980 -0.0185  0.5191  0.1924
 3580SOL    HW122199   3.888   3.118  16.000 -2.2084  0.9261 -0.0692
 3580SOL    HW222200   3.915   3.208  15.885 -1.7793  0.3257  0.0478
 3581SOL     OW22201   1.562   2.392   1.774  0.1020 -0.3907 -0.6297
 3581SOL    HW122202   1.556   2.326   1.704  0.3653 -1.4644  0.3582
 3581SOL    HW222203   1.600   2.468   1.730  0.8654 -0.1334  0.4807
 3582SOL     OW22204   0.987   1.080  16.000 -0.1476 -0.3840 -0.1433
 3582SOL    HW122205   1.083   1.088  15.994 -0.2332 -0.1355 -1.1928
 3582SOL    HW222206   0.968   1.006  15.943  2.5489 -0.7515 -0.5832
 3583SOL     OW22207   2.931   2.893   3.062 -0.1569 -0.0916 -0.0895
 3583SOL    HW122208   2.865   2.938   3.115  0.9991  1.2399  0.2160
 3583SOL    HW222209   2.983   2.832   3.114  1.1374  3.2722  2.5697
 3584SOL     OW22210   0.854   3.471  17.054 -0.2603 -0.0986 -0.0713
 3584SOL    HW122211   0.841   3.391  17.002  0.0601  0.2048 -0.6254
 3584SOL    HW222212   0.883   3.532  16.986  0.9935 -0.8780 -0.2461
 3585SOL     OW22213   1.903   2.927   5.967  0.8086 -0.1270 -0.7178
 3585SOL    HW122214   1.936   2.949   5.880  0.7347 -1.0879 -0.9786
 3585SOL    HW222215   1.842   2.856   5.947  1.6466 -0.8264 -0.7699
 3586SOL     OW22216   4.553   2.972   8.290 -0.3773  0.1307  0.2984
 3586SOL    HW122217   4.636   2.936   8.260 -2.5945 -3.7526 -1.1415
 3586SOL    HW222218   4.534   3.022   8.211 -0.3421  0.9245  0.7933
 3587SOL     OW22219   0.364   3.910  13.144 -0.4878  0.1288  0.4392
 3587SOL    HW122220   0.443   3.861  13.164  1.5024  3.1394 -0.1391
 3587SOL    HW222221   0.390   3.996  13.111  1.2949 -0.7315 -0.3668
 3588SOL     OW22222   1.506   2.898   6.534  0.0894  0.0049  0.5731
 3588SOL    HW122223   1.445   2.967   6.558 -1.2662 -0.9230 -0.2012
 3588SOL    HW222224   1.465   2.828   6.585  0.1610 -1.1059 -0.8620
 3589SOL     OW22225   4.539   4.652   5.705 -0.1432 -0.4114  0.2272
 3589SOL    HW122226   4.495   0.012   5.730  1.7406  0.8954 -0.6050
 3589SOL    HW222227   4.494   4.644   5.621 -0.6170 -0.4541  0.4894
 3590SOL     OW22228   3.163   1.343  12.474 -0.0221  0.0893 -0.2727
 3590SOL    HW122229   3.151   1.267  12.531 -1.3696 -2.4650 -3.9575
 3590SOL    HW222230   3.243   1.377  12.515 -1.0141  0.9961  0.9090
 3591SOL     OW22231   3.414   0.519   1.308  0.1855  0.1896 -0.5846
 3591SOL    HW122232   3.431   0.475   1.224  0.7435  1.1255 -0.9697
 3591SOL    HW222233   3.466   0.467   1.370  1.3749 -2.3316 -3.6545
 3592SOL     OW22234   1.555   1.529   3.208  0.1231 -0.1956  0.5728
 3592SOL    HW122235   1.473   1.529   3.258 -0.9380 -0.5992 -1.1775
 3592SOL    HW222236   1.534   1.512   3.117 -1.8325  1.8806  0.6287
 3593SOL     OW22237   2.367   0.927   5.497  0.0646 -0.1381  0.3791
 3593SOL    HW122238   2.288   0.975   5.520 -1.2896 -2.4288  0.4876
 3593SOL    HW222239   2.382   0.953   5.406  0.0540  1.2451  0.7759
 3594SOL     OW22240   1.985   2.154   6.041  0.1733 -0.2769 -0.2026
 3594SOL    HW122241   1.895   2.144   6.071  0.1534 -0.2221 -0.2456
 3594SOL    HW222242   1.980   2.138   5.947  1.0839 -1.1420 -0.1095
 3595SOL     OW22243   2.113   1.195   8.673 -0.2851 -0.1004 -0.4799
 3595SOL    HW122244   2.089   1.270   8.618 -0.3234  0.7807  0.7520
 3595SOL    HW222245   2.033   1.195   8.724  1.2934 -1.0250  2.0008
 3596SOL     OW22246   0.790   1.103   2.234 -0.0847 -0.2849 -0.3087
 3596SOL    HW122247   0.769   1.185   2.190 -2.8435  0.1609  1.8348
 3596SOL    HW222248   0.812   1.047   2.160  0.2263  0.4098 -0.7427
 3597SOL     OW22249   1.996   3.775   4.962  0.5401  0.5442  0.1948
 3597SOL    HW122250   2.049   3.797   5.039  0.2395 -1.3413  0.9241
 3597SOL    HW222251   2.019   3.685   4.941 -0.2653  0.2340  0.6671
 3598SOL     OW22252   0.041   3.243   8.449 -0.0138  0.2145  0.5554
 3598SOL    HW122253   0.125   3.202   8.467  0.0410 -0.6427 -1.5612
 3598SOL    HW222254   0.074   3.313   8.393  0.0018 -1.3294 -1.4031
 3599SOL     OW22255   3.273   3.878   8.773  0.0797  0.6781 -0.2009
 3599SOL    HW122256   3.232   3.809   8.720  1.0641 -0.9547  1.1392
 3599SOL    HW222257   3.208   3.947   8.779 -0.0424  0.4165  1.3770
 3600SOL     OW22258   0.109   4.534   7.250  0.3648  0.6590 -0.2396
 3600SOL    HW122259   0.151   4.563   7.168  0.8124  0.4633 -0.0812
 3600SOL    HW222260   0.040   4.600   7.261  0.9740  1.1608  0.5445
 3601SOL     OW22261   1.464   3.542   8.679 -0.6691 -0.5041 -0.3119
 3601SOL    HW122262   1.371   3.557   8.667 -0.7412 -0.4881  0.2452
 3601SOL    HW222263   1.503   3.599   8.612 -1.0391 -0.4219 -0.4534
 3602SOL     OW22264   1.323   2.433   2.703  0.5055 -0.6051  0.2024
 3602SOL    HW122265   1.396   2.371   2.696 -0.4598 -1.5606 -1.4176
 3602SOL    HW222266   1.250   2.374   2.723 -0.0952  0.0773 -0.0105
 3603SOL     OW22267   1.259   3.045  13.175 -0.5649  0.2286  0.2324
 3603SOL    HW122268   1.189   3.110  13.171  0.1140  0.8805 -0.9748
 3603SOL    HW222269   1.337   3.099  13.166 -0.7788  0.5160  0.0937
 3604SOL     OW22270   0.333   3.500   4.624  0.4186 -0.0260 -0.1746
 3604SOL    HW122271   0.368   3.571   4.677 -0.7704  0.3632  0.0787
 3604SOL    HW222272   0.368   3.423   4.670  0.4556 -0.0662 -0.2685
 3605SOL     OW22273   0.868   2.434   0.854  0.3963  0.1142  0.4953
 3605SOL    HW122274   0.894   2.398   0.939  2.0854  0.3589  0.0855
 3605SOL    HW222275   0.879   2.362   0.792  1.0323 -0.4605  1.2751
 3606SOL     OW22276   2.145   3.914   7.614 -0.1649 -0.5847 -0.0497
 3606SOL    HW122277   2.136   3.895   7.708 -0.6107 -0.0536  0.0135
 3606SOL    HW222278   2.232   3.877   7.598 -0.5304 -0.9838 -1.0705
 3607SOL     OW22279   3.977   0.702  11.750  0.8006  0.1781 -0.4995
 3607SOL    HW122280   3.972   0.612  11.782 -0.8742  0.7998  1.0144
 3607SOL    HW222281   4.055   0.734  11.795  0.6131  0.9987 -0.7564
 3608SOL     OW22282   1.978   0.292   6.008 -0.1261  0.0958 -0.0455
 3608SOL    HW122283   1.901   0.288   5.950 -0.6267  2.1539  0.4852
 3608SOL    HW222284   1.934   0.334   6.082 -1.9849 -2.0665  0.0992
 3609SOL     OW22285   2.610   2.149   2.689 -0.2156 -0.2567 -0.0283
 3609SOL    HW122286   2.549   2.084   2.722 -0.2584 -0.0356  0.3323
 3609SOL    HW222287   2.687   2.094   2.701 -0.2203 -0.1082  0.6792
 3610SOL     OW22288   3.986   0.851   5.203  0.6489 -0.3907 -0.2140
 3610SOL    HW122289   4.062   0.873   5.258 -0.0774  1.5546 -0.0068
 3610SOL    HW222290   4.010   0.770   5.158 -1.3079 -1.4385  0.6458
 3611SOL     OW22291   0.818   3.020  12.684  0.0917 -0.7366 -0.1595
 3611SOL    HW122292   0.743   3.080  12.692  2.5819  2.2707  0.3713
 3611SOL    HW222293   0.774   2.955  12.628 -1.3453 -0.3245  0.4796
 3612SOL     OW22294   3.202   4.219   5.830 -0.2450 -0.2259 -0.5618
 3612SOL    HW122295   3.140   4.153   5.861  0.9613 -0.2801  1.6813
 3612SOL    HW222296   3.145   4.296   5.825  0.0527  0.0973  0.9863
 3613SOL     OW22297   1.169   2.876  10.834 -0.3364 -0.3205 -0.4042
 3613SOL    HW122298   1.215   2.866  10.751  2.1563  0.8536  0.8540
 3613SOL    HW222299   1.112   2.950  10.811 -1.3476 -0.1603  2.5335
 3614SOL     OW22300   0.854   1.835   4.094 -0.2540 -0.3241 -0.8226
 3614SOL    HW122301   0.894   1.778   4.161 -0.1835 -0.0151 -0.6019
 3614SOL    HW222302   0.923   1.833   4.028 -0.1900  1.9725 -0.8248
 3615SOL     OW22303   3.495   1.786   0.451  0.0205  0.2892  0.0941
 3615SOL    HW122304   3.492   1.880   0.470 -0.9311  0.6264 -1.7459
 3615SOL    HW222305   3.555   1.802   0.378 -1.8752  1.5252 -1.1907
 3616SOL     OW22306   0.917   3.780   9.465 -0.4515  0.4751  0.3669
 3616SOL    HW122307   0.913   3.756   9.557  1.6280 -1.1306  0.0419
 3616SOL    HW222308   0.906   3.875   9.467  0.6625  0.6261 -0.5919
 3617SOL     OW22309   0.336   4.362   0.727  0.3510 -0.3951  0.6228
 3617SOL    HW122310   0.411   4.410   0.692 -0.7021  0.2457 -0.7478
 3617SOL    HW222311   0.370   4.379   0.815  0.0138  0.7404  0.5311
 3618SOL     OW22312   2.303   0.203   1.487  0.8920  0.2833  0.3770
 3618SOL    HW122313   2.361   0.263   1.533  1.2146 -1.2614  1.9856
 3618SOL    HW222314   2.217   0.230   1.518  1.8383  4.3187 -0.5628
 3619SOL     OW22315   0.380   2.006  11.817 -0.8713  0.7534  0.7119
 3619SOL    HW122316   0.372   1.932  11.876 -0.2883  2.1171  2.5089
 3619SOL    HW222317   0.288   2.024  11.796 -1.2967 -1.4569  0.7118
 3620SOL     OW22318   3.466   4.466  16.962 -0.1738  0.3734 -0.3134
 3620SOL    HW122319   3.429   4.419  16.887  0.2412 -1.4114  0.6178
 3620SOL    HW222320   3.468   4.396  17.027 -0.1765  0.5466 -0.1276
 3621SOL     OW22321   4.339   2.039   5.485  0.0932  0.1936  0.4838
 3621SOL    HW122322   4.328   2.020   5.578 -0.1860  3.5795  1.1507
 3621SOL    HW222323   4.264   2.000   5.441  1.5422 -1.4484 -0.5183
 3622SOL     OW22324   3.381   0.913   4.481 -0.4471 -0.0844 -0.5865
 3622SOL    HW122325   3.386   1.004   4.451 -1.7727  0.9801  2.4198
 3622SOL    HW222326   3.420   0.929   4.567  1.0797 -0.1412 -1.2711
 3623SOL     OW22327   2.861   1.352   7.149  0.0402  0.1211 -0.2144
 3623SOL    HW122328   2.825   1.285   7.091 -1.8948  0.8718  0.1227
 3623SOL    HW222329   2.792   1.379   7.209  0.6356 -0.2393  0.6371
 3624SOL     OW22330   1.677   1.389  15.409 -0.0652 -0.1363  0.2561
 3624SOL    HW122331   1.658   1.321  15.473 -0.2361 -1.5336 -1.2787
 3624SOL    HW222332   1.677   1.467  15.464 -2.2616 -1.0859  1.5657
 3625SOL     OW22333   1.032   3.554  10.413 -0.1362  0.4526 -0.0173
 3625SOL    HW122334   1.053   3.644  10.386  0.4426  0.4120  0.3015
 3625SOL    HW222335   1.100   3.534  10.477 -0.3403 -0.8115 -0.2079
 3626SOL     OW22336   2.509   0.508   0.048  0.3579  0.3770 -0.0287
 3626SOL    HW122337   2.572   0.567   0.007 -0.1716  0.9364 -0.0326
 3626SOL    HW222338   2.529   0.428  17.685  0.0159 -0.3699  1.0475
 3627SOL     OW22339   4.290   3.142   7.658 -0.2803 -0.1135  0.1225
 3627SOL    HW122340   4.203   3.167   7.627  0.3091 -0.6269 -1.9088
 3627SOL    HW222341   4.291   3.047   7.644 -0.5799 -0.3967  1.9564
 3628SOL     OW22342   4.240   2.437  14.600  0.7161  0.3582 -0.1780
 3628SOL    HW122343   4.160   2.388  14.582 -0.5448  1.7636  1.5772
 3628SOL    HW222344   4.215   2.511  14.545  0.9758 -0.0721 -0.8770
 3629SOL     OW22345   1.518   1.330   7.903  0.5493  0.0192  0.3412
 3629SOL    HW122346   1.479   1.403   7.950 -1.1687 -0.4689 -0.3222
 3629SOL    HW222347   1.590   1.374   7.857 -0.2046  2.0959  1.1552
 3630SOL     OW22348   0.504   2.211   2.549 -0.1441 -0.7886  0.2488
 3630SOL    HW122349   0.472   2.146   2.612 -1.4173 -0.7316 -0.3316
 3630SOL    HW222350   0.492   2.160   2.468 -0.2224 -1.8983  0.9627
 3631SOL     OW22351   3.002   3.267  17.513  0.4248 -0.3184 -0.8558
 3631SOL    HW122352   3.024   3.353  17.477  0.7835 -0.2214 -0.4254
 3631SOL    HW222353   3.087   3.227  17.530  0.0689 -1.5191 -1.9816
 3632SOL     OW22354   1.919   4.588  12.134 -0.1521 -0.5605 -0.6624
 3632SOL    HW122355   1.982   4.525  12.098 -0.1874 -0.9058 -0.1232
 3632SOL    HW222356   1.836   4.543  12.118 -0.5608 -1.0461  2.7198
 3633SOL     OW22357   0.862   1.278  13.033  0.1195 -0.3018 -0.3490
 3633SOL    HW122358   0.944   1.231  13.051 -0.8558 -0.7931  2.9296
 3633SOL    HW222359   0.840   1.230  12.953 -1.3543 -0.8137  0.3504
 3634SOL     OW22360   3.617   3.015   6.761 -0.7952 -0.7372  0.6758
 3634SOL    HW122361   3.532   3.056   6.781 -0.7482 -1.5220  2.5278
 3634SOL    HW222362   3.659   3.070   6.696 -0.5688  1.6324  2.8470
 3635SOL     OW22363   4.508   3.258  15.558  0.4899 -0.0359 -0.1695
 3635SOL    HW122364   4.536   3.169  15.578  0.3128 -0.3124 -1.1650
 3635SOL    HW222365   4.581   3.311  15.591 -0.0120  0.3287  0.3513
 3636SOL     OW22366   3.173   1.672   2.883  0.2235  0.9125 -0.0877
 3636SOL    HW122367   3.179   1.645   2.974  1.4915  3.7025  0.6641
 3636SOL    HW222368   3.106   1.739   2.898 -0.5708 -0.2604  1.5443
 3637SOL     OW22369   3.462   0.455   5.875  0.4322  0.1541  0.1943
 3637SOL    HW122370   3.396   0.508   5.921  0.9269 -0.8605  2.0592
 3637SOL    HW222371   3.438   0.488   5.789 -1.1191 -0.8234  0.2574
 3638SOL     OW22372   0.442   4.115   6.969  0.2077 -0.0977  0.0959
 3638SOL    HW122373   0.532   4.124   6.940  0.1085 -1.8069 -0.7700
 3638SOL    HW222374   0.408   4.204   6.966 -0.5583 -0.2856  2.8825
 3639SOL     OW22375   3.244   4.003   5.653  0.6491 -0.5659  0.1721
 3639SOL    HW122376   3.178   4.051   5.601  0.0956 -0.5767  0.8677
 3639SOL    HW222377   3.304   4.078   5.664 -1.5020  1.1089  0.5532
 3640SOL     OW22378   0.260   0.287  10.905 -0.0267  0.8716  0.1658
 3640SOL    HW122379   0.295   0.284  10.816 -0.3789  2.0489 -0.0137
 3640SOL    HW222380   0.301   0.368  10.936 -2.5747  0.9578  3.3614
 3641SOL     OW22381   0.169   3.726   8.134 -0.2111  0.2914 -0.5025
 3641SOL    HW122382   0.138   3.792   8.071 -0.4010  0.9142  0.2459
 3641SOL    HW222383   0.237   3.778   8.176  0.4750 -1.5324  0.6459
 3642SOL     OW22384   0.347   3.314   8.506 -0.4393 -0.1790  0.4847
 3642SOL    HW122385   0.395   3.312   8.589 -1.8292  0.9319  1.3090
 3642SOL    HW222386   0.407   3.261   8.453  0.5328  1.4950 -0.1002
 3643SOL     OW22387   2.234   2.447   1.490 -0.4727 -0.3093 -0.1657
 3643SOL    HW122388   2.262   2.499   1.566 -1.8637 -1.2673  0.9990
 3643SOL    HW222389   2.246   2.358   1.522 -2.6502 -1.6274 -3.0486
 3644SOL     OW22390   4.317   0.250  11.488 -0.2127  0.1678 -0.1387
 3644SOL    HW122391   4.411   0.265  11.484 -0.0306 -1.1772 -0.9750
 3644SOL    HW222392   4.285   0.339  11.475 -3.7587 -1.0321  0.1514
 3645SOL     OW22393   2.508   2.475   3.953 -0.3652 -0.4686 -0.3847
 3645SOL    HW122394   2.517   2.570   3.959  0.6923 -0.5874 -0.1180
 3645SOL    HW222395   2.579   2.446   3.896 -2.1646  0.2610 -3.0047
 3646SOL     OW22396   1.284   3.971  10.744  0.4001 -0.1686 -0.1330
 3646SOL    HW122397   1.302   4.048  10.691  2.8527 -0.9597 -0.4473
 3646SOL    HW222398   1.203   3.935  10.707  0.3495 -0.0910 -0.0971
 3647SOL     OW22399   2.355   3.182  11.672 -0.6172 -0.5539 -0.3075
 3647SOL    HW122400   2.448   3.164  11.662  0.1244  3.0890  0.0798
 3647SOL    HW222401   2.315   3.104  11.634  0.5433 -1.0253 -0.5387
 3648SOL     OW22402   2.351   0.128   0.862  0.3181 -0.8879  0.4697
 3648SOL    HW122403   2.392   0.064   0.804  0.4127  0.9563 -1.5277
 3648SOL    HW222404   2.261   0.098   0.851  0.1818 -0.7501  1.2767
 3649SOL     OW22405   0.101   3.397   3.713 -0.3304  0.5219  0.0977
 3649SOL    HW122406   0.106   3.485   3.751 -1.5177 -0.3736  2.3283
 3649SOL    HW222407   0.023   3.359   3.753 -0.4740  0.3134 -0.3891
 3650SOL     OW22408   1.915   4.199   7.288  0.0474 -0.1167  0.4337
 3650SOL    HW122409   1.933   4.206   7.381  2.5201 -1.1128  0.0222
 3650SOL    HW222410   1.974   4.132   7.254 -1.0674 -0.1068 -1.5251
 3651SOL     OW22411   0.489   1.777   9.391 -0.0665  0.4745 -0.0958
 3651SOL    HW122412   0.497   1.859   9.441  0.0466  0.3737  0.0504
 3651SOL    HW222413   0.577   1.742   9.400 -0.7277 -0.4048  3.0298
 3652SOL     OW22414   0.305   3.205  11.313 -0.3383 -0.0324  0.3949
 3652SOL    HW122415   0.350   3.176  11.233  2.0763  1.3348  1.2634
 3652SOL    HW222416   0.258   3.122  11.323 -2.6315  1.0679 -1.2683
 3653SOL     OW22417   1.546   0.407   6.574 -0.1808  0.2268  0.0821
 3653SOL    HW122418   1.476   0.369   6.628 -1.8672  0.8972 -1.6051
 3653SOL    HW222419   1.537   0.500   6.597  1.8361  0.6760 -0.9580
 3654SOL     OW22420   0.958   3.301   6.570  0.0093 -0.1513  0.1112
 3654SOL    HW122421   0.977   3.383   6.524 -0.9102 -0.6947 -1.2492
 3654SOL    HW222422   1.006   3.318   6.651  1.2022  2.0361 -1.0437
 3655SOL     OW22423   1.485   1.379   9.110  0.2779  0.4331 -0.1639
 3655SOL    HW122424   1.486   1.408   9.019  0.0683 -1.1095 -0.6537
 3655SOL    HW222425   1.497   1.460   9.161  2.2914  0.6575 -0.9982
 3656SOL     OW22426   2.810   1.982   3.644 -0.3543  0.1423  0.5363
 3656SOL    HW122427   2.731   2.034   3.661 -0.6517  0.5625 -2.1573
 3656SOL    HW222428   2.867   2.021   3.711 -0.4221 -1.2353  1.4053
 3657SOL     OW22429   0.328   2.449   6.691  0.2705  0.1364  0.1398
 3657SOL    HW122430   0.382   2.467   6.768  0.3786  1.5103 -0.2492
 3657SOL    HW222431   0.390   2.487   6.629 -0.5977  0.5202 -0.4908
 3658SOL     OW22432   1.992   0.629   0.358 -0.4265 -0.6584 -0.3818
 3658SOL    HW122433   1.955   0.572   0.291 -1.3014 -0.8590  0.2755
 3658SOL    HW222434   1.926   0.630   0.427  1.0802 -0.0176  1.0660
 3659SOL     OW22435   2.159   0.528   2.732 -0.2346  0.2023  0.4095
 3659SOL    HW122436   2.090   0.464   2.749 -0.0279  0.3132  1.6570
 3659SOL    HW222437   2.160   0.529   2.637  0.4369  0.3729  0.4173
 3660SOL     OW22438   0.655   0.736  12.875 -0.0047 -0.4220  0.0564
 3660SOL    HW122439   0.603   0.723  12.796  1.1869 -0.4417 -0.7306
 3660SOL    HW222440   0.599   0.677  12.926 -0.5281 -0.3956 -0.4938
 3661SOL     OW22441   2.211   3.602   9.000  0.1287  0.2181  0.7569
 3661SOL    HW122442   2.284   3.652   8.963 -1.1526  0.7694 -0.9910
 3661SOL    HW222443   2.150   3.613   8.928  1.4328  2.3782 -0.0201
 3662SOL     OW22444   1.838   4.106   6.631 -0.2654  0.3182  0.3189
 3662SOL    HW122445   1.916   4.052   6.622 -1.7163 -1.9405  1.1841
 3662SOL    HW222446   1.863   4.183   6.683 -1.8231  0.7949  0.3557
 3663SOL     OW22447   2.058   1.564  15.584  0.2607 -0.2047 -0.0681
 3663SOL    HW122448   2.034   1.619  15.658  0.6956  0.3438 -0.3349
 3663SOL    HW222449   2.119   1.614  15.530 -1.3883  0.5290 -1.2410
 3664SOL     OW22450   2.165   3.703   7.346 -0.7681  0.2725 -0.0300
 3664SOL    HW122451   2.132   3.778   7.397 -0.0784  0.8839 -0.4800
 3664SOL    HW222452   2.122   3.707   7.261 -0.5507  1.1887 -0.0999
 3665SOL     OW22453   3.211   2.498  12.573  0.4803  0.2908 -0.1418
 3665SOL    HW122454   3.146   2.530  12.634 -1.1680 -2.4815 -0.4293
 3665SOL    HW222455   3.205   2.404  12.592  0.6082  0.3329  0.1097
 3666SOL     OW22456   2.872   1.069  12.615  0.4656  0.2703  0.3420
 3666SOL    HW122457   2.778   1.080  12.633  0.0697 -0.8848 -1.0336
 3666SOL    HW222458   2.884   1.138  12.550 -0.3316  0.8572  0.8065
 3667SOL     OW22459   4.225   2.470   0.731  0.5189  0.6374  0.1894
 3667SOL    HW122460   4.195   2.527   0.661 -0.3486  3.3009  2.7161
 3667SOL    HW222461   4.177   2.511   0.804 -1.4480 -0.2229 -0.6080
 3668SOL     OW22462   1.369   2.778   1.792  0.1831 -0.1932 -0.7905
 3668SOL    HW122463   1.384   2.767   1.698 -2.6064 -0.6471 -1.1611
 3668SOL    HW222464   1.438   2.838   1.823  0.0562 -0.9791  1.0323
 3669SOL     OW22465   3.376   4.390   8.703 -0.0127  0.4676 -0.3651
 3669SOL    HW122466   3.412   4.338   8.775 -0.6834  0.0412 -0.3391
 3669SOL    HW222467   3.403   4.338   8.627  0.8848  0.4482 -0.0400
 3670SOL     OW22468   1.432   2.242   2.161  0.1019 -0.4829 -0.0147
 3670SOL    HW122469   1.401   2.161   2.203 -1.0388 -0.9091 -1.6556
 3670SOL    HW222470   1.408   2.221   2.071 -1.0283  1.0371 -0.0697
 3671SOL     OW22471   2.690   2.658   8.434  0.5447 -0.0820 -0.5582
 3671SOL    HW122472   2.648   2.741   8.414 -0.5586 -0.6322 -0.5688
 3671SOL    HW222473   2.633   2.605   8.377  1.9571 -2.2273  0.0017
 3672SOL     OW22474   0.447   0.371   7.942 -0.3173 -0.7793 -0.6479
 3672SOL    HW122475   0.452   0.395   8.035  0.0529 -1.6921 -0.4297
 3672SOL    HW222476   0.487   0.442   7.891  0.2140 -1.1789 -0.7852
 3673SOL     OW22477   2.049   3.286  11.899 -0.8007 -0.4644  0.7188
 3673SOL    HW122478   2.042   3.328  11.984  0.8486 -1.0627  1.1617
 3673SOL    HW222479   2.123   3.330  11.857 -3.4044  2.6384 -0.5861
 3674SOL     OW22480   1.454   0.282   1.427  0.0432  0.0207  0.1296
 3674SOL    HW122481   1.496   0.215   1.373  0.9982  1.4354 -0.9017
 3674SOL    HW222482   1.490   0.356   1.377  0.7352 -1.5373 -1.6849
 3675SOL     OW22483   2.575   1.946   6.150  0.3520 -0.3254 -0.0360
 3675SOL    HW122484   2.566   1.907   6.237  1.5743 -3.0899 -1.1479
 3675SOL    HW222485   2.489   1.931   6.110  1.0939  1.6217 -2.3609
 3676SOL     OW22486   4.166   0.386   3.579 -0.2052 -0.0094 -0.7959
 3676SOL    HW122487   4.236   0.411   3.639 -0.5340 -1.3209  0.1406
 3676SOL    HW222488   4.148   0.465   3.528 -1.2995  0.0352 -0.3317
 3677SOL     OW22489   1.370   2.880   9.198 -0.6794  0.1476 -0.3081
 3677SOL    HW122490   1.451   2.854   9.155 -0.3028  2.9353 -1.2139
 3677SOL    HW222491   1.381   2.842   9.285 -0.0341  0.7159 -0.1474
 3678SOL     OW22492   3.291   1.282  10.651  0.3503  0.1085 -0.0966
 3678SOL    HW122493   3.317   1.350  10.713 -2.0611  0.4610  0.5458
 3678SOL    HW222494   3.299   1.206  10.708 -1.2371  0.6130  0.7886
 3679SOL     OW22495   0.503   0.526   3.722  0.7949 -0.0184  0.1404
 3679SOL    HW122496   0.467   0.614   3.737  1.9980  0.7376 -1.4650
 3679SOL    HW222497   0.555   0.517   3.801 -2.4965 -0.1979  2.2930
 3680SOL     OW22498   2.015   0.733  14.808  1.3845  0.3806  0.2801
 3680SOL    HW122499   1.950   0.720  14.739 -0.0172 -0.0900  1.6912
 3680SOL    HW222500   1.990   0.681  14.885 -0.1470  0.3698 -0.2245
 3681SOL     OW22501   0.831   1.449   3.569 -0.2553  0.4780 -0.1095
 3681SOL    HW122502   0.777   1.374   3.593  2.9855 -2.0695 -0.6272
 3681SOL    HW222503   0.764   1.514   3.549 -1.2702 -0.9898 -1.4620
 3682SOL     OW22504   2.002   3.898   6.362 -0.5568 -0.4423  0.2637
 3682SOL    HW122505   2.050   3.852   6.432 -0.9882  0.1672  0.9559
 3682SOL    HW222506   2.043   3.984   6.369 -1.7266  0.0379  1.3272
 3683SOL     OW22507   3.929   4.348   4.047 -0.0166 -0.0639  0.0143
 3683SOL    HW122508   3.921   4.309   3.960 -1.5157  0.2201  0.0396
 3683SOL    HW222509   3.869   4.294   4.098  2.2625 -0.5234  2.1999
 3684SOL     OW22510   2.096   2.165   8.157  0.2292  0.0657 -0.3097
 3684SOL    HW122511   2.066   2.143   8.245 -2.9161  1.3923 -1.0536
 3684SOL    HW222512   2.010   2.178   8.118  0.8512  1.4186 -1.2449
 3685SOL     OW22513   3.524   0.233   4.198  0.2434  0.5293 -0.2058
 3685SOL    HW122514   3.437   0.214   4.235  0.0186  1.2030 -0.3968
 3685SOL    HW222515   3.581   0.243   4.274 -0.8478  0.1310  0.6828
 3686SOL     OW22516   1.577   0.521   3.780 -0.2944  0.1243  0.9976
 3686SOL    HW122517   1.575   0.479   3.694  0.5111  0.3530  0.8692
 3686SOL    HW222518   1.604   0.610   3.756  1.0128 -0.3658  0.6701
 3687SOL     OW22519   1.818   1.062   9.577 -0.3264  0.3857  0.1048
 3687SOL    HW122520   1.891   1.048   9.517  0.4589 -0.1417  1.1837
 3687SOL    HW222521   1.848   1.012   9.653 -0.3973 -0.8530 -0.6782
 3688SOL     OW22522   4.102   0.502   8.010  0.5771 -0.6842 -0.1882
 3688SOL    HW122523   4.026   0.551   7.980 -0.0877 -0.8741  1.1865
 3688SOL    HW222524   4.160   0.508   7.933  0.5116 -1.7178 -0.3245
 3689SOL     OW22525   4.385   1.711   5.665  0.0181  0.3401 -0.3148
 3689SOL    HW122526   4.360   1.710   5.573 -2.0118 -0.6420  0.2459
 3689SOL    HW222527   4.473   1.750   5.659  0.2516 -0.4209 -1.6592
 3690SOL     OW22528   0.339   0.609   7.292  0.2543  0.4848  0.0663
 3690SOL    HW122529   0.386   0.629   7.211 -1.0608 -2.1809 -1.3852
 3690SOL    HW222530   0.313   0.694   7.328 -1.2665 -0.2919  0.7830
 3691SOL     OW22531   4.604   0.115  10.034  0.5394 -0.3059 -0.3663
 3691SOL    HW122532   4.683   0.084  10.080  0.2018  0.5607  0.7990
 3691SOL    HW222533   4.526   0.104  10.088 -0.0388 -0.8382 -1.3183
 3692SOL     OW22534   1.204   0.853   7.183  0.5102  0.3413 -0.6412
 3692SOL    HW122535   1.290   0.856   7.140  0.5857  0.7039 -0.4600
 3692SOL    HW222536   1.228   0.791   7.252 -0.6915  0.2566 -0.3037
 3693SOL     OW22537   3.294   3.697   3.201 -0.4689 -0.1805 -0.2257
 3693SOL    HW122538   3.212   3.682   3.154 -0.6219  1.7479 -0.5592
 3693SOL    HW222539   3.251   3.734   3.278  1.3585 -2.3621  1.8714
 3694SOL     OW22540   4.198   1.776   5.418 -0.2606 -0.1712  0.2606
 3694SOL    HW122541   4.144   1.854   5.432 -1.4585 -0.7510 -1.0836
 3694SOL    HW222542   4.213   1.753   5.326  1.3678  1.4006  0.1371
 3695SOL     OW22543   2.289   4.495  10.975 -0.7202  0.5489  0.2024
 3695SOL    HW122544   2.219   4.443  10.936 -0.3244  0.9380 -1.0330
 3695SOL    HW222545   2.362   4.436  10.956 -1.0866 -0.3343  1.4972
 3696SOL     OW22546   0.948   0.633  11.478  0.0305 -0.1994  0.3408
 3696SOL    HW122547   1.017   0.683  11.434 -0.1901 -1.8211 -1.8712
 3696SOL    HW222548   0.919   0.569  11.412  0.5484  0.2072 -0.2848
 3697SOL     OW22549   3.796   4.583   0.018  0.6213  0.2770  0.2401
 3697SOL    HW122550   3.865   4.597  17.639  1.2379  0.3610  0.9102
 3697SOL    HW222551   3.832   4.587   0.107  2.5310  1.0338 -0.5590
 3698SOL     OW22552   0.228   1.484  16.833  0.5487  0.0807  0.1135
 3698SOL    HW122553   0.191   1.572  16.825 -0.2992 -0.1529  1.5338
 3698SOL    HW222554   0.296   1.491  16.765  1.3045 -0.2568  0.8395
 3699SOL     OW22555   3.276   3.214   4.189  0.1103  0.0726 -0.1394
 3699SOL    HW122556   3.323   3.145   4.236  1.1883  0.0577 -1.2553
 3699SOL    HW222557   3.298   3.296   4.234 -0.5466  0.5069 -0.6097
 3700SOL     OW22558   0.518   1.039  16.261 -0.3105 -0.1458 -0.0556
 3700SOL    HW122559   0.529   1.021  16.168 -0.3271 -1.3395  0.1745
 3700SOL    HW222560   0.522   1.135  16.267 -1.3359 -0.1750  1.2719
 3701SOL     OW22561   1.696   2.013  11.270 -0.4454 -0.5850 -0.6006
 3701SOL    HW122562   1.644   1.957  11.212  1.0573 -0.7094 -1.8377
 3701SOL    HW222563   1.627   2.075  11.292  1.3463  0.7987  1.1099
 3702SOL     OW22564   2.124   3.395   4.448  0.5860 -0.3652 -0.4363
 3702SOL    HW122565   2.046   3.447   4.468  2.2299  1.7272  0.5031
 3702SOL    HW222566   2.152   3.435   4.366 -0.6014 -2.3102 -1.8072
 3703SOL     OW22567   2.279   1.454   2.718 -0.0192  0.5078 -0.2396
 3703SOL    HW122568   2.240   1.383   2.769  0.1215 -0.9423 -2.1785
 3703SOL    HW222569   2.269   1.415   2.632 -0.0793  2.7632 -1.2716
 3704SOL     OW22570   4.652   1.397  14.249  0.1013  0.4654  0.2590
 3704SOL    HW122571   0.010   1.349  14.274 -0.7461 -0.9287  0.2192
 3704SOL    HW222572   4.588   1.394  14.320 -0.6950 -0.5072 -0.5061
 3705SOL     OW22573   0.089   4.031   2.884 -0.3722 -0.4323  0.0384
 3705SOL    HW122574   0.063   3.969   2.816  0.0551  0.4156 -0.8945
 3705SOL    HW222575   0.086   3.970   2.958 -1.1291 -0.2020  0.2001
 3706SOL     OW22576   4.609   3.295   6.795  0.1743  0.8700 -0.1910
 3706SOL    HW122577   4.666   3.221   6.817  0.3028  1.9207  3.0157
 3706SOL    HW222578   4.651   3.372   6.834  0.1550 -0.4322  2.4232
 3707SOL     OW22579   3.445   3.466   8.832 -0.3272  0.5024  0.1532
 3707SOL    HW122580   3.496   3.541   8.862  1.8546 -1.1367  0.5805
 3707SOL    HW222581   3.518   3.409   8.808 -0.0724  1.1154 -0.5300
 3708SOL     OW22582   1.232   0.461   2.262 -0.4900  0.0917  0.0279
 3708SOL    HW122583   1.242   0.397   2.332 -0.3612 -0.1101 -0.1733
 3708SOL    HW222584   1.172   0.517   2.312  0.0628 -1.7293  2.7020
 3709SOL     OW22585   2.636   2.636   7.346 -0.1120  0.3625  0.5090
 3709SOL    HW122586   2.684   2.618   7.427  0.3468 -0.5811  0.0214
 3709SOL    HW222587   2.637   2.732   7.354 -0.2835  0.6072 -2.3340
 3710SOL     OW22588   2.772   4.179   6.387  0.1468 -0.3391 -0.0400
 3710SOL    HW122589   2.782   4.258   6.334  2.0596 -0.8182 -0.3926
 3710SOL    HW222590   2.834   4.197   6.457  0.7185 -0.7111 -0.4507
 3711SOL     OW22591   3.189   3.638   3.848  0.2715 -0.2790  0.5031
 3711SOL    HW122592   3.094   3.632   3.833 -0.1411  2.0343  2.1586
 3711SOL    HW222593   3.204   3.578   3.922  1.2077 -0.3508  0.2538
 3712SOL     OW22594   2.393   1.343   6.493  0.1703  0.2712 -0.0267
 3712SOL    HW122595   2.428   1.334   6.582  2.7032  0.6755 -0.9750
 3712SOL    HW222596   2.400   1.438   6.483  2.5816  0.0891 -0.0630
 3713SOL     OW22597   0.744   0.284   7.667  0.2459  0.2489  0.0330
 3713SOL    HW122598   0.715   0.313   7.581  2.7910 -0.3720 -1.0615
 3713SOL    HW222599   0.699   0.200   7.677 -2.3739  1.3960 -2.4780
 3714SOL     OW22600   3.955   1.263  10.387  0.4320 -0.3952 -0.5021
 3714SOL    HW122601   3.926   1.352  10.409  0.1910 -0.5945 -0.0159
 3714SOL    HW222602   4.035   1.266  10.441 -0.3859  2.6996  0.5634
 3715SOL     OW22603   2.693   3.091   8.249 -0.2448  0.1341 -0.2125
 3715SOL    HW122604   2.772   3.142   8.269  0.3176 -1.1241  0.7600
 3715SOL    HW222605   2.639   3.150   8.196 -0.0882  0.0801 -0.4322
 3716SOL     OW22606   0.113   1.999  14.721  0.7151 -0.1392 -0.0852
 3716SOL    HW122607   0.092   1.919  14.673 -0.1716  1.0496 -1.6862
 3716SOL    HW222608   0.053   2.065  14.686  2.7856  0.5448 -2.3429
 3717SOL     OW22609   4.597   2.820   8.634  0.0191 -0.3133 -0.0608
 3717SOL    HW122610   4.579   2.909   8.603  2.8116 -0.2211 -1.5448
 3717SOL    HW222611   4.509   2.786   8.650  0.0056  0.9045  2.3143
 3718SOL     OW22612   1.967   4.153   3.421 -0.2195 -0.4474 -0.4888
 3718SOL    HW122613   1.958   4.237   3.376  0.7495 -0.4556 -0.7048
 3718SOL    HW222614   1.966   4.087   3.352  1.9291  0.2504 -1.1778
 3719SOL     OW22615   2.675   0.246   7.695 -0.0204 -0.5584 -0.1368
 3719SOL    HW122616   2.749   0.294   7.657 -1.6867  1.9548 -0.2481
 3719SOL    HW222617   2.710   0.223   7.781 -0.8383 -0.5936  0.1835
 3720SOL     OW22618   2.033   2.883   3.212  0.4122  0.4683 -0.3732
 3720SOL    HW122619   2.024   2.932   3.294 -0.0891  1.9381 -1.3026
 3720SOL    HW222620   2.013   2.946   3.143  1.0083  0.6638 -0.3629
 3721SOL     OW22621   2.819   2.930   4.852 -0.3767  0.3039  1.2447
 3721SOL    HW122622   2.792   2.882   4.930 -0.1035  0.3350  1.3584
 3721SOL    HW222623   2.911   2.938   4.875 -0.1245  0.7425  0.0745
 3722SOL     OW22624   1.799   3.948   7.418 -0.5795  0.4400 -0.2100
 3722SOL    HW122625   1.717   3.897   7.426  0.5880 -1.3239  0.6349
 3722SOL    HW222626   1.781   3.990   7.334 -0.0064 -1.9654 -1.5678
 3723SOL     OW22627   0.044   3.499  11.858  0.2036 -0.4478 -0.3812
 3723SOL    HW122628   0.038   3.405  11.876  0.1753 -0.0707  1.5362
 3723SOL    HW222629   0.046   3.487  11.763  1.8411  0.6829 -0.4825
 3724SOL     OW22630   3.231   2.522   3.604  0.3000  0.4407  0.4724
 3724SOL    HW122631   3.147   2.549   3.569  0.5393 -0.7183 -0.9900
 3724SOL    HW222632   3.232   2.430   3.579  0.4392  0.5930 -0.0849
 3725SOL     OW22633   1.449   3.822   6.087 -0.5892 -0.3546  0.2153
 3725SOL    HW122634   1.371   3.782   6.127 -1.2836 -1.1717 -1.9632
 3725SOL    HW222635   1.523   3.769   6.115 -1.9353 -2.2231  0.2711
 3726SOL     OW22636   1.952   3.253   7.018 -0.2587  0.7349 -0.1076
 3726SOL    HW122637   2.024   3.292   7.067  0.0518 -1.2493  1.0398
 3726SOL    HW222638   1.983   3.272   6.930  2.4630  0.5622  0.8020
 3727SOL     OW22639   1.429   2.462   6.941 -0.2609  0.0150  0.2820
 3727SOL    HW122640   1.369   2.394   6.971  1.5389 -0.9706  1.6631
 3727SOL    HW222641   1.364   2.531   6.934  0.1951  0.2890 -1.1243
 3728SOL     OW22642   0.793   1.153  16.179 -0.2566 -0.1769  0.2881
 3728SOL    HW122643   0.833   1.120  16.098 -1.6225 -0.6342 -0.2103
 3728SOL    HW222644   0.867   1.214  16.186 -1.6383  1.7519 -1.7090
 3729SOL     OW22645   0.807   2.389   2.247  0.1251 -0.1503 -0.2120
 3729SOL    HW122646   0.798   2.370   2.341 -0.9081 -0.4776 -0.3761
 3729SOL    HW222647   0.767   2.312   2.207 -2.7399  0.4496  1.5044
 3730SOL     OW22648   2.449   0.961   2.480  0.0775  0.3477  0.3646
 3730SOL    HW122649   2.429   0.918   2.396  1.2684  1.1211 -0.3108
 3730SOL    HW222650   2.506   0.892   2.514  1.3679  0.9738 -0.5264
 3731SOL     OW22651   3.305   3.289  17.559  0.2707 -0.6937 -0.1391
 3731SOL    HW122652   3.291   3.327  17.645 -2.6203  0.8414 -1.2938
 3731SOL    HW222653   3.348   3.367  17.525 -0.7880  1.0624  2.5918
 3732SOL     OW22654   1.010   1.782   1.517 -0.1672 -0.0662 -0.0819
 3732SOL    HW122655   1.064   1.725   1.462  0.7395 -0.0060  0.7569
 3732SOL    HW222656   0.959   1.815   1.443 -0.3525  0.0445  0.0935
 3733SOL     OW22657   2.524   4.044   8.775  0.2092  0.6905 -0.0402
 3733SOL    HW122658   2.449   4.078   8.825 -0.1176 -0.7819  0.4694
 3733SOL    HW222659   2.590   4.026   8.842 -0.5292 -3.1217 -0.3895
 3734SOL     OW22660   0.468   2.773  17.393  0.5559  0.6581  0.5947
 3734SOL    HW122661   0.453   2.731  17.308 -0.2717  0.9642  0.5880
 3734SOL    HW222662   0.445   2.861  17.361 -3.7525 -0.1074  1.5940
 3735SOL     OW22663   3.975   4.309   2.257 -0.6525 -0.3592 -0.4318
 3735SOL    HW122664   4.019   4.379   2.210 -1.6071  0.3388 -0.2825
 3735SOL    HW222665   3.943   4.358   2.333  1.6590  3.0428 -1.6280
 3736SOL     OW22666   2.313   4.697  12.194  0.0014  0.6752 -0.4902
 3736SOL    HW122667   2.311   0.063  12.235 -1.4502  0.8853 -1.0152
 3736SOL    HW222668   2.310   4.641  12.272 -1.8939 -2.2084 -2.6338
 3737SOL     OW22669   1.733   2.100   6.094 -0.0608  0.4691  0.3455
 3737SOL    HW122670   1.690   2.091   6.179  0.0130  0.5258  0.3892
 3737SOL    HW222671   1.683   2.165   6.044 -0.6151  0.0009  0.3025
 3738SOL     OW22672   4.706   2.770   2.537 -0.0514 -0.1023 -0.5115
 3738SOL    HW122673   4.703   2.800   2.447  0.2044  2.3698  0.3186
 3738SOL    HW222674   4.715   2.851   2.586 -3.4992 -0.1126  0.1208
 3739SOL     OW22675   3.151   4.316  14.003  0.4440  0.1403 -0.1227
 3739SOL    HW122676   3.189   4.403  13.994 -0.4197  0.5342  0.0063
 3739SOL    HW222677   3.064   4.336  13.966 -0.0860 -0.1140  0.9980
 3740SOL     OW22678   0.235   2.296   2.816 -0.1404 -0.7806 -0.1352
 3740SOL    HW122679   0.175   2.356   2.772  1.2074  0.0154 -0.8886
 3740SOL    HW222680   0.314   2.345   2.791  0.3799 -0.9094  1.2371
 3741SOL     OW22681   4.072   2.334   2.304 -0.6196  0.3014 -0.7350
 3741SOL    HW122682   4.109   2.388   2.234 -0.3347 -0.4112 -1.1251
 3741SOL    HW222683   3.989   2.381   2.313 -1.6102 -2.2275  3.5611
 3742SOL     OW22684   4.500   2.287   5.588 -0.2753  0.4109 -0.3461
 3742SOL    HW122685   4.435   2.274   5.519  1.0211  2.6041 -2.0032
 3742SOL    HW222686   4.586   2.273   5.548  0.7743 -1.3053  2.4711
 3743SOL     OW22687   2.602   2.906   3.773 -0.2816  0.1855  0.0622
 3743SOL    HW122688   2.623   2.928   3.863 -0.3447  0.6922 -0.0457
 3743SOL    HW222689   2.658   2.976   3.738 -0.7534  0.6616  0.2660
 3744SOL     OW22690   4.012   1.559  16.889  0.5060  0.0488  0.6133
 3744SOL    HW122691   3.982   1.571  16.979  1.9454 -1.0890  1.2557
 3744SOL    HW222692   4.041   1.467  16.889 -0.4211 -0.2363  1.5511
 3745SOL     OW22693   3.643   2.467   4.316  0.7245 -0.4851 -0.3659
 3745SOL    HW122694   3.655   2.466   4.411 -2.1047 -1.6159 -0.0299
 3745SOL    HW222695   3.720   2.504   4.271 -0.5334  2.4684 -0.1028
 3746SOL     OW22696   1.181   3.044   8.564 -0.2826 -0.3032  0.2774
 3746SOL    HW122697   1.274   3.047   8.542 -0.3738 -0.4066 -0.1197
 3746SOL    HW222698   1.182   3.074   8.655  2.5481 -2.0084  0.7898
 3747SOL     OW22699   4.025   2.711   3.006 -0.7752  0.1927  0.1952
 3747SOL    HW122700   4.091   2.773   3.036 -0.7960  0.8305 -1.0679
 3747SOL    HW222701   3.959   2.709   3.075 -1.9647 -0.9769 -0.9648
 3748SOL     OW22702   1.895   0.707   4.755  0.0888 -0.1087 -0.0891
 3748SOL    HW122703   1.843   0.718   4.835 -0.7853 -2.0598 -0.3829
 3748SOL    HW222704   1.962   0.775   4.760 -1.4384  1.4374 -0.5975
 3749SOL     OW22705   4.403   3.487   4.788 -0.0971 -0.3790  0.3997
 3749SOL    HW122706   4.399   3.471   4.882 -3.4154 -0.4293  0.2418
 3749SOL    HW222707   4.314   3.504   4.757  1.2044 -0.3165 -3.3274
 3750SOL     OW22708   2.320   2.757  15.302  0.1617  0.6190 -0.4448
 3750SOL    HW122709   2.389   2.720  15.357 -0.5954  2.5993  1.8538
 3750SOL    HW222710   2.363   2.761  15.217 -0.3396  1.1134 -0.6744
 3751SOL     OW22711   2.022   3.360   4.144 -0.5539  0.1618 -0.4010
 3751SOL    HW122712   1.965   3.425   4.105  0.3192  1.2113  0.0737
 3751SOL    HW222713   2.099   3.414   4.164 -0.8724 -0.1114  1.6512
 3752SOL     OW22714   2.549   2.791   6.613  0.5930 -0.6125  0.4102
 3752SOL    HW122715   2.640   2.811   6.636  0.8087  0.9485 -1.8268
 3752SOL    HW222716   2.558   2.749   6.527 -2.4431 -0.1523 -0.1212
 3753SOL     OW22717   2.457   1.759   2.569  0.3340 -0.0214 -0.6803
 3753SOL    HW122718   2.363   1.744   2.576 -0.0036  1.6217 -1.6443
 3753SOL    HW222719   2.472   1.834   2.628  2.5903 -0.8887 -0.1468
 3754SOL     OW22720   3.603   2.686   6.406  0.3823 -0.2048  0.5247
 3754SOL    HW122721   3.588   2.683   6.312 -1.3964 -1.6894  0.8326
 3754SOL    HW222722   3.538   2.755   6.419 -0.7356 -0.8875 -1.5210
 3755SOL     OW22723   4.559   2.899  13.003 -0.2823 -0.4132  0.4406
 3755SOL    HW122724   4.497   2.930  13.069 -1.0137  0.8002 -0.8122
 3755SOL    HW222725   4.630   2.867  13.059 -0.5001 -0.6854  0.5596
 3756SOL     OW22726   3.043   3.221   9.057  0.2159 -0.3298 -0.0181
 3756SOL    HW122727   2.985   3.202   9.130 -0.0772  1.0138  0.1010
 3756SOL    HW222728   3.106   3.278   9.102  0.3881  0.4153 -1.1713
 3757SOL     OW22729   3.280   2.098   8.852 -0.4497 -0.1675  0.4660
 3757SOL    HW122730   3.299   2.127   8.942 -1.9498 -0.5724  0.9154
 3757SOL    HW222731   3.191   2.068   8.870 -0.2034 -1.4025 -0.4476
 3758SOL     OW22732   1.268   1.231   4.611 -0.4002 -0.0111 -0.0954
 3758SOL    HW122733   1.243   1.144   4.640 -0.4693  0.2451  0.6205
 3758SOL    HW222734   1.346   1.212   4.560 -0.3213  1.5663 -0.5621
 3759SOL     OW22735   1.313   3.269   4.432 -0.4397  0.3185  0.1638
 3759SOL    HW122736   1.279   3.356   4.453  2.1735  1.7006 -1.3505
 3759SOL    HW222737   1.269   3.265   4.347  3.2385 -0.9938 -1.6814
 3760SOL     OW22738   2.760   0.456  11.430  0.0865 -0.3859  0.7374
 3760SOL    HW122739   2.689   0.509  11.468  0.7335  1.4560 -0.6007
 3760SOL    HW222740   2.714   0.376  11.407  2.7379 -2.5912  3.1629
 3761SOL     OW22741   1.891   2.211  11.855  0.2601 -0.3742 -0.1144
 3761SOL    HW122742   1.944   2.154  11.911  0.8774  0.1990 -0.1193
 3761SOL    HW222743   1.862   2.147  11.791  1.1743  1.3772 -2.2718
 3762SOL     OW22744   2.201   3.034   0.053  0.1980  0.1735 -0.0689
 3762SOL    HW122745   2.164   3.028   0.141  0.0431 -1.2887 -0.2445
 3762SOL    HW222746   2.276   2.976   0.061 -1.0122 -1.3844 -0.0827
 3763SOL     OW22747   1.531   4.010  15.826  0.1268 -0.1159  0.5371
 3763SOL    HW122748   1.626   4.017  15.840  0.5676 -1.1122 -1.9992
 3763SOL    HW222749   1.506   4.053  15.744 -4.4003 -1.5476  1.2123
 3764SOL     OW22750   3.417   1.464   3.866  0.4104  0.1366  0.0049
 3764SOL    HW122751   3.414   1.417   3.782  0.0482  0.9635 -0.4418
 3764SOL    HW222752   3.511   1.457   3.883  0.6646 -0.3806 -1.6499
 3765SOL     OW22753   1.736   3.957   4.114  0.3874  0.3751 -0.2922
 3765SOL    HW122754   1.707   3.882   4.166  0.7073  0.4822  0.0419
 3765SOL    HW222755   1.657   4.004   4.086  0.0944  0.7657  1.1855
 3766SOL     OW22756   3.721   3.958   4.932 -1.0777  0.3030  0.7934
 3766SOL    HW122757   3.699   3.912   5.013  3.2922 -2.4754  0.4037
 3766SOL    HW222758   3.794   4.017   4.952 -0.2304 -0.7183  0.7007
 3767SOL     OW22759   2.449   4.718  14.800  0.0104 -0.1367 -0.1820
 3767SOL    HW122760   2.536   4.703  14.762 -0.5238 -1.0026 -1.0525
 3767SOL    HW222761   2.395   4.683  14.730  0.9173 -2.3229  0.1988
 3768SOL     OW22762   1.963   2.920   6.581 -0.1739 -0.1184 -0.1215
 3768SOL    HW122763   1.897   2.853   6.568 -0.4974  0.5002 -1.7409
 3768SOL    HW222764   2.029   2.881   6.523  1.1019 -0.1186  1.3097
 3769SOL     OW22765   1.602   2.804   2.966 -0.0840 -0.1777 -0.2298
 3769SOL    HW122766   1.674   2.751   3.001 -0.0784 -1.0457 -1.5642
 3769SOL    HW222767   1.556   2.741   2.911  0.3110 -2.0060  1.5019
 3770SOL     OW22768   4.092   1.178   9.329 -0.5165  0.4720 -0.1735
 3770SOL    HW122769   4.171   1.131   9.300 -2.6086 -3.7376  0.8768
 3770SOL    HW222770   4.125   1.267   9.342  2.3915 -0.5085 -0.9097
 3771SOL     OW22771   4.691   1.641   2.606  0.0242 -0.3033 -0.2323
 3771SOL    HW122772   4.652   1.726   2.588  0.1885  0.0959  1.2520
 3771SOL    HW222773   4.611   1.588   2.611 -1.2342  1.7585  1.3963
 3772SOL     OW22774   3.453   1.635   4.883 -0.6322 -0.0318  0.1243
 3772SOL    HW122775   3.436   1.541   4.871  0.3505 -0.3441  1.1275
 3772SOL    HW222776   3.367   1.671   4.860  0.6848  2.3672 -0.9826
 3773SOL     OW22777   0.435   0.169  12.006 -0.0634  0.6766  0.7436
 3773SOL    HW122778   0.414   0.188  12.097 -0.5289  0.3506  0.7017
 3773SOL    HW222779   0.502   0.101  12.010 -0.0515  0.7349  1.3957
 3774SOL     OW22780   0.470   4.060   3.041  0.3504 -0.5111  0.0017
 3774SOL    HW122781   0.419   4.071   2.962  2.7172  0.1691 -1.4351
 3774SOL    HW222782   0.401   4.011   3.086  0.0638 -0.4921 -0.4211
 3775SOL     OW22783   2.133   1.254  14.036  0.2066  0.0685 -0.8013
 3775SOL    HW122784   2.099   1.309  14.107 -0.0373 -0.0748 -0.8055
 3775SOL    HW222785   2.047   1.226  14.006 -0.0338 -0.2367  0.1738
 3776SOL     OW22786   0.361   0.349   3.575  0.2226 -0.3528 -0.3635
 3776SOL    HW122787   0.410   0.419   3.616  0.4961  0.6644 -2.4714
 3776SOL    HW222788   0.359   0.290   3.651 -2.4595 -0.9220 -0.8662
 3777SOL     OW22789   3.633   0.598   3.060  0.6524  0.2357 -0.1323
 3777SOL    HW122790   3.603   0.538   2.992 -0.1080  1.3729 -0.8034
 3777SOL    HW222791   3.723   0.603   3.027 -0.3342  2.7255 -2.4707
 3778SOL     OW22792   3.171   1.267   8.151 -0.3315 -0.8125 -0.0637
 3778SOL    HW122793   3.155   1.301   8.239 -1.9116  0.7355 -0.9467
 3778SOL    HW222794   3.264   1.243   8.161 -0.1268 -0.6090 -1.5657
 3779SOL     OW22795   2.758   2.321   2.900 -0.1732  0.0217 -0.0536
 3779SOL    HW122796   2.758   2.398   2.843  1.5282  1.0585  1.3298
 3779SOL    HW222797   2.771   2.363   2.985  0.2003 -1.5744  0.6820
 3780SOL     OW22798   1.249   1.210   5.442  0.3977  0.4180  0.1324
 3780SOL    HW122799   1.281   1.267   5.512  0.6833 -0.6696  0.8815
 3780SOL    HW222800   1.158   1.218   5.473  0.0958 -1.5179 -0.2855
 3781SOL     OW22801   4.476   1.785   3.562  0.1466 -0.8890 -0.0585
 3781SOL    HW122802   4.405   1.783   3.627  0.7474  0.0432  0.6240
 3781SOL    HW222803   4.464   1.704   3.512 -2.7840 -0.3222 -0.2602
 3782SOL     OW22804   2.607   4.360   0.667  0.3395 -0.0585  0.5660
 3782SOL    HW122805   2.558   4.413   0.731 -0.5235  1.7824 -1.5875
 3782SOL    HW222806   2.549   4.286   0.648  1.8513 -0.4888 -2.2816
 3783SOL     OW22807   0.079   1.707  10.510  0.6700  0.2874  1.3339
 3783SOL    HW122808   0.095   1.709  10.605 -0.1908 -0.9741  1.5073
 3783SOL    HW222809   0.151   1.652  10.481  0.4957  0.7685 -0.0058
 3784SOL     OW22810   1.207   0.859   5.413  0.1897  0.5287  0.0001
 3784SOL    HW122811   1.181   0.796   5.346  0.6049 -1.7461  1.9412
 3784SOL    HW222812   1.185   0.945   5.378 -1.9125  0.7698  1.8973
 3785SOL     OW22813   4.420   2.082  15.670  0.7096 -0.2983 -0.3704
 3785SOL    HW122814   4.419   2.001  15.722  1.0239  0.5301  0.9090
 3785SOL    HW222815   4.378   2.042  15.593  0.2927 -0.8841  0.1645
 3786SOL     OW22816   4.582   4.264   3.266  0.3186 -0.4254  0.1968
 3786SOL    HW122817   4.576   4.277   3.361 -1.2257  0.6925 -0.0468
 3786SOL    HW222818   4.599   4.170   3.264  2.0590 -0.0959 -0.5448
 3787SOL     OW22819   3.543   0.181   4.552 -0.3354 -0.1816 -0.3353
 3787SOL    HW122820   3.569   0.106   4.605 -0.9791 -0.2117 -0.0633
 3787SOL    HW222821   3.618   0.187   4.493 -0.6132  1.9500 -0.4685
 3788SOL     OW22822   0.493   1.987  10.859  0.4643 -0.0929 -0.4477
 3788SOL    HW122823   0.408   1.975  10.902  0.3741  1.0696 -0.2847
 3788SOL    HW222824   0.544   2.057  10.901  1.0941  0.3993 -2.0486
 3789SOL     OW22825   1.737   3.413   7.128 -0.1053 -0.0290  0.0653
 3789SOL    HW122826   1.755   3.486   7.069  2.4318 -0.3803  0.3945
 3789SOL    HW222827   1.735   3.341   7.064 -0.4111  1.8511 -2.0488
 3790SOL     OW22828   2.693   2.715   5.544 -0.3053  0.4684 -0.0999
 3790SOL    HW122829   2.683   2.764   5.462  0.8441  0.1405 -0.4254
 3790SOL    HW222830   2.787   2.705   5.560 -0.0449 -0.5928 -2.2193
 3791SOL     OW22831   4.486   0.609  14.822 -0.6052 -0.2281  0.1523
 3791SOL    HW122832   4.491   0.637  14.913  0.0389 -1.5817  0.5381
 3791SOL    HW222833   4.411   0.550  14.834 -0.0201 -0.8996  0.4861
 3792SOL     OW22834   2.917   2.084  15.206  0.9536  0.0929  0.4225
 3792SOL    HW122835   2.854   2.020  15.172  0.2116  1.7173 -1.2720
 3792SOL    HW222836   2.996   2.036  15.179  1.4498  0.5038  1.1536
 3793SOL     OW22837   1.454   4.388   1.453  0.5310 -0.2268 -0.0497
 3793SOL    HW122838   1.418   4.352   1.372  2.5309 -3.0751  0.3102
 3793SOL    HW222839   1.409   4.470   1.469 -2.9182 -2.1779  0.2478
 3794SOL     OW22840   1.239   0.473   7.547 -0.0203  0.1688 -0.1119
 3794SOL    HW122841   1.301   0.515   7.607 -1.7262  1.0902  0.9984
 3794SOL    HW222842   1.261   0.380   7.557 -2.1716 -0.0234  2.8518
 3795SOL     OW22843   1.055   4.141  12.424  0.2570  0.2536 -0.4079
 3795SOL    HW122844   1.041   4.059  12.472 -1.2668  0.3784 -0.6368
 3795SOL    HW222845   1.147   4.130  12.399  0.6488  1.3041  0.5348
 3796SOL     OW22846   2.915   0.696   6.439 -0.0908  0.0217  0.0510
 3796SOL    HW122847   2.927   0.610   6.479  0.4188 -0.2794 -0.7582
 3796SOL    HW222848   2.900   0.757   6.511 -1.4532  0.9138 -0.9909
 3797SOL     OW22849   0.670   2.825  16.056 -0.4571  0.5278  0.0895
 3797SOL    HW122850   0.603   2.865  16.110 -0.5740  0.7635 -0.2264
 3797SOL    HW222851   0.740   2.889  16.071 -1.1091  1.2140  0.1938
 3798SOL     OW22852   3.586   3.610   9.032 -0.1164 -0.4927 -0.1038
 3798SOL    HW122853   3.552   3.583   9.117 -0.9668  0.3013 -0.1921
 3798SOL    HW222854   3.525   3.678   9.004  1.7280  0.7518 -1.0703
 3799SOL     OW22855   1.300   3.597   6.170 -0.5244 -0.4410  0.0155
 3799SOL    HW122856   1.303   3.524   6.232  0.0883 -1.2193 -0.9371
 3799SOL    HW222857   1.274   3.547   6.093 -0.9831 -1.0055  0.5295
 3800SOL     OW22858   3.212   1.008  11.113  0.5155  0.0632  0.4607
 3800SOL    HW122859   3.247   1.096  11.123  1.4503 -0.0808 -1.5491
 3800SOL    HW222860   3.118   1.023  11.120  0.3583 -0.6881 -0.0210
 3801SOL     OW22861   0.962   0.889  16.319  0.4897  0.1538  0.0300
 3801SOL    HW122862   0.944   0.983  16.331  2.4023  0.2643  2.0878
 3801SOL    HW222863   1.038   0.889  16.260 -1.0254 -3.7750 -1.8734
 3802SOL     OW22864   2.076   2.858  11.196  0.0890 -0.4021  0.2657
 3802SOL    HW122865   2.058   2.901  11.112  2.2688 -0.8986 -0.4363
 3802SOL    HW222866   2.041   2.770  11.183  0.9103 -0.5645 -0.8655
 3803SOL     OW22867   3.072   0.220  11.875  1.3298  0.2804  0.3255
 3803SOL    HW122868   3.148   0.271  11.902 -0.3374  1.9002  1.9288
 3803SOL    HW222869   2.997   0.243  11.931 -0.2842 -0.1792 -1.6438
 3804SOL     OW22870   1.290   3.972  10.073  0.3901  0.0253 -0.3100
 3804SOL    HW122871   1.286   3.898  10.012 -1.8994 -2.1182  2.4843
 3804SOL    HW222872   1.384   3.965  10.088  0.8108 -2.0924 -3.8743
 3805SOL     OW22873   3.847   2.138   6.710  0.0414 -0.3253 -0.1612
 3805SOL    HW122874   3.830   2.210   6.649  0.5639 -1.4391 -1.6354
 3805SOL    HW222875   3.894   2.077   6.653 -0.0249 -0.5369  0.0107
 3806SOL     OW22876   0.786   3.845   4.866 -0.3400  0.1005 -0.0312
 3806SOL    HW122877   0.698   3.809   4.877 -0.5479  0.0675 -1.8822
 3806SOL    HW222878   0.828   3.832   4.951 -1.3970  1.6475  0.7306
 3807SOL     OW22879   4.653   2.579  13.281  0.7025  0.6099 -0.7983
 3807SOL    HW122880   4.622   2.528  13.356  0.9550  0.1982 -0.9813
 3807SOL    HW222881   4.578   2.568  13.222  0.4120  3.2037 -0.9319
 3808SOL     OW22882   3.937   2.258   2.028 -0.6183  0.5740 -0.8400
 3808SOL    HW122883   3.918   2.278   1.937 -2.1304  1.7898 -0.2619
 3808SOL    HW222884   4.019   2.308   2.034 -0.3005  0.2232 -2.2197
 3809SOL     OW22885   2.197   1.540  15.861  0.2643  0.0428 -0.5592
 3809SOL    HW122886   2.237   1.453  15.855 -1.4313 -0.7673 -0.2682
 3809SOL    HW222887   2.254   1.601  15.814  0.3369  0.6119  0.2617
 3810SOL     OW22888   0.423   2.284  10.211 -0.0790 -0.1076  0.2879
 3810SOL    HW122889   0.451   2.347  10.278 -1.3264 -0.7264  1.3762
 3810SOL    HW222890   0.356   2.224  10.243 -1.8578  1.9996  0.5533
 3811SOL     OW22891   1.965   2.408   6.546 -0.5991  0.2230  0.3751
 3811SOL    HW122892   1.915   2.412   6.464 -0.2148  1.1812  0.1815
 3811SOL    HW222893   2.054   2.413   6.510 -0.5488 -0.0167  0.4687
 3812SOL     OW22894   3.269   1.769   0.656 -0.5680 -0.0918 -0.1737
 3812SOL    HW122895   3.261   1.792   0.748  1.6982 -0.9649  0.2553
 3812SOL    HW222896   3.219   1.841   0.617 -0.1341  1.0880  1.4749
 3813SOL     OW22897   1.871   4.372   5.990  0.0272 -0.4002  0.5355
 3813SOL    HW122898   1.822   4.445   5.950  0.3669 -0.6329 -0.3160
 3813SOL    HW222899   1.947   4.369   5.932  1.6818 -0.2232  2.7451
 3814SOL     OW22900   2.645   2.676   4.695  0.0052 -0.2464 -0.0200
 3814SOL    HW122901   2.718   2.614   4.694  1.1243  1.0721 -0.0194
 3814SOL    HW222902   2.685   2.747   4.745 -1.5989  1.5127 -1.2346
 3815SOL     OW22903   3.279   4.380   2.473  0.2240  0.5674  0.0371
 3815SOL    HW122904   3.185   4.393   2.471  0.3609  1.3217 -1.7624
 3815SOL    HW222905   3.290   4.345   2.385  0.6530 -0.3373  0.4489
 3816SOL     OW22906   2.147   3.416  15.208  0.3161 -0.1565 -1.1281
 3816SOL    HW122907   2.122   3.395  15.298 -1.3350  0.4999 -1.4371
 3816SOL    HW222908   2.212   3.486  15.223 -1.1890  0.9249  0.2982
 3817SOL     OW22909   4.043   3.125   9.075 -0.1748  0.0888 -0.3275
 3817SOL    HW122910   4.068   3.138   9.167  3.0108 -0.3302 -1.1737
 3817SOL    HW222911   4.120   3.158   9.030  1.4922 -0.0530  2.4163
 3818SOL     OW22912   2.325   4.650   5.069 -0.1351  0.2196 -0.2676
 3818SOL    HW122913   2.254   4.680   5.127  0.7011  1.1342  0.2740
 3818SOL    HW222914   2.399   4.661   5.127 -1.2111 -0.7423  1.2809
 3819SOL     OW22915   0.143   1.226  16.795 -0.1149  0.0439 -0.6317
 3819SOL    HW122916   0.145   1.321  16.801 -3.2285  0.2314 -2.3673
 3819SOL    HW222917   0.234   1.204  16.812  0.2217  0.3197 -2.0585
 3820SOL     OW22918   2.235   0.256  16.918  0.1179 -0.2803 -0.1376
 3820SOL    HW122919   2.305   0.193  16.934  0.8261  1.7712  4.9814
 3820SOL    HW222920   2.249   0.284  16.828  0.8585 -1.0760 -0.2767
 3821SOL     OW22921   1.667   1.030   0.653  0.2182  0.1956 -0.0995
 3821SOL    HW122922   1.626   1.062   0.573 -0.3296  0.2672  0.2153
 3821SOL    HW222923   1.701   1.111   0.690  0.9062 -0.2233  0.1994
 3822SOL     OW22924   1.455   2.148   1.900  0.0619 -0.0650  0.3644
 3822SOL    HW122925   1.500   2.231   1.881  1.8374 -0.9857  0.5525
 3822SOL    HW222926   1.496   2.090   1.836 -0.7840  0.3468 -0.5494
 3823SOL     OW22927   4.233   2.939   3.007 -0.6661 -0.2590  0.3211
 3823SOL    HW122928   4.214   3.032   3.010  3.1168  0.5582 -1.5450
 3823SOL    HW222929   4.240   2.924   2.912 -0.1493 -0.8136  0.4472
 3824SOL     OW22930   4.089   3.024   3.442 -0.9051  0.1375 -0.0341
 3824SOL    HW122931   4.122   3.067   3.521  0.6874 -2.3584  0.6700
 3824SOL    HW222932   4.174   3.004   3.401 -0.7365  0.7342  0.0252
 3825SOL     OW22933   2.206   1.723   3.120  0.1680  0.1663 -0.5705
 3825SOL    HW122934   2.246   1.733   3.033  0.9054 -0.9199 -0.3457
 3825SOL    HW222935   2.172   1.634   3.113  1.0182 -0.2820  1.2115
 3826SOL     OW22936   3.410   3.242  13.649 -0.0802  0.1903 -0.2631
 3826SOL    HW122937   3.340   3.243  13.584  0.6664 -1.1382 -1.0873
 3826SOL    HW222938   3.383   3.323  13.691 -0.9738 -0.5016  0.4963
 3827SOL     OW22939   1.601   4.324  12.255 -0.0219  0.2782 -0.1192
 3827SOL    HW122940   1.563   4.392  12.311 -1.4830 -0.4381 -0.2383
 3827SOL    HW222941   1.635   4.377  12.183  0.3441  0.8808  0.4991
 3828SOL     OW22942   2.475   0.138   6.696  0.2212  0.0559 -0.1783
 3828SOL    HW122943   2.455   0.183   6.778  0.1418 -0.8912  0.3222
 3828SOL    HW222944   2.404   0.170   6.641  0.1134 -1.4147 -0.9150
 3829SOL     OW22945   2.075   2.501   1.182  0.3776  0.5170  0.4442
 3829SOL    HW122946   2.157   2.544   1.154  0.7121  0.1150  0.8097
 3829SOL    HW222947   2.038   2.487   1.095 -1.0570 -1.0237  1.3263
 3830SOL     OW22948   4.484   0.672   8.288  0.4425  0.2343 -0.2631
 3830SOL    HW122949   4.489   0.725   8.368 -2.0771 -3.4404  2.3683
 3830SOL    HW222950   4.392   0.655   8.268  0.1334  1.5664  0.0772
 3831SOL     OW22951   1.540   0.558   2.341 -0.1515 -0.2494  0.1058
 3831SOL    HW122952   1.512   0.604   2.262  0.9007  1.5554  0.7764
 3831SOL    HW222953   1.467   0.513   2.383 -0.9075  1.2976  0.4504
 3832SOL     OW22954   2.024   2.493   2.896  0.9041  0.3697 -0.0236
 3832SOL    HW122955   1.984   2.468   2.812 -0.8164 -1.0529  1.2245
 3832SOL    HW222956   2.004   2.418   2.952 -1.9049 -1.5828 -3.6288
 3833SOL     OW22957   3.049   4.350   3.913 -0.3148 -0.0471 -0.2481
 3833SOL    HW122958   3.131   4.360   3.864  1.3064 -0.0324  2.4553
 3833SOL    HW222959   3.061   4.265   3.955  0.6433 -0.2743 -0.9711
 3834SOL     OW22960   4.398   2.809   8.834  0.4993 -0.4962  0.0374
 3834SOL    HW122961   4.424   2.718   8.849  2.1312  0.3115  2.0679
 3834SOL    HW222962   4.470   2.857   8.873  0.9315 -0.4948 -0.7566
 3835SOL     OW22963   3.253   0.124   5.104 -0.4614 -0.0232  0.2775
 3835SOL    HW122964   3.308   0.067   5.051  1.4387  0.5871  1.5641
 3835SOL    HW222965   3.243   0.087   5.192  0.4988 -1.1503 -0.0858
 3836SOL     OW22966   2.906   3.211   6.291  0.3720  0.2419 -0.2949
 3836SOL    HW122967   2.977   3.197   6.353  0.9399  1.0429 -0.7625
 3836SOL    HW222968   2.833   3.161   6.328  1.4232 -0.7567  0.4241
 3837SOL     OW22969   4.659   0.041  16.051  0.0141  0.5018  0.1636
 3837SOL    HW122970   4.718   4.688  16.068  1.2247  1.0965 -1.4459
 3837SOL    HW222971   4.668   0.098  16.127 -0.2979  0.7466  0.0139
 3838SOL     OW22972   0.036   1.317  14.698 -0.2705 -0.0846  0.8806
 3838SOL    HW122973   4.679   1.321  14.753 -1.1622 -1.1022 -0.3304
 3838SOL    HW222974   0.073   1.233  14.724 -3.1933 -0.5933  3.2917
 3839SOL     OW22975   1.738   2.652   4.676 -0.0224  0.4106 -0.1090
 3839SOL    HW122976   1.658   2.704   4.690  0.2374  0.1996  2.0737
 3839SOL    HW222977   1.721   2.608   4.592  0.8201  2.2263 -1.2358
 3840SOL     OW22978   3.255   0.983   3.206 -0.1797 -0.4111  0.5185
 3840SOL    HW122979   3.224   1.002   3.118 -2.7364  1.1041  1.7786
 3840SOL    HW222980   3.338   0.936   3.199 -1.0519 -1.7796 -0.6471
 3841SOL     OW22981   4.093   2.025   9.037 -0.1569  0.7000  0.1903
 3841SOL    HW122982   4.096   2.048   9.130 -0.4223 -1.1306  0.6573
 3841SOL    HW222983   4.184   1.994   9.037  0.3638  2.2317  1.4921
 3842SOL     OW22984   4.433   4.327   6.581 -0.2800 -0.3637  0.0085
 3842SOL    HW122985   4.483   4.399   6.621 -2.4142 -0.3238  2.6656
 3842SOL    HW222986   4.425   4.278   6.663 -0.5771 -0.7843 -0.2698
 3843SOL     OW22987   4.368   3.591  17.112 -0.2007  0.1352  0.1041
 3843SOL    HW122988   4.312   3.667  17.098 -0.0641 -0.1527 -2.0438
 3843SOL    HW222989   4.415   3.609  17.194  2.0376  1.8922 -1.5671
 3844SOL     OW22990   2.815   2.218  14.842  0.1310 -0.3192  0.0595
 3844SOL    HW122991   2.878   2.191  14.909 -0.3190  0.5155  0.8266
 3844SOL    HW222992   2.863   2.191  14.764 -0.8324  1.0258 -0.9812
 3845SOL     OW22993   3.656   0.403  15.190 -0.5455  0.6121  0.4580
 3845SOL    HW122994   3.570   0.396  15.230 -1.0207  0.4671 -0.5814
 3845SOL    HW222995   3.672   0.309  15.177 -0.4883  0.4588  1.6643
 3846SOL     OW22996   1.345   4.307   2.436 -0.3255  0.0298 -0.2309
 3846SOL    HW122997   1.322   4.218   2.463  0.2266  0.6413  2.2816
 3846SOL    HW222998   1.430   4.288   2.396 -1.0586 -2.8325 -0.3717
 3847SOL     OW22999   1.363   1.095   6.538  0.4894  0.1705 -0.1976
 3847SOL    HW123000   1.430   1.035   6.506  1.9168  0.8562  1.4673
 3847SOL    HW223001   1.285   1.057   6.497  1.2983 -2.8646  1.1159
 3848SOL     OW23002   2.939   2.830   7.793 -0.3339  0.5418  0.2661
 3848SOL    HW123003   2.864   2.864   7.842 -1.4538 -0.5791 -0.6745
 3848SOL    HW223004   2.932   2.739   7.824 -0.1894  0.2918 -0.4362
 3849SOL     OW23005   4.213   3.179   6.937  0.9986  0.9683 -0.5708
 3849SOL    HW123006   4.182   3.231   6.862 -0.1712  1.6717  0.3971
 3849SOL    HW223007   4.272   3.240   6.981  0.3258  1.3902 -0.2498
 3850SOL     OW23008   3.904   2.824  13.769 -0.5288 -0.2154 -0.0249
 3850SOL    HW123009   3.915   2.818  13.674 -0.0091  0.3557  0.0032
 3850SOL    HW223010   3.945   2.740  13.791  0.9445  0.7941  1.0576
 3851SOL     OW23011   3.845   3.304   0.637  0.1897 -0.1489 -0.2998
 3851SOL    HW123012   3.773   3.306   0.575 -1.0947 -0.0215  1.1994
 3851SOL    HW223013   3.806   3.230   0.684 -0.1145 -0.4946 -1.1057
 3852SOL     OW23014   2.905   4.647   2.194 -0.5515 -0.4266 -0.3523
 3852SOL    HW123015   2.966   4.689   2.132  0.5851  0.1377  1.1625
 3852SOL    HW223016   2.952   4.565   2.211  0.3807  1.0506  4.0926
 3853SOL     OW23017   0.525   2.810   9.069  0.3981  0.1072 -0.1910
 3853SOL    HW123018   0.489   2.769   9.148 -2.1538  1.7151 -0.5125
 3853SOL    HW223019   0.616   2.832   9.089  0.7378 -1.4251 -0.0022
 3854SOL     OW23020   1.804   2.530   1.360 -0.0066 -0.1107  0.0804
 3854SOL    HW123021   1.864   2.513   1.287 -0.8437  0.2476 -0.6915
 3854SOL    HW223022   1.841   2.477   1.430  0.8437 -0.8184 -0.9101
 3855SOL     OW23023   1.185   3.235  10.815 -0.3745  0.4087  0.1023
 3855SOL    HW123024   1.121   3.184  10.764 -0.3892  0.3142  0.2174
 3855SOL    HW223025   1.140   3.319  10.828 -0.0814  0.6344 -0.3345
 3856SOL     OW23026   2.720   3.399   3.161  0.1287  0.2171 -0.4450
 3856SOL    HW123027   2.793   3.356   3.117  2.4200 -0.1500  3.8282
 3856SOL    HW223028   2.758   3.382   3.246 -0.4814 -0.3848 -0.2932
 3857SOL     OW23029   2.273   1.291  11.283  0.1828 -0.4117 -0.3733
 3857SOL    HW123030   2.329   1.272  11.208  0.8685  0.4311 -0.0798
 3857SOL    HW223031   2.189   1.272  11.242 -1.2114  2.7679  1.0656
 3858SOL     OW23032   1.949   1.221   5.450 -0.6343 -0.2727 -0.0346
 3858SOL    HW123033   1.869   1.228   5.503 -0.0535  0.6754  0.7156
 3858SOL    HW223034   2.003   1.297   5.474 -1.0239  0.3010 -0.9837
 3859SOL     OW23035   0.444   2.466   2.066  0.1579  0.0691 -0.0104
 3859SOL    HW123036   0.511   2.530   2.041 -0.2816  0.6223  0.2433
 3859SOL    HW223037   0.453   2.465   2.161  1.1361  1.2007 -0.0806
 3860SOL     OW23038   1.962   3.417  10.726 -0.2523 -0.5618 -0.7765
 3860SOL    HW123039   1.939   3.509  10.714 -1.7922 -0.7075  1.0405
 3860SOL    HW223040   1.983   3.411  10.820 -0.0697 -0.4389 -0.8105
 3861SOL     OW23041   1.092   2.449   8.428  0.6833  0.3915 -0.2586
 3861SOL    HW123042   1.021   2.392   8.455  0.1976  0.8927 -0.4779
 3861SOL    HW223043   1.086   2.454   8.332  0.0670  2.1354 -0.1304
 3862SOL     OW23044   0.979   2.734  15.675  0.4554 -0.4729 -0.2737
 3862SOL    HW123045   0.948   2.669  15.611 -0.5419  1.4501 -1.7326
 3862SOL    HW223046   1.069   2.715  15.649  0.4926  4.1719 -3.4425
 3863SOL     OW23047   2.052   2.860   3.704 -0.2821 -0.0119 -0.7902
 3863SOL    HW123048   2.039   2.949   3.738 -0.7913  0.5040 -2.3188
 3863SOL    HW223049   2.066   2.806   3.782  0.4750 -1.3151 -1.8370
 3864SOL     OW23050   3.106   3.687   3.003 -0.6053 -0.0257  0.0764
 3864SOL    HW123051   3.013   3.704   3.015 -0.3952 -0.3559  2.0964
 3864SOL    HW223052   3.102   3.623   2.932 -0.0886 -2.0657  1.8630
 3865SOL     OW23053   1.128   3.311   6.839  0.4133 -0.4996 -0.3398
 3865SOL    HW123054   1.085   3.303   6.925  3.7437 -3.1898  1.0806
 3865SOL    HW223055   1.139   3.406   6.839  0.8637 -0.5487  0.6489
 3866SOL     OW23056   4.712   0.108   1.188 -0.0154  0.2108 -0.0538
 3866SOL    HW123057   0.043   0.105   1.268  1.2946  2.7914 -0.8103
 3866SOL    HW223058   4.643   0.044   1.204 -0.9705  1.4522  0.7903
 3867SOL     OW23059   0.096   1.583  12.728  0.1765 -0.4661 -0.1788
 3867SOL    HW123060   0.145   1.590  12.646  0.9472  2.4955  0.5282
 3867SOL    HW223061   0.108   1.491  12.752 -0.4477 -0.3320  0.6459
 3868SOL     OW23062   2.880   3.484   7.684 -0.0318  0.3241  0.0704
 3868SOL    HW123063   2.974   3.469   7.675  0.1928  0.8933  1.4546
 3868SOL    HW223064   2.837   3.461   7.601 -2.6955 -1.3095  1.9239
 3869SOL     OW23065   0.217   1.770  16.959  0.3778 -0.2733  0.3995
 3869SOL    HW123066   0.151   1.746  17.025  0.2960 -0.0016  0.4177
 3869SOL    HW223067   0.292   1.798  17.012  1.5953 -0.1773 -1.3907
 3870SOL     OW23068   3.923   0.249   7.256  0.0100 -0.0441 -0.2394
 3870SOL    HW123069   3.949   0.246   7.164  1.0543  0.6594  0.0292
 3870SOL    HW223070   3.899   0.341   7.258  0.8125  0.1765 -0.5863
 3871SOL     OW23071   0.854   3.706  11.116  0.0506 -0.0431 -0.4001
 3871SOL    HW123072   0.941   3.690  11.080 -0.5664  0.2805 -1.9923
 3871SOL    HW223073   0.853   3.802  11.116 -1.4170 -0.0591 -0.3781
 3872SOL     OW23074   2.195   1.749   4.558 -0.2135  0.3574 -0.4818
 3872SOL    HW123075   2.137   1.675   4.543 -0.7879  1.0660 -1.7106
 3872SOL    HW223076   2.166   1.802   4.632 -0.7062  0.1670 -0.5394
 3873SOL     OW23077   1.180   3.930  16.839  0.0804  0.1635 -0.1468
 3873SOL    HW123078   1.179   3.848  16.889  1.2041 -0.3099 -0.9082
 3873SOL    HW223079   1.269   3.957  16.859  0.0822  0.2878 -0.3217
 3874SOL     OW23080   1.543   0.949   7.002 -0.3306  0.5283 -0.0190
 3874SOL    HW123081   1.549   0.856   6.979 -0.5878 -0.1446  2.6351
 3874SOL    HW223082   1.487   0.987   6.934 -0.0354 -0.4781 -0.8370
 3875SOL     OW23083   1.055   0.126   8.732  0.2758 -0.3885 -0.2929
 3875SOL    HW123084   1.147   0.110   8.756  0.2142 -0.6157 -0.2109
 3875SOL    HW223085   1.056   0.217   8.701 -1.4729 -0.7341 -1.3072
 3876SOL     OW23086   2.548   3.305  11.407 -0.3591  0.4295 -0.3085
 3876SOL    HW123087   2.491   3.356  11.463 -0.3354  0.8363 -0.6543
 3876SOL    HW223088   2.557   3.364  11.333  0.3379  0.4314 -0.2221
 3877SOL     OW23089   1.577   2.732  17.020 -0.0539  0.6784 -0.0144
 3877SOL    HW123090   1.553   2.805  17.077  0.9862  1.6513 -0.8153
 3877SOL    HW223091   1.490   2.704  16.993  0.8495 -0.3455 -1.8515
 3878SOL     OW23092   4.459   1.207   3.547  0.3016 -0.4113  0.4591
 3878SOL    HW123093   4.475   1.156   3.468  2.4014  0.0908  0.5753
 3878SOL    HW223094   4.540   1.257   3.556 -1.2154  1.3672  4.3524
 3879SOL     OW23095   3.712   0.507   1.509 -0.1183  0.1985 -0.8345
 3879SOL    HW123096   3.734   0.561   1.434 -0.4168 -0.2908 -1.2772
 3879SOL    HW223097   3.709   0.575   1.576  0.4200 -0.9613  0.3625
 3880SOL     OW23098   2.797   0.922  12.340 -0.0026 -0.2987  0.1595
 3880SOL    HW123099   2.888   0.913  12.365  0.5211  1.3530 -1.1727
 3880SOL    HW223100   2.783   1.015  12.358 -3.5619 -0.7169 -0.2856
 3881SOL     OW23101   2.673   0.319  13.963  0.4492  0.4256  0.5152
 3881SOL    HW123102   2.764   0.297  13.945  0.3857 -1.5381  2.5601
 3881SOL    HW223103   2.689   0.413  13.972  2.1620  0.2172 -0.3722
 3882SOL     OW23104   0.873   3.973   5.702 -0.2498 -0.5292 -0.1713
 3882SOL    HW123105   0.791   4.002   5.741  1.5136 -0.1588  3.3314
 3882SOL    HW223106   0.890   3.883   5.731 -1.2051  0.2723  2.8613
 3883SOL     OW23107   0.273   3.317   8.861 -0.0218 -0.1644 -0.4364
 3883SOL    HW123108   0.321   3.329   8.943 -1.6925  0.3265  0.4644
 3883SOL    HW223109   0.248   3.407   8.843  0.6395 -0.3349 -2.2196
 3884SOL     OW23110   4.228   1.188   5.118 -0.7196 -0.1984 -0.2115
 3884SOL    HW123111   4.155   1.198   5.057  0.2054  0.8271 -1.1576
 3884SOL    HW223112   4.170   1.198   5.194  1.2331  0.2066  1.2461
 3885SOL     OW23113   2.379   2.314   2.755 -0.3254  0.3365 -0.2389
 3885SOL    HW123114   2.465   2.276   2.773 -1.7210 -2.1273  1.2315
 3885SOL    HW223115   2.368   2.385   2.817  0.0397  1.5823 -1.5995
 3886SOL     OW23116   2.169   0.853   6.054  0.3787 -0.0170  0.0962
 3886SOL    HW123117   2.117   0.834   6.132 -1.9523  1.5433 -1.0820
 3886SOL    HW223118   2.216   0.930   6.086 -0.3836  1.0586 -1.3772
 3887SOL     OW23119   1.433   0.198   2.600 -0.1980  0.3867  0.4999
 3887SOL    HW123120   1.476   0.274   2.639 -0.3316 -0.3079  2.0131
 3887SOL    HW223121   1.349   0.231   2.568  0.1651  1.2919  0.4843
 3888SOL     OW23122   0.187   2.682   6.178  0.2307 -0.0907 -0.5305
 3888SOL    HW123123   0.095   2.657   6.173  0.4318 -1.1652  1.2313
 3888SOL    HW223124   0.189   2.728   6.261  3.4879  3.2882 -2.5004
 3889SOL     OW23125   4.222   1.695   8.832 -0.4119  0.0543  0.2976
 3889SOL    HW123126   4.271   1.629   8.881 -1.3773 -2.0476 -1.5883
 3889SOL    HW223127   4.288   1.764   8.821 -0.6531  0.3507  0.7101
 3890SOL     OW23128   4.698   0.850   7.863  0.4623  0.5057  0.7730
 3890SOL    HW123129   0.055   0.816   7.819 -0.0248 -0.1503  0.4213
 3890SOL    HW223130   4.698   0.795   7.941  1.0751  0.0147  0.4237
 3891SOL     OW23131   1.472   0.189   8.474  0.2206 -0.4082 -0.1940
 3891SOL    HW123132   1.526   0.254   8.430 -2.6855  1.5215 -0.8448
 3891SOL    HW223133   1.513   0.119   8.423 -0.0387  0.1314 -1.1198
 3892SOL     OW23134   4.397   0.483   2.644 -0.0041 -0.0780  0.2191
 3892SOL    HW123135   4.335   0.521   2.706 -0.3247 -0.8110  0.3514
 3892SOL    HW223136   4.379   0.526   2.560  0.9695  2.3981  1.2829
 3893SOL     OW23137   1.587   3.532   4.905  0.5577  0.2902  0.0670
 3893SOL    HW123138   1.619   3.464   4.965 -0.8585 -1.1146 -0.7587
 3893SOL    HW223139   1.496   3.506   4.893  0.2365  0.7020  1.6057
 3894SOL     OW23140   4.555   0.362   4.504  0.1146 -0.0552 -0.2508
 3894SOL    HW123141   4.636   0.324   4.537  0.5086  0.7150 -0.3303
 3894SOL    HW223142   4.527   0.293   4.444 -1.0354  1.5269 -1.5463
 3895SOL     OW23143   3.448   4.540   2.343 -0.6243  0.2111  0.3870
 3895SOL    HW123144   3.515   4.582   2.398 -1.7219  3.8102 -1.0807
 3895SOL    HW223145   3.389   4.506   2.410 -0.0703 -0.8441  0.3460
 3896SOL     OW23146   3.628   3.731   4.420 -0.5265 -0.1191 -0.0857
 3896SOL    HW123147   3.722   3.723   4.436 -0.3800  1.5964 -0.0588
 3896SOL    HW223148   3.600   3.738   4.511 -1.9263  0.2655 -0.5476
 3897SOL     OW23149   2.986   2.479   5.486  0.3285  0.2852 -0.0211
 3897SOL    HW123150   2.980   2.545   5.417 -1.1095 -0.8375 -0.9729
 3897SOL    HW223151   2.961   2.522   5.568 -0.2367  0.0178 -0.0485
 3898SOL     OW23152   3.719   0.545   7.678 -1.1679 -0.9357  0.5707
 3898SOL    HW123153   3.717   0.512   7.588  1.2173 -2.1268  0.9432
 3898SOL    HW223154   3.776   0.622   7.671 -0.4315 -1.6813 -1.8106
 3899SOL     OW23155   1.623   3.074   2.306  0.0093 -0.8235 -0.3673
 3899SOL    HW123156   1.599   3.009   2.241 -0.0802 -0.9587 -0.1997
 3899SOL    HW223157   1.594   3.153   2.262  0.2518  0.0226  0.9767
 3900SOL     OW23158   3.663   3.143  14.721  0.1685 -0.0505  0.0939
 3900SOL    HW123159   3.717   3.202  14.772 -1.1558  0.7785  0.5548
 3900SOL    HW223160   3.642   3.098  14.803  2.6718 -0.2166  0.6439
 3901SOL     OW23161   2.254   2.250   1.805 -0.1828  0.3564  0.0181
 3901SOL    HW123162   2.328   2.227   1.750  0.4887 -1.7926  1.7841
 3901SOL    HW223163   2.226   2.332   1.765 -0.0242 -0.3851 -1.5897
 3902SOL     OW23164   0.635   0.968   1.731 -0.3115  0.2253 -0.4991
 3902SOL    HW123165   0.565   0.935   1.788 -1.6454  0.4080 -2.0198
 3902SOL    HW223166   0.620   1.062   1.745  0.0899  0.1920  0.1506
 3903SOL     OW23167   1.114   1.539   8.888  0.1144  0.0462 -0.7212
 3903SOL    HW123168   1.065   1.465   8.926  1.3969  1.0727  2.9501
 3903SOL    HW223169   1.205   1.511   8.874 -0.0840 -0.4038 -1.1110
 3904SOL     OW23170   0.726   3.496  15.188  0.4532  0.6461  1.1500
 3904SOL    HW123171   0.652   3.447  15.225 -0.6342  2.6780  1.6993
 3904SOL    HW223172   0.685   3.583  15.190  1.9851  1.3128  2.7019
 3905SOL     OW23173   0.998   1.585   1.750  0.3763  0.5214 -0.1316
 3905SOL    HW123174   0.983   1.653   1.684  2.9782  1.8031  0.5828
 3905SOL    HW223175   1.065   1.629   1.803  0.3264 -0.8896  1.1120
 3906SOL     OW23176   0.353   3.480  11.185  0.3181  0.0068 -0.3015
 3906SOL    HW123177   0.285   3.419  11.213 -0.8351  0.6420 -1.7508
 3906SOL    HW223178   0.346   3.549  11.252 -1.5044  0.0891 -0.5862
 3907SOL     OW23179   3.380   4.469  14.982 -0.0776  0.0908 -0.3930
 3907SOL    HW123180   3.364   4.404  14.914 -0.8156 -0.3236  0.1724
 3907SOL    HW223181   3.473   4.463  14.964  0.2032 -0.1800  1.1164
 3908SOL     OW23182   0.996   1.911   6.961  0.3312  0.1244  0.4646
 3908SOL    HW123183   0.932   1.964   6.913 -2.2811 -2.3164  1.2450
 3908SOL    HW223184   0.962   1.914   7.050  0.3482  0.4840  0.4620
 3909SOL     OW23185   2.568   3.662   7.041  0.2101 -0.4745  0.3214
 3909SOL    HW123186   2.564   3.569   7.017  1.0311 -1.0052  2.1490
 3909SOL    HW223187   2.485   3.684   7.084 -0.7333 -0.3966 -1.5453
 3910SOL     OW23188   4.566   1.257   8.690 -0.4397 -0.1324 -0.0419
 3910SOL    HW123189   4.602   1.169   8.680  0.2717  0.3264 -1.5419
 3910SOL    HW223190   4.608   1.280   8.772 -2.8601 -1.5446  1.5962
 3911SOL     OW23191   1.672   2.985   8.397 -0.1109  0.0249 -0.1540
 3911SOL    HW123192   1.739   2.935   8.444  0.3594  1.6030  0.8250
 3911SOL    HW223193   1.713   3.069   8.377 -2.6977  1.4036  0.3497
 3912SOL     OW23194   3.922   3.294  12.260  0.3039  0.0265  0.3279
 3912SOL    HW123195   3.994   3.249  12.305 -0.4887  0.5001  2.0738
 3912SOL    HW223196   3.875   3.351  12.321 -1.6716 -2.5310  1.2156
 3913SOL     OW23197   3.803   1.685   5.119  0.2235 -0.5684 -0.4397
 3913SOL    HW123198   3.776   1.646   5.202  2.0983 -0.4342  0.2315
 3913SOL    HW223199   3.897   1.665   5.118  0.5894  1.1386  1.2617
 3914SOL     OW23200   0.429   2.570  13.087 -0.0082  0.5498 -0.9178
 3914SOL    HW123201   0.381   2.637  13.037  1.5960  1.1484 -1.6586
 3914SOL    HW223202   0.352   2.527  13.124  0.6742 -1.3295 -1.7018
 3915SOL     OW23203   3.335   3.389  15.566 -0.4571 -0.2815  0.3577
 3915SOL    HW123204   3.246   3.382  15.602 -1.6070  2.3261 -1.9793
 3915SOL    HW223205   3.309   3.382  15.474  0.4616  0.6498  0.0216
 3916SOL     OW23206   2.278   3.000   2.065  0.4082  0.2224  0.4209
 3916SOL    HW123207   2.238   3.005   2.151 -0.5095 -0.9098  0.0503
 3916SOL    HW223208   2.284   3.094   2.047  4.0952 -0.2207 -0.6614
 3917SOL     OW23209   2.695   0.217   8.480 -1.0491  0.7117  0.5399
 3917SOL    HW123210   2.682   0.132   8.522  0.7103 -0.2983 -0.9319
 3917SOL    HW223211   2.776   0.251   8.519 -0.4486 -0.4557  0.3123
 3918SOL     OW23212   4.671   0.639   3.293  0.6474  0.4231 -0.5037
 3918SOL    HW123213   0.022   0.578   3.312 -0.9043 -1.5744 -1.0781
 3918SOL    HW223214   4.599   0.606   3.346  1.4879 -0.0083  0.3715
 3919SOL     OW23215   3.764   3.025   9.025 -0.0776 -0.2579 -0.3236
 3919SOL    HW123216   3.706   3.078   9.080 -0.1623 -0.7106  0.0301
 3919SOL    HW223217   3.840   3.082   9.018 -0.8526  0.9658  1.2393
 3920SOL     OW23218   4.497   1.660  17.001  0.4628 -0.3315  0.1778
 3920SOL    HW123219   4.442   1.719  16.950 -1.9133 -2.1800  0.5896
 3920SOL    HW223220   4.531   1.611  16.926  0.2771  0.9877 -0.7743
 3921SOL     OW23221   3.120   2.294   5.345 -0.1751 -0.1339  0.2890
 3921SOL    HW123222   3.081   2.368   5.392  0.3273 -0.3054  0.9842
 3921SOL    HW223223   3.080   2.295   5.258 -1.3552  0.1269  0.8314
 3922SOL     OW23224   3.414   2.233   5.541  0.2010 -0.0608 -0.5262
 3922SOL    HW123225   3.361   2.287   5.600  0.5455  0.1357 -0.3922
 3922SOL    HW223226   3.482   2.207   5.604  1.4076  1.1201 -1.3426
 3923SOL     OW23227   0.911   1.352   7.381  0.3542  0.1424 -0.2476
 3923SOL    HW123228   0.893   1.338   7.474  1.9143 -1.2399 -0.1325
 3923SOL    HW223229   0.833   1.322   7.335 -0.6802 -0.9190  2.2173
 3924SOL     OW23230   2.046   3.665   8.793 -0.2153 -0.3680 -0.2471
 3924SOL    HW123231   2.101   3.682   8.716  0.2778 -0.9229 -0.0176
 3924SOL    HW223232   2.062   3.747   8.838 -1.5890 -0.1723 -0.1139
 3925SOL     OW23233   3.451   1.428   2.053  0.3221  0.8692 -0.3519
 3925SOL    HW123234   3.407   1.498   2.005 -1.6058  0.0080  0.1589
 3925SOL    HW223235   3.525   1.423   1.993  0.2970 -3.1826 -0.0886
 3926SOL     OW23236   1.243   4.216   8.659 -0.1968 -0.1166 -0.3201
 3926SOL    HW123237   1.226   4.122   8.670  1.0051 -0.3012 -0.0475
 3926SOL    HW223238   1.167   4.244   8.608  1.5086  0.7180 -2.4003
 3927SOL     OW23239   2.204   2.242  12.375 -0.1458  0.2514 -0.3309
 3927SOL    HW123240   2.128   2.297  12.355 -1.3744 -1.2224  0.2782
 3927SOL    HW223241   2.224   2.201  12.291  1.3021  1.6846 -0.6981
 3928SOL     OW23242   3.263   4.557  13.867 -0.1951  0.4041  0.3229
 3928SOL    HW123243   3.249   4.555  13.773  1.4645  0.1398  0.0904
 3928SOL    HW223244   3.314   4.637  13.879  0.3238  0.0948  0.1805
 3929SOL     OW23245   4.173   0.929  12.612 -0.1749 -0.7481 -0.0058
 3929SOL    HW123246   4.089   0.970  12.634 -0.1557 -0.2458 -0.8792
 3929SOL    HW223247   4.218   0.988  12.551 -0.2581  0.1436  0.7821
 3930SOL     OW23248   2.925   1.444   3.482 -0.1268  0.3372  0.2457
 3930SOL    HW123249   2.931   1.349   3.487 -1.9077  0.1931 -0.4557
 3930SOL    HW223250   2.919   1.450   3.387  0.7614  0.6232  0.2055
 3931SOL     OW23251   2.362   1.504   0.112 -0.8895 -0.2331  0.6342
 3931SOL    HW123252   2.282   1.498   0.059  1.3642 -0.2832 -2.7660
 3931SOL    HW223253   2.362   1.419   0.157 -2.1266 -0.4560  0.2305
 3932SOL     OW23254   2.645   4.517   4.837 -0.5921 -0.3375  0.5663
 3932SOL    HW123255   2.705   4.502   4.910 -0.7836  0.4145  0.8686
 3932SOL    HW223256   2.600   4.432   4.832 -0.1053 -0.6802  2.2663
 3933SOL     OW23257   1.376   0.589   2.578  0.2822 -0.5771  0.2669
 3933SOL    HW123258   1.455   0.540   2.600  0.3489 -0.7126 -0.2554
 3933SOL    HW223259   1.393   0.671   2.625 -0.0928  0.2943 -1.1084
 3934SOL     OW23260   1.816   0.239   5.528 -0.0018  0.1734 -0.4590
 3934SOL    HW123261   1.853   0.294   5.459 -0.0160 -0.4904 -0.9936
 3934SOL    HW223262   1.748   0.197   5.474  1.2031  1.3520 -2.8921
 3935SOL     OW23263   1.438   3.102   9.771 -0.2041  0.6122 -0.3196
 3935SOL    HW123264   1.344   3.090   9.758 -0.4290  2.6669 -0.6464
 3935SOL    HW223265   1.477   3.063   9.692 -3.7031  1.1341 -2.3130
 3936SOL     OW23266   2.106   3.322   1.705 -0.1483  0.0857  1.0187
 3936SOL    HW123267   2.179   3.325   1.643 -0.6976 -1.5404  0.3027
 3936SOL    HW223268   2.135   3.384   1.772  0.3550  0.7297  0.2077
 3937SOL     OW23269   4.113   3.284   2.771  0.1403 -0.6785 -0.5763
 3937SOL    HW123270   4.029   3.323   2.745 -0.7157 -1.6570  0.7167
 3937SOL    HW223271   4.132   3.235   2.691  1.0321 -0.7370 -0.3258
 3938SOL     OW23272   4.020   0.320   4.341 -0.4075 -0.1655  0.5254
 3938SOL    HW123273   4.099   0.340   4.392  1.3691 -1.2356 -1.8278
 3938SOL    HW223274   3.959   0.385   4.377 -1.7530 -1.0803 -0.0951
 3939SOL     OW23275   0.110   4.565  11.722  0.8094  0.5265  0.1843
 3939SOL    HW123276   0.201   4.561  11.752  0.7043 -0.2306  0.3833
 3939SOL    HW223277   0.105   4.655  11.688 -0.7128  0.4131  0.1131
 3940SOL     OW23278   0.752   0.825  15.842  0.4654 -0.2749  0.1070
 3940SOL    HW123279   0.762   0.868  15.757 -0.1173 -1.2038 -0.4385
 3940SOL    HW223280   0.840   0.794  15.862  1.2181  2.8185  1.6210
 3941SOL     OW23281   1.577   4.675   2.600  0.2303  0.4390  0.0519
 3941SOL    HW123282   1.572   4.662   2.505 -1.1050 -0.3291  0.2199
 3941SOL    HW223283   1.520   0.031   2.597 -0.4936 -0.0880  0.4478
 3942SOL     OW23284   1.586   2.294   3.679  0.4191  0.0395  0.5511
 3942SOL    HW123285   1.631   2.282   3.595  1.5738 -0.5905  1.2654
 3942SOL    HW223286   1.526   2.220   3.677  1.0831 -0.4512 -1.1288
 3943SOL     OW23287   3.872   3.144   6.091  0.0252 -0.2276  0.7274
 3943SOL    HW123288   3.943   3.122   6.031 -0.3057 -1.4706  0.7970
 3943SOL    HW223289   3.905   3.113   6.176  1.2006  0.2266  0.4346
 3944SOL     OW23290   3.683   2.735   4.046 -0.0309  0.4265  0.2329
 3944SOL    HW123291   3.717   2.748   4.134 -0.0402 -0.5104  0.3759
 3944SOL    HW223292   3.692   2.640   4.037  0.0030  0.7235 -2.8938
 3945SOL     OW23293   2.650   3.608   5.985  0.4903 -0.1048  0.4042
 3945SOL    HW123294   2.595   3.531   5.998 -0.4646  1.0350  2.9073
 3945SOL    HW223295   2.714   3.586   6.053  1.0608 -1.4913 -0.5614
 3946SOL     OW23296   3.500   4.218   8.537  0.2353 -0.2999  0.3817
 3946SOL    HW123297   3.446   4.236   8.460  1.6499 -1.6122 -0.9053
 3946SOL    HW223298   3.476   4.128   8.560  0.7491 -0.1322  1.5789
 3947SOL     OW23299   0.879   3.884   4.068 -0.1210  0.5030  0.8419
 3947SOL    HW123300   0.875   3.914   3.978  0.0186 -1.0025  0.3405
 3947SOL    HW223301   0.901   3.791   4.058 -2.2817  0.4151 -2.6701
 3948SOL     OW23302   1.304   4.053   6.086 -0.5683 -0.1068 -0.1886
 3948SOL    HW123303   1.285   4.080   6.176  4.0546  1.8928  0.2096
 3948SOL    HW223304   1.356   3.974   6.095 -0.8212 -0.2419  0.0565
 3949SOL     OW23305   1.486   1.230   9.350 -0.8290 -1.0230  0.3594
 3949SOL    HW123306   1.542   1.166   9.306 -0.5235  0.0883 -0.8744
 3949SOL    HW223307   1.474   1.287   9.274  1.3755  0.7265  1.3339
 3950SOL     OW23308   4.455   1.066  14.847  0.3366 -0.1778  0.2669
 3950SOL    HW123309   4.492   1.153  14.832  1.4146 -0.6577  0.1470
 3950SOL    HW223310   4.465   1.028  14.760  0.6758  0.3059  0.0928
 3951SOL     OW23311   0.393   1.247  11.263  0.0531 -0.2371  0.2428
 3951SOL    HW123312   0.479   1.263  11.303 -0.4621  1.2918  0.7492
 3951SOL    HW223313   0.378   1.331  11.220  0.7825 -0.6703 -0.8533
 3952SOL     OW23314   4.007   0.358   8.204 -0.2648  0.1579 -0.2884
 3952SOL    HW123315   4.036   0.414   8.131 -0.9462  0.8647 -0.0178
 3952SOL    HW223316   3.919   0.336   8.174 -0.5161 -1.6175  1.8019
 3953SOL     OW23317   2.231   3.633   8.147  0.0461 -0.2970 -0.2320
 3953SOL    HW123318   2.197   3.707   8.198  1.4038 -0.1097  0.3994
 3953SOL    HW223319   2.312   3.617   8.195  0.0016  0.4585  0.0964
 3954SOL     OW23320   1.918   4.291   2.725 -0.5200  0.3205 -0.0703
 3954SOL    HW123321   1.829   4.323   2.712  0.1283  2.7102  1.3591
 3954SOL    HW223322   1.964   4.367   2.760  1.5771  0.2283 -2.6591
 3955SOL     OW23323   1.975   0.623   3.548  0.3198  0.0197  0.1579
 3955SOL    HW123324   2.031   0.568   3.602  0.2667 -1.2077 -1.0257
 3955SOL    HW223325   1.908   0.561   3.518  0.4785 -0.2023  0.2624
 3956SOL     OW23326   2.201   1.125   3.061 -0.5246 -0.6713  0.1592
 3956SOL    HW123327   2.269   1.116   3.128 -0.2534 -2.8825 -0.4033
 3956SOL    HW223328   2.131   1.135   3.125 -1.0610 -2.3077 -0.1682
 3957SOL     OW23329   4.691   1.739   7.459  0.1166 -0.3122 -0.2720
 3957SOL    HW123330   4.657   1.660   7.419  0.2195  1.0343 -2.9776
 3957SOL    HW223331   4.683   1.709   7.550  0.2921  0.1275 -0.1094
 3958SOL     OW23332   2.277   4.260   8.120  0.2598  0.2640 -0.0340
 3958SOL    HW123333   2.268   4.212   8.203 -0.4174 -1.3308 -1.0183
 3958SOL    HW223334   2.210   4.329   8.118 -1.0375 -0.9253  2.0743
 3959SOL     OW23335   2.316   4.256   7.618 -0.1233  0.0136  0.0613
 3959SOL    HW123336   2.280   4.190   7.677  0.1600 -0.4686 -0.3076
 3959SOL    HW223337   2.299   4.336   7.668 -1.3391 -1.6614  2.3317
 3960SOL     OW23338   0.205   2.504   7.265 -0.4810 -0.1541 -0.1973
 3960SOL    HW123339   0.263   2.465   7.200  0.3428  0.4085  0.1871
 3960SOL    HW223340   0.148   2.430   7.285 -1.2819  0.3964 -0.4505
 3961SOL     OW23341   4.186   2.431  12.990  0.6317 -0.2697  0.3157
 3961SOL    HW123342   4.096   2.411  13.018  1.7507 -0.4954  3.6540
 3961SOL    HW223343   4.202   2.378  12.912 -1.6497  1.9870 -1.6832
 3962SOL     OW23344   3.541   0.261   6.070  0.2212 -0.6764 -0.0555
 3962SOL    HW123345   3.502   0.302   5.992  1.8878 -1.1704 -1.1387
 3962SOL    HW223346   3.632   0.290   6.076  0.1949 -1.1177  2.4359
 3963SOL     OW23347   2.584   4.256   5.189  0.2703 -0.7198 -0.3050
 3963SOL    HW123348   2.643   4.235   5.262  0.7641  1.1908 -0.1545
 3963SOL    HW223349   2.607   4.194   5.121 -0.3461 -0.9878 -0.2721
 3964SOL     OW23350   0.292   4.683   8.711 -0.0396 -0.2906  0.3677
 3964SOL    HW123351   0.282   4.652   8.621  0.1393 -2.6020  1.1410
 3964SOL    HW223352   0.203   4.697   8.741  0.5967  1.0070  1.6655
 3965SOL     OW23353   4.054   2.029   7.817  0.2769 -0.4940 -0.1752
 3965SOL    HW123354   4.063   1.952   7.873 -0.3193 -0.4709 -0.0467
 3965SOL    HW223355   4.039   2.095   7.884  1.5792 -0.2771 -0.1082
 3966SOL     OW23356   0.796   3.980  17.435  0.6726 -0.0157 -0.0758
 3966SOL    HW123357   0.853   4.041  17.387  1.5930 -0.9066 -0.1150
 3966SOL    HW223358   0.718   4.028  17.408  0.5668  1.9569  3.6922
 3967SOL     OW23359   1.982   0.981   6.464  0.2010 -0.0453  0.4227
 3967SOL    HW123360   1.934   1.063   6.455  0.6773  0.2314  0.4009
 3967SOL    HW223361   2.070   1.000   6.497 -0.4352  2.2200  0.8239
 3968SOL     OW23362   1.839   1.171   3.388 -0.1773  0.6009  0.0792
 3968SOL    HW123363   1.840   1.181   3.292 -0.9461  1.4286  0.1584
 3968SOL    HW223364   1.817   1.253   3.431 -0.1080  0.3166  0.6521
 3969SOL     OW23365   0.130   2.592   8.300  0.0426  0.5651 -0.0152
 3969SOL    HW123366   0.198   2.659   8.305  0.4388  0.1719 -0.1357
 3969SOL    HW223367   0.097   2.596   8.211  0.7623  1.1086 -0.2543
 3970SOL     OW23368   2.134   0.361   4.659  0.3343 -0.1856 -0.5428
 3970SOL    HW123369   2.177   0.432   4.706  2.2206 -0.8956 -1.1812
 3970SOL    HW223370   2.196   0.292   4.685 -0.5221  0.0846  2.2150
 3971SOL     OW23371   1.747   1.920   2.119  0.2272 -0.6913 -0.2460
 3971SOL    HW123372   1.753   1.874   2.035 -2.5022 -3.2139  0.9420
 3971SOL    HW223373   1.737   1.843   2.175 -1.2652  0.9766  1.7438
 3972SOL     OW23374   1.016   0.064   9.837  0.1718  0.1581  0.4072
 3972SOL    HW123375   1.086   0.103   9.888  1.0601 -0.0004 -0.7018
 3972SOL    HW223376   1.024   0.107   9.752  1.4556 -0.9817 -0.0381
 3973SOL     OW23377   3.029   1.972   8.868  0.9190  0.3281 -0.1448
 3973SOL    HW123378   3.028   1.960   8.773  1.2224 -1.6150  0.0964
 3973SOL    HW223379   2.953   1.933   8.910 -0.2875  0.6993 -1.9583
 3974SOL     OW23380   0.567   4.486   1.152 -0.2639  0.1804  0.2169
 3974SOL    HW123381   0.649   4.534   1.166  0.3945 -1.1643  0.9657
 3974SOL    HW223382   0.519   4.508   1.233 -1.1986 -0.4674 -0.1603
 3975SOL     OW23383   4.029   4.698   6.932 -0.6376 -0.2308  0.2259
 3975SOL    HW123384   4.061   4.625   6.985  0.2204  0.0618  0.1048
 3975SOL    HW223385   4.043   4.676   6.840  2.0494  3.8266 -0.3419
 3976SOL     OW23386   0.910   0.912  10.647  0.3145 -0.1293 -1.3785
 3976SOL    HW123387   0.927   1.005  10.659 -0.1202 -0.2776  0.4939
 3976SOL    HW223388   0.998   0.877  10.633  0.6048  0.2939 -0.6031
 3977SOL     OW23389   0.486   1.572  10.863  0.1772 -0.8876  0.4668
 3977SOL    HW123390   0.538   1.508  10.814 -1.1584 -0.8832 -0.9523
 3977SOL    HW223391   0.544   1.618  10.924  0.1069  0.7784 -0.7031
 3978SOL     OW23392   4.211   2.192   2.836  0.1532 -0.4438  0.2958
 3978SOL    HW123393   4.137   2.231   2.883 -2.2806 -1.2902 -2.8678
 3978SOL    HW223394   4.260   2.159   2.912 -0.8657  0.5209  1.3826
 3979SOL     OW23395   4.055   2.842  17.120  0.1584  0.0817 -0.1681
 3979SOL    HW123396   3.999   2.908  17.160  0.7391  0.3453  0.2015
 3979SOL    HW223397   4.015   2.766  17.161  0.2016 -0.0627 -0.3948
 3980SOL     OW23398   2.009   4.272  14.229  0.1366 -0.2562 -0.6310
 3980SOL    HW123399   2.076   4.254  14.163 -0.2115 -0.6290 -0.8823
 3980SOL    HW223400   1.947   4.202  14.209 -0.7887  1.0724 -2.3440
 3981SOL     OW23401   3.100   3.118  17.036  0.2774 -0.3803  0.0940
 3981SOL    HW123402   3.174   3.142  16.981  0.5032 -1.5599 -0.1139
 3981SOL    HW223403   3.144   3.050  17.087  0.6664 -1.8189 -2.1722
 3982SOL     OW23404   3.002   0.316   4.337  0.4937 -0.2262  0.3313
 3982SOL    HW123405   3.005   0.383   4.268 -0.6838 -0.8764 -0.3383
 3982SOL    HW223406   2.908   0.304   4.326  0.8008 -1.2801 -1.0910
 3983SOL     OW23407   1.620   4.352   8.657  0.5973 -0.2459  0.1510
 3983SOL    HW123408   1.545   4.309   8.616  0.2021 -0.3197  0.9642
 3983SOL    HW223409   1.576   4.399   8.728  0.7501  1.0855 -0.6225
 3984SOL     OW23410   0.043   3.657  10.361  0.2003 -0.1043 -0.2778
 3984SOL    HW123411   0.123   3.605  10.362  0.6708  0.6902  2.9196
 3984SOL    HW223412   0.020   3.660  10.454 -1.4253  2.4422 -0.7684
 3985SOL     OW23413   1.421   4.704   9.862 -0.3008 -0.5062 -0.2900
 3985SOL    HW123414   1.418   4.624   9.915 -1.1505  1.3555  2.3974
 3985SOL    HW223415   1.392   0.048   9.925  0.1544 -0.0875 -0.5092
 3986SOL     OW23416   1.759   1.483  13.131  0.2114  0.3770 -0.0898
 3986SOL    HW123417   1.725   1.393  13.130  2.6330 -0.5652  0.6699
 3986SOL    HW223418   1.831   1.470  13.193 -0.6056 -0.3615  0.7066
 3987SOL     OW23419   4.114   3.398  13.819  0.3312 -0.3726  0.2129
 3987SOL    HW123420   4.173   3.443  13.880 -1.2751 -0.2581  1.6747
 3987SOL    HW223421   4.055   3.468  13.790  1.1429  0.5538  0.8427
 3988SOL     OW23422   3.603   0.492   4.550  0.5821 -0.0663  0.1313
 3988SOL    HW123423   3.558   0.533   4.476  2.5718  0.1173 -0.9899
 3988SOL    HW223424   3.543   0.418   4.557 -2.0932  2.0322 -0.7460
 3989SOL     OW23425   2.879   2.648   8.627 -0.1536 -0.2807 -0.4545
 3989SOL    HW123426   2.820   2.676   8.556  0.5696  1.8706 -0.2128
 3989SOL    HW223427   2.864   2.711   8.698 -0.2341 -1.1209  0.2687
 3990SOL     OW23428   0.285   1.805   1.632  0.3955 -0.6570 -0.5983
 3990SOL    HW123429   0.366   1.808   1.582  0.2044  1.8837 -0.7538
 3990SOL    HW223430   0.295   1.884   1.686  0.2354 -0.4875 -0.8208
 3991SOL     OW23431   4.538   2.979   5.909 -0.8004  0.3677  0.4008
 3991SOL    HW123432   4.488   3.060   5.917  0.6234  1.1164  1.6817
 3991SOL    HW223433   4.482   2.926   5.852 -0.9551 -1.3928  2.1702
 3992SOL     OW23434   4.304   0.853   3.532 -0.1009  0.3384  0.4158
 3992SOL    HW123435   4.262   0.935   3.508  0.6812  0.4050 -0.7690
 3992SOL    HW223436   4.231   0.791   3.523  0.0933  0.0302  1.0282
 3993SOL     OW23437   4.024   2.721   2.266 -0.8306 -0.2038  0.5055
 3993SOL    HW123438   4.050   2.743   2.355  0.3903 -0.5045  0.2292
 3993SOL    HW223439   4.086   2.783   2.228 -1.4482  1.2607  1.8817
 3994SOL     OW23440   4.510   0.234  12.885 -0.0731 -0.2065  0.0264
 3994SOL    HW123441   4.463   0.153  12.868  0.9214 -0.4008 -1.7704
 3994SOL    HW223442   4.582   0.210  12.944 -1.5225  1.6234  2.5545
 3995SOL     OW23443   2.728   0.786  11.942 -0.2452 -0.0386  0.3285
 3995SOL    HW123444   2.793   0.839  11.895 -0.7611  0.5721  0.2981
 3995SOL    HW223445   2.642   0.812  11.907  0.3536  0.9292 -0.4393
 3996SOL     OW23446   2.054   0.312   1.269  0.2062  0.1980  0.0610
 3996SOL    HW123447   1.972   0.349   1.239  1.3776  1.4995 -1.5355
 3996SOL    HW223448   2.113   0.383   1.243  0.7860  0.3873  1.8857
 3997SOL     OW23449   0.116   0.767   5.494 -0.1286 -0.3689  0.2491
 3997SOL    HW123450   0.090   0.717   5.571 -1.1589  0.1366  0.2346
 3997SOL    HW223451   0.036   0.755   5.442  1.2238  2.8629 -2.5714
 3998SOL     OW23452   3.117   0.027  15.225  0.0182 -0.2306 -0.0759
 3998SOL    HW123453   3.026   0.044  15.199  0.0784 -1.4170 -1.0795
 3998SOL    HW223454   3.125   0.030  15.320  2.2506  1.2721 -0.3285
 3999SOL     OW23455   3.888   3.034  17.237  0.0820 -0.2128  0.1673
 3999SOL    HW123456   3.911   3.125  17.222  0.8925 -0.8169 -2.3372
 3999SOL    HW223457   3.918   3.020  17.327 -0.6915  0.1024  0.4703
 4000SOL     OW23458   4.653   1.177   1.682  0.0924 -0.3483  0.1852
 4000SOL    HW123459   4.567   1.204   1.650  0.3187  0.8050  0.5285
 4000SOL    HW223460   4.696   1.157   1.599  3.5847  3.2118  1.1126
 4001SOL     OW23461   3.383   0.733   1.541 -0.0946 -0.7065 -0.2559
 4001SOL    HW123462   3.425   0.651   1.517  0.0697 -0.5779 -0.4065
 4001SOL    HW223463   3.313   0.730   1.476 -0.4107 -1.4779  0.1185
 4002SOL     OW23464   4.515   3.834  10.274  0.2932 -0.9546 -0.9243
 4002SOL    HW123465   4.584   3.794  10.326 -1.3115  0.2246  2.1636
 4002SOL    HW223466   4.459   3.759  10.251  0.5834 -0.8662 -1.9277
 4003SOL     OW23467   4.523   4.120   4.133 -0.2625 -0.2963 -0.0306
 4003SOL    HW123468   4.537   4.026   4.119 -0.3905 -0.3624  0.2848
 4003SOL    HW223469   4.576   4.156   4.062  1.0601 -2.6538 -0.2700
 4004SOL     OW23470   2.163   2.870   8.024 -0.2631 -0.2979  0.5298
 4004SOL    HW123471   2.222   2.820   8.080 -0.1918  0.3857  1.0689
 4004SOL    HW223472   2.129   2.811   7.956  1.3283  0.0004 -0.5114
 4005SOL     OW23473   1.263   3.496   2.669  0.0252  0.1102 -0.0699
 4005SOL    HW123474   1.205   3.571   2.660 -0.1322 -0.1661 -1.4257
 4005SOL    HW223475   1.234   3.450   2.590 -0.7877 -1.7527  1.2961
 4006SOL     OW23476   4.407   0.394   3.727  0.2607 -0.2472 -0.0992
 4006SOL    HW123477   4.418   0.326   3.660 -1.8204 -0.7149  0.0475
 4006SOL    HW223478   4.490   0.442   3.730 -0.6427  1.2195  1.3437
 4007SOL     OW23479   2.025   3.482  13.799  0.0847 -0.0008 -0.1176
 4007SOL    HW123480   1.943   3.511  13.838  0.2232 -0.6574  0.6686
 4007SOL    HW223481   2.002   3.490  13.707 -1.4434  0.4231  0.3087
 4008SOL     OW23482   2.167   3.643  12.095 -0.1875 -0.4299 -0.0201
 4008SOL    HW123483   2.231   3.666  12.162 -1.5232  1.3556  0.6539
 4008SOL    HW223484   2.098   3.613  12.154 -0.3647 -1.8007 -0.9299
 4009SOL     OW23485   2.054   0.316   3.477  0.1459 -0.2141  0.1819
 4009SOL    HW123486   1.960   0.298   3.473 -0.3890  3.1904 -1.9117
 4009SOL    HW223487   2.067   0.336   3.569  0.9027  1.7884 -0.3644
 4010SOL     OW23488   3.522   2.553   8.645 -0.1520 -0.5231  0.2891
 4010SOL    HW123489   3.490   2.487   8.707  0.6106 -0.5064  0.6900
 4010SOL    HW223490   3.470   2.630   8.668  0.9398  0.3168 -0.0576
 4011SOL     OW23491   0.158   1.253  15.514 -0.5202  0.5272  0.3308
 4011SOL    HW123492   0.202   1.284  15.435 -0.2003  2.1272  1.1281
 4011SOL    HW223493   0.173   1.159  15.503 -0.2894  0.7406 -1.1119
 4012SOL     OW23494   0.175   2.040   2.773  0.4869 -0.3656 -0.3126
 4012SOL    HW123495   0.259   2.013   2.737 -0.7269 -0.1296 -3.3224
 4012SOL    HW223496   0.187   2.134   2.787  2.8724 -0.9704  1.7151
 4013SOL     OW23497   3.008   1.119   5.342 -0.2813 -0.1450  0.0567
 4013SOL    HW123498   3.087   1.070   5.365  0.5506  1.0759 -0.1508
 4013SOL    HW223499   3.010   1.206   5.382  0.6852 -0.4658  0.7127
 4014SOL     OW23500   1.788   3.203  10.625  0.1721 -0.7467 -0.3630
 4014SOL    HW123501   1.848   3.136  10.593  0.3823 -1.0469  0.6523
 4014SOL    HW223502   1.850   3.269  10.656  0.4501 -0.9669 -0.4467
 4015SOL     OW23503   4.512   3.365   8.300  0.0207  0.0057  0.1072
 4015SOL    HW123504   4.584   3.349   8.360  0.1581  1.1539  0.2381
 4015SOL    HW223505   4.549   3.398   8.218  0.7387  2.0424  1.2552
 4016SOL     OW23506   1.706   3.514  10.508 -0.4252 -0.0719 -0.2380
 4016SOL    HW123507   1.650   3.590  10.492 -0.5694  0.3703  2.3586
 4016SOL    HW223508   1.765   3.544  10.577 -2.0911  2.9114 -0.1224
 4017SOL     OW23509   1.652   0.705  10.164 -0.1264 -0.2546  0.3590
 4017SOL    HW123510   1.698   0.670  10.241  1.6264  0.6607 -0.2684
 4017SOL    HW223511   1.686   0.635  10.108  4.0167  1.2619  1.0035
 4018SOL     OW23512   0.644   2.718   3.081  0.2814 -0.0031  0.0375
 4018SOL    HW123513   0.602   2.669   3.152 -1.1258  1.8769  0.4912
 4018SOL    HW223514   0.664   2.641   3.027 -0.9196  0.0135 -0.4313
 4019SOL     OW23515   4.350   3.477   5.233 -0.8461 -0.3235 -0.2996
 4019SOL    HW123516   4.402   3.557   5.240  0.6850 -1.4768  1.4087
 4019SOL    HW223517   4.414   3.420   5.190  1.3159  2.7972 -1.2408
 4020SOL     OW23518   2.457   0.730  11.248  0.1709  0.1301 -0.2407
 4020SOL    HW123519   2.391   0.711  11.314 -1.3572 -1.7253 -2.3073
 4020SOL    HW223520   2.415   0.688  11.173 -1.2492 -0.0663  0.6713
 4021SOL     OW23521   4.464   2.540   8.800  0.8288 -0.0865  0.3432
 4021SOL    HW123522   4.418   2.512   8.879 -0.8490 -1.6647 -1.1858
 4021SOL    HW223523   4.427   2.506   8.719  2.3559 -0.9260 -0.0007
 4022SOL     OW23524   3.483   4.187   4.007 -0.4308  0.3465  0.0469
 4022SOL    HW123525   3.565   4.219   3.970 -0.4887  0.5520  0.0955
 4022SOL    HW223526   3.506   4.096   3.990 -1.3888  0.2617 -0.8314
 4023SOL     OW23527   2.660   4.358  14.163  0.4277 -0.5565  0.2137
 4023SOL    HW123528   2.595   4.389  14.100 -0.3519 -1.6902  0.4583
 4023SOL    HW223529   2.675   4.443  14.204 -0.4915 -0.5553  0.5556
 4024SOL     OW23530   4.578   0.751   7.542  0.1904  0.3662  0.6027
 4024SOL    HW123531   4.518   0.750   7.468 -0.4150  0.8066  1.0898
 4024SOL    HW223532   4.522   0.778   7.614  0.0006 -1.6245  1.2237
 4025SOL     OW23533   3.639   3.297   8.755  0.2317 -0.0798 -0.7404
 4025SOL    HW123534   3.703   3.324   8.820 -0.0459 -0.5381 -0.2750
 4025SOL    HW223535   3.703   3.290   8.684 -3.4097  0.7954 -4.1574
 4026SOL     OW23536   0.651   2.456   6.014  0.0857  0.0434 -0.1476
 4026SOL    HW123537   0.684   2.545   6.023  0.2170  0.0174 -0.3853
 4026SOL    HW223538   0.560   2.478   6.033  0.1375 -0.5450  0.7627
 4027SOL     OW23539   1.633   0.306   2.041 -0.8598  0.0560 -0.6764
 4027SOL    HW123540   1.636   0.247   2.116  1.6133  1.1582  0.0679
 4027SOL    HW223541   1.724   0.312   2.014 -1.1065 -1.3821 -1.8268
 4028SOL     OW23542   1.465   2.050   3.413  0.2753  0.6357  0.0717
 4028SOL    HW123543   1.479   1.965   3.372  4.8161  1.7455 -0.7854
 4028SOL    HW223544   1.416   2.095   3.345  0.9883 -0.7530 -1.3463
 4029SOL     OW23545   1.925   4.025  14.159 -0.0147 -0.3701 -0.1740
 4029SOL    HW123546   1.841   4.014  14.115 -0.0829  0.6197 -0.3094
 4029SOL    HW223547   1.997   3.988  14.107  0.0677 -0.8893  0.3166
 4030SOL     OW23548   3.224   2.284   3.412  0.1319 -0.3523  0.1667
 4030SOL    HW123549   3.280   2.257   3.339 -0.5759 -4.3186  1.0923
 4030SOL    HW223550   3.242   2.218   3.479 -1.0668  0.6354  1.4654
 4031SOL     OW23551   3.569   4.716   3.523  0.5523  0.5851  0.4123
 4031SOL    HW123552   3.531   0.083   3.519 -1.6281 -0.5111 -2.8496
 4031SOL    HW223553   3.637   0.007   3.456 -1.8958 -0.0061 -2.1800
 4032SOL     OW23554   3.788   4.179  15.386 -0.3540  0.3003 -0.2815
 4032SOL    HW123555   3.795   4.145  15.297 -0.6159 -1.2486  0.2986
 4032SOL    HW223556   3.830   4.108  15.434 -1.2548  0.6595  1.0350
 4033SOL     OW23557   3.192   1.902   6.175 -0.8149  0.3505 -0.3790
 4033SOL    HW123558   3.130   1.958   6.220 -1.1330  1.7708 -2.5626
 4033SOL    HW223559   3.157   1.906   6.086  0.2548  2.5554 -0.7061
 4034SOL     OW23560   3.202   0.474  10.652  0.0987  0.1075 -0.2313
 4034SOL    HW123561   3.294   0.465  10.626  0.0413  1.4020 -0.8814
 4034SOL    HW223562   3.169   0.541  10.592  0.1823  0.5357  0.2014
 4035SOL     OW23563   3.559   4.483  17.663  0.3548 -0.1032  0.2091
 4035SOL    HW123564   3.638   4.531   0.004  0.8603 -1.5057  1.2040
 4035SOL    HW223565   3.580   4.394   0.005 -0.5320 -0.6911 -1.0117
 4036SOL     OW23566   4.081   3.702   3.776 -0.0397 -0.3815 -0.2863
 4036SOL    HW123567   4.079   3.607   3.767  0.1535 -0.7304  3.5261
 4036SOL    HW223568   4.052   3.727   3.688  0.6343  4.1578  0.7512
 4037SOL     OW23569   4.215   4.510   5.649  0.3845 -0.7715  0.2729
 4037SOL    HW123570   4.283   4.531   5.584  0.3612 -2.0550 -0.1622
 4037SOL    HW223571   4.168   4.592   5.665  0.1928 -1.1593  1.6763
 4038SOL     OW23572   2.833   1.881   3.367  0.7050  0.0920 -0.4021
 4038SOL    HW123573   2.828   1.889   3.462  0.4253  1.0676 -0.5042
 4038SOL    HW223574   2.858   1.971   3.348 -1.9898  0.9193 -0.1491
 4039SOL     OW23575   1.070   4.627  10.302  0.1480  0.5720 -0.1716
 4039SOL    HW123576   1.058   4.705  10.249 -1.1232  0.9597  0.6909
 4039SOL    HW223577   0.985   4.623  10.345 -0.5951  0.4760 -1.6437
 4040SOL     OW23578   0.797   3.403  10.504 -0.7913  0.2639 -0.4960
 4040SOL    HW123579   0.849   3.385  10.582  0.6042 -0.3182 -1.5528
 4040SOL    HW223580   0.848   3.466  10.453 -0.2375 -0.7455 -1.1968
 4041SOL     OW23581   2.465   1.455   6.164  0.0746 -0.1762 -0.0985
 4041SOL    HW123582   2.531   1.491   6.223  0.1612 -0.8884  0.2362
 4041SOL    HW223583   2.500   1.366   6.152 -0.1246  0.0026 -2.0128
 4042SOL     OW23584   1.601   4.571   1.285  0.3864 -0.0355  0.3462
 4042SOL    HW123585   1.588   4.596   1.376 -2.1264  2.1428 -0.6325
 4042SOL    HW223586   1.511   4.564   1.254  0.7185 -1.0125 -0.3950
 4043SOL     OW23587   1.678   0.394   0.674 -0.4794 -0.3371  0.0401
 4043SOL    HW123588   1.630   0.326   0.627  0.8057 -0.6479 -0.8359
 4043SOL    HW223589   1.622   0.425   0.745  0.7333  1.3095  0.2990
 4044SOL     OW23590   2.331   2.194   7.807  0.9326 -0.5079 -0.0099
 4044SOL    HW123591   2.285   2.230   7.883  1.4441  0.1185  0.0055
 4044SOL    HW223592   2.357   2.107   7.837 -0.1061  0.0619  2.5482
 4045SOL     OW23593   2.860   4.402   6.300  0.4981  0.3859 -0.1174
 4045SOL    HW123594   2.778   4.448   6.287 -0.5242 -1.0536  1.2381
 4045SOL    HW223595   2.901   4.455   6.369 -2.0892  0.8560  1.0626
 4046SOL     OW23596   0.644   0.546  14.327 -0.4111  0.2287 -0.3318
 4046SOL    HW123597   0.602   0.569  14.243  1.7007 -0.6636 -1.6398
 4046SOL    HW223598   0.628   0.623  14.381  0.5386 -0.7619  1.3368
 4047SOL     OW23599   2.381   0.543   6.527  0.1746 -0.2413 -0.1717
 4047SOL    HW123600   2.414   0.570   6.442  1.3432  0.2062  0.4212
 4047SOL    HW223601   2.414   0.615   6.582  0.0466  0.5661 -1.1586
 4048SOL     OW23602   2.713   0.636  10.489 -0.5205  0.3001 -0.2245
 4048SOL    HW123603   2.748   0.625  10.578 -0.8542  0.4277 -0.0796
 4048SOL    HW223604   2.749   0.723  10.471  0.1158  0.3457  1.2277
 4049SOL     OW23605   1.206   2.226   4.434 -0.7416  0.1821  0.3280
 4049SOL    HW123606   1.207   2.322   4.429  0.6569  0.0693 -1.2806
 4049SOL    HW223607   1.249   2.206   4.351 -0.5343  0.2208  0.4273
 4050SOL     OW23608   3.573   1.495   0.449 -0.3239 -0.7380  0.4327
 4050SOL    HW123609   3.640   1.539   0.396 -0.9232 -0.8954 -0.4616
 4050SOL    HW223610   3.618   1.438   0.510 -0.9894 -0.5571  1.1019
 4051SOL     OW23611   4.141   4.433   2.535 -0.3067  0.1666 -0.1091
 4051SOL    HW123612   4.213   4.393   2.485 -1.4221 -0.1866 -1.4248
 4051SOL    HW223613   4.180   4.520   2.533 -0.3216  0.2370  2.6513
 4052SOL     OW23614   4.568   1.881  16.800 -0.0895  0.3886  0.3142
 4052SOL    HW123615   4.521   1.904  16.720 -0.7854  2.2871  1.2608
 4052SOL    HW223616   4.501   1.910  16.861  0.0981 -0.9665  1.1814
 4053SOL     OW23617   4.320   1.712  12.217 -0.3310 -0.4013 -0.2933
 4053SOL    HW123618   4.348   1.647  12.282  0.1790  0.3132  0.1996
 4053SOL    HW223619   4.281   1.771  12.282  1.3562  1.7481 -1.2084
 4054SOL     OW23620   3.852   0.486   7.901  0.0646  0.1441 -0.3735
 4054SOL    HW123621   3.785   0.455   7.963  0.2316 -1.9882 -1.2292
 4054SOL    HW223622   3.815   0.502   7.814  1.1048  1.1780 -0.6255
 4055SOL     OW23623   0.285   2.458   8.022  0.4958 -0.2132 -0.6876
 4055SOL    HW123624   0.334   2.497   8.094  0.6748 -0.4109 -0.7026
 4055SOL    HW223625   0.220   2.405   8.068  0.4539 -0.7193 -1.3406
 4056SOL     OW23626   1.819   3.153   4.518  0.3419 -0.4342 -0.1359
 4056SOL    HW123627   1.734   3.190   4.496  0.2806 -0.8341 -0.5869
 4056SOL    HW223628   1.788   3.074   4.562  0.0687 -0.2987 -0.0856
 4057SOL     OW23629   0.352   0.319  10.646 -0.1106 -0.0572  0.4581
 4057SOL    HW123630   0.313   0.347  10.563  0.0305  1.4934  0.9176
 4057SOL    HW223631   0.337   0.224  10.648 -1.8247  0.2204  0.9287
 4058SOL     OW23632   1.923   4.272   7.736  0.6205 -0.4254 -0.3949
 4058SOL    HW123633   1.962   4.215   7.669  0.1492 -2.2312  0.8767
 4058SOL    HW223634   1.956   4.234   7.817 -0.7891 -0.8260 -0.0255
 4059SOL     OW23635   2.637   1.262   6.386 -0.4501  0.3014 -0.1581
 4059SOL    HW123636   2.558   1.307   6.416 -1.2217  0.1692 -2.0030
 4059SOL    HW223637   2.705   1.314   6.430 -0.1204 -0.2866  0.0352
 4060SOL     OW23638   3.452   1.088   7.598 -0.4333  0.1534  0.3287
 4060SOL    HW123639   3.434   1.047   7.513  2.5521  0.3885 -0.4186
 4060SOL    HW223640   3.548   1.093   7.595 -0.4129 -0.6029 -0.3309
 4061SOL     OW23641   2.447   1.851  10.263 -0.7557 -0.2579  0.4232
 4061SOL    HW123642   2.521   1.877  10.319 -1.2315 -1.1076  1.4402
 4061SOL    HW223643   2.371   1.899  10.295 -0.6869 -1.3179  2.1671
 4062SOL     OW23644   4.593   2.039   8.649  0.4652  0.0005 -0.9701
 4062SOL    HW123645   4.559   2.033   8.559 -0.4367 -1.6609 -0.5200
 4062SOL    HW223646   4.645   2.118   8.641 -2.0250  1.5726 -1.7510
 4063SOL     OW23647   0.241   3.755  14.093 -0.3857 -0.4019  0.0920
 4063SOL    HW123648   0.336   3.746  14.083 -0.5169 -1.0428 -0.6257
 4063SOL    HW223649   0.218   3.664  14.070  1.2378 -0.9403  0.6040
 4064SOL     OW23650   0.015   2.968   2.353 -0.3411  0.0126  0.7299
 4064SOL    HW123651   4.719   2.989   2.262  0.0122 -1.0648  0.4107
 4064SOL    HW223652   4.703   3.050   2.390  0.8433  0.4803  0.7293
 4065SOL     OW23653   3.727   1.643   2.197 -0.1389 -0.0912 -0.5901
 4065SOL    HW123654   3.797   1.577   2.202 -0.2620 -0.0665  1.4937
 4065SOL    HW223655   3.719   1.671   2.106 -0.3238 -1.7977 -1.0986
 4066SOL     OW23656   2.726   3.310   7.507 -0.1185 -0.4266  0.2489
 4066SOL    HW123657   2.664   3.352   7.447  2.1250 -0.5370 -2.1972
 4066SOL    HW223658   2.674   3.278   7.580 -1.5731  0.4511 -0.3960
 4067SOL     OW23659   2.463   1.955   7.510  0.5826 -0.1354 -0.2729
 4067SOL    HW123660   2.496   1.975   7.422  0.3424  0.2529 -0.2763
 4067SOL    HW223661   2.400   1.886   7.493  0.1482  0.1557  0.1353
 4068SOL     OW23662   2.727   0.600   2.899  0.2519  0.1352 -0.1083
 4068SOL    HW123663   2.662   0.571   2.963  0.9068  1.0763  0.9877
 4068SOL    HW223664   2.669   0.621   2.825 -1.8842  0.3419  1.6246
 4069SOL     OW23665   2.997   1.033   6.402 -0.0530 -0.0474 -0.2512
 4069SOL    HW123666   3.088   1.057   6.389  0.5575 -1.2000  1.9720
 4069SOL    HW223667   3.003   0.942   6.372 -0.7662 -0.6135  1.3439
 4070SOL     OW23668   0.513   0.101   6.318  0.0593 -0.6336  0.2820
 4070SOL    HW123669   0.554   0.128   6.236 -0.3499  2.2212  1.0049
 4070SOL    HW223670   0.527   0.177   6.375 -1.4247  0.3185 -0.6213
 4071SOL     OW23671   0.463   0.493   8.196 -0.1639 -0.3714 -0.8541
 4071SOL    HW123672   0.556   0.493   8.220 -0.6345 -0.4719  0.9718
 4071SOL    HW223673   0.422   0.451   8.272 -1.1469 -0.1279 -1.2517
 4072SOL     OW23674   0.430   1.818   3.047  0.1741  0.3410 -0.1272
 4072SOL    HW123675   0.412   1.725   3.052 -0.5058  0.2887 -3.5868
 4072SOL    HW223676   0.346   1.851   3.015 -1.7752 -1.6667  2.9636
 4073SOL     OW23677   4.676   1.288   7.066  0.8364 -0.1169  0.1707
 4073SOL    HW123678   4.699   1.236   6.989  0.1222  0.1250 -0.2036
 4073SOL    HW223679   4.711   1.242   7.143  1.3817 -0.2328 -0.1446
 4074SOL     OW23680   0.747   2.148   7.116 -0.1870 -0.3125  0.0794
 4074SOL    HW123681   0.749   2.243   7.112 -1.7984 -0.2806 -0.3030
 4074SOL    HW223682   0.770   2.132   7.024 -0.3256 -0.7308  0.1156
 4075SOL     OW23683   1.783   1.121   9.081 -0.4567  0.1045  0.5799
 4075SOL    HW123684   1.700   1.083   9.109  0.0838 -1.3262  0.2465
 4075SOL    HW223685   1.786   1.202   9.132  0.4461  0.6658 -0.3498
 4076SOL     OW23686   4.371   3.689   0.149  0.8153 -0.0600  0.3611
 4076SOL    HW123687   4.463   3.685   0.175  0.8681 -0.0304  0.1782
 4076SOL    HW223688   4.318   3.678   0.228  1.0507 -0.8880  0.3944
 4077SOL     OW23689   0.990   3.901   9.856  0.0838  0.4032  0.0603
 4077SOL    HW123690   1.007   3.967   9.790  0.7450 -1.8201 -2.0092
 4077SOL    HW223691   0.944   3.832   9.808  0.0299  1.2455 -1.0895
 4078SOL     OW23692   0.136   4.391   7.707  0.0931  0.0119  0.2417
 4078SOL    HW123693   0.231   4.379   7.703  0.2131  0.4820  2.0072
 4078SOL    HW223694   0.115   4.358   7.619 -0.6026 -1.4297  0.9477
 4079SOL     OW23695   4.262   1.759  16.312 -0.3277 -0.6711  0.2928
 4079SOL    HW123696   4.196   1.823  16.285 -0.6478 -1.2132 -0.2174
 4079SOL    HW223697   4.317   1.815  16.367 -0.5369  0.6171 -0.8167
 4080SOL     OW23698   3.851   0.734  13.000 -0.3646  0.0957 -0.1384
 4080SOL    HW123699   3.884   0.655  13.042 -0.6134 -0.8718 -1.7567
 4080SOL    HW223700   3.914   0.799  13.032 -1.4150  0.7719  0.5726
 4081SOL     OW23701   0.983   0.108   4.755 -0.3317  0.3052  1.0943
 4081SOL    HW123702   0.935   0.038   4.710 -2.0052  1.4000  1.1834
 4081SOL    HW223703   1.052   0.051   4.789 -1.0317 -1.1295  0.1464
 4082SOL     OW23704   2.402   0.444   6.048  0.2843  0.0109 -0.3567
 4082SOL    HW123705   2.376   0.525   6.003  0.8037 -0.0837 -0.8275
 4082SOL    HW223706   2.322   0.393   6.036 -0.4957  0.6264  2.1681
 4083SOL     OW23707   2.373   4.403   4.302  0.4600  0.6958  0.1158
 4083SOL    HW123708   2.412   4.482   4.265  0.9636  0.3676 -0.0564
 4083SOL    HW223709   2.286   4.404   4.262 -0.0162 -0.9004  1.1287
 4084SOL     OW23710   3.987   2.626   8.327  0.2555  0.6795  0.2744
 4084SOL    HW123711   3.973   2.703   8.272 -1.9967  0.0222 -0.0987
 4084SOL    HW223712   3.895   2.609   8.349  0.0545 -0.5253 -1.4713
 4085SOL     OW23713   4.454   3.673   2.564  0.1468 -0.1433  0.2328
 4085SOL    HW123714   4.381   3.724   2.599 -1.0173 -0.7599 -1.2707
 4085SOL    HW223715   4.433   3.597   2.618  1.9319  0.1991  1.3645
 4086SOL     OW23716   0.677   3.452   9.074  0.3690 -0.3076  0.1857
 4086SOL    HW123717   0.707   3.392   9.006  0.1753 -0.1236 -0.0616
 4086SOL    HW223718   0.750   3.455   9.136  0.9361  0.7593 -0.5368
 4087SOL     OW23719   3.508   0.246  14.931 -0.0628  0.1125  0.2954
 4087SOL    HW123720   3.563   0.315  14.893 -0.1670  0.1222  0.1632
 4087SOL    HW223721   3.525   0.183  14.862 -1.2287  0.0125  0.1076
 4088SOL     OW23722   0.450   2.557   6.901  0.1427 -0.4857 -0.1174
 4088SOL    HW123723   0.494   2.637   6.928 -0.9485 -1.0985  3.5158
 4088SOL    HW223724   0.362   2.591   6.893  0.3143 -0.1553 -0.5943
 4089SOL     OW23725   3.809   3.213   5.826 -0.8795  0.2583 -0.3830
 4089SOL    HW123726   3.828   3.203   5.919  1.9665  1.8719 -0.7719
 4089SOL    HW223727   3.828   3.125   5.794 -0.5324  0.7794 -1.6260
 4090SOL     OW23728   2.352   2.580   8.530  0.1774  0.0013 -0.5679
 4090SOL    HW123729   2.396   2.577   8.615 -0.3982 -0.8532 -0.3033
 4090SOL    HW223730   2.298   2.658   8.546  1.8160  1.5259 -2.3744
 4091SOL     OW23731   1.958   1.391   8.513 -0.5705  0.2305  0.6842
 4091SOL    HW123732   1.897   1.463   8.528  0.5831  0.8742  2.2717
 4091SOL    HW223733   2.039   1.441   8.499 -1.8679  2.3874  0.9115
 4092SOL     OW23734   4.290   0.931   6.355  0.5015 -0.5560 -0.0120
 4092SOL    HW123735   4.272   0.862   6.290  1.7466 -1.3664  0.4955
 4092SOL    HW223736   4.280   1.014   6.308 -0.2496  0.5656  2.1310
 4093SOL     OW23737   1.238   0.451  17.428  0.1281  0.2436  0.7944
 4093SOL    HW123738   1.274   0.407  17.506  0.9645 -1.3065 -0.4547
 4093SOL    HW223739   1.317   0.500  17.404 -0.5405  1.6410  1.4598
 4094SOL     OW23740   3.457   3.584   7.316  0.1464  0.3573  0.1442
 4094SOL    HW123741   3.475   3.655   7.377  2.4303 -0.5702  0.5671
 4094SOL    HW223742   3.369   3.570   7.350 -0.3541 -0.4743 -1.4621
 4095SOL     OW23743   2.791   0.741  10.173  0.2028 -0.0850  1.0726
 4095SOL    HW123744   2.704   0.719  10.204  0.6855 -0.7602  1.9462
 4095SOL    HW223745   2.803   0.810  10.238  1.6275 -1.3068  2.1018
 4096SOL     OW23746   3.386   0.929  15.050  0.2120 -0.4508 -0.4951
 4096SOL    HW123747   3.384   1.022  15.070 -2.4670 -0.8804  1.2502
 4096SOL    HW223748   3.296   0.902  15.033  0.2658 -0.7044 -0.3740
 4097SOL     OW23749   4.554   1.349   5.194  0.0567  0.2837 -0.4733
 4097SOL    HW123750   4.635   1.393   5.218 -1.6109  3.3168 -0.4237
 4097SOL    HW223751   4.501   1.428   5.204 -2.0692 -1.1510 -0.4132
 4098SOL     OW23752   3.403   4.353   7.434 -0.8815 -0.1706  0.2046
 4098SOL    HW123753   3.335   4.299   7.475 -3.2449  1.8698 -1.0588
 4098SOL    HW223754   3.397   4.327   7.342  0.7871  0.3795 -0.0388
 4099SOL     OW23755   0.672   4.448  16.504  0.1043 -0.2298 -0.7186
 4099SOL    HW123756   0.746   4.508  16.502  1.0807 -1.3374  1.6650
 4099SOL    HW223757   0.667   4.448  16.600  0.7169 -0.9939 -0.6872
 4100SOL     OW23758   0.100   3.388  11.599 -0.2704 -0.5872 -0.4444
 4100SOL    HW123759   0.107   3.473  11.556  2.5324 -0.1524  0.8457
 4100SOL    HW223760   0.191   3.363  11.586 -0.2925 -1.0032  0.2087
 4101SOL     OW23761   3.020   0.476   5.220 -0.0701  0.1237 -0.5391
 4101SOL    HW123762   3.016   0.420   5.142  1.6903 -1.7211  0.7089
 4101SOL    HW223763   2.938   0.446   5.258  0.6475  0.1887  1.0522
 4102SOL     OW23764   2.408   1.402   7.083 -0.0824  0.1427  0.2286
 4102SOL    HW123765   2.367   1.383   7.167 -1.0259 -1.1116 -0.5006
 4102SOL    HW223766   2.340   1.455   7.040 -0.2264  1.6016  2.2998
 4103SOL     OW23767   0.003   3.615   4.644  0.1028 -0.8008  0.1161
 4103SOL    HW123768   4.679   3.538   4.609 -1.1963  0.8719 -1.8674
 4103SOL    HW223769   0.095   3.602   4.623 -0.0810 -1.0420 -0.5483
 4104SOL     OW23770   0.041   1.339   1.881  0.3181  0.1737  0.0868
 4104SOL    HW123771   0.017   1.285   1.806  1.8273 -0.4839  0.0647
 4104SOL    HW223772   0.089   1.407   1.832  0.4985  0.2972  0.4324
 4105SOL     OW23773   4.587   1.882   6.144 -0.5665 -0.2749  0.1301
 4105SOL    HW123774   4.572   1.974   6.121 -0.6432 -0.7855 -1.8776
 4105SOL    HW223775   4.650   1.850   6.080  3.2289  1.7134  2.9046
 4106SOL     OW23776   1.896   1.469  12.047  0.4535 -0.2174  0.2528
 4106SOL    HW123777   1.875   1.520  11.969  1.3677 -1.4364 -0.7757
 4106SOL    HW223778   1.834   1.398  12.029  1.0244 -0.2117 -1.6756
 4107SOL     OW23779   0.208   4.323  16.051  0.8611 -0.1390  0.0200
 4107SOL    HW123780   0.141   4.309  15.984 -0.1449 -0.6934  1.1564
 4107SOL    HW223781   0.180   4.259  16.116 -3.2274  0.9108 -0.7284
 4108SOL     OW23782   3.267   1.693  15.753  0.4031  0.6859  0.5379
 4108SOL    HW123783   3.231   1.707  15.841 -1.6845  3.4366 -0.7594
 4108SOL    HW223784   3.362   1.692  15.761  0.1759 -0.2541  3.0893
 4109SOL     OW23785   0.448   2.909  11.529  0.0290 -0.0607 -0.5412
 4109SOL    HW123786   0.529   2.872  11.566  0.0009  0.3982 -0.0194
 4109SOL    HW223787   0.428   2.960  11.608 -0.6229 -0.4349 -0.4709
 4110SOL     OW23788   1.560   2.512  10.715  0.0741  0.0469  0.5057
 4110SOL    HW123789   1.489   2.541  10.658  0.6703  1.3085  0.3829
 4110SOL    HW223790   1.519   2.501  10.801 -0.3875  0.7337  0.3768
 4111SOL     OW23791   2.727   1.061   9.545  0.7496 -0.3496  0.0772
 4111SOL    HW123792   2.723   1.074   9.640  0.2798  0.5581 -0.0751
 4111SOL    HW223793   2.637   1.032   9.532  0.7101 -1.1388  2.0299
 4112SOL     OW23794   2.679   2.315   6.268  0.1985 -0.0555  0.0223
 4112SOL    HW123795   2.593   2.315   6.225 -0.4810  4.0524  1.3399
 4112SOL    HW223796   2.724   2.252   6.212  0.5741  0.7875 -0.6210
 4113SOL     OW23797   2.492   2.675   3.705  0.3349  0.0853 -0.1408
 4113SOL    HW123798   2.549   2.749   3.726  2.4451 -1.4782 -0.3684
 4113SOL    HW223799   2.453   2.678   3.793  0.3299 -0.6485 -0.1181
 4114SOL     OW23800   3.344   3.261   8.570 -0.1274  0.6254 -0.1162
 4114SOL    HW123801   3.395   3.201   8.623 -0.0846 -0.6858 -1.6300
 4114SOL    HW223802   3.266   3.210   8.549 -1.8030  2.5330  1.3821
 4115SOL     OW23803   4.126   4.034   8.711  0.4593  0.2233  0.2999
 4115SOL    HW123804   4.165   4.077   8.787 -0.3179 -0.5853  1.1645
 4115SOL    HW223805   4.079   3.960   8.751  1.8615 -1.3229 -0.9106
 4116SOL     OW23806   2.282   2.761   0.099 -0.6794 -0.1301 -0.4686
 4116SOL    HW123807   2.295   2.759   0.194  1.9042  2.0447 -0.7787
 4116SOL    HW223808   2.292   2.669   0.074  1.2841 -0.4179  1.3584
 4117SOL     OW23809   4.261   0.213   6.784  0.4396  0.1803 -0.2679
 4117SOL    HW123810   4.312   0.294   6.791  0.6058 -0.1232  2.0175
 4117SOL    HW223811   4.178   0.259   6.799  0.0447 -0.3127 -0.9754
 4118SOL     OW23812   0.458   0.762  16.601  0.7480  0.6255 -0.3606
 4118SOL    HW123813   0.490   0.714  16.677 -2.1619 -1.2931 -0.3691
 4118SOL    HW223814   0.534   0.786  16.549  1.3884 -1.7716 -0.5332
 4119SOL     OW23815   4.434   4.558  10.207 -0.1977 -0.4883  0.2186
 4119SOL    HW123816   4.347   4.524  10.184  0.8707 -3.2842  0.2978
 4119SOL    HW223817   4.426   4.562  10.302  0.8565  0.2221  0.2753
 4120SOL     OW23818   1.150   3.483   4.497 -0.0164 -0.0766  0.4913
 4120SOL    HW123819   1.099   3.536   4.436  2.0448  0.2557 -0.9476
 4120SOL    HW223820   1.087   3.418   4.529 -1.9117  0.7366 -1.5770
 4121SOL     OW23821   4.104   0.496  12.848  0.2610 -0.0891 -0.7634
 4121SOL    HW123822   4.132   0.587  12.859 -0.4528  0.2225 -1.5088
 4121SOL    HW223823   4.012   0.514  12.826  0.1855 -0.3761 -0.6835
 4122SOL     OW23824   4.315   4.514   3.904  0.2958  0.1007  0.3751
 4122SOL    HW123825   4.306   4.447   3.972  1.0964 -1.8006 -1.3882
 4122SOL    HW223826   4.229   4.536   3.868  0.6794  0.8595 -0.0656
 4123SOL     OW23827   3.684   2.039   2.508  0.1950 -0.1009 -0.3580
 4123SOL    HW123828   3.728   2.124   2.503 -2.0857  1.2064  1.7700
 4123SOL    HW223829   3.741   1.977   2.462  1.9319  2.4867 -1.6845
 4124SOL     OW23830   3.053   1.402   0.200  0.4798 -0.6846  0.5044
 4124SOL    HW123831   3.135   1.401   0.150  0.4742  1.9904  0.4178
 4124SOL    HW223832   3.073   1.350   0.278 -0.1350 -1.4950  0.1225
 4125SOL     OW23833   3.730   4.673  15.703 -0.0055 -0.1352  0.4817
 4125SOL    HW123834   3.802   4.667  15.765  0.4829  1.0260  0.0158
 4125SOL    HW223835   3.691   4.585  15.706  1.3438 -0.6664  1.9535
 4126SOL     OW23836   2.254   0.869   2.039  0.1203 -0.2989  0.2792
 4126SOL    HW123837   2.299   0.943   1.999 -0.2631  0.6924  1.6629
 4126SOL    HW223838   2.180   0.849   1.982  1.0832  1.1397 -1.4884
 4127SOL     OW23839   0.270   0.251   7.787 -0.1830 -0.1165  0.2263
 4127SOL    HW123840   0.326   0.293   7.853  2.2853 -2.8345 -0.1136
 4127SOL    HW223841   0.180   0.249   7.820 -1.3544 -2.2677 -3.1495
 4128SOL     OW23842   0.739   2.682  14.086 -0.6580 -0.3925  0.4445
 4128SOL    HW123843   0.780   2.715  14.006 -0.7783 -2.7192 -0.5615
 4128SOL    HW223844   0.790   2.716  14.160 -0.5055  1.6524 -0.6089
 4129SOL     OW23845   3.466   4.203   1.178  0.6403 -0.5126  0.2911
 4129SOL    HW123846   3.416   4.122   1.186  0.0251 -0.1179  0.4839
 4129SOL    HW223847   3.492   4.220   1.269  1.3549  3.8961 -0.7334
 4130SOL     OW23848   2.849   3.134   0.031  0.1047 -0.3860  0.2161
 4130SOL    HW123849   2.909   3.062   0.051  1.1466  0.7331  1.1493
 4130SOL    HW223850   2.886   3.167  17.635 -0.4827  0.4821  0.2962
 4131SOL     OW23851   0.684   4.262   4.212 -0.5102 -0.0351  0.6634
 4131SOL    HW123852   0.636   4.230   4.288 -0.4798  0.3654  0.8518
 4131SOL    HW223853   0.766   4.289   4.253  0.0060 -0.9103  0.2173
 4132SOL     OW23854   2.277   0.577   2.965  0.3493 -0.4040 -0.1628
 4132SOL    HW123855   2.258   0.671   2.964 -0.4038 -0.5578  1.3370
 4132SOL    HW223856   2.231   0.549   2.886  2.6165  0.7623 -1.9301
 4133SOL     OW23857   2.898   1.562   2.253 -0.2665 -0.5400 -0.3690
 4133SOL    HW123858   2.985   1.601   2.249 -0.5329  0.0633 -0.2774
 4133SOL    HW223859   2.876   1.595   2.340 -2.4253  1.8685 -1.8292
 4134SOL     OW23860   1.472   2.284  14.476  0.1183 -0.3984 -0.1140
 4134SOL    HW123861   1.470   2.189  14.467  1.9146 -0.3054 -1.6883
 4134SOL    HW223862   1.559   2.294  14.515  1.2287  1.6093 -3.0681
 4135SOL     OW23863   3.292   1.128   8.540 -0.7311 -0.0437 -0.2687
 4135SOL    HW123864   3.312   1.069   8.612  0.3936 -1.3986 -1.6900
 4135SOL    HW223865   3.378   1.160   8.513 -0.9482  1.4431  0.8160
 4136SOL     OW23866   3.126   0.983  12.119 -0.6157 -0.4606 -0.1850
 4136SOL    HW123867   3.208   1.006  12.162 -1.1193  0.9776 -0.0115
 4136SOL    HW223868   3.069   0.972  12.195 -0.5846  0.7546  0.0027
 4137SOL     OW23869   1.651   0.031   6.374  0.3871  0.2380 -0.0780
 4137SOL    HW123870   1.634   4.713   6.288  1.1658  0.1717 -0.2002
 4137SOL    HW223871   1.611   4.692   6.437 -0.1588  0.8489  0.1562
 4138SOL     OW23872   1.202   0.685   5.203 -0.4583 -0.7207 -0.3175
 4138SOL    HW123873   1.287   0.642   5.206 -0.2739 -0.4216 -1.2686
 4138SOL    HW223874   1.147   0.611   5.177 -0.6855 -0.9956  0.9324
 4139SOL     OW23875   4.016   2.348   3.292  0.4757 -0.3492 -0.3484
 4139SOL    HW123876   4.105   2.330   3.324  0.9769  1.4735 -0.7156
 4139SOL    HW223877   4.045   2.384   3.208 -2.4089 -0.3416 -1.3391
 4140SOL     OW23878   3.989   0.721  13.571  0.7496  0.1908  0.2537
 4140SOL    HW123879   3.982   0.639  13.521  3.6394 -0.2731  0.6178
 4140SOL    HW223880   4.075   0.708  13.610  1.1541 -2.5761 -1.4994
 4141SOL     OW23881   3.713   0.046   2.957  0.0242 -0.0983 -0.0600
 4141SOL    HW123882   3.669   0.074   2.876  2.8263  0.9870 -1.2105
 4141SOL    HW223883   3.647   4.705   2.987 -1.2340  0.2737 -2.0602
 4142SOL     OW23884   2.497   1.973  13.319 -0.0016 -0.5179 -0.0706
 4142SOL    HW123885   2.476   1.916  13.245  0.4722 -0.6039 -0.1433
 4142SOL    HW223886   2.578   2.017  13.293  0.4062 -0.9052  0.5519
 4143SOL     OW23887   0.926   2.138  10.826  0.1659 -0.1233 -0.2164
 4143SOL    HW123888   0.870   2.189  10.767  1.1203 -0.6473 -1.5703
 4143SOL    HW223889   0.867   2.069  10.859 -1.6229  1.3591 -0.3543
 4144SOL     OW23890   2.045   4.587   9.903 -0.0451 -0.0821  0.0878
 4144SOL    HW123891   1.983   4.561   9.835 -1.8720  1.3681  1.2128
 4144SOL    HW223892   2.045   4.679   9.876  4.6792 -0.3041 -0.7403
 4145SOL     OW23893   2.600   3.867   1.384  0.1421  0.2376 -0.5779
 4145SOL    HW123894   2.507   3.851   1.395  0.0771 -0.9058 -2.9800
 4145SOL    HW223895   2.620   3.806   1.313 -0.9043 -1.2574  0.4146
 4146SOL     OW23896   2.042   2.215   1.221 -0.2736  0.0988  0.5460
 4146SOL    HW123897   2.029   2.165   1.141  1.9747  1.1332 -0.4403
 4146SOL    HW223898   2.052   2.301   1.182  0.3299  0.2831  1.1025
 4147SOL     OW23899   2.599   4.559  12.836 -0.2493  0.2323  0.0500
 4147SOL    HW123900   2.605   4.640  12.886  2.4586 -1.4725  2.5506
 4147SOL    HW223901   2.691   4.532  12.826  0.3794  1.3414  2.9229
 4148SOL     OW23902   2.382   1.496   8.868 -0.9200 -0.0584  0.5263
 4148SOL    HW123903   2.375   1.456   8.781  0.2781 -0.3052  0.5435
 4148SOL    HW223904   2.371   1.590   8.858  1.7330  0.1643 -0.1475
 4149SOL     OW23905   2.988   2.316   3.739 -0.5971 -0.1305  0.0762
 4149SOL    HW123906   3.047   2.353   3.805 -2.3325  0.1030  1.4965
 4149SOL    HW223907   3.054   2.264   3.694 -0.5821  1.5368 -1.8382
 4150SOL     OW23908   0.674   3.655   2.624 -0.2606  0.1676 -0.4452
 4150SOL    HW123909   0.607   3.605   2.577 -1.5070  0.4510  1.0095
 4150SOL    HW223910   0.713   3.591   2.683  0.0251  0.1211 -0.6892
 4151SOL     OW23911   2.492   4.091   6.521 -0.2443  0.0205 -0.0793
 4151SOL    HW123912   2.573   4.120   6.479  0.1188  0.8784  1.2199
 4151SOL    HW223913   2.493   4.130   6.608  3.5952 -3.3810  1.4036
 4152SOL     OW23914   4.072   3.717   3.264 -0.7122 -0.1249  0.8011
 4152SOL    HW123915   3.994   3.662   3.253 -1.1890  1.2241 -2.5532
 4152SOL    HW223916   4.100   3.736   3.174  0.7397 -0.9022  1.0890
 4153SOL     OW23917   1.715   1.415   3.433  0.5443  0.8275  0.1085
 4153SOL    HW123918   1.663   1.459   3.365  0.8156  0.3993 -0.3750
 4153SOL    HW223919   1.793   1.465   3.408  0.1503  0.7287 -1.3541
 4154SOL     OW23920   0.464   0.750  10.681  0.7583  0.2312 -0.3311
 4154SOL    HW123921   0.530   0.684  10.658  0.4144 -0.9639  2.1140
 4154SOL    HW223922   0.472   0.757  10.776 -1.4520 -2.4405  0.0756
 4155SOL     OW23923   2.628   4.439   6.918  0.5165  0.0485 -0.3407
 4155SOL    HW123924   2.627   4.529   6.885 -0.4166 -0.9945 -3.1611
 4155SOL    HW223925   2.537   4.440   6.948  0.7653  1.6527  0.3284
 4156SOL     OW23926   4.036   2.229  12.099  0.1627  0.0081  0.1024
 4156SOL    HW123927   3.942   2.246  12.099  0.2387  0.4638  1.0082
 4156SOL    HW223928   4.050   2.167  12.028  0.4273 -0.3390  0.4531
 4157SOL     OW23929   4.384   4.513   7.956 -0.3553  0.0517 -0.7126
 4157SOL    HW123930   4.341   4.429   7.970  0.2073  0.4099  3.1221
 4157SOL    HW223931   4.455   4.508   8.020 -2.9700  1.1492  2.2873
 4158SOL     OW23932   4.506   3.264   4.234  0.1100  0.7845 -0.6848
 4158SOL    HW123933   4.426   3.281   4.284  0.7450 -0.5932  0.7701
 4158SOL    HW223934   4.508   3.171   4.210  0.7964  0.4671  0.6182
 4159SOL     OW23935   3.638   3.289  16.393  0.1541  0.1653 -0.0294
 4159SOL    HW123936   3.606   3.315  16.307  1.8236  0.8831 -0.4514
 4159SOL    HW223937   3.684   3.369  16.420  0.4453  0.5499 -1.6263
 4160SOL     OW23938   2.647   3.164   2.543  0.3127 -0.0237 -0.3962
 4160SOL    HW123939   2.648   3.253   2.507  2.4932 -1.1114 -3.0532
 4160SOL    HW223940   2.710   3.189   2.611  1.0706 -0.8933 -0.7735
 4161SOL     OW23941   1.108   3.194   1.937 -0.4392  0.0078 -0.0994
 4161SOL    HW123942   1.105   3.284   1.970  2.5228 -0.0132  0.1942
 4161SOL    HW223943   1.194   3.216   1.901 -1.0808  3.1015  0.2165
 4162SOL     OW23944   0.336   1.112  15.943 -0.0749 -0.7136 -0.1682
 4162SOL    HW123945   0.417   1.068  15.966 -0.4011 -0.2522  1.8372
 4162SOL    HW223946   0.275   1.038  15.943  0.4630 -1.1460 -1.6824
 4163SOL     OW23947   1.006   1.706   8.177  0.1209  0.2869 -0.1530
 4163SOL    HW123948   0.986   1.789   8.219  1.0854  0.7134 -0.5395
 4163SOL    HW223949   0.920   1.681   8.144 -1.8597  0.8916  4.5105
 4164SOL     OW23950   4.668   4.227  10.207  0.4422 -0.4231  0.4269
 4164SOL    HW123951   4.595   4.231  10.268 -0.8228 -1.1485 -1.0290
 4164SOL    HW223952   4.701   4.137  10.217 -1.4997 -1.0354  1.2232
 4165SOL     OW23953   4.699   2.416   3.656  0.3260  0.8168 -0.1848
 4165SOL    HW123954   4.694   2.324   3.629 -1.7584  1.3770 -1.6640
 4165SOL    HW223955   4.665   2.405   3.745  1.4605  1.5392  0.3312
 4166SOL     OW23956   3.371   3.302   2.469  0.4320  0.3557  0.4075
 4166SOL    HW123957   3.439   3.250   2.512  0.8399  0.6247  0.0887
 4166SOL    HW223958   3.391   3.389   2.503  0.4562  0.3845  0.3209
 4167SOL     OW23959   3.928   2.673  15.109  0.2403  0.0309 -0.4173
 4167SOL    HW123960   3.996   2.722  15.155 -1.5571 -0.0680  2.3217
 4167SOL    HW223961   3.966   2.589  15.083 -1.6112 -1.1988  0.8602
 4168SOL     OW23962   3.773   4.146   7.742  0.1033  0.0890 -0.1825
 4168SOL    HW123963   3.689   4.161   7.699  0.4186  0.9885 -0.4704
 4168SOL    HW223964   3.759   4.174   7.833 -0.2628 -1.7585  0.3301
 4169SOL     OW23965   2.088   2.451  10.441 -0.3203 -0.3099  0.8278
 4169SOL    HW123966   2.108   2.437  10.349 -0.2098 -1.8817  1.0944
 4169SOL    HW223967   2.161   2.508  10.466 -1.1492  1.0294  0.2370
 4170SOL     OW23968   1.909   3.867   5.344 -0.2471 -0.3523 -0.0615
 4170SOL    HW123969   1.954   3.790   5.378  0.1199  1.2712  3.0961
 4170SOL    HW223970   1.825   3.833   5.312 -1.9101  2.6650  1.0305
 4171SOL     OW23971   4.543   3.253   3.816  0.0603  0.6044 -0.4020
 4171SOL    HW123972   4.563   3.285   3.904  3.4098  0.0291 -0.9519
 4171SOL    HW223973   4.573   3.162   3.818 -0.2454  0.5753  2.5240
 4172SOL     OW23974   1.144   3.448   9.784  0.4132  0.1405 -0.2947
 4172SOL    HW123975   1.056   3.486   9.782  0.9907  1.4829 -0.6102
 4172SOL    HW223976   1.132   3.368   9.834  0.5407  0.4979  0.3144
 4173SOL     OW23977   2.685   0.430   6.995  0.5245 -0.0360  0.2225
 4173SOL    HW123978   2.632   0.489   7.048 -1.4754  0.1777 -2.0021
 4173SOL    HW223979   2.649   0.455   6.909 -0.5781  0.3435  0.8004
 4174SOL     OW23980   1.773   3.750   1.409  0.6398 -0.0211  0.7618
 4174SOL    HW123981   1.779   3.708   1.324  2.3187  1.2138  0.2705
 4174SOL    HW223982   1.679   3.746   1.427  0.9397 -1.8434  1.9260
 4175SOL     OW23983   4.055   3.125   9.377 -0.5069  0.6907 -0.5894
 4175SOL    HW123984   3.978   3.092   9.424  0.9423 -0.9061  0.6318
 4175SOL    HW223985   4.045   3.215   9.408 -1.4483  0.2031  0.5353
 4176SOL     OW23986   1.060   3.146  17.674  0.3824 -0.0654  0.2042
 4176SOL    HW123987   1.043   3.052  17.669 -1.3777  0.3065 -0.6943
 4176SOL    HW223988   0.976   3.163   0.032  1.7650  1.4430  2.2860
 4177SOL     OW23989   0.316   1.822  13.902 -0.2593  0.0891 -0.1934
 4177SOL    HW123990   0.311   1.731  13.931  1.8328 -0.3061 -1.0557
 4177SOL    HW223991   0.379   1.855  13.966  1.5904  0.1550 -2.0374
 4178SOL     OW23992   1.307   2.983   2.265 -0.1760 -0.3086  0.1318
 4178SOL    HW123993   1.273   2.974   2.176  0.7830  0.0614 -0.2691
 4178SOL    HW223994   1.347   3.070   2.264 -0.0957 -0.3439  0.3996
 4179SOL     OW23995   2.770   0.840   4.566 -0.2094  0.1339  0.1781
 4179SOL    HW123996   2.728   0.920   4.534  1.5568  1.6827  1.7099
 4179SOL    HW223997   2.714   0.783   4.514 -0.0984 -0.5355  0.7936
 4180SOL     OW23998   2.500   4.422   1.607 -0.6089 -0.1493 -0.0307
 4180SOL    HW123999   2.579   4.454   1.650 -1.4279  1.3522  0.3895
 4180SOL    HW224000   2.475   4.501   1.558  0.3050  0.6009  0.7253
 4181SOL     OW24001   2.112   2.117   3.589  0.4760 -0.6706 -0.0484
 4181SOL    HW124002   2.138   2.028   3.611  1.1846 -0.5125 -0.2501
 4181SOL    HW224003   2.196   2.164   3.594 -0.2537  0.3670  2.5157
 4182SOL     OW24004   0.835   2.418   5.122  0.3389  0.1523 -0.3627
 4182SOL    HW124005   0.875   2.357   5.184 -0.5115 -2.1256 -2.0514
 4182SOL    HW224006   0.851   2.369   5.041  1.2914 -0.1339  0.0006
 4183SOL     OW24007   1.432   2.651   6.673  0.1830 -0.3735  0.0049
 4183SOL    HW124008   1.370   2.586   6.706 -0.2655  0.9666  1.8698
 4183SOL    HW224009   1.473   2.671   6.757  0.6064 -1.1622 -0.0198
 4184SOL     OW24010   2.181   1.494   9.107 -0.0082 -0.4326  0.2161
 4184SOL    HW124011   2.247   1.453   9.163  0.3215 -1.7633 -1.1472
 4184SOL    HW224012   2.218   1.477   9.020 -0.0983  2.6611 -0.4346
 4185SOL     OW24013   3.370   3.668   6.739 -0.4277 -0.2194  0.1805
 4185SOL    HW124014   3.279   3.697   6.743  0.2167  1.7006  0.7796
 4185SOL    HW224015   3.369   3.589   6.793  2.6737  0.3910  1.1217
 4186SOL     OW24016   3.260   4.053  17.544 -0.3064  0.2855 -0.3889
 4186SOL    HW124017   3.242   4.064  17.451  0.2372 -0.2065 -0.5506
 4186SOL    HW224018   3.189   3.993  17.568  0.1978  0.3080  1.1421
 4187SOL     OW24019   3.466   0.064  13.826  0.5447 -0.6699 -0.2075
 4187SOL    HW124020   3.542   0.109  13.789  1.6140 -0.2371  2.5376
 4187SOL    HW224021   3.415   0.141  13.850  0.3124 -0.9117  0.0717
 4188SOL     OW24022   2.662   0.108  14.967  0.1499 -0.8056  0.1628
 4188SOL    HW124023   2.632   0.037  14.910 -0.8092 -0.3798  0.1344
 4188SOL    HW224024   2.587   0.166  14.975 -0.1178 -1.0701 -0.4248
 4189SOL     OW24025   3.979   3.561   8.965  0.4211 -0.0032 -0.3462
 4189SOL    HW124026   4.068   3.585   8.990 -0.0720 -0.1827  1.6472
 4189SOL    HW224027   3.939   3.529   9.046 -1.0178 -0.8445 -1.3876
 4190SOL     OW24028   0.407   0.644   4.833 -0.0504 -0.5606  0.4732
 4190SOL    HW124029   0.370   0.693   4.760 -0.6271 -1.5504  0.1062
 4190SOL    HW224030   0.384   0.553   4.815  0.7053 -0.6216 -0.2048
 4191SOL     OW24031   4.557   2.132   2.442  0.1657 -0.1226  0.2951
 4191SOL    HW124032   4.508   2.049   2.442  0.0459 -0.0529  0.2268
 4191SOL    HW224033   4.485   2.192   2.460  1.8332  2.0315 -0.2572
 4192SOL     OW24034   4.463   0.805   8.761 -0.2496  0.4066 -0.1703
 4192SOL    HW124035   4.426   0.877   8.812  1.9197  0.2713  1.6176
 4192SOL    HW224036   4.399   0.737   8.783 -0.8385  0.4842 -1.7024
 4193SOL     OW24037   1.762   4.396   3.646 -0.4383  0.7042 -0.5942
 4193SOL    HW124038   1.858   4.394   3.639 -0.4209  0.3278 -0.2517
 4193SOL    HW224039   1.721   4.341   3.579 -1.5369 -0.6630  1.1969
 4194SOL     OW24040   1.158   1.034   4.725  0.2686  0.1504  0.2113
 4194SOL    HW124041   1.129   0.957   4.677  0.5122 -0.3945  0.9361
 4194SOL    HW224042   1.153   0.996   4.813 -0.2313 -0.0509  0.0975
 4195SOL     OW24043   3.638   1.920   2.759 -0.2878 -0.9802 -0.1892
 4195SOL    HW124044   3.662   1.979   2.688 -0.9680  0.9485  1.1925
 4195SOL    HW224045   3.542   1.921   2.753 -0.4371 -1.9796  1.8973
 4196SOL     OW24046   0.562   2.249   9.957  0.3419  0.2350  0.2267
 4196SOL    HW124047   0.527   2.237  10.045 -2.2525  2.4611 -0.4763
 4196SOL    HW224048   0.513   2.323   9.922  0.0195 -0.2880 -0.4357
 4197SOL     OW24049   4.578   2.971   4.493  0.3416 -0.4420 -0.0450
 4197SOL    HW124050   4.613   3.025   4.565 -0.6639  0.2939 -0.1060
 4197SOL    HW224051   4.593   2.880   4.519 -0.2525 -0.5374 -0.0525
 4198SOL     OW24052   4.176   0.181   7.125 -0.0381 -0.4703 -0.1846
 4198SOL    HW124053   4.123   0.174   7.046 -1.2776  1.4917  0.4800
 4198SOL    HW224054   4.138   0.106   7.170 -0.1664  0.4375  1.1917
 4199SOL     OW24055   4.279   1.258   7.234  0.0315 -0.3263  0.4698
 4199SOL    HW124056   4.244   1.346   7.249  0.6445 -0.5519  3.2669
 4199SOL    HW224057   4.256   1.230   7.322  0.8077 -1.5196  0.2842
 4200SOL     OW24058   4.176   0.071   3.578 -0.1436 -0.4664  0.3092
 4200SOL    HW124059   4.220   4.711   3.552 -0.2683  0.1671 -1.8619
 4200SOL    HW224060   4.150   0.045   3.666 -0.6178 -1.9218 -0.2494
 4201SOL     OW24061   3.832   1.341   3.631 -0.3320  0.1994 -0.0119
 4201SOL    HW124062   3.908   1.283   3.635  0.2996  1.1167  1.1778
 4201SOL    HW224063   3.764   1.279   3.655  0.7642 -0.0016  2.5750
 4202SOL     OW24064   1.338   0.200   7.475 -0.8548 -0.0823  0.3621
 4202SOL    HW124065   1.291   0.216   7.394 -0.6221  0.6796  0.3726
 4202SOL    HW224066   1.417   0.153   7.447 -0.0511  0.6698  1.3541
 4203SOL     OW24067   2.519   3.402   4.512 -0.4943 -0.3968 -0.7702
 4203SOL    HW124068   2.492   3.494   4.506  0.0573 -0.1034  1.1319
 4203SOL    HW224069   2.442   3.368   4.558  1.8265 -0.7882  2.8767
 4204SOL     OW24070   3.718   3.972  16.003  0.1098 -0.2396 -0.5870
 4204SOL    HW124071   3.634   3.967  16.050 -1.2986 -1.1200 -3.2118
 4204SOL    HW224072   3.756   3.892  16.039  1.7711 -0.1359 -2.1089
 4205SOL     OW24073   2.198   3.630   5.208  0.1593 -0.1213 -0.0822
 4205SOL    HW124074   2.147   3.572   5.266 -1.1385 -0.9706 -2.0830
 4205SOL    HW224075   2.240   3.687   5.272 -0.4393 -0.3355  0.5101
 4206SOL     OW24076   0.921   0.685   8.412  0.4085 -0.7925  0.1446
 4206SOL    HW124077   0.956   0.743   8.344  0.2140  1.7556  2.2179
 4206SOL    HW224078   0.863   0.738   8.467  1.1669  1.0493 -0.8207
 4207SOL     OW24079   0.127   3.829   5.814 -0.1286 -0.5334  0.5411
 4207SOL    HW124080   0.105   3.896   5.749 -0.6654 -2.4248 -1.2315
 4207SOL    HW224081   0.064   3.855   5.881 -0.8511 -2.3609  0.5796
 4208SOL     OW24082   1.369   2.542   8.847  0.4103  0.2693 -0.4323
 4208SOL    HW124083   1.308   2.489   8.898 -1.7698  1.9465 -1.2772
 4208SOL    HW224084   1.406   2.475   8.789 -0.2409 -0.2018 -0.3041
 4209SOL     OW24085   0.742   4.361   3.233 -0.0002  0.0171  0.6526
 4209SOL    HW124086   0.803   4.388   3.164 -1.4993  0.3978 -0.5146
 4209SOL    HW224087   0.717   4.270   3.214  0.1024 -0.0239  0.7122
 4210SOL     OW24088   2.056   2.859   7.660 -0.2911 -0.3489  0.1361
 4210SOL    HW124089   2.033   2.797   7.729 -1.6617 -0.6981 -0.6374
 4210SOL    HW224090   2.129   2.816   7.614 -0.1779  1.4631 -1.3722
 4211SOL     OW24091   2.339   1.259  12.336  0.2759 -0.0109 -0.1309
 4211SOL    HW124092   2.381   1.285  12.254 -1.7561  2.5434 -0.3695
 4211SOL    HW224093   2.358   1.317  12.410 -1.0694  0.6821 -0.3291
 4212SOL     OW24094   4.505   4.287   5.396 -0.2839 -0.5313  0.2355
 4212SOL    HW124095   4.518   4.297   5.491  0.8719  0.1599  0.0046
 4212SOL    HW224096   4.530   4.197   5.378 -1.5824 -0.7809 -0.3042
 4213SOL     OW24097   0.735   4.207   1.682 -0.1625 -0.1081 -0.3245
 4213SOL    HW124098   0.659   4.148   1.689  0.7424 -1.1651  0.5888
 4213SOL    HW224099   0.764   4.190   1.592  2.9829 -2.2836  1.0703
 4214SOL     OW24100   0.015   1.477   3.252  0.0534 -0.0315 -0.5452
 4214SOL    HW124101   4.717   1.455   3.160 -1.6563  1.9219 -0.6699
 4214SOL    HW224102   4.652   1.519   3.275  0.0685 -0.7047  0.7117
 4215SOL     OW24103   4.201   0.060   5.857 -0.3587  0.3541 -0.1552
 4215SOL    HW124104   4.186   0.068   5.763  1.4677  1.7882 -0.3279
 4215SOL    HW224105   4.266   0.129   5.870  1.4754 -1.2549 -0.5957
 4216SOL     OW24106   3.877   3.702   8.189  0.1013  0.7368 -0.1304
 4216SOL    HW124107   3.883   3.607   8.192 -0.4169  0.5890 -3.8126
 4216SOL    HW224108   3.812   3.702   8.119 -3.1224 -1.2755  2.8630
 4217SOL     OW24109   1.295   1.917   7.821  0.0841  0.1462  0.5228
 4217SOL    HW124110   1.220   1.869   7.857 -0.0146 -0.0692  0.0304
 4217SOL    HW224111   1.253   1.993   7.780  1.0464 -0.1369 -0.9867
 4218SOL     OW24112   3.513   4.106  15.451 -0.3810  0.2365  0.1575
 4218SOL    HW124113   3.464   4.180  15.414  1.1003 -0.1559 -2.6584
 4218SOL    HW224114   3.580   4.090  15.385 -1.2452  0.5585 -0.8130
 4219SOL     OW24115   2.625   0.417   3.462 -0.5936  0.0476  0.2202
 4219SOL    HW124116   2.531   0.399   3.450  0.1305 -4.0921  0.5099
 4219SOL    HW224117   2.648   0.339   3.513 -1.4065 -0.5040 -0.2576
 4220SOL     OW24118   2.086   0.985   0.643  0.3265  0.3387  0.1100
 4220SOL    HW124119   2.034   1.006   0.565 -0.7199 -0.8053  0.5065
 4220SOL    HW224120   2.156   1.049   0.629  1.2235 -0.2130  2.1628
 4221SOL     OW24121   1.044   2.140   1.684  0.2252  0.2800 -0.8619
 4221SOL    HW124122   1.122   2.176   1.643  0.3131  0.6373 -0.3786
 4221SOL    HW224123   1.043   2.199   1.759 -0.8669  0.7297 -1.2225
 4222SOL     OW24124   0.912   1.629   9.276  0.4935  0.1337  0.6393
 4222SOL    HW124125   0.858   1.660   9.349 -1.3222 -3.6158  0.8710
 4222SOL    HW224126   0.848   1.599   9.211 -1.4147 -0.3578  2.7537
 4223SOL     OW24127   2.884   2.362  12.580 -0.1963  0.3637 -0.4249
 4223SOL    HW124128   2.822   2.433  12.563  0.8001  1.6170  1.2547
 4223SOL    HW224129   2.946   2.354  12.508  0.9557  1.6698  0.4377
 4224SOL     OW24130   2.678   1.295   6.013 -0.0492  0.1413  0.0871
 4224SOL    HW124131   2.595   1.247   6.009  0.7458 -1.3420  1.2923
 4224SOL    HW224132   2.736   1.228   6.049 -0.8813 -0.6796 -0.0901
 4225SOL     OW24133   4.231   3.365  17.124  0.4886 -0.1749  0.3528
 4225SOL    HW124134   4.285   3.444  17.123 -1.2348  0.9931  0.1418
 4225SOL    HW224135   4.181   3.362  17.043  1.1796 -3.1857  0.0442
 4226SOL     OW24136   1.123   1.589   8.597  0.0652 -0.5858 -0.4759
 4226SOL    HW124137   1.206   1.542   8.583  1.4018  1.6099 -0.0140
 4226SOL    HW224138   1.105   1.550   8.682 -2.3706 -2.1519 -1.7073
 4227SOL     OW24139   0.094   2.326   6.774 -0.0626 -0.0744 -0.1060
 4227SOL    HW124140   0.172   2.373   6.746 -1.0547  0.9155 -1.2083
 4227SOL    HW224141   0.126   2.306   6.862  2.4548  1.3030 -0.7069
 4228SOL     OW24142   1.161   0.707   1.562 -0.3160 -0.1466  0.1920
 4228SOL    HW124143   1.104   0.725   1.637  0.4685 -0.3755  0.8435
 4228SOL    HW224144   1.157   0.612   1.550  0.6268 -0.3868  1.8222
 4229SOL     OW24145   0.398   1.273   3.914  0.3952 -0.4281  0.3187
 4229SOL    HW124146   0.378   1.181   3.897  1.8323 -0.2765 -2.2845
 4229SOL    HW224147   0.492   1.263   3.927  0.3191  0.7396  1.7358
 4230SOL     OW24148   4.687   0.936   2.768  0.5959 -0.1897  0.1169
 4230SOL    HW124149   4.630   0.881   2.820 -0.4870 -0.5836 -1.4738
 4230SOL    HW224150   0.052   0.895   2.779  0.9941  1.3694  2.8749
 4231SOL     OW24151   2.974   1.546   8.387 -0.3523 -0.0146  0.1889
 4231SOL    HW124152   3.024   1.470   8.415  0.0925 -0.1070 -0.8386
 4231SOL    HW224153   2.961   1.587   8.472 -1.1151  0.0034  0.0706
 4232SOL     OW24154   0.927   3.799   2.523  0.1286  0.9531  0.3796
 4232SOL    HW124155   0.834   3.792   2.544  0.0279 -2.5200 -1.1908
 4232SOL    HW224156   0.979   3.813   2.602  1.4923  1.7186 -0.6608
 4233SOL     OW24157   3.656   2.558   6.642  0.6834 -0.4757 -0.0380
 4233SOL    HW124158   3.616   2.611   6.711 -0.7067  0.2444 -1.4042
 4233SOL    HW224159   3.642   2.617   6.569  0.3251 -0.8378 -0.2600
 4234SOL     OW24160   4.107   0.827   4.820 -0.6149 -0.2611 -0.1341
 4234SOL    HW124161   4.070   0.893   4.878 -2.2751 -1.5611  0.2967
 4234SOL    HW224162   4.186   0.869   4.787 -0.6414  0.0369  0.1912
 4235SOL     OW24163   1.326   3.139   6.006 -0.8552 -0.0817 -0.4528
 4235SOL    HW124164   1.247   3.105   5.963  1.0725 -1.1344 -3.1287
 4235SOL    HW224165   1.308   3.108   6.095  3.1871 -1.4715 -0.1426
 4236SOL     OW24166   1.507   4.709  12.794  0.8140 -0.0436  0.4711
 4236SOL    HW124167   1.488   4.677  12.883 -0.8643  0.1664  0.1864
 4236SOL    HW224168   1.521   4.619  12.766  0.9626 -0.2708  1.2694
 4237SOL     OW24169   3.440   1.422   4.462 -0.1198 -0.3164  0.7310
 4237SOL    HW124170   3.456   1.433   4.369  0.3865 -1.5085  0.6807
 4237SOL    HW224171   3.531   1.419   4.491 -0.3086 -0.0159  1.3521
 4238SOL     OW24172   4.225   0.543   7.449  0.1305  0.4283  0.4175
 4238SOL    HW124173   4.294   0.477   7.459  0.0947  0.1706 -1.0402
 4238SOL    HW224174   4.141   0.503   7.471  1.4636 -2.0766  0.9329
 4239SOL     OW24175   0.661   2.619  13.177 -0.1490  0.1374  0.3377
 4239SOL    HW124176   0.660   2.529  13.210 -0.1125 -0.5541 -1.5347
 4239SOL    HW224177   0.566   2.622  13.163 -0.3731 -0.8207  1.5955
 4240SOL     OW24178   4.035   2.278   6.076  0.2621  0.4164 -0.0187
 4240SOL    HW124179   4.001   2.293   5.988  0.4431 -0.4634 -0.2373
 4240SOL    HW224180   4.006   2.187   6.083 -1.0797  0.6859 -1.9759
 4241SOL     OW24181   3.937   3.262   4.454  0.4198  0.1856  0.3807
 4241SOL    HW124182   3.851   3.251   4.496  0.6884 -0.4766  0.7723
 4241SOL    HW224183   3.955   3.168   4.451 -0.7637 -0.0930  2.1363
 4242SOL     OW24184   4.199   1.567   3.199  0.3263  0.5709 -0.2495
 4242SOL    HW124185   4.116   1.615   3.192  0.9202  1.3080 -2.2662
 4242SOL    HW224186   4.185   1.496   3.136  0.7409 -0.6825  1.0687
 4243SOL     OW24187   2.411   4.245   8.595 -0.0367  0.3454  0.2199
 4243SOL    HW124188   2.326   4.261   8.637 -0.1994  2.1615 -0.8072
 4243SOL    HW224189   2.447   4.164   8.631  0.2615  1.1712  1.7528
 4244SOL     OW24190   2.482   3.221   6.316  0.5080 -0.7177  0.3399
 4244SOL    HW124191   2.531   3.200   6.236 -0.9763  0.8618 -0.9708
 4244SOL    HW224192   2.395   3.187   6.293  0.5178  0.8760 -2.0814
 4245SOL     OW24193   0.633   1.540   5.597  0.2883  0.2134  0.2207
 4245SOL    HW124194   0.683   1.612   5.558 -0.6688  0.1638 -1.0793
 4245SOL    HW224195   0.671   1.544   5.685 -0.6360 -0.0720  0.6253
 4246SOL     OW24196   0.664   2.354   3.615  0.1020  0.1854  0.6464
 4246SOL    HW124197   0.678   2.345   3.521  3.1123 -2.6759  1.3677
 4246SOL    HW224198   0.750   2.379   3.649  0.3847 -0.0968  0.1387
 4247SOL     OW24199   4.469   1.386   4.064  0.1917 -0.9348 -0.0289
 4247SOL    HW124200   4.441   1.466   4.109 -0.9198 -0.0360 -2.3017
 4247SOL    HW224201   4.553   1.422   4.035 -0.6581 -0.0469 -1.3496
 4248SOL     OW24202   3.172   1.840  12.157  0.1411 -0.0825 -0.6744
 4248SOL    HW124203   3.197   1.838  12.250  0.5321 -2.5671 -0.8148
 4248SOL    HW224204   3.252   1.802  12.120  0.1113 -0.5396 -0.2844
 4249SOL     OW24205   2.781   3.767   3.942 -0.0256 -0.6256 -0.1964
 4249SOL    HW124206   2.791   3.682   3.900  0.8426 -1.2075  1.1884
 4249SOL    HW224207   2.776   3.733   4.032  0.2890 -0.8682 -0.2703
 4250SOL     OW24208   3.310   3.296   7.221 -0.4294  0.7696 -0.4847
 4250SOL    HW124209   3.236   3.236   7.226  0.1490  0.0488 -0.4399
 4250SOL    HW224210   3.342   3.286   7.311  1.7295 -0.6084 -1.3939
 4251SOL     OW24211   1.875   2.812   8.471 -0.3636  0.0010  1.0200
 4251SOL    HW124212   1.803   2.750   8.463  3.4396 -4.1018 -1.3582
 4251SOL    HW224213   1.938   2.776   8.408  0.9870  0.6966  1.9755
 4252SOL     OW24214   1.766   0.993   8.651  0.4669 -0.3498  0.1624
 4252SOL    HW124215   1.785   1.047   8.728  2.7860 -1.7696  0.6213
 4252SOL    HW224216   1.731   1.060   8.593 -1.7699 -0.5893  1.2442
 4253SOL     OW24217   3.550   0.197   3.841 -0.4062  0.0466 -0.1163
 4253SOL    HW124218   3.635   0.229   3.870  0.2076 -2.9372  1.3457
 4253SOL    HW224219   3.561   0.103   3.855  2.4812  0.3613 -0.2694
 4254SOL     OW24220   2.636   4.603   2.274  0.7584  0.3201  0.4383
 4254SOL    HW124221   2.709   4.612   2.213 -0.0383 -0.2382 -0.6058
 4254SOL    HW224222   2.676   4.539   2.332  1.2466 -1.1687 -1.5323
 4255SOL     OW24223   4.609   2.729   2.025 -0.0866  0.0086 -0.3886
 4255SOL    HW124224   4.640   2.667   1.960 -0.8708  1.7301 -2.4102
 4255SOL    HW224225   4.519   2.743   1.993 -0.0613 -1.5783 -1.1346
 4256SOL     OW24226   4.663   2.348   5.079 -0.3837  0.1569 -0.1195
 4256SOL    HW124227   4.581   2.386   5.111 -1.1203 -1.6757  0.1389
 4256SOL    HW224228   4.689   2.417   5.019  0.4971  0.0175  0.0962
 4257SOL     OW24229   3.776   0.970  14.974 -0.1059  0.3199 -0.5395
 4257SOL    HW124230   3.715   0.913  15.019  1.7575 -0.6651  0.7514
 4257SOL    HW224231   3.855   0.940  15.019  0.2696 -1.5354 -2.4734
 4258SOL     OW24232   1.623   3.239  13.988 -0.4173  0.6796  0.2483
 4258SOL    HW124233   1.573   3.311  13.949  0.0386  0.4720 -0.7212
 4258SOL    HW224234   1.690   3.227  13.921 -1.8529  3.8141 -1.7643
 4259SOL     OW24235   1.351   2.045  13.531  0.0662  0.2010  0.0841
 4259SOL    HW124236   1.411   2.088  13.471 -0.5887  1.2231  0.1556
 4259SOL    HW224237   1.316   2.120  13.579 -2.5816 -2.2998  2.1348
 4260SOL     OW24238   0.544   2.591   8.857 -0.0667  0.1638 -0.4098
 4260SOL    HW124239   0.560   2.641   8.777  0.3811  0.6782  0.0062
 4260SOL    HW224240   0.536   2.661   8.921  1.4211  0.3929 -0.4737
 4261SOL     OW24241   3.335   0.630   6.052  0.0602 -0.0861  0.3299
 4261SOL    HW124242   3.414   0.641   6.104  0.4015  1.9840 -0.6453
 4261SOL    HW224243   3.308   0.719   6.032 -0.2388  0.1778  1.9200
 4262SOL     OW24244   1.968   1.618   5.355  1.3502  0.3535 -0.1458
 4262SOL    HW124245   2.008   1.698   5.321  0.8407  0.6302 -0.0847
 4262SOL    HW224246   1.881   1.656   5.365  0.4635 -2.2896  2.0566
 4263SOL     OW24247   1.679   3.372   6.523  0.4752  0.1988  0.2159
 4263SOL    HW124248   1.600   3.336   6.484  1.5759  0.3259 -2.1285
 4263SOL    HW224249   1.695   3.300   6.584 -0.3787 -1.7060 -1.8032
 4264SOL     OW24250   3.691   0.462  17.058  0.0969 -0.2021  0.1214
 4264SOL    HW124251   3.636   0.502  17.126 -0.4443 -0.4055 -0.1921
 4264SOL    HW224252   3.668   0.521  16.986  0.4831 -0.1379  0.0512
 4265SOL     OW24253   2.548   0.916   1.324  0.3893 -0.2355 -0.0425
 4265SOL    HW124254   2.516   0.827   1.310  0.6278 -0.4369  0.7125
 4265SOL    HW224255   2.580   0.934   1.236 -1.1371  3.8196  0.2399
 4266SOL     OW24256   2.849   2.953   7.570  0.0845 -0.3045  0.8266
 4266SOL    HW124257   2.893   3.035   7.591 -0.9862  0.4477  0.1397
 4266SOL    HW224258   2.905   2.891   7.617 -1.2971 -0.3730  2.3926
 4267SOL     OW24259   1.154   4.272   2.869 -0.0532 -0.4992  0.0525
 4267SOL    HW124260   1.136   4.289   2.776 -2.2536 -0.6838  0.4514
 4267SOL    HW224261   1.088   4.326   2.912  0.5714 -1.6258  2.4299
 4268SOL     OW24262   2.614   4.035   8.317  0.4975  0.1066  0.0616
 4268SOL    HW124263   2.691   4.063   8.366  1.5131 -1.4355 -0.6712
 4268SOL    HW224264   2.646   4.050   8.228 -0.7870  2.5920 -0.0096
 4269SOL     OW24265   3.325   2.729   7.475  0.3546 -0.1541  0.3317
 4269SOL    HW124266   3.247   2.783   7.479 -0.1085 -0.7789 -0.2268
 4269SOL    HW224267   3.387   2.779   7.422 -0.9576  0.7938 -0.3023
 4270SOL     OW24268   0.335   1.516  17.112  0.7471 -0.1443  0.5197
 4270SOL    HW124269   0.334   1.540  17.020  0.1356 -1.1311  0.2735
 4270SOL    HW224270   0.243   1.506  17.133  0.1402  1.1722 -1.4761
 4271SOL     OW24271   4.533   1.902   4.012 -0.2892 -0.3767 -0.0664
 4271SOL    HW124272   4.582   1.847   4.073  1.3143  1.8874  0.6892
 4271SOL    HW224273   4.496   1.838   3.952 -0.6053  0.0318 -0.3108
 4272SOL     OW24274   1.643   1.576   4.450  0.4264 -0.0378 -0.1454
 4272SOL    HW124275   1.678   1.614   4.531 -0.4278 -1.4343  0.8950
 4272SOL    HW224276   1.574   1.518   4.483 -0.5297  1.7425  0.9994
 4273SOL     OW24277   4.325   4.235   9.098  0.1974 -0.0560 -0.0636
 4273SOL    HW124278   4.334   4.292   9.022 -0.2896 -0.0957 -0.1504
 4273SOL    HW224279   4.251   4.180   9.073  0.3771 -0.9136  1.2561
 4274SOL     OW24280   2.276   0.463   1.607  0.3238  0.5446  0.3513
 4274SOL    HW124281   2.242   0.499   1.525  0.3030 -1.3945 -0.4860
 4274SOL    HW224282   2.368   0.459   1.580 -0.2227 -2.6909 -1.0181
 4275SOL     OW24283   3.416   0.697   8.685 -0.5881 -0.1021  0.0529
 4275SOL    HW124284   3.353   0.736   8.624  0.0265 -1.2978 -1.3470
 4275SOL    HW224285   3.485   0.651   8.637 -0.6567 -0.8206  0.6647
 4276SOL     OW24286   1.769   1.988   8.761  0.1915  0.4050  0.0375
 4276SOL    HW124287   1.687   1.974   8.714  0.8940 -2.4021 -0.3362
 4276SOL    HW224288   1.742   2.025   8.846  0.3459  0.6550 -0.0242
 4277SOL     OW24289   2.939   0.797   3.696 -0.0651 -0.4586 -0.1081
 4277SOL    HW124290   2.917   0.734   3.627  0.9084 -0.1841 -0.6735
 4277SOL    HW224291   2.973   0.864   3.636 -2.7816  1.2226  0.2510
 4278SOL     OW24292   0.821   2.913   5.556 -0.2948 -0.0785  0.8528
 4278SOL    HW124293   0.796   2.834   5.509 -0.3172  0.6106 -0.2973
 4278SOL    HW224294   0.848   2.869   5.636 -2.4551 -2.9700 -0.0055
 4279SOL     OW24295   4.137   3.603   6.279  0.4234 -0.6488  0.2830
 4279SOL    HW124296   4.053   3.608   6.234  0.2966  1.8757  0.8265
 4279SOL    HW224297   4.172   3.692   6.275  0.0384 -0.4241  2.1357
 4280SOL     OW24298   1.781   0.434   1.128 -0.0405  0.1352  0.2001
 4280SOL    HW124299   1.777   0.355   1.074  0.6027  0.4822 -0.3551
 4280SOL    HW224300   1.784   0.506   1.065 -1.7456 -0.3675 -0.4668
 4281SOL     OW24301   1.154   3.719   9.707  0.7126 -0.3334  0.2970
 4281SOL    HW124302   1.131   3.652   9.771  0.8838 -1.8156 -1.1874
 4281SOL    HW224303   1.067   3.725   9.668  0.3992 -0.6613  0.9392
 4282SOL     OW24304   4.261   3.370   8.315 -0.0579  0.3193  0.0572
 4282SOL    HW124305   4.265   3.308   8.243 -2.5610 -2.5790  2.4364
 4282SOL    HW224306   4.356   3.381   8.306  0.4788 -2.6349  1.9699
 4283SOL     OW24307   0.749   1.534   6.651 -0.5565  0.6183 -0.3295
 4283SOL    HW124308   0.801   1.525   6.571  0.2894  0.6266  0.2157
 4283SOL    HW224309   0.765   1.458   6.707 -0.9498  1.8025  1.4002
 4284SOL     OW24310   1.693   3.948   3.594  0.2530  0.2078 -0.2455
 4284SOL    HW124311   1.787   3.929   3.599  0.6071  1.8257 -0.5272
 4284SOL    HW224312   1.680   4.001   3.673 -0.5975  2.5148 -1.9243
 4285SOL     OW24313   0.870   1.667   8.661  0.1565 -1.0056 -0.0463
 4285SOL    HW124314   0.885   1.719   8.740  1.0984 -1.6613  0.2039
 4285SOL    HW224315   0.955   1.671   8.617  0.1985  1.1692  0.2529
 4286SOL     OW24316   2.291   2.175  13.320  0.4564 -0.2481 -0.1976
 4286SOL    HW124317   2.350   2.103  13.343 -1.0011 -0.5286  2.6555
 4286SOL    HW224318   2.341   2.248  13.354 -0.2566 -0.1762  0.6911
 4287SOL     OW24319   3.654   2.920   5.304  0.1834 -0.0610  0.0848
 4287SOL    HW124320   3.651   2.826   5.287  0.6933  0.1719 -1.2960
 4287SOL    HW224321   3.692   2.954   5.223  0.5660  0.4396  0.4732
 4288SOL     OW24322   2.165   2.410   6.052 -0.7614 -0.3632  0.7846
 4288SOL    HW124323   2.092   2.458   6.090 -1.2957 -0.7722  0.2747
 4288SOL    HW224324   2.120   2.327   6.037  1.5265 -1.5613  0.5212
 4289SOL     OW24325   4.091   0.692   3.519  0.4395  0.3167  0.1140
 4289SOL    HW124326   4.020   0.712   3.580  0.4679  1.8463 -0.3683
 4289SOL    HW224327   4.039   0.664   3.444 -0.0617 -0.4991  0.7638
 4290SOL     OW24328   2.904   4.430   9.935 -0.3377  0.0204 -0.2452
 4290SOL    HW124329   2.975   4.474   9.887 -0.0665  1.9613  1.9483
 4290SOL    HW224330   2.919   4.336   9.920  0.8389  0.3143 -0.9335
 4291SOL     OW24331   1.222   3.106  11.070 -0.6985 -0.0069 -0.2447
 4291SOL    HW124332   1.221   3.187  11.121  1.9876  0.6821 -1.2580
 4291SOL    HW224333   1.219   3.135  10.979  1.8781  1.5087  0.1377
 4292SOL     OW24334   1.702   3.639  15.982  0.3259  0.0172 -0.2013
 4292SOL    HW124335   1.653   3.560  16.003 -0.7346  1.2267  1.9217
 4292SOL    HW224336   1.628   3.699  15.969 -0.0201 -1.1704 -3.6751
 4293SOL     OW24337   2.639   2.753   4.301 -0.3763  1.5702  0.3035
 4293SOL    HW124338   2.671   2.674   4.343  1.3438  1.4264 -1.3075
 4293SOL    HW224339   2.546   2.734   4.288 -0.4021  1.1922  1.0275
 4294SOL     OW24340   4.160   3.113  13.758 -1.0001  0.0507 -0.3787
 4294SOL    HW124341   4.162   3.201  13.798  3.8770  0.1017 -0.7040
 4294SOL    HW224342   4.066   3.114  13.739 -0.5713  1.7176 -2.3579
 4295SOL     OW24343   3.266   3.131  11.710 -0.1486 -0.4862 -0.2235
 4295SOL    HW124344   3.196   3.196  11.705 -0.3057 -0.4930  1.6032
 4295SOL    HW224345   3.325   3.186  11.762 -1.6352 -0.7413  1.7502
 4296SOL     OW24346   1.736   2.722   7.923 -0.0999 -0.7297  0.4531
 4296SOL    HW124347   1.679   2.746   7.996 -1.3131 -0.0081 -0.7214
 4296SOL    HW224348   1.823   2.730   7.962 -0.9337 -1.1410  2.4007
 4297SOL     OW24349   2.365   2.301   5.111 -0.3824  0.0659 -0.6376
 4297SOL    HW124350   2.293   2.239   5.125  0.4615 -0.1435  2.7429
 4297SOL    HW224351   2.333   2.363   5.045  3.4537  4.1576  1.3110
 4298SOL     OW24352   3.967   1.924  16.597 -0.1846 -0.2053  0.3834
 4298SOL    HW124353   3.989   1.830  16.593 -2.3873 -0.7750  1.7165
 4298SOL    HW224354   4.043   1.964  16.555 -0.6487 -0.8329 -1.0448
 4299SOL     OW24355   0.822   4.319   6.771  0.4497  0.3258  0.3870
 4299SOL    HW124356   0.854   4.409   6.782  1.8406 -0.0339 -0.7739
 4299SOL    HW224357   0.886   4.269   6.820 -1.4838  0.9316  3.5341
 4300SOL     OW24358   4.314   3.601   5.620 -0.4641  0.3088 -0.1775
 4300SOL    HW124359   4.394   3.652   5.610  0.9414 -1.7288  0.5931
 4300SOL    HW224360   4.312   3.578   5.713  0.1054  1.4296  0.1087
 4301SOL     OW24361   1.775   0.933   7.156  0.6887 -0.1502 -0.2584
 4301SOL    HW124362   1.689   0.933   7.114  0.3464  2.0306  0.4391
 4301SOL    HW224363   1.791   0.840   7.141 -0.9174 -0.5453  0.4386
 4302SOL     OW24364   1.551   1.210   8.159 -0.5955 -1.0654 -0.0304
 4302SOL    HW124365   1.619   1.258   8.206  1.2119 -1.3194 -2.3400
 4302SOL    HW224366   1.551   1.236   8.067  0.6829  0.5600  0.4317
 4303SOL     OW24367   2.893   2.126   8.254  0.0579 -0.2584 -0.4395
 4303SOL    HW124368   2.909   2.214   8.287 -1.5215 -0.4199  0.7570
 4303SOL    HW224369   2.834   2.151   8.182 -0.1157 -0.6784 -0.4489
 4304SOL     OW24370   1.705   2.844   9.568  0.0373 -0.5650 -0.5349
 4304SOL    HW124371   1.738   2.921   9.614 -1.4722 -1.6434  2.2879
 4304SOL    HW224372   1.668   2.885   9.490 -1.6619 -3.0877 -1.0552
 4305SOL     OW24373   1.989   2.588  10.710 -0.0657  0.1796 -0.4171
 4305SOL    HW124374   1.926   2.532  10.664  0.3199  1.0134 -1.9353
 4305SOL    HW224375   2.040   2.625  10.638  1.8569 -0.1756  0.7507
 4306SOL     OW24376   3.860   1.261   2.883  0.2971  0.0113 -0.1678
 4306SOL    HW124377   3.830   1.248   2.973 -2.4624 -1.6067 -1.3258
 4306SOL    HW224378   3.890   1.174   2.855  1.0250  0.6019 -1.1987
 4307SOL     OW24379   1.343   4.482   3.543 -0.1024  0.2445  0.0423
 4307SOL    HW124380   1.325   4.575   3.554 -3.6619 -0.5218  0.7461
 4307SOL    HW224381   1.295   4.466   3.462 -1.4289 -0.6640  1.0204
 4308SOL     OW24382   0.518   1.858   4.383 -0.3649 -0.4470  0.1355
 4308SOL    HW124383   0.587   1.923   4.397 -0.3469 -0.4587  0.1005
 4308SOL    HW224384   0.463   1.906   4.322  0.2196  2.6222  2.0142
 4309SOL     OW24385   3.003   3.312   4.204  0.4255  0.1059 -0.1379
 4309SOL    HW124386   3.092   3.279   4.188 -0.3130 -2.4528  0.8854
 4309SOL    HW224387   2.947   3.240   4.173 -1.0749  1.8846 -1.5118
 4310SOL     OW24388   4.031   1.316   2.403  0.1371  0.1567  0.8163
 4310SOL    HW124389   3.945   1.330   2.444 -0.2534 -0.6057  0.2456
 4310SOL    HW224390   4.054   1.243   2.460  1.6109  0.4739  0.6363
 4311SOL     OW24391   0.307   4.571  16.012 -0.1004 -0.3087 -0.2257
 4311SOL    HW124392   0.307   4.587  15.918  1.8178 -0.7654 -0.3111
 4311SOL    HW224393   0.275   4.482  16.018 -1.9456  0.4598  1.1084
 4312SOL     OW24394   0.408   0.799   8.411 -0.1231 -0.1739 -0.1715
 4312SOL    HW124395   0.335   0.860   8.403  0.4553  0.3580 -1.5574
 4312SOL    HW224396   0.423   0.786   8.317  0.0219 -0.7583 -0.0670
 4313SOL     OW24397   2.770   2.462   3.127  0.1009 -0.3442 -0.0780
 4313SOL    HW124398   2.698   2.507   3.083 -0.1265 -0.8154 -0.1837
 4313SOL    HW224399   2.823   2.530   3.169  0.0299 -0.1429 -0.3182
 4314SOL     OW24400   0.752   3.886   6.930 -0.1382  0.1414  1.0386
 4314SOL    HW124401   0.827   3.829   6.914 -0.2682  0.8630 -2.2134
 4314SOL    HW224402   0.704   3.840   6.999  0.2416  1.4773  2.1823
 4315SOL     OW24403   2.683   0.819   5.090 -0.1176 -0.2583  0.3362
 4315SOL    HW124404   2.722   0.809   5.003 -0.7570  4.7430 -0.5483
 4315SOL    HW224405   2.710   0.737   5.130  0.4074  0.3116  1.1394
 4316SOL     OW24406   4.070   1.146  15.520 -0.2455 -0.0070  0.6330
 4316SOL    HW124407   4.137   1.078  15.528 -0.1322  0.2771  2.1066
 4316SOL    HW224408   4.103   1.200  15.448 -1.7425  1.1966  0.8422
 4317SOL     OW24409   1.635   0.293  10.167 -0.5561  0.2031  0.2212
 4317SOL    HW124410   1.548   0.284  10.129  0.1786 -0.5754 -1.3275
 4317SOL    HW224411   1.645   0.218  10.226  1.2597  2.7735  3.1606
 4318SOL     OW24412   2.234   2.555   4.351 -0.1884  0.0655  0.6356
 4318SOL    HW124413   2.299   2.499   4.393 -0.9064  1.3101  3.3737
 4318SOL    HW224414   2.201   2.496   4.282  0.0579  1.2480 -0.4884
 4319SOL     OW24415   0.351   0.413   8.850  0.1671 -0.2630 -0.2660
 4319SOL    HW124416   0.314   0.416   8.762 -0.2577  0.6477 -0.0616
 4319SOL    HW224417   0.296   0.343   8.884 -1.0269  0.1745 -1.3071
 4320SOL     OW24418   1.237   0.881   2.061  0.1482  0.5140  1.0205
 4320SOL    HW124419   1.184   0.876   1.981  2.3902 -0.8802 -0.3653
 4320SOL    HW224420   1.184   0.899   2.138 -2.1056 -0.3327 -0.3261
 4321SOL     OW24421   3.948   1.381   7.854  0.1833  0.4327  1.0919
 4321SOL    HW124422   3.932   1.475   7.861  0.1244  0.6121 -1.2981
 4321SOL    HW224423   3.957   1.343   7.941  2.5083  1.2401  1.1981
 4322SOL     OW24424   2.917   1.930   7.177 -0.2261 -0.0041  0.1170
 4322SOL    HW124425   2.974   2.001   7.206  0.0932  0.0013 -0.5176
 4322SOL    HW224426   2.882   1.892   7.258  2.0941  1.0167  1.5792
 4323SOL     OW24427   4.435   2.167   9.468 -0.1607 -0.1620  0.0885
 4323SOL    HW124428   4.407   2.159   9.559  1.2684  0.3423  0.5723
 4323SOL    HW224429   4.506   2.104   9.477 -1.5600 -1.2227  3.4457
 4324SOL     OW24430   0.976   2.520  13.328  0.0367 -0.3134  0.0758
 4324SOL    HW124431   1.065   2.553  13.313 -0.2377 -0.5296 -1.9543
 4324SOL    HW224432   0.996   2.480  13.413 -0.4761  0.1844  0.4299
 4325SOL     OW24433   3.523   3.839   5.982 -0.0130 -0.2100 -0.7282
 4325SOL    HW124434   3.507   3.761   6.036  0.7702  1.0489  1.3008
 4325SOL    HW224435   3.456   3.826   5.915  0.0845 -2.2724 -0.4249
 4326SOL     OW24436   1.169   2.423   5.381 -0.1681 -0.2761  0.0801
 4326SOL    HW124437   1.233   2.449   5.448 -0.1085 -2.2597  0.7961
 4326SOL    HW224438   1.099   2.487   5.396 -2.0537 -2.2221 -0.4866
 4327SOL     OW24439   2.062   1.230   7.782  0.3514 -0.1430  0.2462
 4327SOL    HW124440   2.137   1.181   7.814  0.6263 -1.0671 -1.7794
 4327SOL    HW224441   2.112   1.311   7.773  1.0117 -0.4969  0.7320
 4328SOL     OW24442   2.128   0.318   8.831 -0.5440 -0.0161  0.5901
 4328SOL    HW124443   2.102   0.280   8.915 -2.0678  0.4797  0.3381
 4328SOL    HW224444   2.219   0.289   8.834  0.0444  1.6675 -0.7844
 4329SOL     OW24445   3.329   3.379   5.411 -0.2602 -0.0551  0.3515
 4329SOL    HW124446   3.246   3.382   5.459 -0.0996 -2.6174  0.7736
 4329SOL    HW224447   3.295   3.349   5.328  0.7265 -1.8020  0.5881
 4330SOL     OW24448   4.642   0.920   6.753  0.6839 -0.4462 -0.2731
 4330SOL    HW124449   4.568   0.926   6.692  0.7834 -3.2361 -0.6754
 4330SOL    HW224450   4.710   0.950   6.693  0.1969  2.3750  0.5696
 4331SOL     OW24451   2.262   3.244  14.487 -0.4952  0.0104  0.6307
 4331SOL    HW124452   2.203   3.222  14.415  0.1252  0.9880 -0.1798
 4331SOL    HW224453   2.255   3.340  14.493 -0.0111  0.1104 -0.2944
 4332SOL     OW24454   4.203   3.818  13.233  0.4380 -0.4568 -0.4297
 4332SOL    HW124455   4.158   3.892  13.192 -1.0153 -0.8296  0.4636
 4332SOL    HW224456   4.296   3.840  13.227  0.1964  1.0926  1.3173
 4333SOL     OW24457   0.897   1.480   6.117 -0.3839 -0.5355 -0.0219
 4333SOL    HW124458   0.951   1.526   6.053  0.7552 -0.2575  1.1217
 4333SOL    HW224459   0.883   1.400   6.067 -1.4372 -0.4627  0.1606
 4334SOL     OW24460   3.096   2.017   0.979 -0.5332  0.7081 -0.1555
 4334SOL    HW124461   3.170   1.967   0.945 -1.2767 -0.6472  0.2435
 4334SOL    HW224462   3.034   2.035   0.908 -0.7103  2.0171  0.3229
 4335SOL     OW24463   1.383   1.762  16.716  0.1442  0.1354 -0.1262
 4335SOL    HW124464   1.477   1.740  16.717 -0.1650 -1.1816  1.3387
 4335SOL    HW224465   1.383   1.857  16.716  0.9823  0.1399  0.4751
 4336SOL     OW24466   1.477   0.437   5.591 -0.2689  0.2936 -0.2332
 4336SOL    HW124467   1.524   0.383   5.655 -1.5229 -1.5923 -0.9080
 4336SOL    HW224468   1.490   0.524   5.629  1.3481  0.1937 -0.5263
 4337SOL     OW24469   3.764   1.729   3.579 -0.1569  0.1817  0.1477
 4337SOL    HW124470   3.828   1.668   3.616 -1.6359 -1.3264  0.2199
 4337SOL    HW224471   3.825   1.785   3.530 -0.5037  1.5050  1.2665
 4338SOL     OW24472   3.499   4.419   4.420  0.7961  0.6521  0.3033
 4338SOL    HW124473   3.479   4.350   4.357 -2.2539  2.2322 -0.4703
 4338SOL    HW224474   3.413   4.458   4.433  0.2268 -0.4636 -0.1597
 4339SOL     OW24475   3.969   0.628   7.020  0.5755  0.7061 -0.5400
 4339SOL    HW124476   4.008   0.709   6.986 -0.8782  0.5990 -2.3997
 4339SOL    HW224477   4.017   0.565   6.967  0.0284 -0.4291  0.3051
 4340SOL     OW24478   2.514   1.233   4.688  1.1543 -0.4184 -0.0333
 4340SOL    HW124479   2.435   1.245   4.635  1.4116  1.0522 -0.0810
 4340SOL    HW224480   2.565   1.167   4.640 -2.1664 -2.5927 -0.5453
 4341SOL     OW24481   0.990   4.325   8.577  0.3932 -0.1271 -0.1967
 4341SOL    HW124482   1.003   4.379   8.498 -0.8216  0.9097  0.3081
 4341SOL    HW224483   0.958   4.392   8.638 -0.0446 -1.0165  0.5463
 4342SOL     OW24484   3.540   2.295   7.153  0.0894  0.0106 -0.2371
 4342SOL    HW124485   3.588   2.281   7.072  2.8988  1.3882  1.1748
 4342SOL    HW224486   3.578   2.231   7.214  0.3982  1.5426  1.1900
 4343SOL     OW24487   1.200   0.399  10.144  0.7516  1.1871 -0.4474
 4343SOL    HW124488   1.160   0.412  10.058 -1.2267  0.8114  0.4139
 4343SOL    HW224489   1.172   0.483  10.181  1.9394  0.3353  2.3785
 4344SOL     OW24490   0.934   2.242   6.190  0.4829  0.3218 -0.5168
 4344SOL    HW124491   0.982   2.324   6.181  2.7153 -1.0225 -0.7269
 4344SOL    HW224492   0.857   2.272   6.239  0.8288 -1.1083  0.8915
 4345SOL     OW24493   4.029   3.797   8.830  0.0865  0.5794  1.0201
 4345SOL    HW124494   4.118   3.765   8.842  0.0048 -0.6000 -1.4090
 4345SOL    HW224495   3.978   3.717   8.846  0.0971  0.0061 -1.7150
 4346SOL     OW24496   1.950   1.293   1.713 -0.2523  0.3875  0.1281
 4346SOL    HW124497   2.005   1.216   1.722 -0.2007  0.7244  2.7393
 4346SOL    HW224498   1.928   1.298   1.620  0.6342  0.7383 -0.0653
 4347SOL     OW24499   2.025   0.946   7.572 -0.3984  0.7140 -0.0781
 4347SOL    HW124500   1.988   1.014   7.515 -0.9788  0.8104  0.4069
 4347SOL    HW224501   2.038   0.864   7.525  0.5738  0.9642 -0.2373
 4348SOL     OW24502   3.097   3.137  15.986  0.1948  0.0130 -0.1679
 4348SOL    HW124503   3.034   3.073  15.954  1.1726 -0.6141 -0.8393
 4348SOL    HW224504   3.167   3.080  16.017 -0.0193 -1.9848 -3.4054
 4349SOL     OW24505   4.471   1.572   7.908  0.2185 -0.9185 -0.4488
 4349SOL    HW124506   4.440   1.658   7.938  1.9702 -0.2412 -0.5668
 4349SOL    HW224507   4.497   1.526   7.987  3.4917  1.1340 -0.3170
 4350SOL     OW24508   0.903   1.942   7.425 -0.4944 -0.4316 -0.1462
 4350SOL    HW124509   0.989   1.984   7.424 -0.2545 -0.9184 -0.6015
 4350SOL    HW224510   0.921   1.861   7.473  2.1940 -0.0038 -0.4097
 4351SOL     OW24511   1.747   0.760   4.963  0.6542 -0.0914 -0.0216
 4351SOL    HW124512   1.655   0.776   4.985  0.2707 -1.3627 -0.6778
 4351SOL    HW224513   1.792   0.771   5.047  0.9455 -2.0348  0.0779
 4352SOL     OW24514   1.499   0.072   3.243 -0.1089 -0.2306 -0.2807
 4352SOL    HW124515   1.452   0.021   3.177  0.0015 -0.5575 -0.1027
 4352SOL    HW224516   1.576   0.016   3.241  0.3145  0.3705 -0.8434
 4353SOL     OW24517   0.062   4.191   7.884  0.1080  0.2058 -0.4715
 4353SOL    HW124518   0.075   4.235   7.968  0.1002  1.2181 -1.0003
 4353SOL    HW224519   0.093   4.265   7.833  0.1305  1.2261  1.0326
 4354SOL     OW24520   0.811   2.773  13.373  0.0196  0.7424 -0.6600
 4354SOL    HW124521   0.860   2.701  13.334 -1.1378 -0.4306  0.0322
 4354SOL    HW224522   0.731   2.746  13.328  1.0442 -2.1558 -0.7770
 4355SOL     OW24523   3.912   4.236  11.080  0.9229 -0.0092 -0.3063
 4355SOL    HW124524   3.961   4.160  11.111 -1.0125 -1.4764 -0.8019
 4355SOL    HW224525   3.838   4.186  11.044 -1.5262  3.0526  0.4453
 4356SOL     OW24526   1.233   4.197  14.127 -0.0391 -0.3673 -0.1884
 4356SOL    HW124527   1.168   4.266  14.114  0.3323 -0.3333 -1.8357
 4356SOL    HW224528   1.309   4.243  14.163  0.0649 -0.6348 -0.0691
 4357SOL     OW24529   0.489   2.858   5.896 -0.0215 -0.3476  0.1865
 4357SOL    HW124530   0.451   2.777   5.862  1.0348 -0.8425  0.1723
 4357SOL    HW224531   0.423   2.918   5.862  2.7861  2.1964 -0.8590
 4358SOL     OW24532   0.621   3.140   3.414 -0.4189 -0.4696 -0.0458
 4358SOL    HW124533   0.543   3.100   3.452 -0.3447  0.0305  0.6290
 4358SOL    HW224534   0.681   3.068   3.398  0.9812  0.1019  2.6049
 4359SOL     OW24535   3.113   4.710   7.259  0.2078 -0.3088  0.1601
 4359SOL    HW124536   3.149   0.056   7.201  2.8935  0.0731  2.2450
 4359SOL    HW224537   3.040   4.675   7.208  0.2208 -0.7909  0.4634
 4360SOL     OW24538   3.861   3.165   7.697  0.5140  0.0754  0.8855
 4360SOL    HW124539   3.863   3.231   7.766  0.3888 -0.8152  1.7375
 4360SOL    HW224540   3.767   3.159   7.680  0.8202 -1.7568 -0.2619
 4361SOL     OW24541   2.850   2.277   4.268  0.7677  0.8081 -0.2976
 4361SOL    HW124542   2.891   2.199   4.306  0.7379  0.0956 -1.7098
 4361SOL    HW224543   2.841   2.244   4.179  0.7029 -1.8837  0.7185
 4362SOL     OW24544   3.649   4.502  11.939 -0.5054  0.4394 -0.7772
 4362SOL    HW124545   3.637   4.505  12.034  0.7112  1.9869 -0.6788
 4362SOL    HW224546   3.698   4.419  11.939 -0.2398  0.5909  0.1403
 4363SOL     OW24547   1.247   3.690  15.923  0.0160 -0.4295  0.3777
 4363SOL    HW124548   1.198   3.771  15.910 -1.4762 -1.0143  2.2709
 4363SOL    HW224549   1.327   3.725  15.963 -0.1987 -0.3024  0.7001
 4364SOL     OW24550   1.819   3.292  14.476 -0.1580 -0.2048  0.6834
 4364SOL    HW124551   1.789   3.203  14.496  3.2981 -1.4256  0.3985
 4364SOL    HW224552   1.822   3.285  14.380 -1.4017  4.3106  0.3280
 4365SOL     OW24553   3.342   1.807   3.073  0.3302 -0.4998  0.2392
 4365SOL    HW124554   3.303   1.878   3.021 -0.7803 -1.6534 -0.4977
 4365SOL    HW224555   3.408   1.852   3.127  1.6877 -1.7012 -0.4252
 4366SOL     OW24556   4.599   3.405   1.159 -0.0245  0.5826  0.0213
 4366SOL    HW124557   4.521   3.354   1.180 -2.2100  3.0392 -2.0958
 4366SOL    HW224558   4.646   3.386   1.241  0.3040 -0.6552 -0.4482
 4367SOL     OW24559   4.175   2.404  13.833  0.1247  0.1391  0.4551
 4367SOL    HW124560   4.141   2.365  13.752  0.6224 -0.6334  0.6232
 4367SOL    HW224561   4.200   2.320  13.871 -2.2438 -1.0543 -0.6334
 4368SOL     OW24562   2.617   1.960  14.449  0.2705  0.0705  0.2938
 4368SOL    HW124563   2.597   1.984  14.540 -1.0618 -1.3099  0.3791
 4368SOL    HW224564   2.710   1.982  14.446  0.9024 -3.0106 -2.7035
 4369SOL     OW24565   2.406   1.586   3.653  0.1706 -0.0975  0.4691
 4369SOL    HW124566   2.462   1.540   3.715  0.4691 -3.1590 -2.1140
 4369SOL    HW224567   2.469   1.640   3.606  1.0122 -0.7070  0.8901
 4370SOL     OW24568   0.265   0.169   4.449 -0.0068  0.4965  0.1554
 4370SOL    HW124569   0.179   0.183   4.488  0.8558  1.2924  1.7865
 4370SOL    HW224570   0.305   0.255   4.466 -1.9681  1.3189  0.6075
 4371SOL     OW24571   4.674   1.056   4.599  0.0597  0.4351 -0.0618
 4371SOL    HW124572   4.618   1.042   4.675  1.3065  2.3213  1.1937
 4371SOL    HW224573   4.622   1.025   4.524  0.2422 -1.5504  0.6268
 4372SOL     OW24574   2.608   1.677   3.110 -0.1529  0.1433  0.5164
 4372SOL    HW124575   2.696   1.696   3.079  0.3073 -0.7490  1.2868
 4372SOL    HW224576   2.562   1.759   3.129  1.4388  1.5100 -1.6358
 4373SOL     OW24577   3.486   4.683   0.276  0.3722 -0.1817 -0.4563
 4373SOL    HW124578   3.405   0.010   0.260 -0.6731 -1.6957  0.3592
 4373SOL    HW224579   3.540   0.029   0.319  0.7932 -0.9083  0.1429
 4374SOL     OW24580   0.537   4.191   1.145  0.5291  0.5781 -0.0595
 4374SOL    HW124581   0.603   4.184   1.213 -0.0917  0.8426  0.5660
 4374SOL    HW224582   0.566   4.266   1.092  1.0128  0.4967  0.0881
 4375SOL     OW24583   1.351   1.517   8.056 -0.2312  0.1799  0.1752
 4375SOL    HW124584   1.399   1.595   8.029 -1.0247  0.0199 -1.6278
 4375SOL    HW224585   1.303   1.548   8.133 -2.3573 -0.1015 -1.0414
 4376SOL     OW24586   2.543   2.218   1.324  0.5208  0.1029 -0.8044
 4376SOL    HW124587   2.488   2.226   1.246  0.7080 -2.1035 -1.1745
 4376SOL    HW224588   2.560   2.311   1.339 -3.5020  0.5234  1.2133
 4377SOL     OW24589   2.016   1.597  12.603  0.3014  0.1473  0.5790
 4377SOL    HW124590   1.956   1.562  12.537 -1.2667  0.3316  1.9356
 4377SOL    HW224591   1.971   1.661  12.658  0.0390 -0.0183  0.5584
 4378SOL     OW24592   0.539   1.780   0.201 -0.1643 -0.3931  0.1745
 4378SOL    HW124593   0.600   1.844   0.164 -0.9110  0.6430  0.7134
 4378SOL    HW224594   0.564   1.790   0.292  3.6642  0.6163 -1.0127
 4379SOL     OW24595   3.524   1.236   8.572 -0.6539  0.2795 -0.0027
 4379SOL    HW124596   3.614   1.240   8.541 -0.6905 -0.2939 -0.1819
 4379SOL    HW224597   3.508   1.326   8.600 -0.0992  1.0586 -2.1903
 4380SOL     OW24598   3.133   3.044   3.366  0.2072 -0.3971 -0.0530
 4380SOL    HW124599   3.192   3.107   3.325  1.8745  0.1560  3.2742
 4380SOL    HW224600   3.191   2.984   3.412  2.4314 -0.4847 -2.9743
 4381SOL     OW24601   2.069   2.022  16.718  0.2961  0.1479 -0.0244
 4381SOL    HW124602   2.044   2.108  16.753 -1.1594 -1.4426  2.8363
 4381SOL    HW224603   2.127   2.049  16.647  0.8208  1.9371  1.0593
 4382SOL     OW24604   2.125   4.454   2.083  0.3339  0.3715  0.0809
 4382SOL    HW124605   2.099   4.407   2.004 -0.9868  2.2486 -0.6270
 4382SOL    HW224606   2.206   4.491   2.049  1.0329  0.2230  1.5832
 4383SOL     OW24607   2.729   4.369  11.691  0.4276  0.1572 -0.2181
 4383SOL    HW124608   2.662   4.435  11.671  0.9502  0.1215 -2.0568
 4383SOL    HW224609   2.764   4.345  11.605  0.4789  2.3933 -0.8306
 4384SOL     OW24610   3.896   4.158  16.115 -0.8360 -0.7505 -0.0579
 4384SOL    HW124611   3.924   4.210  16.040  0.3358 -0.7652  0.3701
 4384SOL    HW224612   3.841   4.088  16.079  0.7510 -1.0972 -1.7774
 4385SOL     OW24613   2.869   0.457   9.862 -0.0283 -0.3939 -0.2123
 4385SOL    HW124614   2.836   0.544   9.884 -1.9643 -1.1358 -0.1963
 4385SOL    HW224615   2.956   0.482   9.829 -0.7233  1.4918 -0.6363
 4386SOL     OW24616   0.119   2.318   8.163 -0.9408 -0.2965 -0.1862
 4386SOL    HW124617   0.048   2.380   8.149 -0.2741  1.2050  3.0568
 4386SOL    HW224618   0.137   2.307   8.257  1.0068 -0.2434 -0.5597
 4387SOL     OW24619   2.942   3.096   2.422  0.3115  0.1872 -0.3571
 4387SOL    HW124620   2.861   3.062   2.460 -0.0407 -1.1624 -2.3318
 4387SOL    HW224621   2.974   3.024   2.368  1.3788  0.3473  0.0691
 4388SOL     OW24622   4.712   1.135   3.775 -0.1049  0.1995 -0.3052
 4388SOL    HW124623   4.632   1.084   3.780  0.4513 -0.4675  1.8143
 4388SOL    HW224624   0.011   1.156   3.866  0.1753 -1.7359  0.0776
 4389SOL     OW24625   4.708   4.183   4.419 -0.3872 -0.1048  0.2979
 4389SOL    HW124626   4.661   4.136   4.350 -0.0205  0.3324 -0.2474
 4389SOL    HW224627   4.708   4.123   4.494  0.0704 -1.8002 -1.0337
 4390SOL     OW24628   0.966   0.339  11.053 -0.6871 -0.1510 -0.2011
 4390SOL    HW124629   1.012   0.286  10.988  0.9308  0.9611  0.0478
 4390SOL    HW224630   0.872   0.317  11.050 -0.3124 -1.9201  0.5518
 4391SOL     OW24631   0.826   3.245   5.882  0.4333  0.2867 -0.1383
 4391SOL    HW124632   0.790   3.242   5.793 -1.4295  1.2591  0.5716
 4391SOL    HW224633   0.774   3.184   5.935  0.8478  0.6303  0.6577
 4392SOL     OW24634   3.565   4.652   4.180 -0.9402  0.0477  0.1987
 4392SOL    HW124635   3.562   4.721   4.246 -0.3225  0.4990 -0.2478
 4392SOL    HW224636   3.479   4.663   4.138  0.9384  0.5976 -3.4827
 4393SOL     OW24637   2.683   2.709   0.452 -0.0276 -0.6324  0.0690
 4393SOL    HW124638   2.600   2.677   0.489  1.0766 -0.2783  2.8620
 4393SOL    HW224639   2.730   2.627   0.438 -0.7636 -0.8464 -1.1709
 4394SOL     OW24640   0.703   2.469  12.875 -0.6214 -0.1996  0.0553
 4394SOL    HW124641   0.785   2.437  12.912  1.3779  1.7994 -2.6724
 4394SOL    HW224642   0.648   2.440  12.948 -2.8234  0.6196 -1.2600
 4395SOL     OW24643   4.194   0.862   4.391  1.2664  0.3184  0.4142
 4395SOL    HW124644   4.109   0.819   4.387  2.0652 -1.1869 -0.2822
 4395SOL    HW224645   4.251   0.788   4.371 -1.2914 -1.3383 -0.7557
 4396SOL     OW24646   1.365   2.289   7.817 -0.2735 -0.4978  0.3389
 4396SOL    HW124647   1.373   2.287   7.722  3.1786 -1.1546  0.6378
 4396SOL    HW224648   1.453   2.323   7.835  0.0667 -1.4174  0.4044
 4397SOL     OW24649   0.907   1.611   7.107 -0.0704 -0.6140 -0.1510
 4397SOL    HW124650   0.953   1.595   7.189 -0.3229 -0.9822 -0.0786
 4397SOL    HW224651   0.887   1.704   7.118  0.9206 -0.1660 -2.0927
 4398SOL     OW24652   2.329   1.856   7.253 -0.4554  0.3274 -0.1331
 4398SOL    HW124653   2.320   1.780   7.311 -2.5947 -1.4515 -2.8097
 4398SOL    HW224654   2.421   1.853   7.229 -0.9603  0.3212 -2.0839
 4399SOL     OW24655   4.168   2.990  10.191  0.5552 -0.4335 -0.7068
 4399SOL    HW124656   4.144   2.897  10.194  1.4696 -0.6373  0.4915
 4399SOL    HW224657   4.258   2.987  10.223 -0.5465 -2.6568  2.2489
 4400SOL     OW24658   1.939   1.373   6.038  0.0599  0.2666 -0.1224
 4400SOL    HW124659   1.930   1.313   5.964  1.6585 -0.8008  0.5430
 4400SOL    HW224660   2.013   1.422   6.003  1.1361 -0.5202  1.0720
 4401SOL     OW24661   1.664   0.543  11.419 -0.5317  0.0628  0.0461
 4401SOL    HW124662   1.596   0.609  11.428 -0.8328 -0.0099 -1.6589
 4401SOL    HW224663   1.719   0.589  11.356 -1.6447  0.7191 -0.4332
 4402SOL     OW24664   3.110   4.177   5.482 -0.4256  0.0886 -0.2775
 4402SOL    HW124665   3.073   4.169   5.394 -0.1579 -2.3632 -0.1786
 4402SOL    HW224666   3.048   4.222   5.540  1.1924  2.2139 -0.1915
 4403SOL     OW24667   2.540   1.698   2.313 -0.2290  0.3899  0.7789
 4403SOL    HW124668   2.559   1.604   2.316  2.5380  0.9081 -0.8937
 4403SOL    HW224669   2.511   1.703   2.405 -1.5412 -0.2887  0.3983
 4404SOL     OW24670   0.557   4.061   3.994  0.1665 -0.7154  0.1495
 4404SOL    HW124671   0.467   4.028   3.995 -0.0816 -0.0624 -1.0430
 4404SOL    HW224672   0.574   4.077   4.087 -0.0689  0.7219 -0.0533
 4405SOL     OW24673   1.992   1.945  13.932  0.2599  0.3454 -0.5791
 4405SOL    HW124674   2.006   1.890  13.855 -1.3121 -1.3277  0.3349
 4405SOL    HW224675   2.083   1.961  13.955  0.0095 -0.6642  1.1561
 4406SOL     OW24676   3.061   3.452   7.957  0.6119  0.0186  0.0203
 4406SOL    HW124677   3.082   3.535   8.000  0.2112  0.7549 -1.2180
 4406SOL    HW224678   3.083   3.473   7.866  2.5685 -1.5326  0.1511
 4407SOL     OW24679   2.648   3.223  14.030 -0.3797 -0.0370 -0.2205
 4407SOL    HW124680   2.609   3.276  13.961  0.6133  1.2137  0.1762
 4407SOL    HW224681   2.602   3.270  14.100  1.9107  0.3753  1.0466
 4408SOL     OW24682   2.133   3.378   0.221 -0.3191  0.2056 -0.2556
 4408SOL    HW124683   2.127   3.384   0.125 -0.9148  0.0301 -0.2245
 4408SOL    HW224684   2.223   3.410   0.230 -0.3412 -0.0210  0.7099
 4409SOL     OW24685   3.275   1.390   2.273  0.5090 -0.1210  0.0462
 4409SOL    HW124686   3.336   1.372   2.202 -0.5177  0.3810 -0.9659
 4409SOL    HW224687   3.208   1.322   2.271 -1.9866  2.2812  0.6804
 4410SOL     OW24688   1.292   2.553   0.655 -0.2179  0.4089  0.3319
 4410SOL    HW124689   1.341   2.482   0.697 -1.7014 -0.2778  0.8876
 4410SOL    HW224690   1.221   2.575   0.715  0.4437 -1.3704  1.7423
 4411SOL     OW24691   4.692   3.997  12.486  0.1270  0.9598  0.6202
 4411SOL    HW124692   0.044   4.042  12.442  0.4883  0.3456  0.5948
 4411SOL    HW224693   0.011   3.914  12.511  3.2194  1.5270 -2.4074
 4412SOL     OW24694   1.610   3.373  17.345  0.4242 -0.1134  0.7178
 4412SOL    HW124695   1.581   3.319  17.419  1.3684 -0.9940  0.4447
 4412SOL    HW224696   1.608   3.459  17.388  0.6887 -0.1976  0.8967
 4413SOL     OW24697   4.548   2.757  11.488  0.4141  0.3002  0.0333
 4413SOL    HW124698   4.528   2.681  11.435  1.0168 -0.7948  1.3757
 4413SOL    HW224699   4.484   2.748  11.559  0.0389  0.4790 -0.2858
 4414SOL     OW24700   1.093   0.187   5.290 -0.2383  0.5481 -0.2829
 4414SOL    HW124701   1.140   0.252   5.342 -1.2057  2.5348 -1.8753
 4414SOL    HW224702   1.006   0.227   5.300  0.3433  1.9536 -0.8658
 4415SOL     OW24703   2.552   0.309   5.735 -0.3678  0.1832 -1.1467
 4415SOL    HW124704   2.588   0.389   5.771  0.3720 -0.6117 -0.1160
 4415SOL    HW224705   2.475   0.348   5.694 -0.3460  0.7237 -0.6726
 4416SOL     OW24706   1.993   4.118   7.542  0.3868 -0.7160 -0.3778
 4416SOL    HW124707   1.918   4.060   7.530  0.5827 -0.8920 -0.7359
 4416SOL    HW224708   2.066   4.057   7.557  1.0399  0.3177  0.6884
 4417SOL     OW24709   1.879   2.110  11.019 -0.1203  0.3037 -0.2414
 4417SOL    HW124710   1.891   2.147  10.932 -1.1961  0.7859 -0.1823
 4417SOL    HW224711   1.821   2.167  11.069 -1.0686 -0.9489  0.0866
 4418SOL     OW24712   4.545   0.958  16.698  0.1988  0.1294  0.0824
 4418SOL    HW124713   4.625   0.967  16.646 -1.6664  0.4040 -2.7389
 4418SOL    HW224714   4.487   0.928  16.628  0.7761  1.1873 -0.8567
 4419SOL     OW24715   1.483   4.319   5.142  0.1397  0.6961  0.1036
 4419SOL    HW124716   1.555   4.259   5.128 -0.0268  0.7023 -0.8400
 4419SOL    HW224717   1.485   4.366   5.058 -1.6753  0.7018  0.0567
 4420SOL     OW24718   4.253   4.674   2.493  0.4285 -0.0266  1.0032
 4420SOL    HW124719   4.294   0.030   2.534  0.4781 -0.2596  1.3924
 4420SOL    HW224720   4.278   4.685   2.402 -0.8426  0.9167  0.7552
 4421SOL     OW24721   0.810   1.132   2.892 -0.0543  0.1851  0.0755
 4421SOL    HW124722   0.825   1.173   2.977 -2.4077  1.9336 -0.3333
 4421SOL    HW224723   0.819   1.039   2.911 -0.0240 -0.4879 -3.1674
 4422SOL     OW24724   2.105   3.135  14.707 -0.0232 -0.1469  0.2676
 4422SOL    HW124725   2.038   3.127  14.638 -2.0927 -2.2632  2.5350
 4422SOL    HW224726   2.189   3.149  14.663 -0.6107 -0.8774 -1.0802
 4423SOL     OW24727   1.406   2.544   1.068 -0.0380  0.0100  0.9936
 4423SOL    HW124728   1.439   2.587   1.147 -0.8022  2.8784 -0.2326
 4423SOL    HW224729   1.422   2.451   1.081 -2.0026 -0.2987  1.1993
 4424SOL     OW24730   0.588   3.353   4.008  0.5663 -0.2472 -0.0505
 4424SOL    HW124731   0.575   3.396   3.924  1.3568 -0.1462 -0.1246
 4424SOL    HW224732   0.499   3.358   4.044 -0.1126  2.5233 -2.1469
 4425SOL     OW24733   2.438   0.261  12.006 -0.0158  0.5096  0.2035
 4425SOL    HW124734   2.464   0.245  11.915  3.0073  2.1625  0.7954
 4425SOL    HW224735   2.500   0.207  12.055  1.3077  0.9182 -1.0202
 4426SOL     OW24736   4.004   2.022   5.813 -0.0792  0.3577  0.2201
 4426SOL    HW124737   4.096   1.998   5.805 -0.2478  0.3539 -1.6998
 4426SOL    HW224738   4.009   2.117   5.812  0.7336  0.3518  2.6546
 4427SOL     OW24739   2.978   3.887   1.768  0.6069 -0.4892 -0.6621
 4427SOL    HW124740   2.914   3.899   1.698  1.3181 -3.0119 -1.7619
 4427SOL    HW224741   3.048   3.850   1.714  1.2427 -1.2761  0.7122
 4428SOL     OW24742   1.318   3.720   0.860 -0.0296  0.3318  0.3412
 4428SOL    HW124743   1.309   3.626   0.871 -1.2374  0.2843 -1.0526
 4428SOL    HW224744   1.408   3.743   0.883  0.4254  0.9972 -2.0670
 4429SOL     OW24745   3.872   4.376   0.807 -0.1681 -0.4302 -0.1742
 4429SOL    HW124746   3.813   4.331   0.868 -0.8153 -0.1622 -0.6004
 4429SOL    HW224747   3.957   4.335   0.821  0.7236  1.7946  0.9511
 4430SOL     OW24748   3.508   3.290   7.461  0.5549 -0.1409  0.0997
 4430SOL    HW124749   3.560   3.217   7.496  2.3117  0.0916 -2.0251
 4430SOL    HW224750   3.558   3.312   7.382 -0.4620  0.8179 -0.2760
 4431SOL     OW24751   4.303   1.570   6.909 -0.3191  0.4043  0.0765
 4431SOL    HW124752   4.378   1.613   6.950 -0.2578  1.7112 -1.4559
 4431SOL    HW224753   4.348   1.505   6.855 -0.1845 -0.3848  1.1212
 4432SOL     OW24754   2.069   2.931   9.027  0.3951  0.0983 -0.2314
 4432SOL    HW124755   2.013   3.009   9.028  0.5282  0.1920  0.0321
 4432SOL    HW224756   2.088   2.923   8.934 -1.4084 -0.1514 -0.5707
 4433SOL     OW24757   1.577   0.914   1.600 -0.1103 -0.1518  0.1340
 4433SOL    HW124758   1.614   0.999   1.622  0.0237 -0.2780  0.4040
 4433SOL    HW224759   1.484   0.933   1.606 -0.2109 -0.7496  0.4871
 4434SOL     OW24760   0.042   4.340   0.726  0.2807 -0.2774 -0.0732
 4434SOL    HW124761   0.135   4.335   0.749  0.1126  1.3638  0.9588
 4434SOL    HW224762   0.022   4.429   0.756 -0.0917 -0.6631  0.8471
 4435SOL     OW24763   1.522   3.877   1.476 -0.5063  0.2034 -0.7377
 4435SOL    HW124764   1.553   3.962   1.506 -0.6214 -0.7047  1.8943
 4435SOL    HW224765   1.435   3.903   1.447  0.2071  2.7209 -0.6405
 4436SOL     OW24766   4.072   2.367   7.682 -0.2694  0.1014  0.4398
 4436SOL    HW124767   4.030   2.452   7.669 -1.6681 -0.6971 -0.2235
 4436SOL    HW224768   4.010   2.340   7.750  0.4033  0.9179  1.3655
 4437SOL     OW24769   0.327   3.676   4.865  0.3222  0.1176  0.4521
 4437SOL    HW124770   0.399   3.722   4.908  0.9279 -2.0785  1.7556
 4437SOL    HW224771   0.312   3.596   4.915  1.9487 -0.1952  0.4238
 4438SOL     OW24772   3.853   1.066   8.528 -0.4955 -0.1777  0.1667
 4438SOL    HW124773   3.874   0.985   8.575 -1.9722 -1.3825 -1.2731
 4438SOL    HW224774   3.915   1.057   8.455 -1.5138  0.3839 -0.7689
 4439SOL     OW24775   3.379   2.257  10.892  0.1757  1.0172 -0.5157
 4439SOL    HW124776   3.463   2.294  10.865  0.7305  0.4853  0.4984
 4439SOL    HW224777   3.385   2.182  10.832  0.1800 -1.1770  2.2387
 4440SOL     OW24778   2.846   3.806   8.425 -0.0476  0.0522  0.3163
 4440SOL    HW124779   2.873   3.727   8.472  0.2965 -0.6080 -0.9888
 4440SOL    HW224780   2.796   3.848   8.495  1.2422  2.3564 -0.1328
 4441SOL     OW24781   2.968   3.153   5.726 -0.0684  0.1806  0.4899
 4441SOL    HW124782   2.899   3.095   5.694 -0.1687 -0.5700  2.0632
 4441SOL    HW224783   3.009   3.174   5.642 -1.2486  1.4938  0.2472
 4442SOL     OW24784   3.987   1.540   2.822 -0.1265 -0.8534  0.0240
 4442SOL    HW124785   3.961   1.630   2.803 -1.0310 -1.3037 -0.8520
 4442SOL    HW224786   3.899   1.503   2.822 -0.8309  0.7850 -1.8499
 4443SOL     OW24787   1.995   1.041   4.024 -0.2650 -0.0931 -0.0248
 4443SOL    HW124788   2.005   0.994   4.106  1.2468  0.5031  0.1192
 4443SOL    HW224789   1.946   1.118   4.052  1.3210  1.5364 -1.7026
 4444SOL     OW24790   0.456   2.617  12.687 -0.5398 -0.4784 -0.3229
 4444SOL    HW124791   0.370   2.610  12.728  0.4523  0.8813  2.0367
 4444SOL    HW224792   0.515   2.577  12.752  0.1140  1.6164  0.3739
 4445SOL     OW24793   4.561   4.400   4.169 -0.4654  0.0182  0.5077
 4445SOL    HW124794   4.525   4.433   4.251 -0.6817 -0.1384  0.4759
 4445SOL    HW224795   4.511   4.318   4.163 -0.6022 -0.0188  2.2395
 4446SOL     OW24796   3.907   1.019   2.726 -0.2616  0.2077  0.0017
 4446SOL    HW124797   3.877   0.938   2.685  0.7344 -0.4165  0.5078
 4446SOL    HW224798   3.873   0.990   2.811 -2.4000  1.6088 -0.3731
 4447SOL     OW24799   3.289   3.881   4.752  0.5110  0.0880  0.1906
 4447SOL    HW124800   3.319   3.814   4.691  0.9165 -1.0045  1.5917
 4447SOL    HW224801   3.347   3.954   4.732 -0.0254  0.1497 -1.1322
 4448SOL     OW24802   0.816   0.547   1.757  0.0159  0.1479 -0.0642
 4448SOL    HW124803   0.782   0.597   1.683 -1.4964 -0.7672  0.0120
 4448SOL    HW224804   0.756   0.584   1.822  0.9903 -0.3313  1.1077
 4449SOL     OW24805   3.911   3.152   4.010 -0.4283 -0.0987  0.1731
 4449SOL    HW124806   3.969   3.220   4.043 -0.9238 -0.1924  1.2590
 4449SOL    HW224807   3.835   3.181   4.061 -0.1636 -0.1887  0.6188
 4450SOL     OW24808   3.698   3.215  10.150 -0.0236  0.2390  0.2470
 4450SOL    HW124809   3.604   3.231  10.156  0.0602  1.3559 -1.5433
 4450SOL    HW224810   3.715   3.125  10.122 -2.3804 -0.0128 -0.3526
 4451SOL     OW24811   1.825   4.439   1.898  0.3677 -0.1575  0.0072
 4451SOL    HW124812   1.914   4.437   1.862  1.0868  1.7472  1.7156
 4451SOL    HW224813   1.774   4.463   1.820 -0.8519 -3.1743 -0.1277
 4452SOL     OW24814   1.657   1.585   3.971 -0.2064 -0.3496  0.2160
 4452SOL    HW124815   1.571   1.550   3.992 -1.9421  2.6756 -2.0234
 4452SOL    HW224816   1.648   1.605   3.878  0.5719  2.9617  0.8639
 4453SOL     OW24817   2.330   1.196  16.420  0.3145  0.3029 -0.3349
 4453SOL    HW124818   2.265   1.249  16.374  0.1727  2.0187  1.8468
 4453SOL    HW224819   2.351   1.153  16.337 -1.1370 -0.6528 -0.1949
 4454SOL     OW24820   2.164   1.176   4.297  0.1561  0.0262  0.1716
 4454SOL    HW124821   2.248   1.148   4.261  0.3019  0.6120  0.0532
 4454SOL    HW224822   2.146   1.261   4.256  3.2667  0.2676 -0.6781
 4455SOL     OW24823   2.703   4.153   5.413 -0.3961  0.2924  0.0250
 4455SOL    HW124824   2.749   4.076   5.445 -3.3771 -1.6132 -0.2781
 4455SOL    HW224825   2.750   4.229   5.447 -0.4996 -0.9530  2.9527
 4456SOL     OW24826   3.263   2.177   3.700  0.3217 -0.1030 -0.8357
 4456SOL    HW124827   3.279   2.083   3.699  1.1090  0.0014  1.2364
 4456SOL    HW224828   3.342   2.219   3.667 -1.0884  1.6300 -1.9773
 4457SOL     OW24829   2.922   0.177  16.722  0.1988  0.4033  0.5983
 4457SOL    HW124830   2.928   0.127  16.641  0.0062  0.3283  0.6307
 4457SOL    HW224831   2.836   0.144  16.748  0.4308  1.2989  2.5018
 4458SOL     OW24832   1.600   2.246   6.839  0.2226  0.0412 -0.3293
 4458SOL    HW124833   1.533   2.296   6.886 -0.1879  0.6613 -1.5728
 4458SOL    HW224834   1.674   2.295   6.874  1.4955 -1.1003 -1.4372
 4459SOL     OW24835   3.161   2.736  14.632 -0.0449  0.5156 -0.1028
 4459SOL    HW124836   3.139   2.650  14.596 -2.9440  1.1259  0.2456
 4459SOL    HW224837   3.076   2.778  14.625 -1.2789 -1.9773 -0.1384
 4460SOL     OW24838   0.478   0.692  12.378  0.3593  0.6881 -0.0441
 4460SOL    HW124839   0.491   0.632  12.305 -0.3459  1.9714 -1.2349
 4460SOL    HW224840   0.519   0.772  12.345  0.4860  0.6079 -0.0802
 4461SOL     OW24841   4.613   3.592   2.078 -0.7322  0.3909 -0.1504
 4461SOL    HW124842   4.551   3.520   2.064 -1.3145  0.3837  2.5143
 4461SOL    HW224843   4.553   3.655   2.119 -0.0500  0.4196  0.8091
 4462SOL     OW24844   3.845   4.397   6.407  0.1883 -0.0426 -0.3106
 4462SOL    HW124845   3.865   4.313   6.365 -1.1765 -0.4397 -0.1531
 4462SOL    HW224846   3.902   4.457   6.359 -1.5992  0.8239 -1.3430
 4463SOL     OW24847   0.276   1.048   6.090 -0.3884 -0.5360  0.6698
 4463SOL    HW124848   0.297   1.089   6.006 -1.4478  0.5769  0.9298
 4463SOL    HW224849   0.303   1.116   6.153  1.8448 -0.3119 -0.5584
 4464SOL     OW24850   0.117   2.591   3.249  0.0669  0.2704 -0.1081
 4464SOL    HW124851   0.075   2.510   3.278  1.6262 -0.5082 -0.0504
 4464SOL    HW224852   0.040   2.648   3.247 -0.4953 -0.5396 -1.6494
 4465SOL     OW24853   4.381   3.229   9.298 -0.1532 -0.1514 -0.0471
 4465SOL    HW124854   4.314   3.268   9.241  1.9950  0.3843 -2.1929
 4465SOL    HW224855   4.432   3.180   9.234 -0.9802  0.3549 -1.1037
 4466SOL     OW24856   1.216   0.180   5.653  0.0598 -0.0469 -0.6589
 4466SOL    HW124857   1.241   0.118   5.721 -2.3770  0.0951  0.3473
 4466SOL    HW224858   1.295   0.186   5.599 -0.7461  4.0034 -1.3969
 4467SOL     OW24859   3.715   4.341   6.871 -0.2802 -0.3979  0.5170
 4467SOL    HW124860   3.788   4.332   6.811 -1.5517  0.1764 -1.0988
 4467SOL    HW224861   3.681   4.251   6.872 -0.5341 -0.3093 -0.3836
 4468SOL     OW24862   1.096   2.297  11.076  0.4230  0.2347  0.3295
 4468SOL    HW124863   1.068   2.300  10.985 -2.0125  0.9343  1.0827
 4468SOL    HW224864   1.188   2.320  11.070  0.1627  1.1011 -0.3299
 4469SOL     OW24865   3.346   2.936   6.034 -0.2178 -0.4519 -0.0186
 4469SOL    HW124866   3.274   2.989   6.001  0.5320  0.9104  0.5220
 4469SOL    HW224867   3.413   2.940   5.966  0.8563 -0.9873  0.9972
 4470SOL     OW24868   4.187   1.610   6.522 -0.4761  0.1443 -0.0369
 4470SOL    HW124869   4.168   1.664   6.445 -2.3722  1.3959  1.2803
 4470SOL    HW224870   4.204   1.668   6.596 -0.2437  1.2018 -0.9240
 4471SOL     OW24871   4.362   4.669  12.588  0.1924 -0.0606 -0.3667
 4471SOL    HW124872   4.363   4.709  12.675 -1.8545 -0.2178 -0.2727
 4471SOL    HW224873   4.362   4.573  12.587  1.3899 -0.0649  0.7502
 4472SOL     OW24874   1.218   4.493   2.579  0.0097 -0.1551  0.4099
 4472SOL    HW124875   1.262   4.453   2.504  0.7215  1.6543 -0.1390
 4472SOL    HW224876   1.148   4.430   2.595  1.8445 -2.3012 -0.0541
 4473SOL     OW24877   4.231   2.278  12.277 -0.1017 -0.0408  0.4131
 4473SOL    HW124878   4.288   2.310  12.207 -0.4098  0.7025  0.4986
 4473SOL    HW224879   4.158   2.256  12.218  2.0750 -2.7202 -1.2888
 4474SOL     OW24880   4.008   0.020  12.661  0.1181  0.1020 -0.3310
 4474SOL    HW124881   4.036   0.108  12.688  0.4250  0.3351 -1.4294
 4474SOL    HW224882   4.058   4.676  12.710 -1.0688  0.2720  1.1149
 4475SOL     OW24883   1.264   0.084   6.370  0.3856  1.1745 -0.4125
 4475SOL    HW124884   1.315   0.004   6.375  0.8288  1.5016  0.3211
 4475SOL    HW224885   1.188   0.026   6.378  1.9957 -0.7968  0.3542
 4476SOL     OW24886   3.697   0.905   7.497  0.0883  0.6574 -0.3449
 4476SOL    HW124887   3.727   0.994   7.513 -0.9306  0.7809  0.8662
 4476SOL    HW224888   3.752   0.850   7.553  1.4209  1.9339 -0.4108
 4477SOL     OW24889   2.274   4.244  12.036 -0.3714 -0.1068 -0.2096
 4477SOL    HW124890   2.190   4.264  11.994 -0.5971 -0.1520  0.2251
 4477SOL    HW224891   2.259   4.280  12.123  1.0936  1.9206 -0.7833
 4478SOL     OW24892   0.587   4.177   8.813  0.1437  0.0089 -0.2646
 4478SOL    HW124893   0.660   4.151   8.757 -0.8677  1.5783 -2.3269
 4478SOL    HW224894   0.599   4.270   8.794  1.5411  0.1461  1.2648
 4479SOL     OW24895   1.945   4.278   3.921  0.5436 -0.1055 -0.6489
 4479SOL    HW124896   1.918   4.359   3.966  1.9441  0.4477 -0.7962
 4479SOL    HW224897   1.905   4.286   3.835 -1.4384 -1.0163  0.2020
 4480SOL     OW24898   0.344   2.750   6.690  0.4569 -0.0721 -0.2317
 4480SOL    HW124899   0.287   2.795   6.628  1.5087 -1.7949 -2.4459
 4480SOL    HW224900   0.434   2.761   6.661  0.7937 -0.2479  0.7452
 4481SOL     OW24901   1.203   2.954   9.872 -0.0507  0.1288 -1.2533
 4481SOL    HW124902   1.219   2.948   9.966 -0.4018  1.2817 -1.1322
 4481SOL    HW224903   1.249   2.879   9.833 -0.9698 -0.3579 -1.4105
 4482SOL     OW24904   3.384   2.279   5.902  0.0323 -0.5779 -0.4933
 4482SOL    HW124905   3.375   2.272   5.998 -1.2096 -1.3855 -0.6647
 4482SOL    HW224906   3.384   2.185   5.883  1.0094 -0.5221 -0.7410
 4483SOL     OW24907   3.697   4.013  14.935  0.1992  0.4470 -0.3895
 4483SOL    HW124908   3.748   4.054  14.866 -1.1570  2.7115 -0.0350
 4483SOL    HW224909   3.647   3.950  14.883 -1.7569 -0.0526  2.0975
 4484SOL     OW24910   0.340   1.710  14.427 -0.2211  0.3480 -0.2811
 4484SOL    HW124911   0.414   1.728  14.369 -0.2626 -0.1477 -0.4829
 4484SOL    HW224912   0.265   1.704  14.367 -1.1196  1.5874  0.6928
 4485SOL     OW24913   1.634   3.152   1.739  0.3560  0.3803 -0.1751
 4485SOL    HW124914   1.649   3.146   1.645 -0.3533 -0.2974 -0.2451
 4485SOL    HW224915   1.626   3.059   1.761  1.4935  0.9586  2.7108
 4486SOL     OW24916   4.477   1.660   9.159 -0.2840 -1.0440  0.1122
 4486SOL    HW124917   4.421   1.730   9.124  0.2296  0.0777  1.5150
 4486SOL    HW224918   4.511   1.700   9.239 -0.2102 -1.2192  0.1680
 4487SOL     OW24919   0.864   3.506   3.706 -0.2972 -0.7560 -0.3861
 4487SOL    HW124920   0.842   3.413   3.715  0.4410 -0.9424 -0.5481
 4487SOL    HW224921   0.922   3.501   3.630 -0.3312  0.0083 -0.4654
 4488SOL     OW24922   2.869   0.235  17.429  0.1040 -0.4150  0.1572
 4488SOL    HW124923   2.957   0.254  17.461 -0.9596  2.7973  1.1967
 4488SOL    HW224924   2.859   0.152  17.475 -2.9678  0.4262  1.0304
 4489SOL     OW24925   1.756   3.812   6.453 -0.1494 -0.4538 -0.3144
 4489SOL    HW124926   1.840   3.837   6.416 -0.2490  0.1499 -0.1228
 4489SOL    HW224927   1.791   3.731   6.490 -0.9717 -0.2261  0.9710
 4490SOL     OW24928   2.178   3.918   2.828  0.2218 -0.1011 -0.1705
 4490SOL    HW124929   2.137   3.889   2.909  1.6199  0.7339  0.8281
 4490SOL    HW224930   2.202   3.829   2.801  0.7415 -0.2499  0.7952
 4491SOL     OW24931   2.396   1.500   4.140  0.0257 -0.2061  0.5680
 4491SOL    HW124932   2.338   1.574   4.157  1.2847  1.0170 -0.4079
 4491SOL    HW224933   2.466   1.549   4.097 -0.4753 -0.2631 -0.3243
 4492SOL     OW24934   1.783   0.451  11.645  0.0279 -0.0543 -0.0061
 4492SOL    HW124935   1.856   0.511  11.635  1.7800 -2.1080  0.3734
 4492SOL    HW224936   1.728   0.479  11.572  0.3923 -0.6795 -0.5206
 4493SOL     OW24937   0.779   2.909   5.063 -0.3462  0.5305  0.7824
 4493SOL    HW124938   0.847   2.844   5.082 -0.2474  0.2513 -0.5054
 4493SOL    HW224939   0.701   2.866   5.098  0.0099  0.7782  1.8901
 4494SOL     OW24940   2.749   3.160  13.100  0.7670  0.4763  0.3159
 4494SOL    HW124941   2.731   3.245  13.141  1.9179  0.5856  0.5935
 4494SOL    HW224942   2.656   3.139  13.088  0.4453  1.4406  1.0851
 4495SOL     OW24943   3.650   1.145   6.770 -0.2487  0.0191 -0.4738
 4495SOL    HW124944   3.610   1.076   6.717  1.6621 -1.8562  0.5297
 4495SOL    HW224945   3.724   1.097   6.808 -0.4336  0.9345  1.0317
 4496SOL     OW24946   1.719   2.307   9.902  0.1655  0.1034  0.7237
 4496SOL    HW124947   1.787   2.373   9.917 -1.2693  2.0099 -1.0794
 4496SOL    HW224948   1.639   2.342   9.942  0.4854  0.2827  1.2144
 4497SOL     OW24949   3.501   3.092  17.124 -0.0504 -0.0185  0.5020
 4497SOL    HW124950   3.558   3.167  17.136  0.8802 -0.6387 -0.0694
 4497SOL    HW224951   3.430   3.124  17.180  0.6825  1.5774  0.5037
 4498SOL     OW24952   0.990   4.320   2.638  0.1761 -0.0683 -0.0259
 4498SOL    HW124953   0.936   4.243   2.622 -1.0169  1.1232 -1.7332
 4498SOL    HW224954   0.957   4.384   2.576  0.4854 -0.5113 -0.6522
 4499SOL     OW24955   2.769   2.268   5.778  0.3982  0.7045 -0.3858
 4499SOL    HW124956   2.735   2.179   5.793  0.3991  0.7214 -0.2807
 4499SOL    HW224957   2.761   2.281   5.684  0.2306 -0.6158 -0.5614
 4500SOL     OW24958   2.324   3.913   4.028 -0.8738  0.1236 -0.5373
 4500SOL    HW124959   2.280   3.998   4.016 -1.1410  0.0771  0.0963
 4500SOL    HW224960   2.310   3.899   4.121 -2.7181 -2.4981 -1.2091
 4501SOL     OW24961   0.326   1.399   9.438  0.2229 -0.0921 -0.3350
 4501SOL    HW124962   0.338   1.362   9.350  0.4594 -0.0820 -0.3066
 4501SOL    HW224963   0.275   1.478   9.418  0.8668  1.1167  2.8667
 4502SOL     OW24964   0.777   3.759  10.256  0.4278 -0.0973 -0.0242
 4502SOL    HW124965   0.712   3.691  10.240 -1.1393  1.4271 -0.1267
 4502SOL    HW224966   0.730   3.819  10.314  0.0182  0.4564 -0.9403
 4503SOL     OW24967   0.311   4.219   5.570 -0.0170  0.0329  0.1525
 4503SOL    HW124968   0.240   4.272   5.605  0.3944  0.0213  1.0252
 4503SOL    HW224969   0.350   4.296   5.530  1.0580 -1.1128 -1.0177
 4504SOL     OW24970   0.807   4.629   2.865 -0.4234 -0.2434 -0.3381
 4504SOL    HW124971   0.776   4.633   2.775 -2.2957  0.3011  0.3254
 4504SOL    HW224972   0.785   4.537   2.882 -3.4738  0.1654 -2.0280
 4505SOL     OW24973   3.038   2.925  17.466 -0.1236  0.0222  0.4696
 4505SOL    HW124974   3.104   2.860  17.442  2.0717  1.6235  2.1509
 4505SOL    HW224975   2.987   2.940  17.386 -2.7268  1.2104  2.3568
 4506SOL     OW24976   0.068   2.454   2.683 -0.4357  0.4094 -0.1036
 4506SOL    HW124977   0.077   2.536   2.635 -0.5362 -0.4737 -1.6193
 4506SOL    HW224978   4.696   2.435   2.666 -0.7684  1.1022  0.9461
 4507SOL     OW24979   3.290   2.116   7.432  0.0860 -0.6828 -0.2648
 4507SOL    HW124980   3.258   2.126   7.343 -0.5162  1.9591  0.2319
 4507SOL    HW224981   3.304   2.209   7.454  2.0319 -1.0322  0.0121
 4508SOL     OW24982   3.785   4.179  13.848 -0.3505  0.2243 -0.4096
 4508SOL    HW124983   3.867   4.224  13.871  0.0959 -0.7480 -0.0859
 4508SOL    HW224984   3.729   4.254  13.826  1.1785  1.6504  0.5849
 4509SOL     OW24985   4.702   0.656   9.010  0.0555  0.1408  0.1203
 4509SOL    HW124986   4.625   0.642   9.065 -0.4542  0.6550 -0.4823
 4509SOL    HW224987   4.680   0.741   8.973  1.9245 -0.4485 -2.3397
 4510SOL     OW24988   0.591   0.200  10.400 -0.7401  0.1097 -0.2434
 4510SOL    HW124989   0.555   0.289  10.407 -0.2476  0.2027  1.2249
 4510SOL    HW224990   0.677   0.214  10.362 -1.1613 -1.7439 -1.8620
 4511SOL     OW24991   4.090   2.766   6.761  0.5060 -0.0084  0.5492
 4511SOL    HW124992   4.133   2.787   6.844  0.3420  1.4289  0.2633
 4511SOL    HW224993   3.995   2.780   6.772  0.2727 -1.2216  0.0517
 4512SOL     OW24994   2.986   0.861   1.747 -0.2691  0.0472 -0.0697
 4512SOL    HW124995   3.005   0.906   1.664 -1.2392  0.1013 -0.2588
 4512SOL    HW224996   2.933   0.926   1.792  2.9163  2.7864 -0.2725
 4513SOL     OW24997   4.510   2.531   5.722  0.6370 -0.0211  0.0666
 4513SOL    HW124998   4.597   2.500   5.746  1.5036  1.9986 -0.4670
 4513SOL    HW224999   4.477   2.451   5.681  1.5968 -0.1230 -0.5145
 4514SOL     OW25000   0.773   1.312   2.066  0.6401  0.1015 -0.4692
 4514SOL    HW125001   0.803   1.392   2.108 -1.1688 -0.3021  1.5802
 4514SOL    HW225002   0.822   1.309   1.984  0.6568 -0.7478 -0.4336
 4515SOL     OW25003   1.520   2.871  13.348 -0.4264 -0.3475 -0.1698
 4515SOL    HW125004   1.509   2.784  13.386  1.3478 -0.3578  0.3056
 4515SOL    HW225005   1.489   2.853  13.259  0.6971  2.9754 -1.2277
 4516SOL     OW25006   3.223   1.187  10.394 -0.0060 -0.4466  0.1569
 4516SOL    HW125007   3.260   1.217  10.477  1.5688  0.1447 -0.7597
 4516SOL    HW225008   3.299   1.163  10.341  1.8439  0.3463  2.4562
 4517SOL     OW25009   0.367   0.316   8.390  0.3939  0.3393 -0.4825
 4517SOL    HW125010   0.449   0.275   8.417  0.1646 -0.3232 -0.8054
 4517SOL    HW225011   0.338   0.251   8.326  0.3372 -0.8498  0.7617
 4518SOL     OW25012   3.826   4.698   8.394 -0.2922 -0.5074  0.3084
 4518SOL    HW125013   3.788   4.685   8.308  0.1190  0.7222 -0.0578
 4518SOL    HW225014   3.842   4.605   8.409  0.3803  0.0948  3.3455
 4519SOL     OW25015   4.299   4.026   9.280  0.4306 -0.2160  0.4803
 4519SOL    HW125016   4.338   3.961   9.221 -0.4325 -1.9157  1.7991
 4519SOL    HW225017   4.308   4.100   9.221  0.0254 -1.7259 -1.4791
 4520SOL     OW25018   3.888   4.049   1.159 -0.0857 -0.6493 -0.2185
 4520SOL    HW125019   3.912   3.978   1.218 -0.8246 -0.8510 -0.1616
 4520SOL    HW225020   3.859   4.116   1.220  1.4777  1.4956 -1.8419
 4521SOL     OW25021   0.042   2.823  12.073  0.2142  0.3300 -0.2289
 4521SOL    HW125022   0.109   2.828  12.005 -1.2582  0.6285 -1.6519
 4521SOL    HW225023   0.097   2.848  12.148  1.0560 -2.2618  0.0142
 4522SOL     OW25024   3.497   3.838   7.447  0.1787 -0.4093  0.1778
 4522SOL    HW125025   3.570   3.831   7.508  0.2950 -2.3664 -0.1683
 4522SOL    HW225026   3.512   3.924   7.407 -0.2589  0.2877  1.5333
 4523SOL     OW25027   1.038   3.282   7.661 -0.0247  0.4530 -0.4387
 4523SOL    HW125028   1.047   3.206   7.717 -0.0591 -0.1951 -1.3095
 4523SOL    HW225029   0.949   3.266   7.630  0.5694  1.1780 -2.5357
 4524SOL     OW25030   4.367   0.646   0.971 -0.6239 -0.3072  0.5287
 4524SOL    HW125031   4.445   0.628   0.920 -3.0389 -0.4146 -3.1548
 4524SOL    HW225032   4.305   0.659   0.899 -1.8047  0.3201  1.6484
 4525SOL     OW25033   3.623   4.507  12.210 -0.1984  0.9127  0.2164
 4525SOL    HW125034   3.639   4.601  12.221 -2.3175  1.2586  0.3465
 4525SOL    HW225035   3.557   4.502  12.278  1.1540  0.6426  1.5002
 4526SOL     OW25036   0.314   3.571   6.171 -0.2760 -0.3989  0.2696
 4526SOL    HW125037   0.270   3.628   6.234  0.4606  0.8608 -0.3567
 4526SOL    HW225038   0.264   3.489   6.176 -0.9969  0.0844  0.9487
 4527SOL     OW25039   2.085   0.372   4.379 -0.2040  0.3334 -0.4852
 4527SOL    HW125040   2.020   0.423   4.427 -2.6170 -1.6512 -1.6288
 4527SOL    HW225041   2.124   0.335   4.458 -2.0580 -2.3775 -0.8221
 4528SOL     OW25042   4.229   1.313   8.993  0.4292  0.5974  0.0824
 4528SOL    HW125043   4.188   1.340   9.075 -2.2065  1.9318 -1.6676
 4528SOL    HW225044   4.315   1.355   8.998  1.3981 -1.4987  0.9978
 4529SOL     OW25045   3.988   1.642  16.606  0.0873  0.3955 -0.1510
 4529SOL    HW125046   4.003   1.608  16.694 -0.7875  1.7127  0.4977
 4529SOL    HW225047   4.068   1.610  16.564 -1.0068  0.5212 -2.3165
 4530SOL     OW25048   1.322   0.178  14.279  0.6179 -0.1289  0.0680
 4530SOL    HW125049   1.233   0.195  14.311  0.2547  0.5301 -1.2699
 4530SOL    HW225050   1.313   0.114  14.208  0.7958 -1.0338  0.8724
 4531SOL     OW25051   0.069   1.969  13.285 -0.2696 -0.1877  0.1272
 4531SOL    HW125052   0.145   2.018  13.315  0.4271 -1.6491  0.7343
 4531SOL    HW225053   0.103   1.909  13.219 -0.2224  0.9165 -0.8414
 4532SOL     OW25054   2.211   3.422   1.375  0.0825  0.1149 -0.0504
 4532SOL    HW125055   2.240   3.512   1.390  1.7185 -0.2151 -1.3613
 4532SOL    HW225056   2.117   3.440   1.374 -0.0983 -0.8698 -0.9575
 4533SOL     OW25057   2.618   1.046   1.110 -0.0022 -0.1138  0.3079
 4533SOL    HW125058   2.556   1.039   1.037 -0.3559  1.7568  0.4243
 4533SOL    HW225059   2.593   1.133   1.141  0.3871 -0.1270  0.6548
 4534SOL     OW25060   1.059   1.610   5.899 -0.3012  0.0166  0.2246
 4534SOL    HW125061   1.125   1.558   5.853  0.2793  2.1958 -1.4533
 4534SOL    HW225062   1.044   1.685   5.841  0.9549  1.0990  1.2950
 4535SOL     OW25063   0.363   0.378  17.475 -0.6557 -0.3296  0.0404
 4535SOL    HW125064   0.281   0.368  17.523  0.5958  0.5072  2.3452
 4535SOL    HW225065   0.400   0.447  17.531 -2.1715  0.1594  0.4444
 4536SOL     OW25066   3.113   2.540  15.079  0.2914 -0.1837  0.4548
 4536SOL    HW125067   3.169   2.525  15.004  0.4575  0.8017  0.3781
 4536SOL    HW225068   3.090   2.452  15.110  0.8059 -0.1232  1.0124
 4537SOL     OW25069   0.318   2.950   6.289 -0.3574 -0.0866  0.3543
 4537SOL    HW125070   0.297   2.927   6.198 -1.3117  0.8225  0.3509
 4537SOL    HW225071   0.411   2.967   6.275 -0.4866 -0.5143 -1.0400
 4538SOL     OW25072   1.583   2.791  10.563 -0.2811  0.2555 -0.3010
 4538SOL    HW125073   1.643   2.784  10.637  1.2981  1.4729 -1.4597
 4538SOL    HW225074   1.509   2.746  10.604 -0.2187 -0.4939 -1.0215
 4539SOL     OW25075   3.422   2.010   5.974 -0.6494 -0.4342  0.3285
 4539SOL    HW125076   3.355   1.945   5.953  1.2470 -3.0666  2.3658
 4539SOL    HW225077   3.498   1.952   5.983 -0.0367 -0.0070 -2.3341
 4540SOL     OW25078   3.585   1.929  13.734  0.0793 -0.1880  0.5284
 4540SOL    HW125079   3.534   1.976  13.801 -0.6256  0.7915 -0.6981
 4540SOL    HW225080   3.656   1.886  13.781  1.3162  1.6343  0.3204
 4541SOL     OW25081   4.159   0.754   5.731  0.5419  0.3209 -0.7867
 4541SOL    HW125082   4.234   0.699   5.751 -0.0919 -0.0150  0.6661
 4541SOL    HW225083   4.147   0.739   5.637  2.5750  1.9307 -1.2951
 4542SOL     OW25084   0.925   3.499  12.058  0.2811  0.3207 -0.6139
 4542SOL    HW125085   0.963   3.413  12.041  2.2818  0.6349  2.3725
 4542SOL    HW225086   0.970   3.524  12.138 -1.4077  0.7427  0.2109
 4543SOL     OW25087   3.431   2.064   6.796 -0.0968 -0.2933 -0.8253
 4543SOL    HW125088   3.441   1.973   6.766 -1.2938  0.0151 -2.1972
 4543SOL    HW225089   3.391   2.060   6.883  0.6197 -0.4504 -0.4997
 4544SOL     OW25090   2.230   4.237   3.200  0.3766  0.2859 -0.0018
 4544SOL    HW125091   2.146   4.235   3.155  0.1081  0.2332  0.4995
 4544SOL    HW225092   2.206   4.242   3.293  0.7894  0.4958  0.0949
 4545SOL     OW25093   1.001   3.432   3.931 -0.2388  0.6628  0.1357
 4545SOL    HW125094   0.971   3.472   3.849  1.1949  0.5428 -0.4503
 4545SOL    HW225095   1.094   3.452   3.922 -0.0531 -0.3241 -0.1205
 4546SOL     OW25096   3.975   2.592   9.954 -0.0010  0.6125 -0.4160
 4546SOL    HW125097   4.039   2.526   9.929 -0.2001 -0.3204  1.5093
 4546SOL    HW225098   3.954   2.627   9.868  1.6697 -1.5530 -1.7051
 4547SOL     OW25099   3.289   1.816   3.497  0.3465 -0.2051 -0.0237
 4547SOL    HW125100   3.214   1.795   3.441  1.3987 -1.0929 -1.1048
 4547SOL    HW225101   3.334   1.881   3.444 -1.0072 -0.0326 -0.9611
 4548SOL     OW25102   1.892   0.403   5.137  0.1539 -0.3351  0.3281
 4548SOL    HW125103   1.820   0.412   5.075  0.9597  0.1013 -0.5413
 4548SOL    HW225104   1.855   0.449   5.212 -0.4254 -1.3020  0.6403
 4549SOL     OW25105   1.461   2.308   1.314  0.2193 -0.2703 -0.4939
 4549SOL    HW125106   1.485   2.399   1.330  0.1692  0.1675 -2.9144
 4549SOL    HW225107   1.457   2.303   1.218 -1.7445  0.6496 -0.4637
 4550SOL     OW25108   4.587   0.574   9.776 -0.1059 -0.6717 -0.3676
 4550SOL    HW125109   4.552   0.530   9.699 -1.0534  0.7624 -0.7727
 4550SOL    HW225110   4.556   0.516   9.845  0.5231 -0.6988 -0.1127
 4551SOL     OW25111   2.542   3.019  12.633  0.0695  0.1707  0.1649
 4551SOL    HW125112   2.543   2.966  12.554 -0.2793 -0.7512  0.7859
 4551SOL    HW225113   2.632   3.008  12.663 -0.1645 -2.0936 -0.0249
 4552SOL     OW25114   2.464   1.134  13.020  0.4614 -0.6933  0.1691
 4552SOL    HW125115   2.501   1.065  12.966 -2.3691 -0.9932 -1.4208
 4552SOL    HW225116   2.495   1.216  12.982  0.9421 -1.1897 -0.4971
 4553SOL     OW25117   3.221   2.348   4.236  0.4468 -0.1319 -0.2470
 4553SOL    HW125118   3.241   2.264   4.276 -2.8799  0.0391  1.8055
 4553SOL    HW225119   3.234   2.313   4.148 -0.1763  0.3981 -0.5495
 4554SOL     OW25120   3.501   2.772   6.803 -0.0415 -0.2258  0.4642
 4554SOL    HW125121   3.528   2.863   6.790 -1.8164  0.2175 -0.0796
 4554SOL    HW225122   3.412   2.786   6.835  0.2340 -0.5541  1.3860
 4555SOL     OW25123   2.629   2.319   2.227 -0.3073 -0.3366  0.4288
 4555SOL    HW125124   2.683   2.329   2.305 -0.2410 -2.1637  0.6143
 4555SOL    HW225125   2.594   2.408   2.221  0.3471 -0.1073  0.0483
 4556SOL     OW25126   4.538   0.796   5.726  0.1104  0.0125 -0.2048
 4556SOL    HW125127   4.606   0.862   5.727  0.0422  0.0885 -0.4665
 4556SOL    HW225128   4.483   0.828   5.654  0.1057 -2.6729 -1.4051
 4557SOL     OW25129   1.056   0.756   1.852  0.2585  0.5003  0.2357
 4557SOL    HW125130   0.986   0.795   1.799 -1.5619 -3.3273 -0.1569
 4557SOL    HW225131   1.008   0.706   1.918 -1.2438  0.5049 -0.8524
 4558SOL     OW25132   2.909   1.110   9.964  0.1234 -0.3102 -0.0147
 4558SOL    HW125133   2.880   1.154   9.884 -0.7099 -0.9802 -0.0839
 4558SOL    HW225134   2.907   1.181  10.028 -1.1098 -0.0407 -0.3644
 4559SOL     OW25135   0.675   4.083   2.373  0.2909  0.2049 -0.0958
 4559SOL    HW125136   0.732   4.030   2.317  0.7589 -0.1798  0.7468
 4559SOL    HW225137   0.740   4.090   2.443 -0.6493 -1.8448  0.9865
 4560SOL     OW25138   2.216   3.503   6.141 -0.6789 -0.3228  0.3260
 4560SOL    HW125139   2.274   3.427   6.133 -0.1172  0.2120 -0.5876
 4560SOL    HW225140   2.217   3.534   6.050 -0.4290 -0.3872  0.3065
 4561SOL     OW25141   1.370   0.709   4.344  0.1758 -0.3372 -0.2510
 4561SOL    HW125142   1.433   0.763   4.297 -0.2063 -1.0698 -1.5982
 4561SOL    HW225143   1.293   0.764   4.326  1.1678  0.7911 -1.0091
 4562SOL     OW25144   1.249   2.638  14.682  0.0235  0.0328 -0.8942
 4562SOL    HW125145   1.207   2.724  14.675  0.0399  0.0089 -1.2920
 4562SOL    HW225146   1.215   2.618  14.769 -0.9192 -0.1066 -1.2965
 4563SOL     OW25147   2.998   3.059  13.062  0.3980 -0.2410 -0.3017
 4563SOL    HW125148   2.909   3.091  13.078  0.6581  0.2256  0.2083
 4563SOL    HW225149   2.986   2.992  12.995 -1.0164  1.0617 -1.3545
 4564SOL     OW25150   3.007   0.778   9.708 -0.1877  0.0420  0.4467
 4564SOL    HW125151   2.955   0.772   9.628 -0.2699  0.5315  0.4623
 4564SOL    HW225152   2.948   0.771   9.783 -1.3848  0.9865 -0.4028
 4565SOL     OW25153   2.839   2.246   1.566  0.1201  0.4308 -1.0425
 4565SOL    HW125154   2.824   2.337   1.541  2.5973  1.2739  0.5725
 4565SOL    HW225155   2.916   2.256   1.622 -1.2032  0.4149  0.7865
 4566SOL     OW25156   3.764   0.448   5.809  0.2589  0.9327  0.2134
 4566SOL    HW125157   3.814   0.524   5.778  2.5652 -0.4765  0.4322
 4566SOL    HW225158   3.675   0.480   5.820  0.4318  1.5153 -0.0364
 4567SOL     OW25159   2.457   1.945   2.195  0.3490  0.8086  0.1940
 4567SOL    HW125160   2.472   2.018   2.255 -0.3086  0.0793  1.2470
 4567SOL    HW225161   2.490   1.871   2.245  2.9121  1.2992 -0.7993
 4568SOL     OW25162   2.928   0.589   3.110  0.4071 -0.2009 -0.2044
 4568SOL    HW125163   3.007   0.624   3.067 -0.8092  0.9311 -1.5093
 4568SOL    HW225164   2.864   0.586   3.039 -0.0055  2.0287  0.0471
 4569SOL     OW25165   0.631   0.731   2.284 -0.0646 -0.1258 -0.4306
 4569SOL    HW125166   0.679   0.749   2.203 -2.6933  0.5406 -1.8281
 4569SOL    HW225167   0.690   0.761   2.353 -1.1231 -0.7631  0.7510
 4570SOL     OW25168   3.346   3.988   4.393  0.1211  0.2180  0.2513
 4570SOL    HW125169   3.262   3.988   4.440 -0.5625  0.0048 -0.9604
 4570SOL    HW225170   3.375   3.897   4.404  3.8712  1.6468  1.9474
 4571SOL     OW25171   4.529   1.246   3.255  0.3427 -0.4244 -0.5286
 4571SOL    HW125172   4.550   1.177   3.192  2.6298  1.3637 -1.7380
 4571SOL    HW225173   4.612   1.283   3.286  0.2268 -0.5656 -0.0415
 4572SOL     OW25174   0.611   0.840   7.948  0.2353 -0.0936 -0.2010
 4572SOL    HW125175   0.653   0.926   7.957  0.1194 -0.2059  1.4269
 4572SOL    HW225176   0.556   0.839   8.027  0.9080  0.2134  0.2693
 4573SOL     OW25177   2.935   2.866  12.794 -0.4297 -0.2615  0.9644
 4573SOL    HW125178   2.851   2.912  12.793 -0.8809 -1.1229 -0.5223
 4573SOL    HW225179   2.993   2.940  12.809 -1.8621  0.7623  1.4279
 4574SOL     OW25180   2.705   2.226   8.799 -0.0140  0.2985 -0.0541
 4574SOL    HW125181   2.769   2.283   8.756 -0.1391 -1.0073 -1.9650
 4574SOL    HW225182   2.756   2.175   8.861 -0.3731  0.7286  0.6018
 4575SOL     OW25183   1.648   0.248   8.721 -0.1849 -0.1995 -0.0668
 4575SOL    HW125184   1.579   0.272   8.660 -0.3771  1.4118  0.7808
 4575SOL    HW225185   1.608   0.191   8.787  3.0793 -0.7160  1.4876
 4576SOL     OW25186   0.839   0.401   3.114  0.3677  0.0871 -0.0104
 4576SOL    HW125187   0.785   0.391   3.192  1.1250 -0.8248  0.3978
 4576SOL    HW225188   0.821   0.324   3.060 -1.0193  1.1288 -1.0434
 4577SOL     OW25189   2.062   0.008   8.305 -0.5742 -0.2637  0.0501
 4577SOL    HW125190   2.148   4.695   8.331 -1.4003 -2.1726  0.3086
 4577SOL    HW225191   2.062   4.704   8.212  0.6506  1.5153 -0.4199
 4578SOL     OW25192   1.944   1.601   9.820 -0.4431  0.4114 -0.2890
 4578SOL    HW125193   2.018   1.599   9.759  0.1165 -2.3956  0.5058
 4578SOL    HW225194   1.932   1.696   9.822  2.6484  0.7228  2.4611
 4579SOL     OW25195   3.471   0.593   3.303  0.4996 -0.7330  0.1140
 4579SOL    HW125196   3.505   0.617   3.217 -0.9412  1.0919  0.0557
 4579SOL    HW225197   3.494   0.668   3.358 -1.4313 -0.4711  0.5495
 4580SOL     OW25198   3.257   2.275   7.193 -0.2011 -0.3953 -0.6309
 4580SOL    HW125199   3.348   2.269   7.163  0.3053  0.4033  0.7336
 4580SOL    HW225200   3.257   2.368   7.218 -0.1555 -0.0860 -1.8019
 4581SOL     OW25201   4.495   2.371   0.643 -0.1232  0.1282  0.0274
 4581SOL    HW125202   4.502   2.459   0.607  1.0577 -0.7574 -1.9038
 4581SOL    HW225203   4.413   2.376   0.692 -1.0142 -1.3358 -1.2966
 4582SOL     OW25204   3.222   4.319  17.618 -0.2022  0.1605  0.1354
 4582SOL    HW125205   3.144   4.330  17.564 -1.7026 -0.2811  2.2131
 4582SOL    HW225206   3.245   4.230  17.594 -1.5272 -0.1912  0.1676
 4583SOL     OW25207   1.481   3.585   4.139  0.0151 -0.3808 -0.0117
 4583SOL    HW125208   1.482   3.499   4.096 -0.1987 -0.1202 -0.5389
 4583SOL    HW225209   1.533   3.638   4.079 -0.6737  0.5734  0.2476
 4584SOL     OW25210   3.386   1.014   6.821  0.2934 -0.2291  0.0840
 4584SOL    HW125211   3.433   1.042   6.899  1.7526  2.3969 -1.7270
 4584SOL    HW225212   3.386   1.101   6.783 -0.3139  0.1748  1.0115
 4585SOL     OW25213   0.941   4.331   3.016  0.4295  0.4432  0.1554
 4585SOL    HW125214   0.946   4.249   3.065  2.4164  0.2468 -0.4022
 4585SOL    HW225215   0.855   4.317   2.975 -1.3624  3.8416  2.7458
 4586SOL     OW25216   1.121   1.387  12.053  0.0759  0.4431 -0.6820
 4586SOL    HW125217   1.065   1.426  11.986 -3.3319 -1.6403  0.9469
 4586SOL    HW225218   1.196   1.446  12.044  0.3563  0.1000 -0.6387
 4587SOL     OW25219   3.206   4.590   3.389 -0.3989  0.1331 -0.0914
 4587SOL    HW125220   3.250   4.602   3.473  1.0273  1.8227 -1.1049
 4587SOL    HW225221   3.185   4.682   3.376 -0.7038  0.1746  0.6649
 4588SOL     OW25222   1.125   3.919  11.901 -0.1768  0.3300  0.0568
 4588SOL    HW125223   1.141   3.928  11.995 -1.0501 -0.3887  0.2776
 4588SOL    HW225224   1.058   3.852  11.886  0.9409 -0.6627 -0.4876
 4589SOL     OW25225   2.472   2.470   4.507  0.2533 -0.4509 -0.0472
 4589SOL    HW125226   2.562   2.462   4.475  0.0618 -0.8528 -0.4924
 4589SOL    HW225227   2.476   2.433   4.595 -2.7877 -1.8344 -0.4877
 4590SOL     OW25228   2.923   0.112  11.507 -0.3002 -0.9740  0.4197
 4590SOL    HW125229   2.990   0.109  11.438  0.1813  2.5246  0.7353
 4590SOL    HW225230   2.946   0.193  11.552 -4.1097  0.2252  0.1962
 4591SOL     OW25231   3.050   4.025   6.200  0.0398  0.1833  0.0986
 4591SOL    HW125232   3.016   4.024   6.111  0.0451  0.4923  0.0937
 4591SOL    HW225233   3.076   4.116   6.209 -2.1622  0.7315  0.7504
 4592SOL     OW25234   3.098   0.742   5.763 -0.2285 -0.0647 -0.4988
 4592SOL    HW125235   3.094   0.764   5.670 -1.5367  0.4381 -0.3212
 4592SOL    HW225236   3.010   0.706   5.773  0.1036 -0.0826  2.4423
 4593SOL     OW25237   3.002   0.103   6.885  1.0609  0.0171  0.2899
 4593SOL    HW125238   2.939   0.173   6.902 -0.9065 -2.1486  1.9614
 4593SOL    HW225239   3.018   0.070   6.974 -3.2203 -1.5380  0.5119
 4594SOL     OW25240   3.543   3.604   9.706 -0.2830 -0.4433  0.0115
 4594SOL    HW125241   3.627   3.650   9.714  0.7676 -2.0326 -1.8825
 4594SOL    HW225242   3.518   3.606   9.798  0.2324  0.3815  0.1374
 4595SOL     OW25243   3.929   4.443   8.381  0.6231  0.2205 -0.2260
 4595SOL    HW125244   4.019   4.474   8.394  1.5051 -1.9195 -1.3340
 4595SOL    HW225245   3.959   4.354   8.400 -0.4962 -0.1184 -0.0535
 4596SOL     OW25246   4.394   0.670   6.207  0.1004  0.1533  0.3306
 4596SOL    HW125247   4.366   0.582   6.182  1.4661 -0.2747  0.3238
 4596SOL    HW225248   4.378   0.661   6.301 -0.2597 -2.1494  0.0404
 4597SOL     OW25249   3.739   0.867  16.794  0.1087 -0.4185 -0.1039
 4597SOL    HW125250   3.824   0.905  16.774  1.1200 -1.0430  2.9234
 4597SOL    HW225251   3.679   0.938  16.819 -1.9142 -1.8471 -0.8855
 4598SOL     OW25252   0.188   3.498   5.291 -0.2125  0.1738 -0.6121
 4598SOL    HW125253   0.165   3.589   5.271  0.5089  0.7345  1.1258
 4598SOL    HW225254   0.280   3.489   5.264  0.1954  0.6369  0.6312
 4599SOL     OW25255   0.723   1.720   1.105  0.2927  0.5657  0.8032
 4599SOL    HW125256   0.634   1.722   1.139  0.9994 -1.5371  2.7777
 4599SOL    HW225257   0.730   1.792   1.042  0.2668 -0.6430 -0.5942
 4600SOL     OW25258   4.017   1.429   4.222  0.4962 -0.1172  0.7103
 4600SOL    HW125259   3.994   1.376   4.298  0.1934 -0.5256  0.3309
 4600SOL    HW225260   3.997   1.519   4.250 -1.1785 -0.1096 -0.5901
 4601SOL     OW25261   1.645   4.162   6.004 -0.7681 -0.2015  0.2700
 4601SOL    HW125262   1.589   4.190   5.931 -0.3259  0.1118  0.0430
 4601SOL    HW225263   1.708   4.231   6.025  0.3863 -1.6405  1.5148
 4602SOL     OW25264   0.569   1.819   0.464 -0.1661 -0.4165 -0.0847
 4602SOL    HW125265   0.540   1.748   0.523  0.6861  1.6685  2.8110
 4602SOL    HW225266   0.535   1.902   0.498 -1.1329 -0.6424 -0.4735
 4603SOL     OW25267   2.204   1.356  16.231 -0.4394 -0.5282  0.3597
 4603SOL    HW125268   2.196   1.299  16.154 -0.7860 -1.0940  0.8203
 4603SOL    HW225269   2.198   1.443  16.191  1.1773 -0.5039  0.1766
 4604SOL     OW25270   3.143   1.802  16.822 -0.5222  0.4193 -0.0781
 4604SOL    HW125271   3.122   1.819  16.913  0.5579  1.5656 -0.0398
 4604SOL    HW225272   3.076   1.737  16.800 -1.3837  2.0682 -2.3783
 4605SOL     OW25273   3.164   3.545   7.700 -0.5807  0.5825  0.1025
 4605SOL    HW125274   3.239   3.486   7.699 -1.5937 -0.7184  1.0248
 4605SOL    HW225275   3.207   3.626   7.671 -1.6629  0.4863 -1.7093
 4606SOL     OW25276   2.914   1.479  15.624  0.5208  0.4830  0.5545
 4606SOL    HW125277   2.909   1.546  15.555  1.1536 -0.4528 -0.3925
 4606SOL    HW225278   2.823   1.453  15.607  0.6399  0.0274  0.6262
 4607SOL     OW25279   0.688   4.092   3.263  0.1243  0.0609 -0.5355
 4607SOL    HW125280   0.704   4.008   3.305 -2.2945 -0.3694 -0.4332
 4607SOL    HW225281   0.594   4.087   3.242  0.3046 -2.1565 -0.7632
 4608SOL     OW25282   0.451   0.759  12.663 -0.1226 -0.4778 -0.0666
 4608SOL    HW125283   0.409   0.839  12.629 -2.2296 -0.6408  2.1681
 4608SOL    HW225284   0.461   0.715  12.578 -0.2310 -0.5786 -0.0272
 4609SOL     OW25285   2.345   2.492   7.598  0.2454 -0.2792  0.6358
 4609SOL    HW125286   2.304   2.476   7.683  1.3608 -0.4501  1.1393
 4609SOL    HW225287   2.378   2.405   7.576 -0.4969  0.9195 -5.3272
 4610SOL     OW25288   4.129   2.061   6.389  0.6301  0.0092  0.3694
 4610SOL    HW125289   4.097   2.143   6.351  2.4017  0.9308  0.8795
 4610SOL    HW225290   4.058   2.037   6.449  0.0776  0.0221 -0.2895
 4611SOL     OW25291   4.144   2.486   2.092 -0.4839  0.3768  0.7328
 4611SOL    HW125292   4.162   2.521   2.004 -0.7349  1.3844  1.0815
 4611SOL    HW225293   4.177   2.561   2.141 -0.6561 -0.6145  2.3698
 4612SOL     OW25294   1.739   1.205   8.489  0.3376 -0.0091 -0.0486
 4612SOL    HW125295   1.771   1.140   8.426  0.1960 -0.2389  0.1137
 4612SOL    HW225296   1.812   1.263   8.510  0.1915 -0.7170  2.4528
 4613SOL     OW25297   3.912   3.601  11.618  0.2944  0.5295  0.2337
 4613SOL    HW125298   3.930   3.688  11.654 -1.7176  2.0936 -2.5618
 4613SOL    HW225299   3.937   3.552  11.695 -0.3566 -1.6258 -0.9267
 4614SOL     OW25300   0.525   1.434  14.190  0.0122 -0.0944 -0.2909
 4614SOL    HW125301   0.513   1.438  14.285  0.6029 -1.2134 -0.1669
 4614SOL    HW225302   0.602   1.486  14.168 -0.5944  0.5983 -0.7782
 4615SOL     OW25303   2.470   4.186   4.112 -0.1720 -0.4732 -0.1578
 4615SOL    HW125304   2.382   4.175   4.078 -0.6915  2.1762  0.3449
 4615SOL    HW225305   2.482   4.279   4.090  0.9230  0.0889  2.7615
 4616SOL     OW25306   3.534   0.740   2.706  0.0968 -0.3837 -0.5314
 4616SOL    HW125307   3.492   0.719   2.623  0.3349  2.0659 -1.2819
 4616SOL    HW225308   3.475   0.812   2.729  0.0064 -0.7612  0.4327
 4617SOL     OW25309   4.123   0.828   0.978  0.3938 -0.1477  0.4107
 4617SOL    HW125310   4.141   0.871   1.062  1.4162 -0.2461  0.2404
 4617SOL    HW225311   4.200   0.776   0.952 -1.8619 -4.2362  1.9431
 4618SOL     OW25312   0.531   3.752  16.216  0.0101  0.5598  0.0853
 4618SOL    HW125313   0.496   3.835  16.185 -1.5350 -0.5945 -1.2988
 4618SOL    HW225314   0.618   3.776  16.248  0.1913 -1.7722  1.3639
 4619SOL     OW25315   3.916   0.841  15.390 -0.9314  0.5038  0.0199
 4619SOL    HW125316   3.991   0.788  15.418 -0.3493  1.3941  0.1615
 4619SOL    HW225317   3.856   0.775  15.355 -1.5183  2.2862 -2.3241
 4620SOL     OW25318   0.539   4.200   6.365  0.7340 -0.4481  0.1216
 4620SOL    HW125319   0.466   4.176   6.308  1.5732  0.8303 -1.4815
 4620SOL    HW225320   0.603   4.217   6.296 -0.7784  1.8193 -0.7113
 4621SOL     OW25321   0.226   2.647  11.563  0.2825  0.2843  0.6941
 4621SOL    HW125322   0.167   2.662  11.638  2.7968  4.6339  1.8149
 4621SOL    HW225323   0.212   2.556  11.539  1.4135  0.3363 -0.1248
 4622SOL     OW25324   3.685   4.277   4.993  0.3999 -0.0700  0.0559
 4622SOL    HW125325   3.770   4.247   5.024  0.3636 -1.7715 -1.4689
 4622SOL    HW225326   3.626   4.226   5.049 -0.1027  0.0909 -0.3275
 4623SOL     OW25327   3.385   1.973   6.351  0.0066  0.7634 -0.8035
 4623SOL    HW125328   3.326   2.038   6.389  0.2119  0.3994  0.1430
 4623SOL    HW225329   3.329   1.914   6.301  1.5450 -0.2219 -1.3757
 4624SOL     OW25330   4.651   4.711  12.526 -0.4216 -0.6149 -0.2308
 4624SOL    HW125331   4.668   4.617  12.529 -0.5142 -0.6141  0.2207
 4624SOL    HW225332   4.575   4.713  12.584 -0.0467  0.7900  0.2213
 4625SOL     OW25333   3.621   3.025  13.967  0.0528  0.8627 -0.3359
 4625SOL    HW125334   3.614   3.117  13.943 -1.0169  1.3607  1.8556
 4625SOL    HW225335   3.690   3.012  14.032 -0.9858  3.1393  1.2324
 4626SOL     OW25336   0.518   3.494  13.665  0.1286  0.0038 -0.1232
 4626SOL    HW125337   0.501   3.513  13.757  1.0931  0.5111 -0.0594
 4626SOL    HW225338   0.540   3.401  13.664  1.5441  0.3406 -0.2461
 4627SOL     OW25339   4.618   4.237   7.161  0.1069  0.3415  0.5516
 4627SOL    HW125340   4.619   4.189   7.078 -0.9749 -1.4815  1.5916
 4627SOL    HW225341   4.655   4.315   7.121 -1.8357  0.8510 -0.2491
 4628SOL     OW25342   0.698   2.310   0.187  0.3311  0.0027 -0.3847
 4628SOL    HW125343   0.608   2.341   0.197  0.3842  0.0700 -0.0988
 4628SOL    HW225344   0.740   2.396   0.192  2.2066 -0.9522  0.0841
 4629SOL     OW25345   2.739   3.381   4.047  0.3013  0.2052 -0.5058
 4629SOL    HW125346   2.704   3.330   4.120 -2.3148  1.1337 -1.1234
 4629SOL    HW225347   2.741   3.468   4.086  0.5946 -0.6832  1.4429
 4630SOL     OW25348   0.986   2.449   3.003 -0.9179 -0.0221  0.1422
 4630SOL    HW125349   0.956   2.540   2.997  0.6702  0.5068 -0.0944
 4630SOL    HW225350   1.020   2.453   3.092 -1.0043 -0.6455  0.2018
 4631SOL     OW25351   4.466   1.457  12.015  0.3379  0.2969 -0.4834
 4631SOL    HW125352   4.461   1.364  12.035 -0.4229 -0.0351 -2.2244
 4631SOL    HW225353   4.398   1.495  12.071  0.8560 -1.2094  1.1660
 4632SOL     OW25354   3.114   3.577   2.723 -0.4177  0.4769  0.1540
 4632SOL    HW125355   3.178   3.507   2.737 -0.5322  0.5120  0.8705
 4632SOL    HW225356   3.142   3.603   2.636  2.3360 -2.2051  0.2355
 4633SOL     OW25357   2.457   4.642  11.414 -0.0594 -0.3377  0.4928
 4633SOL    HW125358   2.525   4.702  11.381 -0.1250 -0.3754  0.2878
 4633SOL    HW225359   2.391   4.641  11.345 -0.1262 -0.8518  0.5632
 4634SOL     OW25360   3.083   3.106   6.820  0.1898 -0.3062 -0.1560
 4634SOL    HW125361   3.100   3.038   6.885 -0.3582 -0.2640  0.0314
 4634SOL    HW225362   2.999   3.137   6.855 -0.3370 -1.5242 -0.3482
 4635SOL     OW25363   1.732   0.984   4.203 -0.0201  0.2635 -0.5732
 4635SOL    HW125364   1.821   0.987   4.238 -0.4851  0.1604  0.6199
 4635SOL    HW225365   1.688   0.961   4.285 -0.5125  1.9558 -0.3590
 4636SOL     OW25366   0.163   4.172  16.268 -0.7369 -0.3365 -0.3418
 4636SOL    HW125367   0.198   4.088  16.297 -2.2476 -1.1173 -0.7485
 4636SOL    HW225368   0.071   4.167  16.295 -0.7055 -2.5304 -0.6077
 4637SOL     OW25369   1.645   4.117   7.225  0.1903 -0.4672 -0.5873
 4637SOL    HW125370   1.727   4.167   7.234  0.9737 -1.9095  0.2591
 4637SOL    HW225371   1.606   4.129   7.311 -0.1988  0.8220 -0.9427
 4638SOL     OW25372   0.664   3.196   6.968 -0.2004 -0.0267  0.1813
 4638SOL    HW125373   0.591   3.258   6.980 -1.7578 -1.8277 -0.0123
 4638SOL    HW225374   0.734   3.249   6.930  1.2171 -2.0759 -0.0454
 4639SOL     OW25375   2.745   0.225   3.979 -0.1165  0.0547 -0.4440
 4639SOL    HW125376   2.831   0.207   3.942 -0.0444  0.4723 -0.4867
 4639SOL    HW225377   2.722   0.134   3.999 -0.5507  0.1873 -0.3317
 4640SOL     OW25378   4.185   2.756   2.507 -0.4379  0.0529  0.2308
 4640SOL    HW125379   4.267   2.806   2.501 -0.7347  0.2508 -1.9282
 4640SOL    HW225380   4.151   2.788   2.590 -1.4846  1.4309 -0.7457
 4641SOL     OW25381   2.878   1.180   3.243  0.1349  0.9086 -0.0914
 4641SOL    HW125382   2.817   1.139   3.305  1.3559  1.8149  1.7167
 4641SOL    HW225383   2.965   1.154   3.273 -0.4014 -0.2047  0.4954
 4642SOL     OW25384   2.300   4.385  14.351  0.1382 -0.2550 -0.3649
 4642SOL    HW125385   2.313   4.357  14.260  1.2589 -0.7555 -0.0516
 4642SOL    HW225386   2.386   4.359  14.386 -0.8845  1.1937  3.2136
 4643SOL     OW25387   4.073   2.083  13.747  0.4291  0.0092 -0.7078
 4643SOL    HW125388   4.134   2.060  13.817 -1.0025 -0.6484  0.2979
 4643SOL    HW225389   4.133   2.124  13.684  1.7315  0.1428  0.6106
 4644SOL     OW25390   1.168   1.379   2.423  0.4236 -0.5522 -0.2429
 4644SOL    HW125391   1.187   1.288   2.444  1.7979 -0.7796 -2.4433
 4644SOL    HW225392   1.255   1.417   2.432 -0.0575  1.2422 -2.9945
 4645SOL     OW25393   2.159   4.539   1.286 -0.2059 -0.5594 -0.0318
 4645SOL    HW125394   2.214   4.470   1.325  2.3540  0.5570 -1.7253
 4645SOL    HW225395   2.071   4.525   1.322  0.2458 -2.0120  0.5172
 4646SOL     OW25396   4.183   4.369   1.203  0.2653  0.5268  0.4074
 4646SOL    HW125397   4.123   4.367   1.278  0.7571 -1.2348  0.7603
 4646SOL    HW225398   4.221   4.457   1.206 -1.7735  1.4838 -1.4266
 4647SOL     OW25399   4.454   2.114   4.391 -0.1863 -0.4773 -0.7316
 4647SOL    HW125400   4.523   2.138   4.330 -0.2751  2.9929  0.5618
 4647SOL    HW225401   4.425   2.028   4.359 -2.9609  0.4886 -0.8536
 4648SOL     OW25402   2.096   4.244   8.644 -0.1316  0.1522 -0.1636
 4648SOL    HW125403   2.030   4.289   8.698  0.8185 -2.3197  3.0705
 4648SOL    HW225404   2.098   4.298   8.565  0.3663  1.0920  0.4950
 4649SOL     OW25405   2.752   4.315   2.742  0.5778  0.0012 -0.2753
 4649SOL    HW125406   2.659   4.329   2.723  0.6558 -1.0016 -1.4498
 4649SOL    HW225407   2.752   4.219   2.750 -0.0475 -0.0503 -0.8043
 4650SOL     OW25408   1.883   2.496   1.693  0.5723 -0.6086  0.6027
 4650SOL    HW125409   1.872   2.409   1.731 -1.3346 -0.5859  0.1002
 4650SOL    HW225410   1.943   2.474   1.621 -1.1998 -0.7049 -0.8485
 4651SOL     OW25411   2.948   4.676   1.270  0.1624  0.4022 -0.0008
 4651SOL    HW125412   3.019   4.659   1.332 -0.9578 -1.0756  0.8684
 4651SOL    HW225413   2.904   4.594   1.250  0.2266 -0.1131  1.9644
 4652SOL     OW25414   0.610   0.444  13.533  0.4237 -0.0256  0.1191
 4652SOL    HW125415   0.604   0.481  13.444 -0.3015  0.2701  0.2952
 4652SOL    HW225416   0.614   0.350  13.516 -1.8556 -0.4068  1.7578
 4653SOL     OW25417   4.651   3.043  15.695  0.5419 -0.2753  0.3878
 4653SOL    HW125418   4.626   2.960  15.736 -0.1774 -0.6079 -0.7189
 4653SOL    HW225419   4.694   3.017  15.614 -0.2601 -0.8852  0.1530
 4654SOL     OW25420   0.668   1.546   2.405  0.3503 -0.1205 -0.2370
 4654SOL    HW125421   0.746   1.492   2.400  1.5431  1.2239  3.2752
 4654SOL    HW225422   0.709   1.628   2.432  0.6778  0.2489 -1.9060
 4655SOL     OW25423   3.540   4.566   3.007 -0.5932  0.1876  0.3022
 4655SOL    HW125424   3.454   4.607   3.008 -0.7539 -0.0762 -3.2602
 4655SOL    HW225425   3.547   4.527   3.095 -0.3259  0.2906  0.3285
 4656SOL     OW25426   2.709   2.557  12.573 -0.6563 -0.0917 -0.1478
 4656SOL    HW125427   2.621   2.589  12.551 -0.7861  0.9860  1.9139
 4656SOL    HW225428   2.754   2.593  12.498  1.0650 -1.6028  0.1614
 4657SOL     OW25429   1.847   3.292   3.001  0.9098 -0.6438 -0.1061
 4657SOL    HW125430   1.835   3.202   3.030 -2.8064  0.6005  2.2544
 4657SOL    HW225431   1.839   3.285   2.906  0.5760 -0.0134 -0.1278
 4658SOL     OW25432   1.973   3.604   2.500 -0.0014 -0.0134 -0.1404
 4658SOL    HW125433   2.020   3.546   2.560 -1.7048 -2.2015 -0.9232
 4658SOL    HW225434   1.882   3.598   2.529  0.2321  4.4182  1.5070
 4659SOL     OW25435   2.057   2.645   7.844 -0.1114 -0.5233  0.1540
 4659SOL    HW125436   2.139   2.598   7.831 -0.6155 -1.1054 -0.8852
 4659SOL    HW225437   2.010   2.594   7.911  2.0147 -1.8043  0.6529
 4660SOL     OW25438   1.385   1.967   0.498  0.1683 -0.6662 -0.2184
 4660SOL    HW125439   1.378   2.049   0.449  0.5825 -0.9907 -0.8117
 4660SOL    HW225440   1.441   1.998   0.569 -1.7539  0.0996  0.9871
 4661SOL     OW25441   0.804   3.941  10.068 -0.2980 -0.0633  0.2293
 4661SOL    HW125442   0.878   3.942  10.008  0.0969 -0.1755  0.7104
 4661SOL    HW225443   0.826   3.871  10.130 -3.4556 -1.8485 -0.6978
 4662SOL     OW25444   3.223   1.572   5.698  0.0554 -0.1317 -0.1572
 4662SOL    HW125445   3.158   1.624   5.652 -0.6233 -0.9531 -0.1264
 4662SOL    HW225446   3.298   1.612   5.654  0.5131 -0.1358  0.6104
 4663SOL     OW25447   1.644   2.426   2.053  0.2387 -0.0590 -0.0552
 4663SOL    HW125448   1.715   2.364   2.039  1.1913  0.5712  2.0416
 4663SOL    HW225449   1.583   2.367   2.098 -0.5245  1.4858  0.9245
 4664SOL     OW25450   3.648   0.144  15.896 -0.7324 -0.0677 -0.1963
 4664SOL    HW125451   3.655   0.069  15.836 -0.4222 -0.6033  0.5046
 4664SOL    HW225452   3.576   0.201  15.871 -0.7537 -0.4128 -0.9146
 4665SOL     OW25453   0.091   2.260   6.131  0.7805 -0.7744  0.0044
 4665SOL    HW125454   0.155   2.243   6.200  1.1980  1.5416  0.1802
 4665SOL    HW225455   0.018   2.291   6.185  1.8633  1.2734  0.2843
 4666SOL     OW25456   0.383   1.287  12.672 -0.1662  0.2113  0.6547
 4666SOL    HW125457   0.323   1.338  12.618  0.6811  0.0475 -0.4472
 4666SOL    HW225458   0.346   1.298  12.760 -0.2129  2.7561  0.3027
 4667SOL     OW25459   1.630   1.878   6.490  0.3583 -0.7908  0.6402
 4667SOL    HW125460   1.585   1.904   6.570  1.8590 -0.7258  1.4709
 4667SOL    HW225461   1.561   1.831   6.445 -0.4511 -1.1118  2.2025
 4668SOL     OW25462   2.562   3.262   8.049  0.4803 -0.0473 -0.2317
 4668SOL    HW125463   2.649   3.283   8.014 -0.0647  0.1513 -1.4818
 4668SOL    HW225464   2.512   3.309   7.982  0.4064 -1.0663 -0.8890
 4669SOL     OW25465   0.131   1.070  14.558 -0.1150 -0.1078  0.1026
 4669SOL    HW125466   0.164   1.025  14.480  0.4910  0.2545  0.1438
 4669SOL    HW225467   0.198   1.041  14.620 -0.4310 -0.1834  0.4028
 4670SOL     OW25468   1.473   3.744  13.159 -0.0314  1.3001  0.2403
 4670SOL    HW125469   1.516   3.822  13.193  1.2438 -0.2392  2.1640
 4670SOL    HW225470   1.462   3.760  13.065 -2.0619 -2.5994 -0.1766
 4671SOL     OW25471   0.939   3.218  16.802  0.0504 -0.0860  0.1053
 4671SOL    HW125472   0.944   3.127  16.832 -1.1450  0.3481  1.6697
 4671SOL    HW225473   0.850   3.250  16.821  0.0421  0.7332 -1.3554
 4672SOL     OW25474   2.141   2.082   6.514  0.8207 -0.0115 -0.2450
 4672SOL    HW125475   2.178   2.014   6.457  0.0975 -1.7208  1.3586
 4672SOL    HW225476   2.115   2.146   6.448  1.3090 -0.8274 -1.2444
 4673SOL     OW25477   1.125   2.478   4.118 -0.3058 -0.6621 -0.0938
 4673SOL    HW125478   1.152   2.568   4.132 -0.8062  0.1250 -4.1770
 4673SOL    HW225479   1.195   2.430   4.074  1.2197 -0.1119  1.7147
 4674SOL     OW25480   3.624   1.199  14.860  0.7695 -0.7525 -0.2019
 4674SOL    HW125481   3.624   1.143  14.782  0.0349  0.5617 -1.1587
 4674SOL    HW225482   3.641   1.145  14.937  3.4487  0.0802 -0.2189
 4675SOL     OW25483   0.001   2.807   6.480  0.0167  0.2035 -0.3548
 4675SOL    HW125484   4.654   2.750   6.444  0.2168  0.0225 -0.4497
 4675SOL    HW225485   4.696   2.888   6.436 -3.5469 -0.5300  0.4154
 4676SOL     OW25486   0.038   0.631   4.306 -0.0771  0.2552 -0.4355
 4676SOL    HW125487   4.707   0.704   4.271 -1.2649 -1.5606 -2.4677
 4676SOL    HW225488   4.718   0.548   4.279 -0.3845  0.4990 -0.7294
 4677SOL     OW25489   3.361   0.698   7.455 -0.3026  0.4442  0.0738
 4677SOL    HW125490   3.364   0.714   7.549 -0.2773  0.5325  0.0574
 4677SOL    HW225491   3.335   0.606   7.459  0.0813  0.2754 -1.1361
 4678SOL     OW25492   3.366   1.041  12.277 -0.3468 -0.5229 -0.3384
 4678SOL    HW125493   3.380   0.973  12.343 -1.4821 -1.8412 -1.4610
 4678SOL    HW225494   3.459   1.046  12.253 -0.0368  3.3411  1.5708
 4679SOL     OW25495   3.449   0.863   1.774 -0.4057 -0.0086  0.1250
 4679SOL    HW125496   3.433   0.828   1.687  2.4839 -0.2316 -0.3123
 4679SOL    HW225497   3.362   0.892   1.801 -1.0433  0.4534 -2.3859
 4680SOL     OW25498   0.724   1.609   8.367 -0.1617 -0.1117  0.2397
 4680SOL    HW125499   0.754   1.695   8.397 -3.5720  0.9238  0.6024
 4680SOL    HW225500   0.654   1.588   8.428  0.6069 -1.1491  0.7737
 4681SOL     OW25501   1.420   4.396  16.180 -0.1154 -0.5118 -0.1272
 4681SOL    HW125502   1.352   4.451  16.141  0.4494  0.4071  0.1844
 4681SOL    HW225503   1.450   4.341  16.108  2.1349  0.0631  0.3896
 4682SOL     OW25504   3.348   4.311   7.164 -0.1173 -0.0136 -0.5693
 4682SOL    HW125505   3.337   4.263   7.082 -2.4044  0.7634 -0.7251
 4682SOL    HW225506   3.319   4.396   7.132  1.4549  0.4571 -0.7618
 4683SOL     OW25507   3.693   3.955   6.396  0.0589  0.3033  0.0956
 4683SOL    HW125508   3.638   4.015   6.345  0.0677 -1.1313 -1.6138
 4683SOL    HW225509   3.745   4.025   6.434 -0.3791  0.3707  0.5676
 4684SOL     OW25510   1.598   4.550   7.621 -0.5740  0.3597  0.4094
 4684SOL    HW125511   1.627   4.518   7.707  0.1710 -1.4208 -0.4909
 4684SOL    HW225512   1.683   4.544   7.578 -1.2749 -0.8346 -0.7948
 4685SOL     OW25513   2.748   0.767  15.657 -0.3716 -0.4195  0.2301
 4685SOL    HW125514   2.679   0.780  15.591 -1.5150 -0.6015  1.3932
 4685SOL    HW225515   2.819   0.796  15.600  1.5596 -1.3187  2.2374
 4686SOL     OW25516   1.592   0.307   3.985  0.4289 -0.2506  0.4204
 4686SOL    HW125517   1.606   0.361   3.907 -1.4671 -1.5806 -0.8370
 4686SOL    HW225518   1.607   0.374   4.051  1.2713  0.3608 -0.3963
 4687SOL     OW25519   3.879   0.274  10.999  0.1087 -0.5243 -0.7446
 4687SOL    HW125520   3.916   0.188  11.016  0.7304  0.2511  1.8581
 4687SOL    HW225521   3.843   0.309  11.080 -1.3095  0.5099 -1.8100
 4688SOL     OW25522   4.075   1.087   6.664  0.0269 -0.0983 -0.5350
 4688SOL    HW125523   4.059   1.168   6.615  0.7166  2.0465  2.7460
 4688SOL    HW225524   4.164   1.098   6.696 -0.6662 -1.7700  2.0037
 4689SOL     OW25525   2.589   2.382   7.874  0.5405  0.1780 -0.2387
 4689SOL    HW125526   2.500   2.350   7.859 -0.3341  3.0241 -1.2168
 4689SOL    HW225527   2.575   2.469   7.836  0.6137  0.1902 -0.2375
 4690SOL     OW25528   4.108   2.566   0.428 -0.4128 -0.1519 -0.1164
 4690SOL    HW125529   4.095   2.610   0.344  1.7713  1.2944  0.2999
 4690SOL    HW225530   4.035   2.504   0.420 -1.0535  0.5598  0.1116
 4691SOL     OW25531   4.203   1.066  16.756  0.3109  0.3242 -0.7017
 4691SOL    HW125532   4.203   1.052  16.661  2.0998  0.3746 -0.7222
 4691SOL    HW225533   4.147   0.994  16.784  1.3914 -0.1399  0.2925
 4692SOL     OW25534   1.932   3.603   8.310  0.7866  0.4498 -0.4290
 4692SOL    HW125535   1.991   3.674   8.286  2.9531 -0.7435  1.3106
 4692SOL    HW225536   1.872   3.661   8.356 -0.8417 -1.2885 -0.3639
 4693SOL     OW25537   4.585   2.750   3.957  0.0215 -0.5098 -0.0945
 4693SOL    HW125538   4.553   2.673   4.004 -3.2140  0.0039 -1.4798
 4693SOL    HW225539   4.566   2.716   3.869  0.6609  0.2513 -0.5356
 4694SOL     OW25540   0.810   4.429   2.444  0.4414 -0.3385  0.4281
 4694SOL    HW125541   0.724   4.392   2.461 -0.0410  0.2063 -0.8534
 4694SOL    HW225542   0.828   4.424   2.350  1.1453 -0.8909  0.5980
 4695SOL     OW25543   0.816   1.624  12.202  0.1157  0.1081  0.2836
 4695SOL    HW125544   0.901   1.630  12.159  0.0212 -0.5939 -0.0075
 4695SOL    HW225545   0.817   1.536  12.240 -0.0954  0.2037  0.5101
 4696SOL     OW25546   2.070   3.175   3.809 -0.0943  0.1506 -0.0660
 4696SOL    HW125547   2.041   3.149   3.897 -2.0027  1.2240 -0.3681
 4696SOL    HW225548   2.010   3.249   3.798 -1.1022 -0.9949 -2.1925
 4697SOL     OW25549   0.343   2.248   6.231 -0.0110 -0.3389  0.0247
 4697SOL    HW125550   0.317   2.233   6.321  0.1558 -1.0711 -0.0484
 4697SOL    HW225551   0.438   2.258   6.237 -0.2857  1.1886  1.8738
 4698SOL     OW25552   1.163   3.465   7.456  0.1463 -0.3104  0.1390
 4698SOL    HW125553   1.105   3.400   7.497  1.1293 -0.8316  0.7001
 4698SOL    HW225554   1.242   3.411   7.459 -0.4300 -1.1110  0.8444
 4699SOL     OW25555   0.278   0.477   6.197  0.0988 -0.3973 -0.3607
 4699SOL    HW125556   0.370   0.461   6.177 -0.3834 -0.8413 -2.2334
 4699SOL    HW225557   0.291   0.545   6.263 -0.8279 -0.7265  0.1554
 4700SOL     OW25558   3.882   1.961   2.044  0.1634  0.2865 -0.0278
 4700SOL    HW125559   3.915   2.051   2.041  1.4945 -0.1802  0.5937
 4700SOL    HW225560   3.788   1.974   2.035  0.0107 -0.9630 -0.2038
 4701SOL     OW25561   3.309   1.164   1.964  0.8282 -0.4121  0.3711
 4701SOL    HW125562   3.314   1.240   2.023 -1.9910 -0.4327  0.6366
 4701SOL    HW225563   3.360   1.199   1.891 -0.3000 -1.8554 -1.0999
 4702SOL     OW25564   0.993   2.553   9.178  0.1328 -0.2337  0.3179
 4702SOL    HW125565   1.009   2.466   9.213  1.5322  1.3501  3.6216
 4702SOL    HW225566   0.905   2.547   9.141  0.0747 -1.5318  0.6846
 4703SOL     OW25567   0.763   2.304   2.508 -0.3659 -0.5625 -0.0205
 4703SOL    HW125568   0.678   2.264   2.530 -0.1390 -0.4226  1.1017
 4703SOL    HW225569   0.771   2.372   2.575  1.7524 -1.4655  0.6412
 4704SOL     OW25570   3.808   2.993   3.105  0.1654 -0.0854  0.0489
 4704SOL    HW125571   3.838   3.077   3.140 -2.1958  0.9645 -0.4156
 4704SOL    HW225572   3.874   2.983   3.036 -0.5018 -0.1533 -0.5786
 4705SOL     OW25573   1.342   3.492  13.254 -0.3906  0.4264  0.0764
 4705SOL    HW125574   1.430   3.464  13.282  0.0717  1.9138  0.1555
 4705SOL    HW225575   1.360   3.582  13.225 -2.8934  1.7303  2.5973
 4706SOL     OW25576   3.717   1.432   3.143 -0.4069 -0.1662 -0.0273
 4706SOL    HW125577   3.631   1.407   3.177  0.2641  0.9347  2.5025
 4706SOL    HW225578   3.770   1.411   3.220  0.4838  0.6615 -0.4097
 4707SOL     OW25579   4.030   4.378   3.708  0.0487 -0.1450  0.4863
 4707SOL    HW125580   4.026   4.384   3.613  0.0922 -1.3249  0.4050
 4707SOL    HW225581   3.979   4.455   3.731 -0.2854 -0.7136  1.6323
 4708SOL     OW25582   4.459   1.123   7.101  0.0846 -0.1367 -0.2218
 4708SOL    HW125583   4.534   1.182   7.097 -1.3188  1.6804  0.2004
 4708SOL    HW225584   4.401   1.169   7.162  1.5120  2.3846 -0.7626
 4709SOL     OW25585   4.304   4.709  11.295  0.3488  0.4201  0.8701
 4709SOL    HW125586   4.315   0.013  11.203  1.7939 -0.2025  0.8825
 4709SOL    HW225587   4.233   0.043  11.329  1.2687 -0.2151  3.7969
 4710SOL     OW25588   1.765   0.239   1.536 -0.4340  0.4073 -0.0858
 4710SOL    HW125589   1.829   0.173   1.511  0.0061  0.7580  0.1185
 4710SOL    HW225590   1.688   0.223   1.482 -0.9643 -3.3724  1.7745
 4711SOL     OW25591   2.931   0.341   4.991  0.1893  0.2842 -0.1331
 4711SOL    HW125592   2.836   0.355   4.988 -0.3233 -3.2010  0.2732
 4711SOL    HW225593   2.958   0.343   4.899  1.4340  1.4971  0.2529
 4712SOL     OW25594   3.540   1.713   4.007  0.1059 -0.7194 -0.3346
 4712SOL    HW125595   3.552   1.654   4.082  2.9320  0.7144  0.3216
 4712SOL    HW225596   3.455   1.679   3.977 -0.4231  0.2949  0.0128
 4713SOL     OW25597   3.282   3.762   7.578 -0.3792 -0.4318  0.2816
 4713SOL    HW125598   3.366   3.794   7.547 -1.1899 -0.5976 -2.0910
 4713SOL    HW225599   3.239   3.843   7.604 -0.6991  0.1236 -2.0392
 4714SOL     OW25600   1.006   2.385   5.828  0.0284  0.0904 -0.5332
 4714SOL    HW125601   0.966   2.449   5.886  0.5493  0.0613 -0.1420
 4714SOL    HW225602   1.088   2.360   5.870 -0.1697  0.4434  0.0584
 4715SOL     OW25603   1.130   1.028   6.395 -0.2779  0.1616 -0.1890
 4715SOL    HW125604   1.100   1.119   6.400  3.1216  1.2422  0.1566
 4715SOL    HW225605   1.146   1.028   6.301  1.6631  1.7643  0.1542
 4716SOL     OW25606   2.678   0.053   5.027  0.4648 -0.2850 -0.0848
 4716SOL    HW125607   2.661   0.102   5.108 -1.4875  0.0024 -0.6802
 4716SOL    HW225608   2.651   4.690   5.065  1.5351 -0.4857  0.2386
 4717SOL     OW25609   0.387   0.430   4.393  0.3029 -0.9839  0.1129
 4717SOL    HW125610   0.432   0.445   4.310 -2.7511 -0.5385 -1.4158
 4717SOL    HW225611   0.459   0.467   4.445  1.5849 -3.4514  0.1209
 4718SOL     OW25612   3.924   0.179   4.141  0.7208  0.4689  0.2839
 4718SOL    HW125613   3.952   0.250   4.199  0.9061 -1.8323  2.9613
 4718SOL    HW225614   4.011   0.172   4.101  0.9498  0.1385  0.8459
 4719SOL     OW25615   2.241   1.086   4.672  0.7000  0.4862 -0.1315
 4719SOL    HW125616   2.192   1.166   4.692  0.8766  0.1426  1.7126
 4719SOL    HW225617   2.201   1.035   4.742  0.0351  0.3243 -0.6252
 4720SOL     OW25618   2.002   1.678   6.128 -0.5668 -0.3874  0.1887
 4720SOL    HW125619   2.063   1.618   6.171 -1.0733 -2.2933 -1.7442
 4720SOL    HW225620   1.954   1.705   6.206  0.8203 -0.3876  1.0493
 4721SOL     OW25621   4.531   4.106  15.084  0.5305 -0.5625 -0.2346
 4721SOL    HW125622   4.448   4.077  15.045 -0.1341 -0.8546  1.4054
 4721SOL    HW225623   4.582   4.109  15.003  0.3882 -0.2616 -0.3129
 4722SOL     OW25624   2.414   4.642  15.341  0.1991  0.0979 -0.8118
 4722SOL    HW125625   2.494   4.589  15.341  0.6618  0.7931  3.7306
 4722SOL    HW225626   2.386   4.637  15.250 -1.6471 -0.2203 -0.2240
 4723SOL     OW25627   3.244   0.645   1.887  0.0430  0.3938 -0.4260
 4723SOL    HW125628   3.162   0.655   1.935  0.9591 -1.1677  1.4807
 4723SOL    HW225629   3.224   0.670   1.797 -2.6488  3.6144  1.0469
 4724SOL     OW25630   0.167   2.861   9.416  0.0600 -0.4238 -0.5948
 4724SOL    HW125631   0.105   2.801   9.375 -0.9444 -0.2797  0.7294
 4724SOL    HW225632   0.119   2.944   9.417 -2.0817 -1.6572 -0.4856
 4725SOL     OW25633   1.486   1.853   6.763 -0.2577  0.3796  0.0891
 4725SOL    HW125634   1.417   1.900   6.809 -0.0290  1.8672 -1.0950
 4725SOL    HW225635   1.434   1.781   6.728  1.7711 -0.9825 -0.1344
 4726SOL     OW25636   2.233   1.932  14.082 -0.3287  0.4882  0.5527
 4726SOL    HW125637   2.227   1.854  14.138 -0.1015  0.9569  1.2323
 4726SOL    HW225638   2.325   1.958  14.083 -0.8269  2.2627 -0.8831
 4727SOL     OW25639   0.508   3.848   4.625 -0.3971 -0.5174 -0.2232
 4727SOL    HW125640   0.583   3.789   4.622 -1.1035 -1.4723  1.0367
 4727SOL    HW225641   0.475   3.827   4.538  0.4440  0.9587 -0.8942
 4728SOL     OW25642   1.273   0.066  16.203  0.4982  0.7620 -0.0762
 4728SOL    HW125643   1.284   4.693  16.187 -2.9549  0.4846 -0.8298
 4728SOL    HW225644   1.290   0.108  16.118  0.0965 -1.5205 -1.3008
 4729SOL     OW25645   3.528   4.180   1.446  0.6505 -0.2927 -0.1107
 4729SOL    HW125646   3.463   4.225   1.500  0.2228  1.2600 -1.9437
 4729SOL    HW225647   3.543   4.106   1.505  0.1278  0.6330  1.2063
 4730SOL     OW25648   1.432   2.680   4.060 -0.5816 -0.1697  0.5538
 4730SOL    HW125649   1.479   2.763   4.050 -0.5830 -0.0476  1.5753
 4730SOL    HW225650   1.428   2.649   3.969 -1.5704 -0.1289  0.5830
 4731SOL     OW25651   2.502   2.033   8.158 -0.1187 -0.0174  0.0418
 4731SOL    HW125652   2.433   1.967   8.147 -2.0328  1.4793  3.1574
 4731SOL    HW225653   2.557   2.031   8.079 -0.1689 -1.0187  0.0229
 4732SOL     OW25654   1.112   1.382  16.009 -0.1115 -0.2510 -0.1405
 4732SOL    HW125655   1.079   1.397  16.098  0.0182 -0.4253 -0.0641
 4732SOL    HW225656   1.170   1.307  16.021  2.1755  1.3682 -1.1822
 4733SOL     OW25657   1.973   2.471   7.253  0.3453  0.4886  0.2176
 4733SOL    HW125658   1.901   2.410   7.265  1.5271 -1.4034 -2.4211
 4733SOL    HW225659   1.931   2.557   7.260 -0.3552  0.1913 -0.3754
 4734SOL     OW25660   4.383   2.332   8.164 -0.3698 -0.0380 -0.3306
 4734SOL    HW125661   4.331   2.407   8.193  0.9531 -0.0091  2.0142
 4734SOL    HW225662   4.443   2.335   8.239 -1.3947  0.2593  0.4880
 4735SOL     OW25663   2.506   2.119  16.461 -0.4563 -0.5335 -0.1087
 4735SOL    HW125664   2.434   2.138  16.402  0.2897  3.0398  0.1323
 4735SOL    HW225665   2.464   2.142  16.544 -0.5962 -2.3243  0.3044
 4736SOL     OW25666   0.892   2.118   3.611  0.0235 -0.0962 -0.5630
 4736SOL    HW125667   0.816   2.061   3.625  0.8144 -1.4084 -1.6180
 4736SOL    HW225668   0.897   2.142   3.519 -0.2565  2.6870  0.1574
 4737SOL     OW25669   1.475   3.793   5.380 -0.0484  0.3771  0.6443
 4737SOL    HW125670   1.380   3.793   5.374 -0.0047  1.6574 -0.1721
 4737SOL    HW225671   1.481   3.851   5.456  1.6661  0.3474  0.5308
 4738SOL     OW25672   3.335   1.179  14.860 -0.3123 -0.3597  0.0638
 4738SOL    HW125673   3.422   1.190  14.899 -0.4545  3.6288 -0.7521
 4738SOL    HW225674   3.310   1.269  14.839  1.8287  0.5293  1.2942
 4739SOL     OW25675   4.085   1.556  11.442 -0.2792 -0.0206  0.0009
 4739SOL    HW125676   4.010   1.501  11.421  1.2726 -2.6954  1.5275
 4739SOL    HW225677   4.069   1.623  11.375 -0.9500 -0.3496 -0.1648
 4740SOL     OW25678   3.733   2.801   1.599  0.2558  0.6263 -0.7386
 4740SOL    HW125679   3.783   2.736   1.549 -2.1606 -2.7171  1.1365
 4740SOL    HW225680   3.803   2.866   1.595  1.3878 -0.5510 -0.2147
 4741SOL     OW25681   0.727   0.836  12.540  0.2093  0.8587 -0.4952
 4741SOL    HW125682   0.764   0.748  12.533  0.8696  1.1630 -0.9198
 4741SOL    HW225683   0.771   0.874  12.616  0.5752 -2.6568  1.0416
 4742SOL     OW25684   3.022   2.593   1.271  0.1527 -0.2102 -0.9569
 4742SOL    HW125685   3.037   2.597   1.366 -0.8298 -1.4027 -0.7436
 4742SOL    HW225686   2.985   2.505   1.262  0.6878 -0.5884  0.5597
 4743SOL     OW25687   1.374   1.334   5.653 -0.1907  0.0413  0.1715
 4743SOL    HW125688   1.333   1.419   5.673  0.0658  0.0441  0.7041
 4743SOL    HW225689   1.396   1.317   5.745 -1.1691  0.7809  0.5518
 4744SOL     OW25690   3.668   0.959   2.151  0.2055 -0.0014 -0.2464
 4744SOL    HW125691   3.677   1.040   2.202  1.4516 -0.7533  0.7210
 4744SOL    HW225692   3.573   0.948   2.154  0.1783  0.0468 -0.9102
 4745SOL     OW25693   2.343   3.062  14.045  0.1677 -0.1979 -0.2567
 4745SOL    HW125694   2.349   3.043  13.951  2.2814 -0.7655 -0.0111
 4745SOL    HW225695   2.284   3.137  14.053  1.4827  0.9374 -1.0770
 4746SOL     OW25696   4.704   1.445   2.396  0.2008  0.4517  0.3787
 4746SOL    HW125697   4.657   1.491   2.465  0.9533  1.7643  0.0140
 4746SOL    HW225698   4.653   1.480   2.323 -2.2852 -0.8745  1.4729
 4747SOL     OW25699   1.428   3.174   5.133  0.0125 -0.0751  0.4956
 4747SOL    HW125700   1.339   3.141   5.138 -0.3849  0.9444  0.2161
 4747SOL    HW225701   1.459   3.119   5.061  1.6368  0.9866  0.3582
 4748SOL     OW25702   2.385   0.219   3.165  0.1854  0.4393 -0.3469
 4748SOL    HW125703   2.398   0.285   3.232  0.2884  0.2905 -0.2194
 4748SOL    HW225704   2.431   0.142   3.199 -1.9493 -0.8589 -0.3990
 4749SOL     OW25705   2.804   0.739   4.846 -0.2214  0.2961  0.4199
 4749SOL    HW125706   2.787   0.767   4.756  0.0344  0.6913  0.4938
 4749SOL    HW225707   2.882   0.684   4.836 -1.4353 -1.5797  1.2759
 4750SOL     OW25708   0.342   2.884   5.266  0.6850  0.0952  0.1102
 4750SOL    HW125709   0.375   2.938   5.194 -2.6924  0.6148 -1.0542
 4750SOL    HW225710   0.281   2.830   5.217 -0.2311  1.5268 -0.3336
 4751SOL     OW25711   0.350   2.936   9.899 -0.1318  0.2206 -0.1294
 4751SOL    HW125712   0.360   2.942   9.804  2.3962  1.3797  0.2054
 4751SOL    HW225713   0.341   2.843   9.916  0.6035  0.1242 -0.2955
 4752SOL     OW25714   0.657   3.781  16.801  0.3174  0.4086 -0.1303
 4752SOL    HW125715   0.632   3.858  16.851  0.5916  0.7460 -0.5100
 4752SOL    HW225716   0.632   3.714  16.864 -0.4175  1.1064  0.3206
 4753SOL     OW25717   2.341   3.466   3.437 -0.3550 -0.2283  0.2727
 4753SOL    HW125718   2.378   3.411   3.368  1.9636  0.5132  0.9396
 4753SOL    HW225719   2.411   3.455   3.501  0.3723  4.4822  0.2518
 4754SOL     OW25720   1.738   4.429   1.097 -0.2483  0.3020  0.0905
 4754SOL    HW125721   1.738   4.481   1.017  0.0344 -0.6487 -0.5210
 4754SOL    HW225722   1.710   4.497   1.159 -5.2816 -2.1089  0.4578
 4755SOL     OW25723   0.392   1.296   4.885 -0.1261  0.2156 -0.6798
 4755SOL    HW125724   0.476   1.250   4.897 -0.5004 -0.1184  0.6265
 4755SOL    HW225725   0.405   1.316   4.792  2.4476 -2.1374 -0.8347
 4756SOL     OW25726   0.667   4.071   5.853 -0.2527  0.1837  0.6880
 4756SOL    HW125727   0.578   4.043   5.833 -0.6969  2.5670 -0.6565
 4756SOL    HW225728   0.651   4.165   5.860  0.2849  0.3776 -0.7116
 4757SOL     OW25729   0.101   3.775   6.871  0.1726  0.5282  0.1739
 4757SOL    HW125730   0.183   3.731   6.852 -0.6058 -1.5122  1.5939
 4757SOL    HW225731   0.046   3.707   6.910  0.1435 -0.3990 -1.4986
 4758SOL     OW25732   1.944   1.518  16.726  0.3256 -0.3997  0.2240
 4758SOL    HW125733   1.963   1.610  16.747  1.7051 -1.1055  2.1486
 4758SOL    HW225734   1.899   1.478  16.800 -0.6757 -1.1670 -0.8086
 4759SOL     OW25735   1.860   4.128   1.734  0.5428  0.6899  0.4547
 4759SOL    HW125736   1.883   4.203   1.788  2.1518  1.0878 -0.7724
 4759SOL    HW225737   1.783   4.099   1.784 -1.3077 -0.4846 -3.0259
 4760SOL     OW25738   2.309   1.117   1.944  0.2217  0.1673  0.3631
 4760SOL    HW125739   2.305   1.182   2.014  1.0868 -0.9869  1.4998
 4760SOL    HW225740   2.303   1.171   1.865  3.1616 -0.8061 -0.5349
 4761SOL     OW25741   4.181   1.469  15.559 -0.2130 -0.0140 -0.0950
 4761SOL    HW125742   4.169   1.430  15.472 -0.0851 -1.9468  0.7398
 4761SOL    HW225743   4.215   1.392  15.605 -0.1100  0.5065  0.7116
 4762SOL     OW25744   2.475   2.196  14.092 -0.2408  0.9792 -0.2181
 4762SOL    HW125745   2.507   2.271  14.041  1.7871  0.4754  0.3346
 4762SOL    HW225746   2.395   2.230  14.133  1.0230 -0.5806  3.5424
 4763SOL     OW25747   2.012   2.907   2.727 -0.1227  0.0368 -1.0290
 4763SOL    HW125748   2.027   2.853   2.805  1.2728  2.5253  0.3978
 4763SOL    HW225749   1.990   2.993   2.762 -1.2103 -0.7445  0.2473
 4764SOL     OW25750   1.980   4.469  10.137  0.0126  0.3716 -0.4419
 4764SOL    HW125751   2.001   4.520  10.059  0.6736  0.1079 -0.4360
 4764SOL    HW225752   2.035   4.392  10.121  0.1005  0.2248  0.5877
 4765SOL     OW25753   3.082   3.608   8.288  0.1813 -0.0875 -0.0688
 4765SOL    HW125754   3.110   3.647   8.205  1.3665  1.9203  1.2816
 4765SOL    HW225755   2.989   3.622   8.270  0.8671  4.2258 -0.1640
 4766SOL     OW25756   0.577   2.333   8.151  1.2079  0.6852  0.8704
 4766SOL    HW125757   0.534   2.413   8.182 -1.2606 -0.3733  0.2241
 4766SOL    HW225758   0.569   2.343   8.056  1.6585  0.4982  0.8118
 4767SOL     OW25759   4.435   2.780   5.735 -0.0228 -0.2144  0.2065
 4767SOL    HW125760   4.406   2.795   5.645 -1.5989  1.4411  1.0003
 4767SOL    HW225761   4.464   2.690   5.720  0.6409  0.2895 -1.4823
 4768SOL     OW25762   2.898   2.019   0.776  0.1145 -0.1990  0.0906
 4768SOL    HW125763   2.849   2.086   0.729 -1.6392 -1.8792 -0.4998
 4768SOL    HW225764   2.840   1.942   0.773  0.0474 -0.1894  1.3339
 4769SOL     OW25765   0.092   2.139   7.503 -0.0028  0.0194  0.1434
 4769SOL    HW125766   0.104   2.098   7.589  1.3039 -1.8157 -0.9180
 4769SOL    HW225767   0.044   2.219   7.527 -0.3383 -0.5942  1.5140
 4770SOL     OW25768   0.666   0.530   5.421 -0.3936 -0.2294 -0.4539
 4770SOL    HW125769   0.579   0.571   5.424 -0.3909 -0.3282  0.7301
 4770SOL    HW225770   0.726   0.601   5.398 -2.4576  1.3984 -0.8907
 4771SOL     OW25771   1.178   2.719   7.963  0.1164  0.2887 -0.8714
 4771SOL    HW125772   1.172   2.803   8.009  1.3651  0.8302 -1.7045
 4771SOL    HW225773   1.252   2.728   7.904  1.9135  0.9617  1.4666
 4772SOL     OW25774   3.120   2.570   8.509 -0.1390 -0.0500 -0.1138
 4772SOL    HW125775   3.167   2.507   8.564  0.6723  3.5194  3.3056
 4772SOL    HW225776   3.055   2.604   8.570 -1.6739 -1.5817 -0.8924
 4773SOL     OW25777   1.206   4.612  16.902 -0.4676  0.4158 -0.1223
 4773SOL    HW125778   1.212   4.702  16.871 -2.3042  0.5039 -0.2350
 4773SOL    HW225779   1.151   4.575  16.832 -1.9785  0.3230  1.0988
 4774SOL     OW25780   0.874   3.144   6.355  0.2516  0.4886  0.2877
 4774SOL    HW125781   0.903   3.199   6.428 -1.0209  0.9391  0.4553
 4774SOL    HW225782   0.901   3.209   6.290  0.2239 -1.3615 -1.5638
 4775SOL     OW25783   3.906   4.584   4.543  0.1434 -0.4445  0.1373
 4775SOL    HW125784   3.874   4.568   4.454 -1.0156  0.8055  0.3370
 4775SOL    HW225785   3.867   4.505   4.579  1.5464 -1.9672 -1.6685
 4776SOL     OW25786   1.576   1.736   7.592  0.4605 -0.3402  0.6725
 4776SOL    HW125787   1.569   1.824   7.629 -1.5975  0.0978 -0.7226
 4776SOL    HW225788   1.660   1.704   7.625  0.0803 -2.6440 -0.5825
 4777SOL     OW25789   4.507   3.280  12.900 -0.4109  0.3386 -0.0772
 4777SOL    HW125790   4.445   3.255  12.967 -2.8630 -1.0777 -2.8711
 4777SOL    HW225791   4.444   3.281  12.828 -0.5369  0.7447  0.0404
 4778SOL     OW25792   4.204   4.241   5.655 -0.1176  0.5784 -0.5861
 4778SOL    HW125793   4.210   4.335   5.666 -1.8384  0.5618  0.5096
 4778SOL    HW225794   4.187   4.210   5.744  1.3413 -2.4801 -1.3578
 4779SOL     OW25795   2.943   4.598   4.203 -0.4540 -0.2179 -0.4969
 4779SOL    HW125796   2.937   4.614   4.109 -2.1043  0.6571 -0.2529
 4779SOL    HW225797   2.994   4.518   4.218 -0.3793  0.0382  0.6395
 4780SOL     OW25798   0.030   4.681   2.525  0.1991  0.2441 -0.3119
 4780SOL    HW125799   4.703   4.711   2.602 -0.3170 -1.4634  0.0304
 4780SOL    HW225800   0.019   4.587   2.537 -1.3067  0.3292 -1.0656
 4781SOL     OW25801   4.190   3.793  17.046 -0.6618 -0.1997  0.7817
 4781SOL    HW125802   4.175   3.842  17.127  1.4146  0.4727  0.7703
 4781SOL    HW225803   4.168   3.864  16.984  0.4381 -0.6568 -0.1355
 4782SOL     OW25804   0.248   3.364  16.410 -0.6530  0.3486  0.2876
 4782SOL    HW125805   0.326   3.370  16.355 -1.0662 -1.5492 -0.5221
 4782SOL    HW225806   0.228   3.457  16.407 -0.0408  0.4851  0.3295
 4783SOL     OW25807   2.973   4.350   2.137 -0.1122 -0.8127  0.0851
 4783SOL    HW125808   2.892   4.336   2.088 -1.1780 -2.5318  2.3600
 4783SOL    HW225809   3.031   4.278   2.115  0.0165 -0.5453 -0.4478
 4784SOL     OW25810   1.321   0.043  11.901 -0.5302 -0.3140  0.2748
 4784SOL    HW125811   1.300   0.013  11.812 -0.4061 -0.8624  0.4263
 4784SOL    HW225812   1.238   0.072  11.939 -0.8262  0.0301 -0.6477
 4785SOL     OW25813   0.890   1.474   6.395 -0.0125 -0.1265  0.1392
 4785SOL    HW125814   0.844   1.472   6.311 -0.2979  1.4723  0.2424
 4785SOL    HW225815   0.950   1.549   6.390  1.2587 -1.0701  1.3731
 4786SOL     OW25816   3.768   2.303   2.517 -0.4351 -0.0855 -0.5564
 4786SOL    HW125817   3.705   2.337   2.581  0.1421  1.0459 -0.5989
 4786SOL    HW225818   3.774   2.381   2.463 -2.2574 -0.3849 -1.2023
 4787SOL     OW25819   2.012   1.150   5.195  0.3979  0.2237 -0.3537
 4787SOL    HW125820   2.021   1.244   5.181  0.3445  0.2783 -0.0141
 4787SOL    HW225821   1.993   1.153   5.289 -0.7681 -3.2852 -0.4546
 4788SOL     OW25822   0.871   2.552  13.753  0.1657 -0.3008  0.0483
 4788SOL    HW125823   0.913   2.490  13.693  1.0017  0.5450 -0.2305
 4788SOL    HW225824   0.938   2.566  13.820 -2.0150  2.0643  1.7430
 4789SOL     OW25825   1.295   3.429   5.948  0.1114  0.3394  0.3781
 4789SOL    HW125826   1.300   3.333   5.945  0.2603  0.3879 -0.9823
 4789SOL    HW225827   1.238   3.448   5.874  1.7784 -2.3931 -1.5982
 4790SOL     OW25828   2.800   0.446  11.881  0.0165  0.0460 -0.2420
 4790SOL    HW125829   2.868   0.457  11.948  3.1507 -2.4408 -3.0466
 4790SOL    HW225830   2.791   0.539  11.861 -0.1252 -0.0127 -0.4565
 4791SOL     OW25831   3.258   3.104   4.857  0.0879  0.3617 -0.2143
 4791SOL    HW125832   3.274   3.070   4.768  2.4446  1.5362 -0.2159
 4791SOL    HW225833   3.345   3.089   4.892 -0.1145  1.7771  0.8628
 4792SOL     OW25834   2.804   0.080   8.794 -0.0267 -0.2611  0.1834
 4792SOL    HW125835   2.732   0.112   8.849 -2.7051 -2.1403 -2.2523
 4792SOL    HW225836   2.754   0.019   8.740 -1.9065  2.1544 -0.8265
 4793SOL     OW25837   0.789   3.775   7.773  0.3697  0.4097 -0.4904
 4793SOL    HW125838   0.854   3.829   7.818 -1.4428  1.5869  0.7221
 4793SOL    HW225839   0.792   3.701   7.833 -0.8355 -0.0548 -1.0023
 4794SOL     OW25840   4.211   4.540   3.230 -0.0521  0.1203  0.2180
 4794SOL    HW125841   4.203   4.611   3.167 -0.5931 -0.1701 -0.0301
 4794SOL    HW225842   4.278   4.482   3.194 -0.5867 -0.0470 -0.4922
 4795SOL     OW25843   3.551   4.494   3.274 -0.2594  0.0609 -0.7387
 4795SOL    HW125844   3.630   4.546   3.288 -0.8735  0.3724  1.5595
 4795SOL    HW225845   3.553   4.445   3.356 -1.1339 -0.3263 -0.9383
 4796SOL     OW25846   3.439   4.715  13.577  0.6274  0.4841 -0.1658
 4796SOL    HW125847   3.447   0.012  13.670  0.2374 -1.5312  0.2554
 4796SOL    HW225848   3.353   4.674  13.577  0.0052  1.7598 -1.4807
 4797SOL     OW25849   1.912   3.018  11.843 -0.8849  0.7717 -0.2834
 4797SOL    HW125850   1.881   3.097  11.799  2.0126  1.5748 -0.9005
 4797SOL    HW225851   1.974   3.052  11.908 -2.2546  0.4953  1.1755
 4798SOL     OW25852   4.141   1.094   8.076  0.1862  0.4021 -0.6218
 4798SOL    HW125853   4.060   1.144   8.090  1.4440  2.5567 -1.0635
 4798SOL    HW225854   4.207   1.127   8.136 -1.0050  2.6743 -0.5556
 4799SOL     OW25855   2.544   4.639   4.301  0.1249  0.0750 -0.4394
 4799SOL    HW125856   2.507   4.637   4.389 -2.6282  1.5358 -1.5625
 4799SOL    HW225857   2.634   4.611   4.321  0.1324 -0.4217 -1.1650
 4800SOL     OW25858   2.887   1.000  17.013  0.0466  0.2328  0.7153
 4800SOL    HW125859   2.891   0.966  17.103 -1.4733 -0.2570  0.5968
 4800SOL    HW225860   2.912   1.089  17.039  3.0236 -0.7194  1.1302
 4801SOL     OW25861   1.677   0.338  11.250 -0.4761 -0.3006  0.1682
 4801SOL    HW125862   1.628   0.259  11.273 -3.2897  1.1770 -0.7714
 4801SOL    HW225863   1.659   0.392  11.327 -0.6165  0.5356 -0.4577
 4802SOL     OW25864   1.615   2.199   1.553 -0.6608  0.2036  0.0863
 4802SOL    HW125865   1.571   2.116   1.540  0.4209  0.1064 -2.8940
 4802SOL    HW225866   1.602   2.243   1.469  1.3944  0.5610 -0.0448
 4803SOL     OW25867   4.620   0.379   3.987 -0.2664  0.1237  0.2278
 4803SOL    HW125868   4.577   0.304   3.947  0.4359 -0.0242 -0.2600
 4803SOL    HW225869   4.555   0.447   3.973 -0.1999  0.0566 -0.3922
 4804SOL     OW25870   1.622   2.623  16.187  0.3823 -0.8069 -0.3446
 4804SOL    HW125871   1.590   2.638  16.276 -0.2371  0.4372 -0.7669
 4804SOL    HW225872   1.594   2.533  16.171 -0.2788 -1.3322  3.9371
 4805SOL     OW25873   0.630   1.105   8.292 -0.5429  0.2345 -0.0167
 4805SOL    HW125874   0.539   1.133   8.300 -0.4477  0.6009 -0.2603
 4805SOL    HW225875   0.612   1.013   8.271 -0.1353  0.3242 -0.7494
 4806SOL     OW25876   3.968   3.218   1.810  0.3935 -0.2966  0.6479
 4806SOL    HW125877   3.903   3.155   1.841 -0.7433 -0.2331 -1.6068
 4806SOL    HW225878   3.959   3.212   1.715  0.5200  1.5153  0.5121
 4807SOL     OW25879   3.530   0.260  12.320  0.0342 -0.1538 -0.0865
 4807SOL    HW125880   3.493   0.274  12.233 -0.5185 -1.6397 -0.0895
 4807SOL    HW225881   3.594   0.190  12.307 -0.8994 -0.9560 -0.3398
 4808SOL     OW25882   4.319   2.399  11.652 -0.0866  0.7392  0.2962
 4808SOL    HW125883   4.409   2.386  11.684  0.3257 -0.3029 -1.3412
 4808SOL    HW225884   4.319   2.350  11.571  1.3756 -1.7823  1.8251
 4809SOL     OW25885   2.620   3.282   4.274 -0.0838 -0.5449  0.2222
 4809SOL    HW125886   2.609   3.192   4.303  1.1213 -0.8708 -0.3329
 4809SOL    HW225887   2.575   3.325   4.347 -0.4615  0.6476 -0.7171
 4810SOL     OW25888   4.498   0.785   7.239  0.0233  0.5251 -0.6417
 4810SOL    HW125889   4.468   0.786   7.148  1.5049  1.1668 -1.1197
 4810SOL    HW225890   4.418   0.811   7.286 -0.6326 -0.7912 -1.0334
 4811SOL     OW25891   3.231   4.550   4.426  0.2668 -0.6457 -0.3249
 4811SOL    HW125892   3.148   4.545   4.473  1.5673  0.4581  2.0736
 4811SOL    HW225893   3.223   4.645   4.427 -0.3555 -0.6716 -2.7160
 4812SOL     OW25894   3.555   4.044   2.277 -0.2489  0.6580  0.3021
 4812SOL    HW125895   3.589   4.133   2.276  1.5466 -0.0243  0.3052
 4812SOL    HW225896   3.617   4.001   2.336 -0.3220  0.1377 -0.0010
 4813SOL     OW25897   0.505   2.549   3.254 -0.3896 -0.0898 -0.1658
 4813SOL    HW125898   0.476   2.459   3.266  4.7318 -1.6212  0.6140
 4813SOL    HW225899   0.434   2.586   3.307 -1.5491  0.3931 -2.0528
 4814SOL     OW25900   3.625   2.768  13.060  0.3440 -0.3325  0.1429
 4814SOL    HW125901   3.612   2.805  13.147  1.6357  0.4720 -0.0113
 4814SOL    HW225902   3.633   2.849  13.010 -0.2231 -1.5734 -1.9321
 4815SOL     OW25903   2.628   4.582   7.250  0.1459 -0.1638  0.0349
 4815SOL    HW125904   2.700   4.629   7.292 -0.8713 -1.0799  2.8397
 4815SOL    HW225905   2.670   4.504   7.213 -0.1653  0.2603 -1.2070
 4816SOL     OW25906   0.709   3.041   1.692  0.2159  0.7207 -0.7298
 4816SOL    HW125907   0.750   3.056   1.777  0.4563  0.8580 -0.8702
 4816SOL    HW225908   0.621   3.012   1.716  0.9413  1.4212  2.6767
 4817SOL     OW25909   1.382   4.687   3.031  0.1416  0.0678 -0.2540
 4817SOL    HW125910   1.340   4.639   2.961  0.5568 -1.1165  0.3118
 4817SOL    HW225911   1.386   0.053   2.991 -0.5894  0.3083  0.1895
 4818SOL     OW25912   0.567   1.377   5.980  0.1920  0.5642 -0.1785
 4818SOL    HW125913   0.637   1.440   5.961  0.1501  1.1695  1.6968
 4818SOL    HW225914   0.593   1.303   5.925  1.1499  0.9910 -0.3081
 4819SOL     OW25915   0.238   2.516   2.416 -0.0124 -0.2525  1.3758
 4819SOL    HW125916   0.236   2.577   2.342 -0.6282 -2.1731 -0.1920
 4819SOL    HW225917   0.164   2.460   2.394  0.5788 -0.0820 -0.9999
 4820SOL     OW25918   0.732   3.375   0.251  0.2850  0.6071 -0.0244
 4820SOL    HW125919   0.811   3.413   0.289 -0.3817  0.1980  1.7651
 4820SOL    HW225920   0.667   3.414   0.310 -1.2083 -2.4792  0.3536
 4821SOL     OW25921   4.129   0.709   6.749 -0.2608 -0.2286 -0.1105
 4821SOL    HW125922   4.222   0.692   6.743 -0.1954  0.3241 -0.7172
 4821SOL    HW225923   4.133   0.767   6.825 -3.8192 -1.6361  1.1528
 4822SOL     OW25924   1.471   0.258   0.376 -0.3578  1.0341  0.3538
 4822SOL    HW125925   1.378   0.241   0.366  0.2247 -2.7606  1.3876
 4822SOL    HW225926   1.487   0.350   0.352  0.1084  1.0061  0.5517
 4823SOL     OW25927   1.994   3.648   5.518  0.9211  0.0520  0.0394
 4823SOL    HW125928   2.089   3.652   5.509  0.6962  0.1176 -2.1290
 4823SOL    HW225929   1.984   3.665   5.612 -1.4671 -0.5695 -0.1042
 4824SOL     OW25930   1.017   2.821   7.761 -0.2168 -1.3580 -0.1885
 4824SOL    HW125931   1.075   2.769   7.816  0.7777 -2.2895 -2.1219
 4824SOL    HW225932   1.025   2.901   7.812  0.8075  0.0306 -2.5387
 4825SOL     OW25933   1.587   1.690   6.023  0.1157  0.5511 -0.5623
 4825SOL    HW125934   1.618   1.639   6.098  1.4066  0.8244 -0.9030
 4825SOL    HW225935   1.666   1.744   6.018  0.2527  0.4099  0.0523
 4826SOL     OW25936   2.241   1.823   3.900 -0.2216 -0.0582 -0.1740
 4826SOL    HW125937   2.210   1.888   3.963  0.2434 -1.9929  2.0623
 4826SOL    HW225938   2.238   1.740   3.947 -1.2557 -0.8803 -1.6970
 4827SOL     OW25939   0.344   4.284   7.987 -0.4690 -0.2311  0.1459
 4827SOL    HW125940   0.350   4.225   7.911  0.2276  0.9654 -0.7153
 4827SOL    HW225941   0.338   4.219   8.057  0.5021  0.1824  0.5919
 4828SOL     OW25942   3.214   3.455   4.373 -0.0395  0.5003 -0.3482
 4828SOL    HW125943   3.133   3.423   4.413  0.1295 -0.8688 -1.1204
 4828SOL    HW225944   3.170   3.510   4.308  1.0989 -0.0332 -1.5772
 4829SOL     OW25945   3.151   3.566   4.115  0.0395  0.2371 -0.3214
 4829SOL    HW125946   3.121   3.635   4.175 -0.6956 -1.1123  0.8491
 4829SOL    HW225947   3.076   3.507   4.106 -0.0824  0.4711 -0.8342
 4830SOL     OW25948   2.878   1.803   9.043  0.2450  0.3314 -0.2605
 4830SOL    HW125949   2.907   1.713   9.035  0.2276  0.5024 -2.2735
 4830SOL    HW225950   2.923   1.825   9.125 -0.3661  0.4695  0.0402
 4831SOL     OW25951   1.728   2.141   4.762 -0.2665 -0.0685 -0.0424
 4831SOL    HW125952   1.822   2.133   4.777 -0.4922 -0.0044  1.3575
 4831SOL    HW225953   1.723   2.125   4.668  1.9872  1.6569 -0.4574
 4832SOL     OW25954   0.371   1.218  13.717 -0.0017  0.3616 -0.0189
 4832SOL    HW125955   0.393   1.302  13.677 -1.0123 -0.4817 -2.3218
 4832SOL    HW225956   0.318   1.238  13.795 -0.4113  0.3642 -0.2990
 4833SOL     OW25957   3.492   2.430   1.901 -0.3210  0.7671 -0.0975
 4833SOL    HW125958   3.551   2.387   1.839  0.4764 -2.6920  3.1114
 4833SOL    HW225959   3.409   2.414   1.855 -0.6588 -3.2973  1.9782
 4834SOL     OW25960   2.678   1.273  12.168  0.0139  0.4070  0.2843
 4834SOL    HW125961   2.671   1.206  12.100 -0.5262  0.7283  0.0203
 4834SOL    HW225962   2.658   1.349  12.113 -0.3815 -0.8596 -1.3422
 4835SOL     OW25963   3.837   1.606   6.738 -0.4095 -0.0001 -0.1150
 4835SOL    HW125964   3.850   1.657   6.818 -0.9725 -1.4823  0.9199
 4835SOL    HW225965   3.914   1.550   6.750 -0.5184 -0.7357 -2.9066
 4836SOL     OW25966   4.429   4.586  15.960  0.6035  0.1394 -0.2117
 4836SOL    HW125967   4.477   4.661  15.995  1.6492 -1.0245  0.8591
 4836SOL    HW225968   4.462   4.517  16.018  0.3113  1.4421  1.5054
 4837SOL     OW25969   0.480   3.365  15.226  0.2168  0.1565 -0.0752
 4837SOL    HW125970   0.405   3.316  15.191  0.4902 -0.0375 -0.3828
 4837SOL    HW225971   0.551   3.319  15.182  0.3050 -0.1607  0.4011
 4838SOL     OW25972   2.453   0.428  10.696  0.0746  0.5024 -0.2294
 4838SOL    HW125973   2.392   0.457  10.629 -0.1302  1.4291  0.3590
 4838SOL    HW225974   2.522   0.490  10.673 -1.6331  3.6069  3.2116
 4839SOL     OW25975   4.509   0.499   2.053  0.1735 -0.2204  0.4955
 4839SOL    HW125976   4.505   0.534   1.964  1.9074 -2.0593 -0.2920
 4839SOL    HW225977   4.503   0.405   2.038  1.2804 -0.0466 -1.0461
 4840SOL     OW25978   0.296   0.524   5.057  0.6316  0.3585 -0.6261
 4840SOL    HW125979   0.342   0.601   5.023 -0.8131  1.2866 -0.4798
 4840SOL    HW225980   0.214   0.543   5.012 -0.3895  1.9585  1.8876
 4841SOL     OW25981   1.389   4.154   5.810 -0.1409 -0.5241  0.5850
 4841SOL    HW125982   1.373   4.249   5.813  0.1282 -0.4159 -1.2150
 4841SOL    HW225983   1.341   4.133   5.890  0.0558 -0.8209  0.6223
 4842SOL     OW25984   1.082   0.581   4.457 -0.1556 -0.0930 -0.2962
 4842SOL    HW125985   1.082   0.491   4.488  0.5522  0.3286  0.9694
 4842SOL    HW225986   1.074   0.568   4.363  1.2074 -0.1548 -0.4015
 4843SOL     OW25987   4.104   2.874  15.200  0.0878 -0.2031  0.6353
 4843SOL    HW125988   4.104   2.956  15.249  2.3174 -1.3308  2.5364
 4843SOL    HW225989   4.095   2.896  15.107  0.5273  0.8685  0.8509
 4844SOL     OW25990   2.997   3.516   5.709  0.0145  0.5667  0.1254
 4844SOL    HW125991   2.931   3.465   5.661 -0.8633 -0.0939  2.0237
 4844SOL    HW225992   3.070   3.455   5.708 -1.4032 -1.1451  3.0480
 4845SOL     OW25993   2.963   3.175   9.299 -0.1113  0.0232  0.2152
 4845SOL    HW125994   2.868   3.179   9.298 -0.0165  2.2320  1.4154
 4845SOL    HW225995   2.977   3.214   9.386  0.5050  1.9901 -0.7693
 4846SOL     OW25996   0.540   2.597  15.300  0.4999  0.4386 -0.1185
 4846SOL    HW125997   0.604   2.664  15.324 -0.2765  0.7542  1.0839
 4846SOL    HW225998   0.592   2.555  15.231  2.8838  1.5220  1.0449
 4847SOL     OW25999   4.188   2.983   1.377 -0.5066  0.3148  0.2937
 4847SOL    HW126000   4.190   2.936   1.294 -0.7277  0.3453  0.2710
 4847SOL    HW226001   4.282   2.987   1.393 -0.5857  1.0579  0.5623
 4848SOL     OW26002   1.870   1.730   7.654  0.0938  0.0460 -0.3689
 4848SOL    HW126003   1.851   1.823   7.671 -0.5702 -0.4807  1.7508
 4848SOL    HW226004   1.963   1.736   7.632 -0.2568  3.5791 -0.9638
 4849SOL     OW26005   0.117   1.702   6.994 -0.2300  0.1016  0.1637
 4849SOL    HW126006   0.173   1.762   6.944  0.9835 -0.8325  0.4017
 4849SOL    HW226007   0.168   1.689   7.073 -1.2061 -0.3732  0.7042
 4850SOL     OW26008   0.617   1.023   0.952  0.0605 -1.0787  0.1144
 4850SOL    HW126009   0.632   0.961   1.024  0.1857 -1.8507 -0.5714
 4850SOL    HW226010   0.664   1.101   0.981  0.0215 -0.8741 -0.3722
 4851SOL     OW26011   2.161   2.757   5.313  0.0545 -0.7515  0.2682
 4851SOL    HW126012   2.234   2.742   5.253 -1.5428 -0.7799 -1.6760
 4851SOL    HW226013   2.198   2.737   5.399 -0.3627 -1.1167  0.3656
 4852SOL     OW26014   1.202   0.682   9.034  0.4514 -0.0520 -0.0749
 4852SOL    HW126015   1.219   0.673   8.940 -2.6190 -3.6158 -0.2697
 4852SOL    HW226016   1.222   0.772   9.062 -0.0914 -0.0563  0.3358
 4853SOL     OW26017   0.452   3.165   4.321  0.3817  0.1259  0.1675
 4853SOL    HW126018   0.410   3.231   4.376 -1.1664 -0.9698  0.2930
 4853SOL    HW226019   0.407   3.183   4.239  0.9999  4.6045  0.7966
 4854SOL     OW26020   4.150   0.256  12.748  0.7756 -0.1184 -0.0674
 4854SOL    HW126021   4.132   0.297  12.663 -1.2104 -1.4239 -0.2896
 4854SOL    HW226022   4.122   0.330  12.800 -1.2731 -1.0008  0.0904
 4855SOL     OW26023   2.831   4.681   0.741 -0.6970  0.1293  0.3050
 4855SOL    HW126024   2.831   4.669   0.647  0.3413  1.9268  0.0790
 4855SOL    HW226025   2.866   4.594   0.760 -0.8718  0.1506  0.7400
 4856SOL     OW26026   3.745   1.176   6.098 -0.1448  0.0805  0.2799
 4856SOL    HW126027   3.697   1.093   6.092 -2.8366  1.5952  1.0289
 4856SOL    HW226028   3.828   1.169   6.050  0.5445  1.3747  1.3090
 4857SOL     OW26029   0.421   2.092   8.144  0.2547  0.5310 -0.5576
 4857SOL    HW126030   0.406   2.073   8.237 -0.7028  0.2876 -0.7676
 4857SOL    HW226031   0.485   2.163   8.139  0.4844  0.2487 -1.6316
 4858SOL     OW26032   2.203   1.678   9.467 -0.8319 -0.1954 -0.0380
 4858SOL    HW126033   2.295   1.697   9.446 -1.0900  1.1049  0.0151
 4858SOL    HW226034   2.195   1.694   9.561 -0.5838 -1.5491  0.2156
 4859SOL     OW26035   1.734   1.239  12.057 -0.2413  0.0631 -0.1987
 4859SOL    HW126036   1.675   1.170  12.084  0.5112 -0.0583  1.1329
 4859SOL    HW226037   1.690   1.262  11.975 -0.1225  1.3330  0.0873
 4860SOL     OW26038   1.855   2.697   7.381  0.4556 -0.6973 -0.2942
 4860SOL    HW126039   1.833   2.662   7.468  1.9650 -0.3650  0.2285
 4860SOL    HW226040   1.945   2.725   7.401  0.9283 -3.2273  1.1500
 4861SOL     OW26041   1.521   4.127   2.616 -0.3825  1.1258  0.5179
 4861SOL    HW126042   1.488   4.168   2.696 -1.2733  2.0798 -0.3414
 4861SOL    HW226043   1.445   4.099   2.565  0.5167 -0.8130  0.2596
 4862SOL     OW26044   0.903   3.522   3.199  0.2262  0.6365 -0.9477
 4862SOL    HW126045   0.822   3.486   3.235  0.1512  0.5194 -1.2393
 4862SOL    HW226046   0.901   3.490   3.109 -0.9201  2.3348 -1.5367
 4863SOL     OW26047   4.356   3.869   4.427  0.3905  0.4653 -0.2876
 4863SOL    HW126048   4.373   3.945   4.371  0.8617  0.1313 -0.5921
 4863SOL    HW226049   4.436   3.859   4.478 -0.4839  2.5680  1.4984
 4864SOL     OW26050   0.652   4.076   8.354  0.3886  0.1658 -0.3542
 4864SOL    HW126051   0.613   4.111   8.434  0.0895 -0.5723 -0.1746
 4864SOL    HW226052   0.731   4.038   8.394  0.2691  2.5343  2.1474
 4865SOL     OW26053   4.257   2.736   6.472  0.4532 -0.0590 -0.1363
 4865SOL    HW126054   4.224   2.814   6.517  0.7853 -0.5532  0.9716
 4865SOL    HW226055   4.178   2.701   6.430  1.2369 -0.4761 -1.2749
 4866SOL     OW26056   1.044   2.973   3.500 -0.1756 -0.3860  0.2721
 4866SOL    HW126057   1.091   2.924   3.432 -1.5779 -0.1003 -0.9228
 4866SOL    HW226058   1.052   3.066   3.479  1.4605 -0.5668  0.1262
 4867SOL     OW26059   0.291   2.978   9.166 -0.1018  0.3972  0.1048
 4867SOL    HW126060   0.204   3.001   9.199  0.3851 -0.3516  1.8904
 4867SOL    HW226061   0.302   2.886   9.187 -0.8006 -0.1287 -1.8933
 4868SOL     OW26062   1.655   4.072  15.165  0.3358  0.0766 -0.5477
 4868SOL    HW126063   1.686   4.012  15.233  0.3570 -0.3103 -0.8989
 4868SOL    HW226064   1.728   4.068  15.103  0.3149 -2.0881 -0.4371
 4869SOL     OW26065   1.661   1.674   2.256  0.2062  0.2269 -0.0104
 4869SOL    HW126066   1.574   1.639   2.240  0.3997  0.8608 -2.4863
 4869SOL    HW226067   1.669   1.680   2.351 -0.1385  0.3802  0.0067
 4870SOL     OW26068   1.820   3.357   7.978 -0.0323 -0.5391 -0.0110
 4870SOL    HW126069   1.807   3.286   8.041  0.3423  0.2247  0.9312
 4870SOL    HW226070   1.904   3.396   8.002  0.2719 -1.1431 -0.0907
 4871SOL     OW26071   0.354   1.235   6.271  0.3669 -0.0055  0.0883
 4871SOL    HW126072   0.414   1.174   6.315 -0.5506 -0.1685  1.1265
 4871SOL    HW226073   0.395   1.317   6.297 -0.8851  0.9159 -0.8707
 4872SOL     OW26074   0.701   1.545   5.057 -0.3086  0.2681 -0.0405
 4872SOL    HW126075   0.728   1.636   5.054 -0.9952  0.4273 -1.4677
 4872SOL    HW226076   0.757   1.504   4.991 -1.1681 -1.7181  0.4610
 4873SOL     OW26077   1.339   1.249   7.411  0.3125 -0.4596  0.4000
 4873SOL    HW126078   1.266   1.274   7.469  1.1076  0.2436  1.0864
 4873SOL    HW226079   1.361   1.333   7.373 -0.5532 -0.5646 -0.3469
 4874SOL     OW26080   2.249   3.576  16.371  0.8723  0.2629 -0.0731
 4874SOL    HW126081   2.192   3.499  16.374 -1.7153  2.1856 -0.0405
 4874SOL    HW226082   2.333   3.536  16.348 -0.1351 -0.5199 -2.3781
 4875SOL     OW26083   0.455   4.641   4.788 -0.4210 -0.9692  0.1282
 4875SOL    HW126084   0.399   4.644   4.865 -0.4729  0.2167  0.0512
 4875SOL    HW226085   0.497   4.555   4.790 -0.3107 -0.9120  0.3116
 4876SOL     OW26086   3.188   2.903   6.367  0.0837  0.2243  0.1159
 4876SOL    HW126087   3.116   2.856   6.325 -0.6163 -0.1994  1.8149
 4876SOL    HW226088   3.137   2.983   6.377  1.2805  0.8063  1.6110
 4877SOL     OW26089   0.470   2.017   6.903 -0.0625 -0.1249 -0.0349
 4877SOL    HW126090   0.459   1.928   6.936  0.3970 -0.6195 -1.2534
 4877SOL    HW226091   0.446   2.006   6.811  1.1015  1.6655 -0.5463
 4878SOL     OW26092   0.496   0.465   4.158 -0.4327  0.1864  0.3714
 4878SOL    HW126093   0.554   0.401   4.117 -0.7552  0.5227 -0.6052
 4878SOL    HW226094   0.526   0.538   4.103  1.4786  0.3967  1.6576
 4879SOL     OW26095   3.582   1.906   3.189  0.5535  0.5491  0.0692
 4879SOL    HW126096   3.599   1.814   3.207 -0.4227  0.1354 -1.0995
 4879SOL    HW226097   3.660   1.938   3.144 -0.5961  1.1623 -1.5098
 4880SOL     OW26098   1.113   4.646   8.132 -0.4967 -0.1748 -0.2988
 4880SOL    HW126099   1.035   4.700   8.124  0.7448  1.3883 -1.9096
 4880SOL    HW226100   1.131   4.649   8.038 -2.7329 -3.0322 -0.8061
 4881SOL     OW26101   4.615   3.910   1.541  0.4275 -0.0250  0.9944
 4881SOL    HW126102   4.613   3.871   1.629 -3.9597  0.2717  1.0476
 4881SOL    HW226103   4.617   3.831   1.487 -0.7314  0.4580  0.2300
 4882SOL     OW26104   0.119   0.738   2.044 -0.1321 -0.6839 -0.1668
 4882SOL    HW126105   0.033   0.758   2.006 -2.1897 -3.4451  3.0557
 4882SOL    HW226106   0.098   0.669   2.107 -1.9676 -0.0968 -0.1199
 4883SOL     OW26107   3.927   2.741   9.045 -0.1286 -0.1964 -0.0624
 4883SOL    HW126108   3.900   2.664   8.995 -1.4219  1.2969 -1.6896
 4883SOL    HW226109   3.856   2.759   9.106  1.4901 -0.4886  1.8896
 4884SOL     OW26110   0.536   0.844  17.308 -0.3145 -0.4298 -0.2138
 4884SOL    HW126111   0.548   0.771  17.369 -1.1477  0.0178  0.4939
 4884SOL    HW226112   0.553   0.916  17.369 -0.6834  0.2080 -0.8582
 4885SOL     OW26113   1.163   2.849   6.593 -0.0204  0.3695 -0.5010
 4885SOL    HW126114   1.105   2.781   6.627  1.6846 -1.1274 -0.5306
 4885SOL    HW226115   1.168   2.905   6.670 -1.6469 -0.6341  0.3235
 4886SOL     OW26116   1.237   1.380   5.991  0.2571  0.2133  0.2571
 4886SOL    HW126117   1.162   1.344   5.943 -0.6032  0.7682  1.1873
 4886SOL    HW226118   1.312   1.332   5.956  0.1516  1.9506 -2.3582
 4887SOL     OW26119   0.437   3.553   2.516  0.7084  0.0953 -0.6668
 4887SOL    HW126120   0.388   3.573   2.437 -0.1909 -0.3016 -0.2135
 4887SOL    HW226121   0.406   3.463   2.524  0.4455  0.3547  1.3027
 4888SOL     OW26122   3.202   1.770  10.651  0.0376  0.5869 -0.0608
 4888SOL    HW126123   3.185   1.724  10.733  1.0321  1.0980  0.4284
 4888SOL    HW226124   3.154   1.852  10.667  0.4332  1.1261 -1.6119
 4889SOL     OW26125   0.247   1.575   2.514  0.5932  0.0974  0.5465
 4889SOL    HW126126   0.158   1.610   2.521  0.6043  0.3242 -0.4047
 4889SOL    HW226127   0.271   1.562   2.606  0.2747  1.4144  0.8163
 4890SOL     OW26128   2.209   2.885   4.956  0.2592  0.1147  0.4772
 4890SOL    HW126129   2.181   2.849   4.872 -0.3439 -0.3466  0.8743
 4890SOL    HW226130   2.227   2.977   4.940 -0.6252  0.4878  1.6068
 4891SOL     OW26131   0.875   3.955   8.430  0.2360 -0.6339 -0.4901
 4891SOL    HW126132   0.956   3.941   8.381  1.2846 -0.1440  1.1092
 4891SOL    HW226133   0.864   3.864   8.460  0.6133 -1.0482 -1.5919
 4892SOL     OW26134   4.585   3.015   6.347 -0.1633  0.0631 -0.0402
 4892SOL    HW126135   4.502   2.986   6.309  0.4109 -3.1345  1.1417
 4892SOL    HW226136   4.628   3.038   6.265 -2.1651  0.0584 -1.0975
 4893SOL     OW26137   1.827   1.790   3.309  0.3404  0.8145  0.3347
 4893SOL    HW126138   1.875   1.855   3.258 -2.7750  2.7075 -0.2274
 4893SOL    HW226139   1.815   1.847   3.385 -1.5170 -0.7322  1.1826
 4894SOL     OW26140   3.704   2.744   7.467  0.5348 -0.1827 -0.2888
 4894SOL    HW126141   3.733   2.791   7.388  1.0025  1.3105  0.7763
 4894SOL    HW226142   3.619   2.714   7.435  0.6280  0.4813 -1.1678
 4895SOL     OW26143   3.846   1.934  13.396 -0.7655 -0.3801 -0.0261
 4895SOL    HW126144   3.822   2.012  13.448 -0.3137 -0.8085  0.8203
 4895SOL    HW226145   3.756   1.904  13.381 -1.6319  1.9760  0.3627
 4896SOL     OW26146   0.658   0.531  10.681  0.7051 -0.3675  0.1266
 4896SOL    HW126147   0.742   0.550  10.722 -0.5389 -1.8348  3.3472
 4896SOL    HW226148   0.656   0.441  10.714 -0.4140 -0.6120 -0.5958
 4897SOL     OW26149   1.467   1.819   3.264  0.2286 -0.3818  0.0889
 4897SOL    HW126150   1.391   1.777   3.305  0.8727  0.1953  1.8494
 4897SOL    HW226151   1.530   1.746   3.267  1.1641  0.4820  1.3396
 4898SOL     OW26152   3.616   1.165   5.239 -0.5013  0.5839  0.5095
 4898SOL    HW126153   3.603   1.257   5.221 -1.3692 -0.0550 -2.0396
 4898SOL    HW226154   3.530   1.130   5.216  0.0878 -1.3292  1.1635
 4899SOL     OW26155   2.457   3.748   4.578 -0.0034 -0.3059 -0.2704
 4899SOL    HW126156   2.411   3.806   4.639  1.0300  1.0550 -0.7817
 4899SOL    HW226157   2.525   3.719   4.639 -0.3814  0.5930  0.5930
 4900SOL     OW26158   0.232   3.751   2.847 -0.8939  0.1930 -0.1876
 4900SOL    HW126159   0.313   3.737   2.896 -0.9963 -1.8012 -0.6057
 4900SOL    HW226160   0.262   3.780   2.761 -1.5897 -1.7382 -1.0718
 4901SOL     OW26161   1.475   1.954   2.565  0.7762  0.1423  0.3809
 4901SOL    HW126162   1.460   1.947   2.659  1.3069 -1.8410  0.3206
 4901SOL    HW226163   1.407   2.017   2.542  0.6806 -0.1400 -0.1167
 4902SOL     OW26164   1.878   1.963   4.549  0.5064 -0.1747  0.1694
 4902SOL    HW126165   1.819   1.965   4.474  0.9611 -0.4247 -0.1860
 4902SOL    HW226166   1.846   1.883   4.592 -0.9392 -0.2102 -0.9690
 4903SOL     OW26167   0.162   2.576   4.115  0.3759 -0.4879 -0.5592
 4903SOL    HW126168   0.254   2.560   4.094  0.7442  2.1992 -0.9385
 4903SOL    HW226169   0.189   2.597   4.204  0.5188  0.8782 -0.9150
 4904SOL     OW26170   1.841   0.737   2.306  0.1094 -0.2841  0.2751
 4904SOL    HW126171   1.858   0.663   2.247  1.0794  0.9729 -1.0457
 4904SOL    HW226172   1.746   0.740   2.299  0.2482  0.5595 -1.2890
 4905SOL     OW26173   0.983   1.273   5.544  0.4508 -0.0084 -0.0382
 4905SOL    HW126174   0.909   1.224   5.509  0.1439 -0.2316  0.9151
 4905SOL    HW226175   0.957   1.365   5.532  2.2194  0.0292 -3.5549
 4906SOL     OW26176   0.989   2.620   5.452 -0.3338 -0.0684 -0.6336
 4906SOL    HW126177   1.012   2.686   5.517 -1.0463 -0.4871  0.0383
 4906SOL    HW226178   0.894   2.614   5.458 -0.5168  1.6612 -1.9999
 4907SOL     OW26179   2.078   4.718   4.681 -0.0118 -0.4861 -0.2954
 4907SOL    HW126180   2.151   4.661   4.708 -0.6703 -1.7392 -1.1613
 4907SOL    HW226181   2.087   0.009   4.586 -0.7392  2.0990 -0.0530
 4908SOL     OW26182   3.315   0.591   5.670  0.1463  0.8560 -0.4377
 4908SOL    HW126183   3.244   0.571   5.610  0.8708  0.5052 -1.1778
 4908SOL    HW226184   3.280   0.631   5.749 -2.2382 -0.2924 -0.9276
 4909SOL     OW26185   4.461   0.237   9.454  0.2271  0.6979  0.2077
 4909SOL    HW126186   4.453   0.145   9.429 -2.1995  0.6750  1.0681
 4909SOL    HW226187   4.556   0.247   9.446  0.1794  2.5911  2.2253
 4910SOL     OW26188   3.348   0.909   6.051  0.4897 -0.4534 -0.3256
 4910SOL    HW126189   3.413   0.967   6.010  1.2241 -0.1345  1.2915
 4910SOL    HW226190   3.353   0.926   6.145  3.3622 -2.2424 -0.1434
 4911SOL     OW26191   4.014   2.315   4.793  0.5375 -0.5318  0.2493
 4911SOL    HW126192   3.988   2.228   4.824 -1.8045 -0.3240 -1.1354
 4911SOL    HW226193   4.110   2.320   4.800  0.7127  1.2700 -3.3018
 4912SOL     OW26194   0.516   1.721   5.183  0.6430 -0.4543 -0.1806
 4912SOL    HW126195   0.553   1.662   5.118  0.4436  0.2924 -0.9727
 4912SOL    HW226196   0.457   1.672   5.239 -0.4305 -0.1806 -1.0754
 4913SOL     OW26197   3.125   1.464   5.155 -0.3110  0.7393 -1.1453
 4913SOL    HW126198   3.181   1.476   5.231 -0.4561 -0.2638 -0.8878
 4913SOL    HW226199   3.040   1.493   5.191 -0.3943 -2.7790  1.4350
 4914SOL     OW26200   4.064   1.362  13.673  0.1769  0.3468  0.1954
 4914SOL    HW126201   3.996   1.357  13.606 -1.3063  0.6468  1.6501
 4914SOL    HW226202   4.042   1.448  13.710 -0.7255  1.0367 -1.9658
 4915SOL     OW26203   0.038   1.776   1.480  0.1134  0.0713  0.2012
 4915SOL    HW126204   0.120   1.770   1.530  0.7399 -0.4752 -0.9057
 4915SOL    HW226205   0.071   1.823   1.404 -1.3485  1.0971  0.1877
 4916SOL     OW26206   1.590   2.456   7.751 -0.0865  0.1962 -0.3518
 4916SOL    HW126207   1.672   2.501   7.733  0.2098  0.2847  1.2761
 4916SOL    HW226208   1.522   2.508   7.708 -0.3637 -0.8873 -1.2134
 4917SOL     OW26209   1.746   1.458   8.781  0.0388  0.1512  0.2389
 4917SOL    HW126210   1.762   1.505   8.699  1.2124 -1.6966 -0.6022
 4917SOL    HW226211   1.824   1.481   8.832  0.4704  1.9630 -1.2160
 4918SOL     OW26212   1.933   2.746   2.953  0.3402  0.2884 -0.5056
 4918SOL    HW126213   1.979   2.663   2.939  1.1908  0.6559  0.1308
 4918SOL    HW226214   1.859   2.719   3.008 -1.5012  1.6690 -2.3267
 4919SOL     OW26215   0.059   3.298  12.906 -0.2728  0.4291 -0.2272
 4919SOL    HW126216   4.684   3.294  12.911 -0.3125  0.6278 -0.8457
 4919SOL    HW226217   0.087   3.288  12.996 -0.8457  0.6535 -0.0243
 4920SOL     OW26218   1.979   4.241   3.035  0.2886 -0.1684 -0.2950
 4920SOL    HW126219   2.037   4.215   2.964  2.3721  0.2220  1.2403
 4920SOL    HW226220   2.001   4.334   3.049 -1.8003  0.2019  0.5417
 4921SOL     OW26221   0.668   4.453   8.756 -0.2092 -0.3583  0.1404
 4921SOL    HW126222   0.664   4.467   8.662  3.1525 -4.3426 -0.5799
 4921SOL    HW226223   0.698   4.540   8.784 -4.6658  1.2149  0.0111
 4922SOL     OW26224   0.670   0.466   5.693 -0.1388 -0.1648 -0.4608
 4922SOL    HW126225   0.726   0.539   5.721 -0.1311  0.7552 -2.8976
 4922SOL    HW226226   0.666   0.475   5.598  0.9731  1.2769 -0.3816
 4923SOL     OW26227   3.248   0.368   1.664  0.2159  0.5146  0.5891
 4923SOL    HW126228   3.216   0.287   1.704  1.5638  0.2075  1.0576
 4923SOL    HW226229   3.335   0.357   1.626  0.1826 -1.2870  1.0468
 4924SOL     OW26230   2.920   2.521   8.191  0.2412  0.3697  0.0231
 4924SOL    HW126231   2.902   2.442   8.241  3.7673  0.3958  1.2663
 4924SOL    HW226232   3.015   2.524   8.202  0.0724  0.0609  1.6103
 4925SOL     OW26233   0.962   3.899  12.233 -0.2622 -0.1015  0.1932
 4925SOL    HW126234   0.976   3.894  12.328  0.4399 -0.2778  0.0820
 4925SOL    HW226235   1.043   3.941  12.205  0.1724  0.6940  2.6727
 4926SOL     OW26236   2.143   3.177  15.074 -0.2072  0.0208 -0.0502
 4926SOL    HW126237   2.151   3.260  15.121  2.1427  1.2306 -2.5706
 4926SOL    HW226238   2.071   3.201  15.016  0.0242 -0.8519 -0.7044
 4927SOL     OW26239   4.006   0.345   6.722  0.0725 -0.1891 -0.5223
 4927SOL    HW126240   4.023   0.284   6.650 -2.7351 -0.6915 -0.7839
 4927SOL    HW226241   3.928   0.389   6.687 -0.7244 -0.9185  0.3345
 4928SOL     OW26242   2.766   1.099   3.739 -0.0998 -0.1666 -0.0024
 4928SOL    HW126243   2.723   1.124   3.821 -0.3444  2.1930 -0.8560
 4928SOL    HW226244   2.701   1.046   3.694  0.0084  0.3817 -0.8014
 4929SOL     OW26245   1.153   3.206  15.032 -0.5698  0.0878 -0.4453
 4929SOL    HW126246   1.172   3.114  15.053  1.2071  0.8773  1.3643
 4929SOL    HW226247   1.178   3.253  15.111 -0.0169 -0.7499 -0.1223
 4930SOL     OW26248   3.363   0.438  14.150  0.4067 -0.1535 -0.0714
 4930SOL    HW126249   3.385   0.346  14.167  1.2263 -0.1635 -1.2195
 4930SOL    HW226250   3.435   0.476  14.199  0.2123 -0.7484  0.6842
 4931SOL     OW26251   1.688   2.520  10.431  0.1325  0.1118  0.7131
 4931SOL    HW126252   1.760   2.582  10.426 -1.2548  1.8079  1.7070
 4931SOL    HW226253   1.698   2.487  10.342  2.1161 -1.7367  1.6459
 4932SOL     OW26254   4.216   0.027   7.509 -0.0809 -0.4790  0.2582
 4932SOL    HW126255   4.245   4.681   7.571 -2.9840 -1.6586  0.3381
 4932SOL    HW226256   4.287   0.012   7.447  0.1167  1.4951 -0.0032
 4933SOL     OW26257   3.356   2.351  15.305  0.0012 -0.4126  0.1601
 4933SOL    HW126258   3.366   2.278  15.243  3.6410 -1.5842  2.1622
 4933SOL    HW226259   3.260   2.352  15.312 -0.0132  2.4677 -0.3449
 4934SOL     OW26260   4.685   1.588  14.965  0.0427 -0.0280 -0.0733
 4934SOL    HW126261   4.642   1.642  14.899  0.2530 -0.9113 -0.9397
 4934SOL    HW226262   0.052   1.619  14.943 -0.9189  2.5199 -0.3168
 4935SOL     OW26263   2.625   3.289   8.524 -0.1349  0.1253  0.4963
 4935SOL    HW126264   2.547   3.282   8.579 -1.1426 -2.4930 -1.2322
 4935SOL    HW226265   2.597   3.244   8.444 -1.2621  0.1284  0.8853
 4936SOL     OW26266   3.488   0.629   4.755  0.5752  0.2709 -0.1547
 4936SOL    HW126267   3.405   0.674   4.744 -0.0493 -0.3011  2.1634
 4936SOL    HW226268   3.503   0.595   4.667  3.9107  0.1810  0.4092
 4937SOL     OW26269   2.864   3.500   9.351  0.2104  0.2397 -0.3678
 4937SOL    HW126270   2.939   3.522   9.406 -0.9589  1.2434  0.8162
 4937SOL    HW226271   2.791   3.519   9.410  1.1697  0.8559  0.6186
 4938SOL     OW26272   2.657   2.115   0.645 -0.6781 -0.6154  0.0417
 4938SOL    HW126273   2.568   2.090   0.669 -1.1017  1.1651  0.3929
 4938SOL    HW226274   2.651   2.084   0.554  3.4773  0.8160 -0.7583
 4939SOL     OW26275   2.220   3.174   6.216  0.4866 -0.9419  0.3597
 4939SOL    HW126276   2.174   3.144   6.138 -2.6010  3.0611  0.6491
 4939SOL    HW226277   2.144   3.204   6.266 -0.1028 -1.4747 -0.2159
 4940SOL     OW26278   3.957   2.978   5.730  0.5570  0.6043 -0.2823
 4940SOL    HW126279   3.944   3.011   5.641  1.4325 -0.3398 -0.7544
 4940SOL    HW226280   4.045   3.008   5.755  0.9455  0.1405 -1.1068
 4941SOL     OW26281   0.604   2.597   7.260  0.4350  0.5054  0.4605
 4941SOL    HW126282   0.619   2.578   7.353  0.2373 -1.0720  0.1812
 4941SOL    HW226283   0.664   2.529   7.230 -0.0775 -0.0843  0.7439
 4942SOL     OW26284   2.807   1.156   2.219  0.3232  0.2869 -0.2661
 4942SOL    HW126285   2.898   1.128   2.231  1.0163  2.0977 -1.3120
 4942SOL    HW226286   2.829   1.231   2.164  0.5980  0.6043  0.2797
 4943SOL     OW26287   0.858   0.994   1.979 -0.1713  0.3905  0.9349
 4943SOL    HW126288   0.892   1.079   1.949  3.0216 -0.4953  2.0854
 4943SOL    HW226289   0.880   0.941   1.902 -2.3607 -0.8371  1.1655
 4944SOL     OW26290   3.022   3.704   4.306 -0.2269  0.0865  0.3888
 4944SOL    HW126291   2.983   3.658   4.381 -1.4196  2.0466  0.9823
 4944SOL    HW226292   3.026   3.793   4.342  0.2104  0.6775 -1.1230
 4945SOL     OW26293   3.693   4.708   4.688  0.0554 -0.0062 -0.0395
 4945SOL    HW126294   3.776   4.667   4.662  0.8958  0.1404  2.4107
 4945SOL    HW226295   3.720   0.072   4.724 -0.0197 -0.4645  1.0830
 4946SOL     OW26296   2.803   3.640  14.323 -0.8245  0.2641  0.7985
 4946SOL    HW126297   2.869   3.592  14.372  0.5762  1.2992 -0.0632
 4946SOL    HW226298   2.725   3.615  14.371 -2.1705  0.8343 -1.0803
 4947SOL     OW26299   0.217   2.411  10.625 -0.0918  0.2389  0.3201
 4947SOL    HW126300   0.170   2.431  10.544 -0.9282  0.5821  0.8786
 4947SOL    HW226301   0.246   2.323  10.603 -0.6321  0.2894 -0.5866
 4948SOL     OW26302   0.233   1.289   6.562  0.2630 -0.2242  0.2660
 4948SOL    HW126303   0.328   1.293   6.556  0.2774 -2.9002 -1.3416
 4948SOL    HW226304   0.215   1.381   6.581 -2.0098 -0.7966  0.8373
 4949SOL     OW26305   4.636   1.376  10.486 -0.3093  0.0858  0.1159
 4949SOL    HW126306   0.010   1.371  10.499 -0.2256  1.7194  0.2129
 4949SOL    HW226307   4.635   1.418  10.400  0.0846 -1.7259 -0.7784
 4950SOL     OW26308   0.119   2.188   3.375 -0.3196  0.3074  0.3272
 4950SOL    HW126309   0.130   2.165   3.283  0.9893 -1.7040  0.9755
 4950SOL    HW226310   0.056   2.260   3.369 -1.3999 -0.4813  2.1920
 4951SOL     OW26311   1.309   1.987  10.247 -0.5942  0.4970  0.3804
 4951SOL    HW126312   1.306   1.902  10.292 -1.5680  0.2195 -0.2177
 4951SOL    HW226313   1.258   1.971  10.168  1.0964 -0.9895 -0.4118
 4952SOL     OW26314   0.771   2.665   3.404 -0.4977  0.8285 -0.6325
 4952SOL    HW126315   0.725   2.601   3.349  0.7127 -0.5064 -0.1065
 4952SOL    HW226316   0.710   2.680   3.476  0.4926 -1.2099  0.6260
 4953SOL     OW26317   3.667   0.110  17.671  0.5379 -0.0963 -0.0918
 4953SOL    HW126318   3.715   0.029   0.005 -0.7994 -1.1109 -1.0114
 4953SOL    HW226319   3.685   0.153   0.069  1.0233 -1.0516  0.3019
 4954SOL     OW26320   4.662   0.924  13.621  0.3281  0.4704 -0.1200
 4954SOL    HW126321   4.611   0.843  13.615  1.1649  0.1398 -2.9218
 4954SOL    HW226322   4.603   0.963  13.685 -0.4005  0.7149 -0.9468
 4955SOL     OW26323   3.928   4.025   7.518 -0.1274  0.3587 -0.1722
 4955SOL    HW126324   3.866   4.056   7.452  2.0748 -1.2485 -2.9899
 4955SOL    HW226325   3.894   4.066   7.598 -1.5174 -2.3029  0.5919
 4956SOL     OW26326   0.324   4.642   0.412  0.2390 -0.0960 -0.3058
 4956SOL    HW126327   0.340   4.548   0.411 -1.7673 -0.4321 -2.0389
 4956SOL    HW226328   0.403   4.677   0.453 -0.9160  0.9030  1.0844
 4957SOL     OW26329   1.401   3.686  16.784 -0.6070 -0.5624 -0.0059
 4957SOL    HW126330   1.362   3.728  16.860  0.3517  0.7307 -0.2148
 4957SOL    HW226331   1.491   3.675  16.816 -0.6075 -1.1577 -0.1972
 4958SOL     OW26332   3.110   4.665   1.976  0.3982 -0.1005 -0.0801
 4958SOL    HW126333   3.172   4.617   2.031  0.2968 -0.5492 -0.3573
 4958SOL    HW226334   3.083   4.591   1.922 -1.6010 -0.1113  0.9456
 4959SOL     OW26335   3.144   1.632   2.621 -0.5231  0.3339  0.4784
 4959SOL    HW126336   3.146   1.646   2.716 -1.1818 -0.3248  0.5911
 4959SOL    HW226337   3.231   1.598   2.603 -0.6682  0.9607 -1.4621
 4960SOL     OW26338   3.022   0.021   7.685  0.2712 -0.0846  0.5653
 4960SOL    HW126339   3.074   0.030   7.764  1.1974 -1.0946  0.0623
 4960SOL    HW226340   2.992   0.112   7.679 -0.3813 -0.3252  0.1508
 4961SOL     OW26341   2.370   0.005   2.288  0.6528  0.5194 -0.1796
 4961SOL    HW126342   2.462   4.706   2.301  0.7580 -0.4074 -2.2227
 4961SOL    HW226343   2.319   4.646   2.300  0.3758  0.3097 -2.6944
 4962SOL     OW26344   1.794   2.548   3.395  0.1413  0.6734 -0.6128
 4962SOL    HW126345   1.843   2.559   3.477 -1.0097 -2.8932  0.5353
 4962SOL    HW226346   1.753   2.462   3.406  2.7052 -0.7943 -2.5640
 4963SOL     OW26347   0.691   1.914   8.815  0.0118  0.0853 -0.4466
 4963SOL    HW126348   0.712   1.909   8.909 -0.1028  1.7891 -0.3426
 4963SOL    HW226349   0.596   1.905   8.818  0.2374 -1.7390  1.6651
 4964SOL     OW26350   2.171   0.401   5.635  0.2510  0.2080 -0.1930
 4964SOL    HW126351   2.141   0.315   5.603  1.0921  0.7579 -2.4598
 4964SOL    HW226352   2.122   0.452   5.571 -0.1473  1.8666  1.4472
 4965SOL     OW26353   4.530   3.108   9.058  0.7700  0.8138 -0.0046
 4965SOL    HW126354   4.611   3.158   9.056  1.5905 -0.5076  0.7865
 4965SOL    HW226355   4.551   3.034   9.002 -2.2441  0.6272 -0.8776
 4966SOL     OW26356   3.305   2.868   2.502  0.2425  0.5962 -1.0002
 4966SOL    HW126357   3.327   2.901   2.589 -2.8321 -0.7512  0.2853
 4966SOL    HW226358   3.314   2.949   2.450 -0.6712  1.7036  0.5544
 4967SOL     OW26359   1.849   4.593   4.516  0.0059 -0.4517  0.2866
 4967SOL    HW126360   1.759   4.587   4.483  0.2065 -2.6345  0.1240
 4967SOL    HW226361   1.881   4.671   4.471 -0.9502  0.7315  1.6789
 4968SOL     OW26362   2.180   3.144   7.943  0.2290 -0.7674 -0.2542
 4968SOL    HW126363   2.115   3.153   7.873 -0.6031 -0.3287  0.5781
 4968SOL    HW226364   2.183   3.050   7.960 -1.3055 -0.2528  2.9232
 4969SOL     OW26365   0.452   3.078   5.048  0.1600  0.2955 -0.1255
 4969SOL    HW126366   0.510   3.151   5.070 -2.1352  1.2441  2.7171
 4969SOL    HW226367   0.510   3.041   4.981  0.7726  1.3167 -0.1676
 4970SOL     OW26368   2.973   1.660   4.651  0.3019  0.1326 -0.1654
 4970SOL    HW126369   2.933   1.621   4.574 -2.2211  1.7700  0.3090
 4970SOL    HW226370   2.973   1.756   4.645  0.5286 -0.0024 -2.0348
 4971SOL     OW26371   1.279   0.358  15.410 -0.5985 -0.3719  0.1058
 4971SOL    HW126372   1.369   0.381  15.431  0.1384 -0.8814 -2.4233
 4971SOL    HW226373   1.266   0.426  15.343  0.9797  0.1929  0.3646
 4972SOL     OW26374   4.510   2.644   6.417 -0.0597  0.2101 -0.4466
 4972SOL    HW126375   4.487   2.555   6.393  1.6616 -0.9240  2.1469
 4972SOL    HW226376   4.424   2.686   6.415 -0.0069  0.4727  2.4055
 4973SOL     OW26377   2.643   3.777   6.474 -0.3286  0.4459 -0.0322
 4973SOL    HW126378   2.654   3.760   6.568 -1.3436  0.4527  0.0888
 4973SOL    HW226379   2.728   3.815   6.451 -1.6375  2.0687 -2.2002
 4974SOL     OW26380   1.410   1.344  11.958  0.2715 -0.3577 -0.1021
 4974SOL    HW126381   1.365   1.261  11.948 -1.3484  0.4855  0.2312
 4974SOL    HW226382   1.482   1.322  11.899  0.8687  2.4082 -0.4287
 4975SOL     OW26383   2.903   1.393   7.597 -0.1218  0.6264  0.8305
 4975SOL    HW126384   2.891   1.483   7.626 -0.9718  0.0832  2.1566
 4975SOL    HW226385   2.816   1.353   7.587  0.2273 -0.9076  3.7323
 4976SOL     OW26386   4.016   3.547  17.083 -0.3108 -0.1128  0.0665
 4976SOL    HW126387   4.029   3.519  16.992  0.8700 -1.9428  0.7918
 4976SOL    HW226388   4.067   3.627  17.072 -1.4472  0.7159  0.8057
 4977SOL     OW26389   0.231   4.416   6.100  0.0239  0.0144  0.4504
 4977SOL    HW126390   0.253   4.463   6.020  0.8219  0.1976  0.7800
 4977SOL    HW226391   0.295   4.451   6.162 -1.2203  1.5376  0.8805
 4978SOL     OW26392   1.443   2.789  11.226 -0.3627 -0.2114  0.3607
 4978SOL    HW126393   1.408   2.797  11.315  0.5943  1.8935  0.5564
 4978SOL    HW226394   1.523   2.736  11.230  0.9723  1.8066  0.1435
 4979SOL     OW26395   2.438   4.670   6.442 -0.2139 -0.0181 -0.0798
 4979SOL    HW126396   2.432   4.650   6.536 -1.1488  0.9095  0.0411
 4979SOL    HW226397   2.440   0.044   6.446  0.0368 -0.0568  0.8658
 4980SOL     OW26398   0.139   0.434   5.573  0.1275  0.6436 -0.2624
 4980SOL    HW126399   0.220   0.428   5.622 -0.7363  2.7284  1.4205
 4980SOL    HW226400   0.125   0.528   5.582 -2.8337  0.0821  1.0485
 4981SOL     OW26401   1.001   0.231   7.838  0.0563  0.6629 -0.2190
 4981SOL    HW126402   0.920   0.202   7.879 -1.2654  1.6381 -2.1116
 4981SOL    HW226403   1.061   0.240   7.912 -0.2971  0.8715  0.0378
 4982SOL     OW26404   0.958   2.947   6.162  0.0896 -0.2129  0.4787
 4982SOL    HW126405   0.983   2.940   6.254 -0.4443 -0.8132  0.5865
 4982SOL    HW226406   0.922   3.035   6.150  0.0501 -0.2888  0.0335
 4983SOL     OW26407   4.660   3.450   7.263 -0.0615 -0.0090 -0.1246
 4983SOL    HW126408   4.596   3.520   7.251 -0.2746 -0.3495 -0.9546
 4983SOL    HW226409   0.015   3.496   7.299 -0.5910  0.1163  0.8255
 4984SOL     OW26410   3.539   4.564   6.918  0.2017  0.0785  0.5537
 4984SOL    HW126411   3.619   4.512   6.909  1.5013  2.2306 -0.1886
 4984SOL    HW226412   3.574   4.647   6.951 -0.0702  0.3268  0.2135
 4985SOL     OW26413   2.923   0.275  13.902 -0.3571  0.4469  0.0089
 4985SOL    HW126414   2.969   0.328  13.966 -0.3800 -1.5711  1.6978
 4985SOL    HW226415   2.988   0.273  13.831  1.0736  2.0490  1.2842
 4986SOL     OW26416   0.052   1.729  17.159 -0.4398 -0.0543  0.3130
 4986SOL    HW126417   0.037   1.745  17.252 -0.0821  0.7169  0.2377
 4986SOL    HW226418   0.053   1.633  17.162  0.2242 -0.0344  0.5681
 4987SOL     OW26419   1.714   4.625   3.322  0.0915 -0.3179  0.0867
 4987SOL    HW126420   1.739   4.643   3.412 -0.7130  1.5576 -0.0513
 4987SOL    HW226421   1.784   4.658   3.266  1.4082 -1.0614  1.3047
 4988SOL     OW26422   0.175   3.343   6.226 -0.0222  0.1138  0.2122
 4988SOL    HW126423   0.127   3.345   6.309  2.3485 -0.1303  1.5847
 4988SOL    HW226424   0.191   3.252   6.201 -0.7906  0.3460 -1.1155
 4989SOL     OW26425   0.598   2.450  10.380  0.7601 -0.2646 -0.2234
 4989SOL    HW126426   0.672   2.393  10.362  0.8290  0.7655 -3.1756
 4989SOL    HW226427   0.593   2.449  10.476  0.2103 -0.9778 -0.2583
 4990SOL     OW26428   0.836   0.041   0.570 -0.4898  0.5859  0.3269
 4990SOL    HW126429   0.892   0.111   0.603  1.9214 -0.3524 -1.7448
 4990SOL    HW226430   0.896   0.017   0.499 -2.2214  0.2091 -1.0287
 4991SOL     OW26431   1.596   1.308   6.313 -0.0903  0.3538  0.1798
 4991SOL    HW126432   1.556   1.257   6.242  2.4962  1.0465 -1.7647
 4991SOL    HW226433   1.651   1.371   6.266 -1.3737  0.8388 -0.6835
 4992SOL     OW26434   3.418   0.125   2.000 -0.6904  0.2192  0.0544
 4992SOL    HW126435   3.483   0.061   1.969 -0.5819  0.8400 -1.0188
 4992SOL    HW226436   3.430   0.109   2.093  2.2616  1.7553 -0.0506
 4993SOL     OW26437   0.119   0.654   5.732 -0.5381  0.1205 -0.5627
 4993SOL    HW126438   0.203   0.676   5.773  0.3804  0.0679 -2.4396
 4993SOL    HW226439   0.056   0.699   5.789  0.3443 -1.5044  1.6971
 4994SOL     OW26440   3.575   0.238   5.568  0.6176  0.7130 -0.0756
 4994SOL    HW126441   3.534   0.323   5.551  0.6464  0.6883 -0.2681
 4994SOL    HW226442   3.551   0.182   5.494 -2.5675 -0.3609  1.7320
 4995SOL     OW26443   0.384   2.176   3.969 -0.0478 -0.6744  0.1155
 4995SOL    HW126444   0.479   2.184   3.960 -0.4171  0.1971 -2.8772
 4995SOL    HW226445   0.373   2.126   3.888  1.2507 -0.1173 -0.3893
 4996SOL     OW26446   2.704   1.085   8.149  0.2613  0.0008  0.5363
 4996SOL    HW126447   2.795   1.095   8.121  0.1439 -3.8044 -1.2775
 4996SOL    HW226448   2.708   1.041   8.233 -0.7077  1.0417  1.1266
 4997SOL     OW26449   2.191   4.215   1.671  0.0013  0.3193 -0.1895
 4997SOL    HW126450   2.129   4.162   1.620  0.8468  0.4213 -1.3110
 4997SOL    HW226451   2.259   4.233   1.606  1.6116 -0.9227  1.1648
 4998SOL     OW26452   3.627   3.791  14.824 -0.5904 -0.2547 -0.1618
 4998SOL    HW126453   3.701   3.737  14.853  0.7948  1.7645  0.0116
 4998SOL    HW226454   3.554   3.729  14.830 -0.5629 -0.2399  0.3743
 4999SOL     OW26455   0.762   0.804  10.436  0.1116  0.6193 -0.2573
 4999SOL    HW126456   0.789   0.847  10.517  0.1232 -2.4783  1.3752
 4999SOL    HW226457   0.681   0.849  10.412 -0.1002 -0.1047 -0.9135
 5000SOL     OW26458   2.742   0.710  11.282  0.0963 -0.3502  0.0187
 5000SOL    HW126459   2.649   0.717  11.260  0.5566  1.6105 -1.3452
 5000SOL    HW226460   2.745   0.621  11.316  1.1239 -0.0604  0.6805
 5001SOL     OW26461   2.030   1.171   0.843 -0.4620 -0.3200 -0.0877
 5001SOL    HW126462   2.063   1.123   0.767 -0.0861 -0.4030  0.1301
 5001SOL    HW226463   1.977   1.232   0.791  0.0512 -0.3469 -0.6434
 5002SOL     OW26464   1.024   1.395   3.796  0.1950  0.5014 -0.2933
 5002SOL    HW126465   1.103   1.363   3.753  0.0359  1.4733 -1.2959
 5002SOL    HW226466   0.982   1.431   3.717  0.0035 -0.6399 -0.7081
 5003SOL     OW26467   0.444   1.397   2.290 -0.3232  0.8957  0.1880
 5003SOL    HW126468   0.511   1.460   2.317  1.4576 -0.9858  0.1077
 5003SOL    HW226469   0.472   1.385   2.199 -2.3670  0.2588 -0.3557
 5004SOL     OW26470   3.566   1.685   2.647 -0.3448 -0.1426 -0.2660
 5004SOL    HW126471   3.607   1.763   2.685 -2.1166  0.1699  1.0164
 5004SOL    HW226472   3.627   1.617   2.676 -0.4495 -0.8735 -1.7668
 5005SOL     OW26473   3.458   0.521  16.185  0.7111  0.1480 -0.3328
 5005SOL    HW126474   3.462   0.425  16.184 -1.0384  0.0750  0.2329
 5005SOL    HW226475   3.551   0.543  16.181  1.1397 -1.5668 -0.0040
 5006SOL     OW26476   1.565   0.516   7.177  0.0616 -0.6652  0.1723
 5006SOL    HW126477   1.584   0.592   7.232 -1.8978 -0.4146  0.4858
 5006SOL    HW226478   1.559   0.563   7.094  0.5774  0.8187  0.9670
 5007SOL     OW26479   2.473   4.240   2.686 -0.5197 -0.3738  0.6173
 5007SOL    HW126480   2.417   4.212   2.613 -1.2862  1.7154  0.4201
 5007SOL    HW226481   2.472   4.155   2.730 -1.0834  0.1078  1.5158
 5008SOL     OW26482   2.748   0.627   2.595 -0.1374 -0.1046  0.3079
 5008SOL    HW126483   2.798   0.660   2.521  1.0652  0.0396  1.1931
 5008SOL    HW226484   2.818   0.585   2.644 -0.1805 -0.3316  0.1745
 5009SOL     OW26485   3.591   2.145   3.853  0.3335  0.2286  0.3338
 5009SOL    HW126486   3.579   2.180   3.941  2.2586 -0.2141  0.7790
 5009SOL    HW226487   3.532   2.205   3.807  1.1428  1.6133  1.1123
 5010SOL     OW26488   3.261   2.999   2.061  0.5680  0.0578 -0.0697
 5010SOL    HW126489   3.186   2.999   2.002  1.0473  4.2933 -0.6706
 5010SOL    HW226490   3.305   2.924   2.023 -1.1369 -0.2783 -1.3632
 5011SOL     OW26491   4.492   0.856   8.485  0.2277  0.3402  0.0120
 5011SOL    HW126492   4.421   0.913   8.515  0.2595 -0.9899  2.5653
 5011SOL    HW226493   4.566   0.891   8.534 -0.8081 -0.3210  2.0227
 5012SOL     OW26494   0.527   2.796   2.308  0.0955  0.0882 -0.3134
 5012SOL    HW126495   0.532   2.712   2.354  1.9780 -1.2412 -2.9879
 5012SOL    HW226496   0.471   2.848   2.366  0.1691 -0.2087  0.0239
 5013SOL     OW26497   2.478   0.196  15.220 -0.0505 -0.9550 -0.0517
 5013SOL    HW126498   2.462   0.106  15.248  3.3350 -1.5264  0.0778
 5013SOL    HW226499   2.431   0.203  15.136 -0.8955 -0.2801  0.4790
 5014SOL     OW26500   3.885   0.314  17.273 -0.3345  0.7964 -0.3231
 5014SOL    HW126501   3.842   0.397  17.289  0.0557  1.2248 -1.5483
 5014SOL    HW226502   3.830   0.258  17.328  1.4266 -0.6186 -0.0056
 5015SOL     OW26503   4.195   0.536   5.951 -0.6038  0.1381  0.3488
 5015SOL    HW126504   4.284   0.511   5.927 -0.8894 -0.2186 -0.3394
 5015SOL    HW226505   4.179   0.462   6.010  2.5491  0.3983  1.5124
 5016SOL     OW26506   4.152   0.541   1.762  0.0510 -0.1337  0.3442
 5016SOL    HW126507   4.136   0.604   1.692  2.4540  0.3852  0.2407
 5016SOL    HW226508   4.062   0.520   1.783 -0.3941  0.5937 -0.8360
 5017SOL     OW26509   2.976   1.074   8.070  0.8641 -0.5115  0.3538
 5017SOL    HW126510   2.931   1.096   7.989 -0.5788  2.5795  1.9842
 5017SOL    HW226511   3.051   1.133   8.071 -1.0290  1.9116 -0.6640
 5018SOL     OW26512   0.479   3.291   6.023 -0.4830 -0.0684 -0.2954
 5018SOL    HW126513   0.460   3.306   5.930  0.8031 -1.2772 -0.7480
 5018SOL    HW226514   0.422   3.360   6.058  0.4762 -0.5187  2.1539
 5019SOL     OW26515   3.720   0.754   6.792  0.3065  0.3668 -0.0962
 5019SOL    HW126516   3.776   0.832   6.796 -0.2268  0.7743 -0.7099
 5019SOL    HW226517   3.781   0.707   6.735  1.4733  1.6515  0.0831
 5020SOL     OW26518   0.346   1.004   1.873  0.1853 -0.2172  0.0194
 5020SOL    HW126519   0.359   1.054   1.792  0.1708 -0.7188 -0.2894
 5020SOL    HW226520   0.253   0.987   1.859 -0.1000  1.4913 -0.2462
 5021SOL     OW26521   2.602   4.142   2.204  0.0289  0.6346  0.1027
 5021SOL    HW126522   2.575   4.093   2.282 -1.3842  0.1735 -0.6797
 5021SOL    HW226523   2.611   4.229   2.243 -0.5769  0.8648 -0.2890
 5022SOL     OW26524   2.263   4.560  12.473 -0.2026 -0.2692 -0.1160
 5022SOL    HW126525   2.263   4.563  12.569  0.6404  3.2257 -0.2236
 5022SOL    HW226526   2.199   4.492  12.455  0.2192 -0.1590 -2.0271
 5023SOL     OW26527   3.524   1.620   0.705  0.7472  0.0534  0.4993
 5023SOL    HW126528   3.536   1.712   0.726 -0.6343  0.5368 -0.8469
 5023SOL    HW226529   3.550   1.578   0.787  0.0577 -1.4764 -0.0612
 5024SOL     OW26530   2.654   0.065   3.392 -0.0753 -0.0130  0.2596
 5024SOL    HW126531   2.661   0.056   3.488  2.0082 -0.5123  0.0819
 5024SOL    HW226532   2.567   0.036   3.366  0.7647 -2.4157  0.1304
 5025SOL     OW26533   2.823   3.375   5.564  0.1474  0.6159 -0.1429
 5025SOL    HW126534   2.786   3.295   5.600  0.4892  1.6315  2.4863
 5025SOL    HW226535   2.799   3.372   5.472 -1.4952  1.0527  0.2663
 5026SOL     OW26536   1.834   1.877   5.756 -0.3555  0.3509  0.5594
 5026SOL    HW126537   1.809   1.866   5.847  0.9009 -1.9697  0.6329
 5026SOL    HW226538   1.887   1.956   5.759 -1.8784  1.4424 -0.6114
 5027SOL     OW26539   4.671   3.681   3.422 -0.0257 -0.1737 -0.0845
 5027SOL    HW126540   4.635   3.756   3.468 -1.1980 -0.8251  0.0822
 5027SOL    HW226541   4.648   3.684   3.329 -0.7830  1.6736  0.1726
 5028SOL     OW26542   0.344   4.133  15.742 -0.0253  0.2144  0.2247
 5028SOL    HW126543   0.420   4.075  15.745 -0.9049 -0.9976 -1.1405
 5028SOL    HW226544   0.377   4.217  15.709 -1.9350  0.0995 -1.9770
 5029SOL     OW26545   4.609   2.662   4.486 -0.3375 -0.3440 -0.3129
 5029SOL    HW126546   4.689   2.651   4.537 -1.0392  1.3189  1.1251
 5029SOL    HW226547   4.544   2.652   4.556  0.2721  1.5785  0.5413
 5030SOL     OW26548   1.875   3.184   5.483  0.0538 -0.2845 -0.1468
 5030SOL    HW126549   1.835   3.257   5.435  0.2312 -2.0707 -2.9955
 5030SOL    HW226550   1.810   3.168   5.552  1.4956 -0.1655  1.2290
 5031SOL     OW26551   1.984   2.721   9.235 -0.4638 -0.5157 -0.1154
 5031SOL    HW126552   2.043   2.712   9.311  0.7130  1.4910 -0.7889
 5031SOL    HW226553   2.009   2.809   9.207  1.0413 -1.2622 -1.1123
 5032SOL     OW26554   0.402   4.380  15.652 -0.0160  0.3849  0.0690
 5032SOL    HW126555   0.383   4.469  15.682 -1.0934 -0.3136  1.4243
 5032SOL    HW226556   0.431   4.394  15.561 -1.1434  1.9650 -0.0530
 5033SOL     OW26557   1.538   3.504   7.269  0.4511 -0.7453  0.3553
 5033SOL    HW126558   1.476   3.516   7.196 -0.2188  0.3101  1.0860
 5033SOL    HW226559   1.608   3.464   7.219 -0.2923 -0.4015 -0.9806
 5034SOL     OW26560   4.006   2.537   4.074 -0.6792  0.4773 -0.2461
 5034SOL    HW126561   3.919   2.548   4.035 -1.9351 -0.6243  2.2515
 5034SOL    HW226562   3.997   2.443   4.089 -0.6711  0.1458 -2.3848
 5035SOL     OW26563   4.322   3.197   8.679  0.6932  0.1906 -0.7131
 5035SOL    HW126564   4.288   3.112   8.705 -1.2821  1.3169  0.3500
 5035SOL    HW226565   4.391   3.167   8.619 -0.3899 -0.5831 -1.5570
 5036SOL     OW26566   0.150   2.976   4.348 -0.2034  0.0205 -0.3970
 5036SOL    HW126567   0.236   2.933   4.353 -0.5876 -0.5884  0.9833
 5036SOL    HW226568   0.098   2.908   4.390  0.1013  0.3258  0.4865
 5037SOL     OW26569   3.767   0.670   4.809  0.6549  0.0758 -1.1526
 5037SOL    HW126570   3.676   0.642   4.799  0.5680  0.5635 -1.7133
 5037SOL    HW226571   3.818   0.599   4.771  0.2423 -0.0343 -1.5030
 5038SOL     OW26572   3.166   2.050  13.593  0.1053 -0.2797 -0.2266
 5038SOL    HW126573   3.079   2.011  13.601  0.3602 -0.8701 -0.3157
 5038SOL    HW226574   3.219   1.991  13.646 -0.7464 -1.6530 -0.8936
 5039SOL     OW26575   3.799   4.665   5.098 -0.5265 -0.0167 -0.0991
 5039SOL    HW126576   3.839   4.700   5.178 -1.2313  0.1754  0.1740
 5039SOL    HW226577   3.779   0.029   5.058  2.1325  0.4044 -0.5651
 5040SOL     OW26578   2.094   3.131   4.451 -0.4010 -0.0802  0.2807
 5040SOL    HW126579   2.003   3.139   4.482 -0.7576 -1.3699 -0.4423
 5040SOL    HW226580   2.117   3.224   4.452 -0.1974 -0.1104 -0.9937
 5041SOL     OW26581   2.949   3.457  14.543  0.0810  0.6927  0.3137
 5041SOL    HW126582   2.900   3.397  14.487 -3.1924  1.2718  2.5498
 5041SOL    HW226583   3.035   3.416  14.533 -0.7788 -0.1700 -3.3522
 5042SOL     OW26584   4.004   0.165   8.409  0.3157 -0.1662 -0.3962
 5042SOL    HW126585   3.998   0.240   8.349 -2.4205 -0.8174 -0.9600
 5042SOL    HW226586   3.932   0.107   8.384 -1.2397  0.5392  2.3622
 5043SOL     OW26587   1.392   3.528   2.254 -0.4904  0.6399  0.2369
 5043SOL    HW126588   1.452   3.602   2.243 -1.2902  1.2856  0.1785
 5043SOL    HW226589   1.309   3.564   2.286 -1.3240 -0.9123 -0.2049
 5044SOL     OW26590   3.272   3.090   1.108 -0.2445 -0.3213  1.1786
 5044SOL    HW126591   3.252   3.056   1.021  1.4047  0.9099  0.3110
 5044SOL    HW226592   3.187   3.095   1.150 -0.9422  0.6166 -0.3558
 5045SOL     OW26593   2.844   3.585   2.768 -0.3479  0.0391 -0.1405
 5045SOL    HW126594   2.831   3.646   2.841 -2.2376  1.8746 -2.0005
 5045SOL    HW226595   2.938   3.581   2.749 -0.2430 -0.1258  0.4269
 5046SOL     OW26596   3.842   3.582   0.679  0.1351 -0.4257  0.0308
 5046SOL    HW126597   3.824   3.491   0.658  2.0305 -0.7491 -0.2013
 5046SOL    HW226598   3.913   3.611   0.621 -0.4622  0.2546 -0.3601
 5047SOL     OW26599   4.348   2.673  11.674  0.0691 -0.4093  0.7094
 5047SOL    HW126600   4.270   2.704  11.720  1.4484  1.2462  1.9132
 5047SOL    HW226601   4.334   2.579  11.662 -0.1607 -0.4788  1.5244
 5048SOL     OW26602   4.138   1.907  12.803 -0.5328 -0.0303  0.1042
 5048SOL    HW126603   4.083   1.834  12.832 -0.1068 -0.1329  0.6501
 5048SOL    HW226604   4.108   1.983  12.854  0.6623  0.6979 -0.2928
 5049SOL     OW26605   3.945   2.475   3.665 -0.0067  0.0804  0.5747
 5049SOL    HW126606   3.878   2.414   3.697  0.6427 -1.0275 -0.2090
 5049SOL    HW226607   3.911   2.558   3.699  0.3851 -0.2684  1.8383
 5050SOL     OW26608   4.300   4.106   4.275  0.0020 -0.7968  0.0024
 5050SOL    HW126609   4.368   4.128   4.211  1.7164  2.9554  3.1221
 5050SOL    HW226610   4.276   4.192   4.309  0.5057 -0.1698 -1.2255
 5051SOL     OW26611   4.481   2.302   0.198  0.5825  0.3820 -0.1698
 5051SOL    HW126612   4.558   2.251   0.223  0.6864  0.6500  0.0564
 5051SOL    HW226613   4.452   2.334   0.283 -1.7286  0.0761 -0.8500
 5052SOL     OW26614   1.817   2.722   1.065  0.3073 -0.3903 -0.0043
 5052SOL    HW126615   1.869   2.781   1.010 -0.9376 -0.2686 -1.0645
 5052SOL    HW226616   1.834   2.633   1.034 -0.5737  0.0692 -1.8008
 5053SOL     OW26617   0.688   3.906   3.020  0.6491  0.2362  0.0929
 5053SOL    HW126618   0.623   3.977   3.031  0.0561 -0.5303  1.5514
 5053SOL    HW226619   0.743   3.921   3.097  1.7599 -0.9990 -0.4699
 5054SOL     OW26620   3.244   2.264  17.115  0.5651  0.0615  0.5296
 5054SOL    HW126621   3.314   2.200  17.103  0.2070 -0.2883  0.3010
 5054SOL    HW226622   3.295   2.340  17.087 -2.9640  2.1592 -0.2291
 5055SOL     OW26623   2.280   0.407  10.332  0.8352  0.1610 -0.2574
 5055SOL    HW126624   2.313   0.326  10.371  0.8934  0.7462  0.9342
 5055SOL    HW226625   2.341   0.416  10.259  1.9602 -1.3691  0.4878
 5056SOL     OW26626   2.547   0.644   7.667 -0.1250 -0.5724 -0.3438
 5056SOL    HW126627   2.558   0.684   7.753  3.3693  1.0132 -1.4964
 5056SOL    HW226628   2.625   0.588   7.663  0.7706  0.8197 -2.8229
 5057SOL     OW26629   1.350   4.337   9.166 -0.5363  0.1167  0.0898
 5057SOL    HW126630   1.346   4.433   9.161  3.4148  0.2074 -1.6292
 5057SOL    HW226631   1.323   4.331   9.257 -1.1259 -2.4258 -0.2559
 5058SOL     OW26632   0.347   0.438  16.294  0.9341 -0.0431 -0.5150
 5058SOL    HW126633   0.323   0.530  16.304  1.8272  0.0734  0.5946
 5058SOL    HW226634   0.325   0.402  16.380  0.5869 -0.7182 -0.8828
 5059SOL     OW26635   3.529   4.523   6.458  0.5888 -0.4309  0.4217
 5059SOL    HW126636   3.554   4.527   6.365 -0.6198  1.1434  0.1781
 5059SOL    HW226637   3.610   4.563   6.490 -1.2286  1.2941  2.8899
 5060SOL     OW26638   0.465   1.225   4.461 -0.0372 -0.4917 -0.1079
 5060SOL    HW126639   0.435   1.140   4.492  4.1753 -1.6591  0.7363
 5060SOL    HW226640   0.510   1.248   4.543 -2.9930 -2.6313  2.1258
 5061SOL     OW26641   1.971   2.242   2.398 -0.0530  0.0892  0.1289
 5061SOL    HW126642   2.039   2.277   2.340  0.2545  2.8861  2.1584
 5061SOL    HW226643   1.951   2.163   2.349 -0.3306  0.6431 -0.6472
 5062SOL     OW26644   1.479   3.907   6.411  0.1906  0.0333  0.1865
 5062SOL    HW126645   1.530   3.938   6.336 -0.5371  0.4232 -0.1508
 5062SOL    HW226646   1.554   3.886   6.467 -0.8898 -4.0899  0.1094
 5063SOL     OW26647   3.356   0.899   7.100 -1.1568  0.3210 -0.1163
 5063SOL    HW126648   3.263   0.887   7.081 -0.4804 -2.7634 -1.4704
 5063SOL    HW226649   3.394   0.811   7.095  0.2307  0.8121  1.9386
 5064SOL     OW26650   3.942   0.093   7.471 -0.8410  0.1548  0.1815
 5064SOL    HW126651   4.035   0.069   7.464 -1.4442 -2.2572  0.6673
 5064SOL    HW226652   3.926   0.144   7.391  1.5590  0.4619 -0.1089
 5065SOL     OW26653   4.299   3.241   9.017  0.1716 -0.6335  0.3467
 5065SOL    HW126654   4.350   3.160   9.006  1.9049  0.5750 -0.4122
 5065SOL    HW226655   4.358   3.297   8.967  1.6943 -2.0120  0.5982
 5066SOL     OW26656   1.505   3.077   4.897  0.0222 -0.1582  0.2272
 5066SOL    HW126657   1.592   3.115   4.883 -0.2913  1.0838  1.7027
 5066SOL    HW226658   1.463   3.093   4.813 -1.5973  0.2908  1.1339
 5067SOL     OW26659   1.161   3.663   2.471  0.5212  0.1560  0.1453
 5067SOL    HW126660   1.212   3.734   2.432 -0.5557  2.1035  2.2210
 5067SOL    HW226661   1.074   3.703   2.479 -0.2910 -1.9482  1.9170
 5068SOL     OW26662   0.802   4.529   6.449 -0.2274  0.2052 -0.2258
 5068SOL    HW126663   0.711   4.509   6.471  0.6202 -0.3927  2.8064
 5068SOL    HW226664   0.848   4.452   6.484 -0.5111  0.4379  0.6561
 5069SOL     OW26665   2.155   1.259   2.831 -0.0620  0.1395 -0.0305
 5069SOL    HW126666   2.193   1.220   2.910 -0.1647  0.4901  0.1909
 5069SOL    HW226667   2.154   1.184   2.771 -2.2089 -0.5808  0.9172
 5070SOL     OW26668   3.899   3.090  13.782 -0.0246 -0.1339  0.0729
 5070SOL    HW126669   3.807   3.112  13.797  0.0254 -0.0737  0.2971
 5070SOL    HW226670   3.890   2.995  13.793  1.2906 -0.0890  1.6803
 5071SOL     OW26671   0.012   3.532   5.781  0.1493  0.5579  0.4384
 5071SOL    HW126672   0.076   3.604   5.782  0.6625  0.1211 -2.0548
 5071SOL    HW226673   0.067   3.473   5.729  1.1056 -0.4698  2.6160
 5072SOL     OW26674   1.100   0.510   5.577  0.5228  0.4795  0.3623
 5072SOL    HW126675   1.168   0.452   5.542  0.2167 -0.7460  1.7861
 5072SOL    HW226676   1.056   0.527   5.494 -0.0259 -1.3516  0.2573
 5073SOL     OW26677   0.065   2.486   5.834  0.2139 -0.0876  0.4770
 5073SOL    HW126678   0.062   2.391   5.844 -1.3494 -0.0570  0.3013
 5073SOL    HW226679   0.034   2.506   5.922  1.4352 -2.2509  1.3842
 5074SOL     OW26680   1.286   0.596   8.061  0.7239 -1.0619 -0.2786
 5074SOL    HW126681   1.275   0.680   8.104  1.9759 -1.1850  0.3046
 5074SOL    HW226682   1.377   0.571   8.080  1.2888  2.8999  2.1927
 5075SOL     OW26683   3.275   1.648   1.939 -0.2066  0.3457  0.0803
 5075SOL    HW126684   3.272   1.685   1.851 -0.3989  3.1444  1.2701
 5075SOL    HW226685   3.326   1.713   1.988  3.1478 -0.5068 -2.2511
 5076SOL     OW26686   3.777   3.780  12.673 -0.1573 -0.5639 -0.0434
 5076SOL    HW126687   3.728   3.757  12.751 -1.2145  1.6264 -0.0600
 5076SOL    HW226688   3.856   3.727  12.682 -0.1543 -0.4242  0.7781
 5077SOL     OW26689   0.165   2.028   6.837 -0.6646 -0.0170  0.8298
 5077SOL    HW126690   0.092   2.001   6.893  0.5810 -3.1783  0.9602
 5077SOL    HW226691   0.191   2.109   6.882  1.8809  0.2494 -1.0944
 5078SOL     OW26692   1.088   0.166   2.153 -0.1861  0.4347 -0.3734
 5078SOL    HW126693   1.177   0.187   2.182  0.1175 -1.2223 -0.1341
 5078SOL    HW226694   1.083   0.071   2.167  0.3595  0.2933 -1.1542
 5079SOL     OW26695   3.183   1.309   2.662 -0.7333 -0.0267  0.3453
 5079SOL    HW126696   3.229   1.371   2.605  0.2797 -0.2230  0.9349
 5079SOL    HW226697   3.153   1.245   2.597 -0.2989 -0.8099  0.9126
 5080SOL     OW26698   1.962   2.015   1.604  0.0111  0.3488  0.2644
 5080SOL    HW126699   1.883   1.978   1.644  0.9940 -0.1978  1.6851
 5080SOL    HW226700   2.029   1.990   1.667 -0.6690 -1.6174  0.2042
 5081SOL     OW26701   3.968   2.376   8.144  0.2760 -0.2782 -0.2726
 5081SOL    HW126702   3.913   2.334   8.210  2.1890 -1.0779  0.7964
 5081SOL    HW226703   4.003   2.452   8.191  0.8336  1.2027 -3.0046
 5082SOL     OW26704   2.377   4.225   0.657 -0.1768  0.0775  0.0906
 5082SOL    HW126705   2.348   4.211   0.567  2.3077 -0.1294 -0.6661
 5082SOL    HW226706   2.303   4.201   0.713  1.3086 -2.8439  0.7896
 5083SOL     OW26707   3.255   2.395   5.698 -0.3259 -0.1962  0.5615
 5083SOL    HW126708   3.269   2.355   5.784  1.1600  0.4308  0.6246
 5083SOL    HW226709   3.172   2.443   5.705 -1.3642 -1.8012 -0.7605
 5084SOL     OW26710   0.551   0.886   6.866 -0.2685 -0.3104 -0.2908
 5084SOL    HW126711   0.527   0.899   6.774 -0.6724  1.2167  0.0453
 5084SOL    HW226712   0.632   0.835   6.856  0.7666  0.9406  1.6554
 5085SOL     OW26713   4.691   2.509   0.346 -0.0685  0.1459 -0.5101
 5085SOL    HW126714   4.694   2.558   0.265  0.1631  1.1483  0.1036
 5085SOL    HW226715   4.612   2.548   0.386  0.8828 -0.3084  1.8298
 5086SOL     OW26716   1.051   3.994  13.685 -0.5780 -0.0772 -0.4050
 5086SOL    HW126717   1.008   4.075  13.715  0.7936  0.8503 -0.9503
 5086SOL    HW226718   1.142   4.007  13.712 -0.3740 -0.6314 -0.8475
 5087SOL     OW26719   3.238   2.168   3.993 -0.3195  0.2710 -0.6569
 5087SOL    HW126720   3.195   2.095   4.037  0.3758  1.0725  1.3595
 5087SOL    HW226721   3.272   2.125   3.915  1.9858  0.4939  0.2284
 5088SOL     OW26722   2.889   3.193   1.940  0.0881  0.3700 -0.2154
 5088SOL    HW126723   2.895   3.120   2.002 -2.0333 -1.0119 -1.6050
 5088SOL    HW226724   2.797   3.220   1.948 -0.5547 -1.2415 -2.1903
 5089SOL     OW26725   1.222   0.914   6.170 -0.3020  0.2403 -0.1092
 5089SOL    HW126726   1.235   0.884   6.081 -0.0440 -0.2781  0.1060
 5089SOL    HW226727   1.253   0.841   6.224  0.3912  0.4748 -0.1872
 5090SOL     OW26728   0.574   2.756   2.689 -0.3233 -0.4560 -0.0497
 5090SOL    HW126729   0.492   2.711   2.670 -1.0434 -0.0429  2.0892
 5090SOL    HW226730   0.531   2.839   2.710 -0.8745 -0.2076 -2.1931
 5091SOL     OW26731   3.096   1.276   6.143 -0.0818 -0.0875  0.1206
 5091SOL    HW126732   3.073   1.357   6.189  1.8258 -0.1080  1.1305
 5091SOL    HW226733   3.148   1.229   6.209  0.2441  0.5087  0.2890
 5092SOL     OW26734   3.183   3.391   0.090  0.3156  0.1078 -0.8211
 5092SOL    HW126735   3.175   3.333   0.166 -1.0448 -0.0379 -1.0762
 5092SOL    HW226736   3.152   3.476   0.121 -1.0333 -0.2758 -1.1168
 5093SOL     OW26737   0.062   3.000   5.721  0.7102  0.4974  0.2720
 5093SOL    HW126738   0.001   2.926   5.721  1.8321 -0.4028 -1.3071
 5093SOL    HW226739   0.023   3.064   5.781  2.5271 -0.1496  2.1474
 5094SOL     OW26740   0.704   0.728   0.895 -0.3346 -0.3559 -0.3512
 5094SOL    HW126741   0.682   0.795   0.960  1.0041  0.5844 -0.8798
 5094SOL    HW226742   0.799   0.720   0.895 -0.3091 -0.1175 -2.1362
 5095SOL     OW26743   3.994   1.541   8.500  0.4593 -0.3294  0.7158
 5095SOL    HW126744   4.073   1.522   8.551  0.4113 -3.5610 -0.4378
 5095SOL    HW226745   3.935   1.582   8.563 -1.8829 -2.6825  0.0679
 5096SOL     OW26746   1.552   3.513   5.957 -0.0398  0.0430  0.0600
 5096SOL    HW126747   1.540   3.558   6.041 -1.9076 -1.6115  0.6685
 5096SOL    HW226748   1.468   3.471   5.940 -0.9885  1.4757  1.2485
 5097SOL     OW26749   4.622   2.354   7.934  0.1842 -0.2157 -0.2446
 5097SOL    HW126750   4.583   2.297   8.000 -2.1833  1.1007 -0.5235
 5097SOL    HW226751   4.639   2.294   7.862  0.6856  0.0986 -0.3859
 5098SOL     OW26752   4.427   2.876   2.485 -0.0500 -0.0228  0.3625
 5098SOL    HW126753   4.430   2.971   2.477 -0.2814  0.2234  2.9971
 5098SOL    HW226754   4.459   2.844   2.401 -0.9090  1.1027 -0.3827
 5099SOL     OW26755   2.589   4.072   3.488  0.4173 -0.3367 -0.2523
 5099SOL    HW126756   2.672   4.119   3.490  0.0746  0.2349  0.3764
 5099SOL    HW226757   2.571   4.067   3.582 -0.6890 -2.0171 -0.5591
 5100SOL     OW26758   3.894   3.063   5.487  0.5332 -0.0713  0.9093
 5100SOL    HW126759   3.966   3.078   5.427 -0.9681 -0.7144 -1.0488
 5100SOL    HW226760   3.828   3.110   5.436  0.3403 -0.6838  0.5929
 5101SOL     OW26761   2.068   0.196  15.923  0.0212 -0.0632 -0.1613
 5101SOL    HW126762   2.140   0.216  15.862 -0.3531 -3.2294 -1.6319
 5101SOL    HW226763   2.111   0.143  15.989  2.0319  2.2046  0.3663
 5102SOL     OW26764   2.432   0.258   6.925  0.2111 -0.2466 -0.5810
 5102SOL    HW126765   2.448   0.218   7.010  0.9051  0.1585 -0.5209
 5102SOL    HW226766   2.409   0.350   6.939  3.6697 -0.1507  4.4687
 5103SOL     OW26767   1.705   3.218  12.425  0.2150 -0.7556 -0.0659
 5103SOL    HW126768   1.730   3.140  12.475  1.9881 -0.5855 -0.6895
 5103SOL    HW226769   1.789   3.265  12.427  0.5710 -1.3832 -0.3287
 5104SOL     OW26770   0.000   2.211   5.872 -0.4347  0.4391  0.1064
 5104SOL    HW126771   0.040   2.231   5.957  0.1270 -1.3555  0.2686
 5104SOL    HW226772   4.633   2.177   5.889 -0.6169  0.9019  0.0653
 5105SOL     OW26773   3.766   3.761   5.936  0.6105 -0.5617  0.7420
 5105SOL    HW126774   3.744   3.748   5.844 -0.3564 -0.0106  0.8971
 5105SOL    HW226775   3.684   3.804   5.961 -0.5781 -1.2580 -1.9206
 5106SOL     OW26776   3.597   0.938  13.415 -0.4484  0.2246  0.5067
 5106SOL    HW126777   3.654   0.893  13.477  0.1232  0.0120 -0.1639
 5106SOL    HW226778   3.597   0.883  13.337 -0.2673  1.5064 -0.4065
 5107SOL     OW26779   2.735   1.247   4.236  0.6431  0.0700 -0.0725
 5107SOL    HW126780   2.697   1.291   4.312  1.9046 -0.1537  0.6859
 5107SOL    HW226781   2.723   1.155   4.260 -2.3157  0.4265 -0.1399
 5108SOL     OW26782   2.690   4.048   5.906  0.0309 -0.2424  0.3545
 5108SOL    HW126783   2.651   3.971   5.866  1.2811  0.5910 -2.4538
 5108SOL    HW226784   2.608   4.082   5.942 -0.2347  0.1591 -0.6391
 5109SOL     OW26785   2.251   4.096   5.089 -0.1153 -0.4152 -0.1047
 5109SOL    HW126786   2.229   4.172   5.036 -0.6653  0.1251  0.8890
 5109SOL    HW226787   2.303   4.041   5.030  3.0527  2.2146  0.2228
 5110SOL     OW26788   1.963   2.122   5.773  0.1168 -0.1408 -0.6210
 5110SOL    HW126789   2.046   2.121   5.727 -0.1714 -1.0914 -1.1214
 5110SOL    HW226790   1.904   2.180   5.725  0.3411  0.1473 -0.5495
 5111SOL     OW26791   4.553   3.596  12.009  0.3821  0.2570 -0.4763
 5111SOL    HW126792   4.612   3.556  11.944  0.6394 -1.6307  0.9089
 5111SOL    HW226793   4.535   3.516  12.058  1.4104 -0.4771 -1.2849
 5112SOL     OW26794   0.439   2.374  17.413  0.1963  0.2481 -0.1018
 5112SOL    HW126795   0.497   2.352  17.486 -0.4382  0.9766  0.6257
 5112SOL    HW226796   0.373   2.311  17.443 -0.7612  0.7504 -1.1385
 5113SOL     OW26797   2.870   3.482   5.070 -0.1122 -0.2774  0.2601
 5113SOL    HW126798   2.776   3.472   5.057 -0.1250  1.0806 -0.6166
 5113SOL    HW226799   2.907   3.416   5.012 -0.8148 -2.2836  2.0573
 5114SOL     OW26800   3.018   4.186   7.190 -0.7697 -0.7585  0.0372
 5114SOL    HW126801   3.092   4.202   7.132 -1.3115 -0.2405 -0.5165
 5114SOL    HW226802   3.034   4.095   7.213  1.1683 -0.1047  1.2726
 5115SOL     OW26803   0.491   2.257   7.391 -0.4072  0.3665 -0.0299
 5115SOL    HW126804   0.435   2.246   7.314  0.1241 -0.9692 -0.2161
 5115SOL    HW226805   0.466   2.198   7.462 -1.1058  1.8596  0.9726
 5116SOL     OW26806   2.238   0.572   4.778  0.1787 -0.2507 -0.2917
 5116SOL    HW126807   2.194   0.583   4.863 -2.3186 -1.5014 -1.4282
 5116SOL    HW226808   2.243   0.666   4.761  2.0159 -0.6906 -2.0745
 5117SOL     OW26809   1.100   4.132   5.644 -0.1739 -0.0386 -0.5574
 5117SOL    HW126810   1.029   4.072   5.666  0.0763 -0.9528 -2.2782
 5117SOL    HW226811   1.066   4.212   5.684  1.2242 -1.2610  3.0686
 5118SOL     OW26812   3.560   2.664   2.891 -0.3633  0.3590  0.9233
 5118SOL    HW126813   3.589   2.755   2.895  0.3432  0.2225 -0.8786
 5118SOL    HW226814   3.468   2.687   2.876 -0.8755 -3.3132 -1.4813
 5119SOL     OW26815   0.810   1.063   6.668 -0.1316 -0.2565 -0.3284
 5119SOL    HW126816   0.902   1.088   6.676  0.0733 -0.7096 -1.1753
 5119SOL    HW226817   0.819   0.973   6.636  0.8283 -1.0739  2.2021
 5120SOL     OW26818   0.807   1.743   2.529  0.1638  0.4471  0.5625
 5120SOL    HW126819   0.866   1.689   2.582  0.1867 -0.7704 -0.7265
 5120SOL    HW226820   0.868   1.816   2.517  0.5120  0.1113  0.2704
 5121SOL     OW26821   3.907   3.787   1.917  0.3450 -0.1196 -0.3734
 5121SOL    HW126822   3.981   3.813   1.971  2.1446 -1.1360 -2.3387
 5121SOL    HW226823   3.834   3.790   1.978  2.4760 -1.7873  2.2721
 5122SOL     OW26824   2.039   3.248   9.110  0.1660 -0.4587 -0.4969
 5122SOL    HW126825   2.029   3.332   9.155 -0.8998  0.4349 -2.4199
 5122SOL    HW226826   1.946   3.235   9.088 -0.5619  2.5514  0.7335
 5123SOL     OW26827   4.268   0.295   8.289  0.0826 -0.0833  0.6499
 5123SOL    HW126828   4.242   0.204   8.274 -1.3938  0.5515 -0.7120
 5123SOL    HW226829   4.182   0.335   8.275  0.1631  0.2532  1.1330
 5124SOL     OW26830   3.726   0.118   7.880  0.2381  0.6912 -0.7063
 5124SOL    HW126831   3.709   0.140   7.789  0.4929  1.3695 -0.5907
 5124SOL    HW226832   3.768   0.033   7.867 -1.5051 -0.5685  1.8557
 5125SOL     OW26833   1.401   0.479  14.586  0.2452 -0.3378 -0.3547
 5125SOL    HW126834   1.368   0.563  14.618  1.4885 -0.1385  0.3849
 5125SOL    HW226835   1.495   0.488  14.595  0.2269  1.3922 -1.9451
 5126SOL     OW26836   1.797   4.366   2.155  0.1432  0.1284  0.9576
 5126SOL    HW126837   1.858   4.412   2.212 -0.8185  0.7200  1.5041
 5126SOL    HW226838   1.828   4.388   2.067 -2.6334  1.7662  0.3684
 5127SOL     OW26839   1.939   4.303   6.805 -0.6305  0.2514  0.1556
 5127SOL    HW126840   1.963   4.369   6.740 -0.5860  0.2095  0.1297
 5127SOL    HW226841   2.015   4.303   6.864 -1.4129  0.8640  1.1667
 5128SOL     OW26842   2.810   2.994  17.009  0.1333  0.1139  0.5283
 5128SOL    HW126843   2.863   2.924  16.971 -0.3719 -0.1692  0.3378
 5128SOL    HW226844   2.727   2.956  17.040  0.3320 -1.5914 -1.0010
 5129SOL     OW26845   3.424   0.216   3.219 -0.4593 -0.1134 -0.3457
 5129SOL    HW126846   3.384   0.134   3.189  1.6481  0.1334 -3.8291
 5129SOL    HW226847   3.394   0.269   3.145  1.5383  0.7884 -0.5008
 5130SOL     OW26848   0.155   3.030   4.061 -0.4154  0.5555 -0.2154
 5130SOL    HW126849   0.133   3.003   4.150  1.0020  2.5158  0.7379
 5130SOL    HW226850   0.222   2.968   4.033 -0.9365 -0.2181  0.2583
 5131SOL     OW26851   3.094   0.671   0.482 -0.3565 -0.2690  0.8365
 5131SOL    HW126852   3.072   0.707   0.396 -3.1430 -2.2154  0.7379
 5131SOL    HW226853   3.030   0.601   0.492 -1.4158  0.4716 -0.6701
 5132SOL     OW26854   1.415   0.014   9.609  0.6045  0.2356  0.8106
 5132SOL    HW126855   1.432   4.709   9.700 -0.1063 -1.2142  0.5249
 5132SOL    HW226856   1.433   0.108   9.610 -0.4992  0.4633 -0.5271
 5133SOL     OW26857   1.911   0.313  11.844 -0.0214 -0.3478  0.4459
 5133SOL    HW126858   1.866   0.240  11.886  0.9059 -1.3463 -0.2770
 5133SOL    HW226859   1.846   0.343  11.779 -0.1224 -1.9041 -0.1912
 5134SOL     OW26860   2.876   3.367  11.931 -0.3045 -0.5589 -0.0543
 5134SOL    HW126861   2.901   3.425  12.002 -2.5109 -0.7686  0.8812
 5134SOL    HW226862   2.809   3.314  11.974 -0.8302  0.0411 -0.1304
 5135SOL     OW26863   0.446   3.180  17.418 -0.1141  0.0946 -0.2983
 5135SOL    HW126864   0.419   3.103  17.369  3.4798 -0.3229 -1.6427
 5135SOL    HW226865   0.494   3.229  17.351  2.2213 -1.4756  0.2015
 5136SOL     OW26866   1.563   3.852   2.599  0.5600  0.2816  0.2260
 5136SOL    HW126867   1.478   3.841   2.557 -0.1346 -0.1165  1.7404
 5136SOL    HW226868   1.561   3.941   2.634 -0.0147  0.3892 -0.0819
 5137SOL     OW26869   4.531   1.785   2.151  0.0965 -0.0951 -0.1800
 5137SOL    HW126870   4.545   1.876   2.179 -2.7769 -0.1560  1.4409
 5137SOL    HW226871   4.449   1.787   2.102  0.8133  1.5695 -1.3107
 5138SOL     OW26872   0.425   4.369   4.499  0.0917  0.6138  0.1554
 5138SOL    HW126873   0.412   4.275   4.486  1.1775  0.4596  0.1687
 5138SOL    HW226874   0.407   4.361   4.593 -1.6311  0.5165 -0.1835
 5139SOL     OW26875   0.603   1.767   6.561 -0.0670  0.0423  0.6535
 5139SOL    HW126876   0.508   1.758   6.574 -0.0196  0.7249  1.4855
 5139SOL    HW226877   0.643   1.695   6.608  0.9981 -0.5682 -1.2050
 5140SOL     OW26878   1.417   2.097   3.658 -0.0736  0.6602 -0.5139
 5140SOL    HW126879   1.321   2.095   3.653 -0.1492  1.5668  0.5656
 5140SOL    HW226880   1.429   2.065   3.568  0.0280 -1.4272  0.2553
 5141SOL     OW26881   0.226   2.530  10.131  0.1691  0.0182  0.5860
 5141SOL    HW126882   0.319   2.535  10.153  0.4892 -0.9646 -0.5735
 5141SOL    HW226883   0.217   2.571  10.045  3.1448  0.7338  0.6072
 5142SOL     OW26884   0.688   2.142   2.161  0.0640 -0.5214  0.1266
 5142SOL    HW126885   0.613   2.108   2.209 -1.9059  0.8717 -1.9855
 5142SOL    HW226886   0.667   2.080   2.091 -2.3716 -0.5171  0.8555
 5143SOL     OW26887   2.211   2.944   4.324  0.1114  0.3593  0.4504
 5143SOL    HW126888   2.147   2.907   4.263  0.0418 -0.6175  1.1290
 5143SOL    HW226889   2.172   3.026   4.355 -0.7250  0.2557 -0.3296
 5144SOL     OW26890   4.005   1.096   3.628  0.2605  0.1032 -0.2448
 5144SOL    HW126891   4.074   1.095   3.561  0.1682 -0.0725 -0.3392
 5144SOL    HW226892   3.939   1.063   3.567 -0.5666  2.8471 -0.8159
 5145SOL     OW26893   1.627   2.583   6.366  0.2102  0.1283  1.1149
 5145SOL    HW126894   1.563   2.514   6.378 -0.2766  0.6349  1.4252
 5145SOL    HW226895   1.607   2.617   6.279  1.5706 -1.1471  0.3039
 5146SOL     OW26896   3.462   3.830   0.795 -0.3609 -0.2332 -0.5284
 5146SOL    HW126897   3.451   3.902   0.857 -1.4576  0.1663 -1.1838
 5146SOL    HW226898   3.545   3.792   0.825 -0.5448 -0.7894 -0.7269
 5147SOL     OW26899   4.443   0.852   9.899 -0.1970 -0.7700 -0.0914
 5147SOL    HW126900   4.482   0.936   9.875 -0.9249 -0.7037 -0.9993
 5147SOL    HW226901   4.480   0.802   9.827 -0.7059 -2.2471  0.6806
 5148SOL     OW26902   1.512   4.510  10.347  0.0284  0.0163  0.2845
 5148SOL    HW126903   1.481   4.601  10.348 -0.8538 -0.2812 -0.0141
 5148SOL    HW226904   1.585   4.524  10.287 -0.0036  0.5434  0.3628
 5149SOL     OW26905   3.809   2.860   5.917 -0.3322  0.4782 -0.0558
 5149SOL    HW126906   3.842   2.770   5.915  0.7574  0.9023 -1.5396
 5149SOL    HW226907   3.870   2.906   5.859  0.0824 -0.7824 -0.6244
 5150SOL     OW26908   0.082   2.047   5.672  0.1448  0.1170 -0.1538
 5150SOL    HW126909   0.127   1.979   5.723 -0.2221  0.0880  0.1253
 5150SOL    HW226910   0.050   2.102   5.743 -0.4396 -0.1622 -0.2074
 5151SOL     OW26911   2.228   2.906  15.964 -0.4149  0.1831 -0.3132
 5151SOL    HW126912   2.205   2.934  15.875  1.1068  0.6326 -0.5717
 5151SOL    HW226913   2.235   2.984  16.018  0.2862 -0.3808  0.4098
 5152SOL     OW26914   0.656   0.565   2.761 -0.3176 -0.1147  0.1329
 5152SOL    HW126915   0.581   0.548   2.819 -0.7090 -0.9851 -0.6112
 5152SOL    HW226916   0.661   0.660   2.765 -1.2220 -0.0628  0.0512
 5153SOL     OW26917   3.014   3.989   4.332 -0.1703  0.2055 -0.4577
 5153SOL    HW126918   3.055   4.044   4.398  0.3973 -2.1000  1.1355
 5153SOL    HW226919   2.926   3.985   4.369  0.9007  0.2704  2.0348
 5154SOL     OW26920   0.917   4.020   4.421 -0.3296  0.0459  0.7125
 5154SOL    HW126921   0.896   4.097   4.474 -0.1243  0.7039 -0.1678
 5154SOL    HW226922   0.826   3.998   4.401 -0.8021 -0.5193  3.5725
 5155SOL     OW26923   1.981   2.613   5.764 -0.1680  0.4008 -0.1573
 5155SOL    HW126924   2.045   2.664   5.813 -0.5615  0.4280  0.3296
 5155SOL    HW226925   2.040   2.550   5.723  1.6725 -0.0269  3.1837
 5156SOL     OW26926   0.226   3.427   7.643  0.0160 -0.1930 -0.3505
 5156SOL    HW126927   0.216   3.347   7.591 -0.7935 -0.3780  0.0914
 5156SOL    HW226928   0.257   3.485   7.574 -0.7244  0.3775 -0.2015
 5157SOL     OW26929   3.094   0.898   7.027 -0.2626 -0.0419  0.1499
 5157SOL    HW126930   3.062   0.920   7.115 -0.8729 -0.3522  0.0063
 5157SOL    HW226931   3.076   0.976   6.975 -0.5421  0.1380  0.5116
 5158SOL     OW26932   1.522   4.562  12.375 -0.3161  0.3877 -0.2393
 5158SOL    HW126933   1.485   4.599  12.295 -0.9459 -0.6356 -0.4129
 5158SOL    HW226934   1.552   4.639  12.423 -1.2785 -0.7380  2.1468
 5159SOL     OW26935   1.379   4.112   8.227 -0.0259 -0.5874  0.0539
 5159SOL    HW126936   1.287   4.120   8.252 -0.2059  1.0727 -1.1051
 5159SOL    HW226937   1.419   4.196   8.253 -1.2959  0.9612 -2.9826
 5160SOL     OW26938   3.291   4.606   5.677 -0.0035 -0.5043 -0.4278
 5160SOL    HW126939   3.355   4.673   5.653 -2.4009  0.7477 -3.2920
 5160SOL    HW226940   3.343   4.526   5.687  0.8362  0.1406  0.2965
 5161SOL     OW26941   2.724   2.271  11.404 -0.3656  0.4072  0.2493
 5161SOL    HW126942   2.733   2.214  11.480  2.9593  2.4389  1.3929
 5161SOL    HW226943   2.716   2.356  11.449 -1.9408 -0.1624  1.0621
 5162SOL     OW26944   1.923   1.689   6.928 -0.0787 -0.0198  0.1259
 5162SOL    HW126945   1.906   1.767   6.875 -3.3408 -1.7917 -1.4316
 5162SOL    HW226946   1.995   1.719   6.984  0.2639 -1.2452  0.3330
 5163SOL     OW26947   4.583   1.917   9.338  0.4112 -0.3036 -0.2696
 5163SOL    HW126948   4.593   1.868   9.420 -0.4789 -0.2638 -0.1354
 5163SOL    HW226949   4.674   1.944   9.325  0.6624 -0.7459  0.5305
 5164SOL     OW26950   2.570   0.540   2.214  0.2815  0.2917  0.3831
 5164SOL    HW126951   2.516   0.618   2.203 -1.6146 -0.9904  0.5578
 5164SOL    HW226952   2.554   0.515   2.123  0.7215  0.1520  0.3461
 5165SOL     OW26953   0.401   4.338  12.164  0.5723  0.0532  0.3140
 5165SOL    HW126954   0.458   4.374  12.097 -0.3930 -1.6912 -1.4649
 5165SOL    HW226955   0.411   4.243  12.154  0.0769  0.0345 -0.0180
 5166SOL     OW26956   4.243   2.215   3.388  0.6311 -0.3977 -0.2584
 5166SOL    HW126957   4.287   2.168   3.458  0.9395  0.6976  0.2861
 5166SOL    HW226958   4.152   2.196   3.412  0.1562 -0.2791 -1.9205
 5167SOL     OW26959   3.715   1.696   3.051  0.5512 -0.2546  0.1859
 5167SOL    HW126960   3.730   1.610   3.090  1.0075 -0.0512  0.4596
 5167SOL    HW226961   3.666   1.663   2.975  3.1555  0.3564 -1.7976
 5168SOL     OW26962   0.180   4.413   1.366  0.4418 -0.6273  0.0205
 5168SOL    HW126963   0.130   4.339   1.401  0.5728 -1.1397 -0.8681
 5168SOL    HW226964   0.262   4.375   1.399  1.3642  1.4495  0.1431
 5169SOL     OW26965   3.505   2.548   3.621 -0.0826  0.2152  0.3518
 5169SOL    HW126966   3.412   2.568   3.627 -0.6797 -2.5263 -0.1410
 5169SOL    HW226967   3.529   2.590   3.538 -0.1776 -0.1059  0.1640
 5170SOL     OW26968   4.081   4.318   1.687 -0.0141 -0.0398 -0.5690
 5170SOL    HW126969   4.080   4.354   1.599  1.0913 -0.2143 -0.6501
 5170SOL    HW226970   4.089   4.226   1.662 -1.1602 -0.3603  0.1942
 5171SOL     OW26971   1.312   1.959   8.106  0.1088 -0.3539 -0.2886
 5171SOL    HW126972   1.244   2.026   8.119  0.1901 -0.3455  0.0986
 5171SOL    HW226973   1.314   1.950   8.011 -1.0840 -1.0235 -0.2521
 5172SOL     OW26974   1.368   2.696   8.325  0.0891 -0.0995 -1.0907
 5172SOL    HW126975   1.342   2.690   8.417  1.5443  0.4113 -0.6522
 5172SOL    HW226976   1.356   2.791   8.315 -2.6884 -0.2618  0.4728
 5173SOL     OW26977   0.624   3.684   0.544 -0.6593 -0.1709 -0.0127
 5173SOL    HW126978   0.649   3.603   0.588  2.6611  0.4508 -0.7458
 5173SOL    HW226979   0.627   3.756   0.607  0.1286 -1.9146  1.9492
 5174SOL     OW26980   4.394   3.840  17.602  0.1599  0.1461 -0.2184
 5174SOL    HW126981   4.368   3.793  17.682 -0.6874 -0.3672 -0.8026
 5174SOL    HW226982   4.319   3.897  17.587  0.3324  0.2010 -0.8475
 5175SOL     OW26983   4.172   4.029   5.087  0.1169  0.1627 -0.2921
 5175SOL    HW126984   4.210   3.961   5.031  1.7598  0.2022  0.7894
 5175SOL    HW226985   4.248   4.053   5.140 -1.2543  1.8982  0.9111
 5176SOL     OW26986   4.064   4.581  13.862 -0.1487 -0.1283  0.6795
 5176SOL    HW126987   4.114   4.621  13.933 -0.4945  1.4533  0.0488
 5176SOL    HW226988   4.087   4.489  13.871 -1.1340 -0.2834  1.6902
 5177SOL     OW26989   2.462   3.631   4.319  0.2352 -0.3568  0.2725
 5177SOL    HW126990   2.451   3.664   4.408  0.1913 -1.1202  0.5408
 5177SOL    HW226991   2.543   3.680   4.300 -0.3390  0.0265 -1.2244
 5178SOL     OW26992   3.430   4.453   8.018 -0.0324  0.4506 -0.0512
 5178SOL    HW126993   3.493   4.457   7.947  0.9693  0.8085  0.8695
 5178SOL    HW226994   3.447   4.530   8.072  1.2378 -0.8345  1.3515
 5179SOL     OW26995   1.388   3.512   3.691 -0.3026 -0.3927  0.3906
 5179SOL    HW126996   1.306   3.556   3.715  0.2272  0.4484  0.6166
 5179SOL    HW226997   1.428   3.581   3.639  0.2546 -0.2008  1.0842
 5180SOL     OW26998   2.323   3.175   2.336 -0.2195 -0.3091 -0.4385
 5180SOL    HW126999   2.306   3.093   2.383  1.3276 -0.0440  0.6053
 5180SOL    HW227000   2.236   3.213   2.346  0.1560  0.7922 -1.4593
 5181SOL     OW27001   1.963   4.202  15.442 -0.2752  0.2675  0.3036
 5181SOL    HW127002   1.966   4.297  15.452 -0.8394  0.3801 -0.5740
 5181SOL    HW227003   1.877   4.191  15.403 -0.6399 -0.3670  1.2702
 5182SOL     OW27004   1.781   2.135   9.134 -0.4177 -0.2245  0.1059
 5182SOL    HW127005   1.801   2.056   9.184  1.1545  0.3013  0.2922
 5182SOL    HW227006   1.703   2.109   9.085  0.2592 -2.1047  0.0365
 5183SOL     OW27007   4.543   1.338   1.118  0.9438 -0.0075 -0.1732
 5183SOL    HW127008   4.504   1.331   1.205  0.6272 -2.3561 -0.5054
 5183SOL    HW227009   4.477   1.392   1.076  0.4824 -0.9825 -0.6885
 5184SOL     OW27010   3.495   3.172  14.284  0.1998 -0.7996 -0.1124
 5184SOL    HW127011   3.565   3.126  14.238  0.7165  0.1321 -0.2652
 5184SOL    HW227012   3.560   3.213  14.341  1.0282 -0.2933 -1.4220
 5185SOL     OW27013   4.390   0.258   5.912 -0.3686  0.0974 -0.4023
 5185SOL    HW127014   4.443   0.220   5.983 -0.5586 -0.9073 -0.7921
 5185SOL    HW227015   4.448   0.333   5.900 -2.4779  1.7266 -0.4043
 5186SOL     OW27016   0.296   2.491   8.843 -0.2858  0.3424 -0.1426
 5186SOL    HW127017   0.231   2.551   8.808  1.1730  1.2910 -1.2184
 5186SOL    HW227018   0.379   2.538   8.839 -1.0424  1.6627 -0.0605
 5187SOL     OW27019   4.113   4.706   1.902 -0.2105 -0.2118 -0.1255
 5187SOL    HW127020   4.023   4.682   1.879 -0.4471  1.0058 -0.4784
 5187SOL    HW227021   4.117   0.080   1.894  0.5961 -0.2606 -0.2995
 5188SOL     OW27022   1.224   3.810   0.636 -0.1515 -0.3699  0.6315
 5188SOL    HW127023   1.203   3.893   0.677  0.1856  0.8240 -1.6009
 5188SOL    HW227024   1.261   3.768   0.714 -1.0215 -1.0413  0.6781
 5189SOL     OW27025   4.625   3.815   9.931 -0.1388 -0.1503 -0.0629
 5189SOL    HW127026   4.634   3.791   9.839  0.5255  0.9009 -0.2743
 5189SOL    HW227027   4.578   3.737   9.961  1.9907 -1.4212 -0.0379
 5190SOL     OW27028   0.965   1.765   2.018 -0.0184  0.3163 -1.0635
 5190SOL    HW127029   0.947   1.810   1.936 -0.2516  0.8819 -0.6966
 5190SOL    HW227030   1.043   1.712   2.003  0.4823  1.1286 -1.3263
 5191SOL     OW27031   3.928   4.155   7.092 -1.0067  0.4342 -0.5143
 5191SOL    HW127032   3.891   4.113   7.169  0.8923  0.6591  0.5422
 5191SOL    HW227033   3.919   4.097   7.017  0.4058 -1.9057  1.1353
 5192SOL     OW27034   1.886   1.192   5.848  0.2818 -0.0971 -0.0778
 5192SOL    HW127035   1.946   1.131   5.804  0.6443  0.3740 -0.2365
 5192SOL    HW227036   1.847   1.135   5.915 -0.7372  1.5381  0.7129
 5193SOL     OW27037   1.975   0.561   3.111  0.3234  0.0875  0.1123
 5193SOL    HW127038   2.034   0.486   3.110 -2.9393 -2.4622 -1.4268
 5193SOL    HW227039   2.018   0.613   3.179 -1.7375  0.3525  1.2142
 5194SOL     OW27040   0.500   1.999   3.238  0.4801 -0.0320  0.4693
 5194SOL    HW127041   0.489   1.932   3.170  3.4289 -0.2525  0.2099
 5194SOL    HW227042   0.464   2.080   3.202  2.5965  1.3617  1.5292
 5195SOL     OW27043   3.018   1.238   4.282  0.2471  0.3145  0.6061
 5195SOL    HW127044   3.022   1.189   4.200 -0.4826 -0.1665  0.8628
 5195SOL    HW227045   2.960   1.310   4.256  0.4893  0.6652  1.0243
 5196SOL     OW27046   3.948   3.864   4.775  0.0086 -0.1972 -0.4498
 5196SOL    HW127047   3.978   3.947   4.813  0.9485 -0.2922 -0.9859
 5196SOL    HW227048   3.868   3.848   4.826  0.0410 -0.8725 -0.6185
 5197SOL     OW27049   3.605   0.981   3.263  0.2176  0.2934 -0.2998
 5197SOL    HW127050   3.579   0.935   3.343 -1.8679 -0.0124 -1.1579
 5197SOL    HW227051   3.563   0.930   3.195  1.7547 -1.0983 -0.1999
 5198SOL     OW27052   0.863   0.663   2.038  0.5807  0.1703  0.0641
 5198SOL    HW127053   0.900   0.576   2.026 -0.1522 -0.2067  0.5765
 5198SOL    HW227054   0.777   0.656   1.996  1.3096 -0.1884 -1.3935
 5199SOL     OW27055   1.055   2.649  14.223  0.2059  0.3976 -0.1848
 5199SOL    HW127056   1.116   2.613  14.289 -2.6995  0.1603  2.3683
 5199SOL    HW227057   0.992   2.694  14.279 -0.2809 -1.6570  0.9378
 5200SOL     OW27058   1.228   0.942   9.140 -0.3500  0.6986 -0.3018
 5200SOL    HW127059   1.284   0.903   9.207 -0.5913 -0.4153 -0.7508
 5200SOL    HW227060   1.152   0.956   9.197 -0.3379  0.3433 -0.2012
 5201SOL     OW27061   4.696   1.416   4.284  0.2178 -0.0138  0.2573
 5201SOL    HW127062   0.020   1.429   4.200  0.3465  0.3753  0.3832
 5201SOL    HW227063   0.040   1.365   4.334  1.7070  1.2648 -0.3606
 5202SOL     OW27064   0.240   1.968  10.468 -0.2742  0.4670  0.1964
 5202SOL    HW127065   0.174   1.899  10.470 -0.4982  0.6870  0.5196
 5202SOL    HW227066   0.319   1.923  10.440 -1.2679 -1.5866  0.6829
 5203SOL     OW27067   3.276   3.539   1.040 -0.6683  0.2741 -0.2662
 5203SOL    HW127068   3.326   3.464   1.070 -0.9650 -0.4882 -1.6563
 5203SOL    HW227069   3.301   3.545   0.947 -0.3103 -1.0140 -0.2501
 5204SOL     OW27070   3.813   3.599   6.356 -0.0281 -0.3334 -0.2190
 5204SOL    HW127071   3.861   3.682   6.352  0.3223 -0.4546  1.4336
 5204SOL    HW227072   3.839   3.573   6.267  2.5081  1.3192  0.0481
 5205SOL     OW27073   0.014   1.532  10.239 -0.2531 -0.6136 -0.1132
 5205SOL    HW127074   0.036   1.483  10.159 -2.0512  0.0594 -1.0226
 5205SOL    HW227075   0.081   1.506  10.303  0.0782 -1.5163 -0.8168
 5206SOL     OW27076   1.672   1.101   2.154 -0.4468 -0.1059  0.4915
 5206SOL    HW127077   1.624   1.038   2.100 -0.8924  0.5237  0.1503
 5206SOL    HW227078   1.725   1.143   2.087  0.0406 -1.5752 -0.0374
 5207SOL     OW27079   3.952   0.725   8.226 -0.4471  0.1280 -0.2892
 5207SOL    HW127080   3.986   0.679   8.303  1.3450 -1.1240 -1.8499
 5207SOL    HW227081   3.857   0.728   8.243 -0.6761  2.5423 -2.0969
 5208SOL     OW27082   3.178   2.680   6.143  0.0607  0.1433 -0.0547
 5208SOL    HW127083   3.241   2.713   6.078  0.3957 -0.8422 -0.2308
 5208SOL    HW227084   3.220   2.601   6.176  0.0411 -0.5976 -1.7747
 5209SOL     OW27085   2.918   3.678  11.676  0.2870  0.2385  0.4124
 5209SOL    HW127086   2.861   3.615  11.634  0.7619 -0.1540  0.3544
 5209SOL    HW227087   2.876   3.759  11.646 -0.4030 -0.1708  0.2871
 5210SOL     OW27088   2.607   0.230   2.997  0.1403  0.3940  0.0551
 5210SOL    HW127089   2.519   0.195   3.014  0.6998 -1.3845 -0.6195
 5210SOL    HW227090   2.600   0.315   3.040 -0.9713 -0.1576  0.9815
 5211SOL     OW27091   3.295   2.809  15.044 -0.2031 -0.0709 -0.4076
 5211SOL    HW127092   3.275   2.721  15.073 -1.7971 -0.1804 -1.8676
 5211SOL    HW227093   3.349   2.827  15.121 -0.0363  1.4030 -0.8611
 5212SOL     OW27094   1.316   1.662   6.107  0.3253  0.4508 -0.5620
 5212SOL    HW127095   1.268   1.597   6.055 -2.3231  2.0188 -0.1031
 5212SOL    HW227096   1.399   1.671   6.060  0.8663 -1.6530 -0.0150
 5213SOL     OW27097   2.617   2.449   5.503  0.4752 -0.6310  0.2128
 5213SOL    HW127098   2.564   2.475   5.427 -0.6484 -1.9839  0.5191
 5213SOL    HW227099   2.640   2.533   5.543  0.3299 -1.0987  1.2944
 5214SOL     OW27100   0.310   1.819   7.753  0.3506  0.1165  0.3951
 5214SOL    HW127101   0.366   1.783   7.685  0.0151 -1.1588  0.8057
 5214SOL    HW227102   0.310   1.746   7.815  0.9390  0.3186  0.6324
 5215SOL     OW27103   2.393   0.241   6.451  0.1517  0.0623  0.0715
 5215SOL    HW127104   2.455   0.251   6.378 -1.6185 -1.1595 -1.6278
 5215SOL    HW227105   2.393   0.333   6.477 -0.9557  0.2180 -0.4674
 5216SOL     OW27106   3.062   1.760  14.985  0.1440  0.1154 -1.1162
 5216SOL    HW127107   3.101   1.679  14.953  0.6919 -0.5420  1.1860
 5216SOL    HW227108   3.002   1.725  15.052  1.2882 -0.8091 -0.5717
 5217SOL     OW27109   3.756   2.295  10.644  0.3188  0.0770  0.6570
 5217SOL    HW127110   3.769   2.278  10.738  2.8114  1.3857  0.5426
 5217SOL    HW227111   3.759   2.205  10.611  0.0171 -0.0235  0.9088
 5218SOL     OW27112   0.587   1.434  11.419  0.4803 -0.4650  0.0587
 5218SOL    HW127113   0.505   1.437  11.468  2.0312 -2.2010  2.8141
 5218SOL    HW227114   0.648   1.386  11.476 -0.9572  1.8509  3.5095
 5219SOL     OW27115   4.008   2.070   5.119 -0.0338 -0.4010 -0.0508
 5219SOL    HW127116   3.928   2.116   5.095  1.2547  2.2242  0.7568
 5219SOL    HW227117   4.024   2.015   5.042  1.7671  0.0329  0.0275
 5220SOL     OW27118   2.925   0.413   6.001  0.2854  0.4342 -0.6929
 5220SOL    HW127119   2.886   0.345   6.055  0.4276  0.6998 -0.2580
 5220SOL    HW227120   3.014   0.380   6.012  0.4821  0.6167 -1.7161
 5221SOL     OW27121   0.569   3.243   7.552 -0.0805 -0.7794 -0.2774
 5221SOL    HW127122   0.516   3.240   7.632 -0.1331 -2.3171 -0.3752
 5221SOL    HW227123   0.536   3.169   7.501 -1.1054  0.4726 -1.4266
 5222SOL     OW27124   1.504   1.943   4.022 -0.0911 -0.0270 -0.0578
 5222SOL    HW127125   1.496   1.935   4.117  1.3284 -2.1688 -0.1263
 5222SOL    HW227126   1.415   1.971   3.999  0.2783  0.4387 -0.8933
 5223SOL     OW27127   4.641   4.435  15.080 -0.1905 -0.0233 -0.0285
 5223SOL    HW127128   4.648   4.526  15.053 -2.1698 -0.6160 -2.4257
 5223SOL    HW227129   4.547   4.419  15.071 -0.3737 -0.6157  2.7119
 5224SOL     OW27130   0.765   1.264   8.487  0.1445 -0.5935  0.1886
 5224SOL    HW127131   0.713   1.211   8.427  0.1074  0.1436 -0.4292
 5224SOL    HW227132   0.774   1.209   8.565  0.3736 -1.5874 -0.5435
 5225SOL     OW27133   1.286   4.049   7.657  0.2439  0.4087  0.4343
 5225SOL    HW127134   1.309   4.125   7.711 -2.3163  1.6044 -0.1652
 5225SOL    HW227135   1.286   3.987   7.730  0.7174  0.8907  0.8443
 5226SOL     OW27136   2.905   3.067   3.505  0.2144 -0.4449  0.4297
 5226SOL    HW127137   2.986   3.068   3.453  0.0837  1.2720  0.2767
 5226SOL    HW227138   2.920   2.988   3.558  0.8274 -0.6358 -0.0167
 5227SOL     OW27139   0.911   4.207  17.282 -0.7408 -0.1667  0.1795
 5227SOL    HW127140   0.974   4.271  17.314  0.2365 -1.4461  0.8178
 5227SOL    HW227141   0.831   4.260  17.293 -1.5048 -0.8929 -1.9070
 5228SOL     OW27142   2.888   1.800   6.255 -0.2458  0.1155 -0.1467
 5228SOL    HW127143   2.874   1.876   6.199 -1.7821  1.1158  1.5672
 5228SOL    HW227144   2.896   1.835   6.344  1.8131 -0.2247 -0.1896
 5229SOL     OW27145   3.033   0.838  12.461 -0.1355 -0.1848 -0.4798
 5229SOL    HW127146   2.983   0.775  12.512  1.0830 -1.4477 -0.8216
 5229SOL    HW227147   3.097   0.776  12.425  1.0011  1.1415 -0.7347
 5230SOL     OW27148   2.681   3.001   2.314  0.6739 -0.0486 -0.1879
 5230SOL    HW127149   2.662   3.040   2.229  0.1385 -1.9375 -0.9196
 5230SOL    HW227150   2.643   3.061   2.379 -1.5368 -1.0971 -0.5010
 5231SOL     OW27151   0.871   2.305   8.481 -0.1072  0.4432 -0.1886
 5231SOL    HW127152   0.789   2.310   8.531  1.4328  0.7418  2.2872
 5231SOL    HW227153   0.886   2.211   8.490 -0.3300  0.4506  0.2717
 5232SOL     OW27154   2.671   4.707   0.979  0.5031 -0.0039 -0.3221
 5232SOL    HW127155   2.742   4.715   0.915  0.9620  0.2402  0.2244
 5232SOL    HW227156   2.598   4.689   0.919 -0.2301 -1.0280  0.8784
 5233SOL     OW27157   4.623   3.902  16.618  0.2405 -0.1576 -0.5285
 5233SOL    HW127158   4.573   3.859  16.687  0.8197 -1.1716 -0.7419
 5233SOL    HW227159   4.704   3.904  16.667 -1.1424  0.5676  1.7186
 5234SOL     OW27160   2.667   1.621   2.724 -0.1428 -0.2903  0.1642
 5234SOL    HW127161   2.591   1.642   2.670  0.1046  2.3642  0.8891
 5234SOL    HW227162   2.664   1.691   2.788 -0.4401 -0.1946  0.0421
 5235SOL     OW27163   1.042   2.423   7.662  0.2111  0.5481 -0.1237
 5235SOL    HW127164   0.970   2.486   7.653 -1.3093 -1.3471 -1.0696
 5235SOL    HW227165   1.027   2.392   7.751 -2.0031 -2.6917 -1.6534
 5236SOL     OW27166   2.199   4.407  15.236  0.0736 -0.7502  0.0232
 5236SOL    HW127167   2.150   4.487  15.216  0.4709 -0.6210 -0.4179
 5236SOL    HW227168   2.251   4.397  15.157  0.0926 -0.3097 -0.0236
 5237SOL     OW27169   3.914   0.684  10.123  0.5264 -0.1355  0.0509
 5237SOL    HW127170   3.965   0.631  10.184 -0.9936 -2.5278 -0.7303
 5237SOL    HW227171   3.834   0.632  10.132  0.0641  0.4394 -0.7873
 5238SOL     OW27172   3.075   0.292  17.598  0.4599  0.1938  0.1149
 5238SOL    HW127173   3.131   0.285  17.676 -0.7146  5.1025  1.3824
 5238SOL    HW227174   3.124   0.361  17.553 -2.5481 -0.0446 -3.4953
 5239SOL     OW27175   1.784   1.988   7.727  0.0767  0.4730 -0.2335
 5239SOL    HW127176   1.819   2.057   7.670  1.3166 -0.3005 -0.4060
 5239SOL    HW227177   1.690   2.004   7.714  0.0875  0.3111 -0.5261
 5240SOL     OW27178   2.669   2.033   5.354 -0.8972 -0.5592 -0.1321
 5240SOL    HW127179   2.645   2.049   5.263 -1.1318  1.4118  0.2840
 5240SOL    HW227180   2.701   2.119   5.383  3.0597 -1.3678 -2.1868
 5241SOL     OW27181   1.504   4.558   0.262 -0.2807  0.4459  0.0287
 5241SOL    HW127182   1.518   4.464   0.251  0.9661  0.4562  1.5603
 5241SOL    HW227183   1.417   4.560   0.300 -0.5931 -0.4217 -0.6488
 5242SOL     OW27184   0.724   4.136   1.319  0.0135  0.5142  0.0533
 5242SOL    HW127185   0.733   4.064   1.380  0.3088  0.1422 -0.4294
 5242SOL    HW227186   0.770   4.212   1.356  0.9104  1.5285 -3.1103
 5243SOL     OW27187   1.627   1.636   3.709  0.1897  0.1110  0.2262
 5243SOL    HW127188   1.595   1.611   3.622  1.4546  0.3182 -0.2828
 5243SOL    HW227189   1.637   1.730   3.695 -0.2904  0.2795  1.0337
 5244SOL     OW27190   3.214   1.220   0.336 -0.1353  0.3176 -0.7027
 5244SOL    HW127191   3.224   1.164   0.259 -2.9573 -1.5000  0.2550
 5244SOL    HW227192   3.157   1.167   0.392 -1.5515  1.6698 -0.8835
 5245SOL     OW27193   3.038   4.413   1.078  0.0279 -0.5813  0.1879
 5245SOL    HW127194   3.122   4.460   1.078 -1.1524  1.5102  1.8107
 5245SOL    HW227195   3.068   4.339   1.131 -0.1137 -0.7487  0.0326
 5246SOL     OW27196   2.744   4.672   1.663  0.0356  0.0710  0.0195
 5246SOL    HW127197   2.724   4.691   1.571  0.1143 -0.9347 -0.2041
 5246SOL    HW227198   2.824   4.719   1.683 -0.9296  1.9584 -0.5987
 5247SOL     OW27199   3.032   3.852  12.891  0.1169  0.3662  0.3386
 5247SOL    HW127200   2.991   3.820  12.810  1.2531 -0.5048  0.1020
 5247SOL    HW227201   3.125   3.838  12.870  0.4497  0.6799  1.6163
 5248SOL     OW27202   0.348   3.617   6.566  0.1775  0.1932  0.4198
 5248SOL    HW127203   0.280   3.562   6.526  1.4253 -0.2989 -1.0098
 5248SOL    HW227204   0.354   3.690   6.503  1.8649  0.7911  1.2808
 5249SOL     OW27205   0.114   1.342  12.813  0.3119  0.1424  0.0163
 5249SOL    HW127206   0.163   1.270  12.854 -1.6682 -0.3832  1.4774
 5249SOL    HW227207   0.037   1.344  12.870  0.2763  0.8611 -0.0542
 5250SOL     OW27208   3.724   3.330   4.691  0.4453  0.0628  0.0549
 5250SOL    HW127209   3.793   3.395   4.704  0.0880  0.7373 -1.3228
 5250SOL    HW227210   3.642   3.369   4.721 -0.0175 -0.3719 -0.6329
 5251SOL     OW27211   1.297   2.823   5.559  0.4290 -0.4608  0.1668
 5251SOL    HW127212   1.365   2.887   5.579  1.3861 -0.8861 -1.7360
 5251SOL    HW227213   1.332   2.745   5.603  2.0954 -0.3056 -0.9002
 5252SOL     OW27214   3.335   4.682   3.169 -0.2508  0.2697  0.9238
 5252SOL    HW127215   3.276   4.607   3.178 -2.0766  1.8736  2.2569
 5252SOL    HW227216   3.415   4.635   3.193  2.3463  4.2293  0.0903
 5253SOL     OW27217   2.721   3.827   4.704 -0.3483 -0.1989 -0.0482
 5253SOL    HW127218   2.722   3.920   4.684 -1.5668 -0.7446 -2.7006
 5253SOL    HW227219   2.807   3.794   4.678 -0.7194 -0.0396 -1.4847
 5254SOL     OW27220   4.074   0.216  11.385  0.3653 -0.2716 -0.7104
 5254SOL    HW127221   4.088   0.276  11.311 -1.3055  2.6093  1.3087
 5254SOL    HW227222   4.157   0.235  11.428 -0.0966  0.7259 -0.2633
 5255SOL     OW27223   0.800   2.011   2.738  0.3237  0.3268  0.0578
 5255SOL    HW127224   0.850   1.989   2.660  1.9823  1.7958  0.7134
 5255SOL    HW227225   0.759   1.924   2.741  0.1235  0.4259  0.2234
 5256SOL     OW27226   2.659   3.202   9.716  0.1996 -0.3136  0.0191
 5256SOL    HW127227   2.744   3.239   9.740  0.1574 -1.0539  1.3403
 5256SOL    HW227228   2.663   3.221   9.622  1.3051 -0.1616  0.0962
 5257SOL     OW27229   2.327   3.920   6.960  0.3240 -0.5813  0.7079
 5257SOL    HW127230   2.369   3.859   6.899 -0.7408  1.5838 -2.1745
 5257SOL    HW227231   2.399   3.973   6.995 -1.6657  1.7225  1.3539
 5258SOL     OW27232   0.556   3.445   7.801 -0.3352  0.5788 -0.3196
 5258SOL    HW127233   0.539   3.531   7.838  0.6329  1.1900 -1.2966
 5258SOL    HW227234   0.493   3.436   7.729  0.8303 -0.9102 -1.1614
 5259SOL     OW27235   1.084   0.429   1.001  0.8132 -0.1237 -0.0379
 5259SOL    HW127236   1.037   0.490   0.944  0.8704  0.0458  0.0987
 5259SOL    HW227237   1.159   0.411   0.945 -1.7734 -0.8377 -3.2479
 5260SOL     OW27238   2.295   0.769   6.965  0.1610  0.0992  0.3495
 5260SOL    HW127239   2.272   0.813   7.047 -1.8930  1.3865 -0.9083
 5260SOL    HW227240   2.378   0.809   6.941  0.5252  0.8298  2.8971
 5261SOL     OW27241   2.861   4.655  10.495 -0.3182  0.2981  0.0824
 5261SOL    HW127242   2.931   4.718  10.480  1.9203 -2.1776 -0.0252
 5261SOL    HW227243   2.822   4.651  10.408 -1.7675 -2.9057  0.8691
 5262SOL     OW27244   3.781   0.626  15.289  0.4304  0.5059 -0.5439
 5262SOL    HW127245   3.754   0.544  15.247  1.9331  0.0248 -0.5632
 5262SOL    HW227246   3.786   0.604  15.382  0.2139 -1.0847 -0.8983
 5263SOL     OW27247   1.219   2.919  16.525 -0.2755 -0.4698 -0.2263
 5263SOL    HW127248   1.248   2.896  16.614  0.5602 -4.6423 -1.5517
 5263SOL    HW227249   1.305   2.928  16.483 -0.1546 -1.7175 -0.2561
 5264SOL     OW27250   2.546   1.092  16.591 -0.1662  0.5070  0.2870
 5264SOL    HW127251   2.468   1.123  16.545 -0.2678  0.5513  0.4873
 5264SOL    HW227252   2.596   1.072  16.512 -1.2932 -0.7413 -0.1053
 5265SOL     OW27253   1.224   0.684   1.039  0.0061  0.6219 -0.6343
 5265SOL    HW127254   1.231   0.757   1.101  0.4049  0.9531 -1.0731
 5265SOL    HW227255   1.129   0.680   1.033  0.2676 -1.2165 -3.7106
 5266SOL     OW27256   0.402   1.427   1.971 -0.0217  0.0297  0.3427
 5266SOL    HW127257   0.375   1.414   1.880 -0.1981  0.1869  0.3725
 5266SOL    HW227258   0.405   1.522   1.982 -1.8779  0.1787 -0.4054
 5267SOL     OW27259   3.247   4.307   1.458  0.7302  0.1077 -0.2957
 5267SOL    HW127260   3.197   4.272   1.384  1.2202  1.6185 -1.3261
 5267SOL    HW227261   3.189   4.274   1.526 -1.8301  0.5105 -2.2995
 5268SOL     OW27262   0.906   2.739   2.967  0.4153  0.0622  0.2899
 5268SOL    HW127263   0.884   2.759   2.877 -1.4043  0.2084  0.7738
 5268SOL    HW227264   0.819   2.747   3.004 -0.1320  2.6219 -1.5932
 5269SOL     OW27265   3.174   0.702   3.853 -0.0014 -0.0935  0.4676
 5269SOL    HW127266   3.132   0.618   3.831 -1.8714  0.6530  1.1947
 5269SOL    HW227267   3.139   0.766   3.791 -1.1938 -1.5532 -0.3899
 5270SOL     OW27268   0.758   2.819  15.011  0.4361 -0.4894  0.0415
 5270SOL    HW127269   0.785   2.872  15.086  0.6465 -2.1115  1.1088
 5270SOL    HW227270   0.837   2.825  14.957  0.9428 -0.7080  0.7631
 5271SOL     OW27271   4.191   4.433  10.124  0.1425  0.1597  0.7137
 5271SOL    HW127272   4.169   4.340  10.133 -1.7299  0.2400 -3.2992
 5271SOL    HW227273   4.227   4.435  10.036 -2.3889 -2.6417 -0.4031
 5272SOL     OW27274   3.545   2.977   4.828  0.1981  0.1094 -0.3358
 5272SOL    HW127275   3.598   2.897   4.838 -1.7101 -1.1017  0.0205
 5272SOL    HW227276   3.566   3.024   4.909 -0.3052 -1.2618  0.6038
 5273SOL     OW27277   2.410   4.060   4.848  0.9319 -0.3896  0.9430
 5273SOL    HW127278   2.482   4.048   4.909  2.2461  0.9656 -0.3288
 5273SOL    HW227279   2.432   4.144   4.807 -0.8837 -1.8305 -3.0899
 5274SOL     OW27280   0.554   1.444   6.296 -0.2704 -0.7357 -0.3405
 5274SOL    HW127281   0.546   1.539   6.287 -0.3846 -0.5011  2.2762
 5274SOL    HW227282   0.579   1.422   6.206  0.6109 -2.8116  0.4093
 5275SOL     OW27283   4.185   3.408   5.448  0.4667  0.0655  0.0669
 5275SOL    HW127284   4.225   3.465   5.513  0.8494  0.7906 -0.7953
 5275SOL    HW227285   4.243   3.424   5.373  0.7950 -0.5670  0.1819
 5276SOL     OW27286   4.557   2.389   2.082  0.1513 -0.5616 -0.1725
 5276SOL    HW127287   4.469   2.354   2.070 -1.1139  3.0051 -1.3786
 5276SOL    HW227288   4.589   2.363   1.996  0.0053  0.5118 -0.5511
 5277SOL     OW27289   4.611   0.243   6.498 -0.1426  0.0139 -0.2278
 5277SOL    HW127290   4.620   0.254   6.593  0.7999  0.5226 -0.3721
 5277SOL    HW227291   4.531   0.286   6.466 -0.4259 -0.9574 -0.8026
 5278SOL     OW27292   1.809   3.543   4.042  0.2572 -0.1599  0.1273
 5278SOL    HW127293   1.823   3.593   4.122  0.0075  1.1744 -0.6694
 5278SOL    HW227294   1.748   3.599   3.995 -0.0688 -0.7469 -0.1516
 5279SOL     OW27295   0.338   4.595  11.889  0.2593 -0.2810 -0.0749
 5279SOL    HW127296   0.420   4.633  11.918  0.6518 -0.6779 -0.6504
 5279SOL    HW227297   0.275   4.610  11.959 -1.4308  2.2186 -2.1533
 5280SOL     OW27298   0.581   0.814   5.753 -0.1729  0.0905  0.2186
 5280SOL    HW127299   0.502   0.766   5.780  1.8196 -3.8263 -0.8291
 5280SOL    HW227300   0.614   0.835   5.840  1.1365 -1.9042  0.2171
 5281SOL     OW27301   4.434   4.694   9.368 -0.2908 -0.0684  0.3631
 5281SOL    HW127302   4.423   4.599   9.367  0.7204 -0.1848  0.3018
 5281SOL    HW227303   4.530   4.693   9.372 -0.1665  1.8189 -1.9485
 5282SOL     OW27304   3.475   2.719  16.895 -0.1956  0.5507 -0.1853
 5282SOL    HW127305   3.500   2.649  16.833  0.9997  0.7677  0.0600
 5282SOL    HW227306   3.465   2.801  16.846  0.3208 -0.7693 -2.5531
 5283SOL     OW27307   3.492   2.711   0.655  0.1471  0.0996  0.1282
 5283SOL    HW127308   3.441   2.757   0.720 -0.3554  0.1937 -0.3292
 5283SOL    HW227309   3.531   2.788   0.614  1.3868  0.0097  1.1653
 5284SOL     OW27310   4.326   4.316   3.670  0.5500 -0.2544 -0.2704
 5284SOL    HW127311   4.314   4.410   3.684  1.1153 -0.6120  2.4608
 5284SOL    HW227312   4.238   4.285   3.691 -0.4014  0.6008 -2.9454
 5285SOL     OW27313   0.045   0.710   2.587 -0.3941  0.4805  0.4077
 5285SOL    HW127314   0.110   0.761   2.635 -1.6895  0.6194  2.0051
 5285SOL    HW227315   0.079   0.620   2.578  2.0478  1.2617  1.8914
 5286SOL     OW27316   1.212   3.369   6.341 -0.0496 -0.4333  0.0225
 5286SOL    HW127317   1.188   3.277   6.350  0.1619 -0.6591 -1.7380
 5286SOL    HW227318   1.136   3.420   6.369  0.6544  0.7704 -0.2082
 5287SOL     OW27319   1.869   3.054   2.480 -0.0022  0.5673 -0.4050
 5287SOL    HW127320   1.929   3.126   2.459  1.0782 -0.2654 -0.1788
 5287SOL    HW227321   1.907   2.977   2.437 -0.9626  0.1683 -0.5481
 5288SOL     OW27322   2.246   0.664  12.155  0.4028 -0.4432 -0.5369
 5288SOL    HW127323   2.215   0.697  12.240 -1.7103 -1.4319 -0.9407
 5288SOL    HW227324   2.306   0.737  12.141  0.0010 -0.3959 -1.9894
 5289SOL     OW27325   0.942   0.866   8.793 -0.0918 -0.0835 -0.3114
 5289SOL    HW127326   0.987   0.788   8.825  0.8880  0.3560 -0.5977
 5289SOL    HW227327   0.862   0.826   8.758  0.7687 -1.1580 -1.0467
 5290SOL     OW27328   2.005   1.975   8.420 -0.1474  0.3014 -0.0823
 5290SOL    HW127329   2.001   1.880   8.412  0.9199  0.2724 -0.3169
 5290SOL    HW227330   1.914   2.003   8.430 -0.0972 -0.5018  2.5946
 5291SOL     OW27331   2.825   2.596   3.698 -0.2646  0.5267  0.0327
 5291SOL    HW127332   2.736   2.623   3.676  0.0735  2.0203  0.5353
 5291SOL    HW227333   2.812   2.514   3.745  0.9493  2.3962  3.5827
 5292SOL     OW27334   3.439   4.127   3.661 -0.3268  0.4946  0.0778
 5292SOL    HW127335   3.517   4.075   3.677 -1.5101 -1.4688 -0.5342
 5292SOL    HW227336   3.388   4.125   3.742  0.1258  1.6455  0.3981
 5293SOL     OW27337   3.188   2.990   8.312 -0.0851 -0.1414 -0.1102
 5293SOL    HW127338   3.141   3.027   8.386  0.6765  2.1332 -0.7536
 5293SOL    HW227339   3.269   2.958   8.352  1.4438 -1.0613 -3.8973
 5294SOL     OW27340   1.785   1.354   4.084  0.0397  0.1525  1.2018
 5294SOL    HW127341   1.740   1.314   4.009 -0.8679  1.4468  1.0543
 5294SOL    HW227342   1.766   1.446   4.064 -1.5893 -0.0934  1.5692
 5295SOL     OW27343   3.597   2.927  11.115  0.2571  0.0503  0.4537
 5295SOL    HW127344   3.515   2.918  11.066  0.4962 -3.3597  0.6620
 5295SOL    HW227345   3.643   2.851  11.081  0.8339  1.1156 -1.1562
 5296SOL     OW27346   3.663   1.858   4.558  0.8887  0.1853  0.2436
 5296SOL    HW127347   3.582   1.829   4.515 -0.1450  2.7499  0.4754
 5296SOL    HW227348   3.691   1.924   4.495  2.2637 -0.3031  0.3437
 5297SOL     OW27349   1.407   2.875   6.281 -0.2531 -0.4439 -0.4315
 5297SOL    HW127350   1.481   2.874   6.220  1.2458  2.1734  1.3671
 5297SOL    HW227351   1.441   2.853   6.368 -1.0063  3.2802  0.7887
 5298SOL     OW27352   2.651   4.099  14.601  0.1844  0.0265  0.0259
 5298SOL    HW127353   2.736   4.059  14.617  0.7233  0.6940 -1.1088
 5298SOL    HW227354   2.599   4.034  14.647 -0.3157  1.1191  1.0163
 5299SOL     OW27355   1.349   3.586  10.138  0.2282  0.3119  0.3817
 5299SOL    HW127356   1.422   3.646  10.152  0.6022 -0.6869  2.7021
 5299SOL    HW227357   1.278   3.640  10.172  0.5670 -0.1691  1.8747
 5300SOL     OW27358   0.694   3.904   2.751  0.2248 -0.6684 -0.8395
 5300SOL    HW127359   0.738   3.907   2.836 -1.7423  0.0083  0.1622
 5300SOL    HW227360   0.714   3.819   2.713 -2.5536 -2.0963  0.9535
 5301SOL     OW27361   1.987   1.347   6.521 -0.3426  0.1583  0.0577
 5301SOL    HW127362   2.060   1.335   6.581  0.6099 -2.2148 -1.5586
 5301SOL    HW227363   1.912   1.308   6.565 -0.2961 -1.2889 -1.1340
 5302SOL     OW27364   1.962   2.155  13.457 -0.6553 -0.0243  0.3969
 5302SOL    HW127365   1.920   2.074  13.483 -3.1259  0.9202 -0.6754
 5302SOL    HW227366   2.012   2.112  13.387  1.0710 -0.0519  1.6485
 5303SOL     OW27367   1.475   2.417   9.920 -0.0813  0.0886 -0.2504
 5303SOL    HW127368   1.447   2.373   9.840 -0.1370 -0.6017  0.1513
 5303SOL    HW227369   1.488   2.506   9.886  0.2470 -0.7123 -2.2546
 5304SOL     OW27370   1.217   1.276   8.522 -0.3747  0.0722 -0.3860
 5304SOL    HW127371   1.140   1.321   8.489  0.5034  1.3781 -0.6567
 5304SOL    HW227372   1.216   1.203   8.460 -1.5260  0.6353 -1.0295
 5305SOL     OW27373   1.706   2.866   0.451  0.0370  0.1108 -0.7246
 5305SOL    HW127374   1.787   2.889   0.406  0.7901 -1.7697 -0.3498
 5305SOL    HW227375   1.658   2.948   0.449  0.4366  0.4610  3.5050
 5306SOL     OW27376   3.266   2.263   4.645 -0.2236  0.5828  0.4242
 5306SOL    HW127377   3.301   2.295   4.562  1.1118 -0.0285  0.7609
 5306SOL    HW227378   3.320   2.192   4.678 -0.9399  0.4943  1.3987
 5307SOL     OW27379   4.411   2.438   3.400 -0.0780  0.5090 -0.0830
 5307SOL    HW127380   4.385   2.519   3.443 -0.5251 -0.5056  1.5768
 5307SOL    HW227381   4.335   2.380   3.402  0.1762  0.1950  1.0818
 5308SOL     OW27382   1.382   2.923   1.271 -0.1780 -0.0821 -0.4522
 5308SOL    HW127383   1.433   2.875   1.205 -0.4782 -1.4783  0.3473
 5308SOL    HW227384   1.445   2.987   1.306 -0.8978  0.0304  0.6080
 5309SOL     OW27385   3.420   3.212   6.700  0.8533  0.4901  0.2120
 5309SOL    HW127386   3.398   3.244   6.612  0.2109 -0.1060  0.1572
 5309SOL    HW227387   3.357   3.140   6.704  1.5201 -0.0646  0.8084
 5310SOL     OW27388   3.795   0.231   4.764 -0.0816 -0.4562  0.2165
 5310SOL    HW127389   3.833   0.315   4.738 -2.5367  0.8212  0.6667
 5310SOL    HW227390   3.772   0.254   4.854 -0.4174 -1.2835  0.3401
 5311SOL     OW27391   1.219   0.642   8.777  0.0569 -0.2571  0.1757
 5311SOL    HW127392   1.234   0.703   8.705  3.1101  0.5650  1.4892
 5311SOL    HW227393   1.210   0.561   8.727  1.0138 -0.0346 -0.3515
 5312SOL     OW27394   2.440   3.611   5.669  0.7823 -0.2474  0.2765
 5312SOL    HW127395   2.494   3.549   5.718  0.2483 -0.0107  1.1761
 5312SOL    HW227396   2.448   3.693   5.717  0.2115 -1.0784  1.7938
 5313SOL     OW27397   2.691   4.679   8.526 -0.1406  0.3352  0.2413
 5313SOL    HW127398   2.775   4.643   8.499  0.6088  1.1178  1.5575
 5313SOL    HW227399   2.625   4.616   8.497 -0.5477  0.7125  0.3456
 5314SOL     OW27400   1.862   3.014   7.888 -0.5846  0.7380 -0.4470
 5314SOL    HW127401   1.904   3.066   7.820  0.9077  0.2916  0.1455
 5314SOL    HW227402   1.776   2.989   7.853 -0.2518 -0.0253 -0.7065
 5315SOL     OW27403   0.413   4.651  10.118  0.2165  0.7135  0.1722
 5315SOL    HW127404   0.501   4.658  10.081  0.4109  2.1083  0.9198
 5315SOL    HW227405   0.435   4.690  10.202  0.4468  0.1746  0.3611
 5316SOL     OW27406   1.159   0.877   4.298 -0.1818 -0.3856 -0.1055
 5316SOL    HW127407   1.072   0.849   4.269 -0.3800  1.2930 -1.1347
 5316SOL    HW227408   1.180   0.960   4.255 -0.5280  0.4616  1.3635
 5317SOL     OW27409   2.500   3.458   5.432  0.0699  0.6735  0.2415
 5317SOL    HW127410   2.429   3.420   5.484 -1.1009  3.1866  0.4796
 5317SOL    HW227411   2.516   3.534   5.487 -1.9586  0.3735  1.2676
 5318SOL     OW27412   1.133   1.355   1.746 -0.2978  0.7641  0.0745
 5318SOL    HW127413   1.084   1.433   1.771  0.7675  0.5334  2.8286
 5318SOL    HW227414   1.208   1.364   1.805 -0.0159 -0.7710 -0.0511
 5319SOL     OW27415   2.251   3.509   5.869  0.4163  0.4518 -0.8673
 5319SOL    HW127416   2.282   3.570   5.802 -1.0245 -1.1194 -2.9601
 5319SOL    HW227417   2.167   3.491   5.827 -0.5049 -0.0743  1.2467
 5320SOL     OW27418   3.066   0.744   2.956  0.1067 -0.1615 -0.4428
 5320SOL    HW127419   3.110   0.732   2.873 -1.9932 -0.3958 -1.5336
 5320SOL    HW227420   3.104   0.828   2.981  0.9127 -0.0348 -2.1053
 5321SOL     OW27421   3.369   0.841  13.748  0.1126  0.0418  0.2857
 5321SOL    HW127422   3.292   0.897  13.741 -1.2100 -1.9708 -1.1239
 5321SOL    HW227423   3.333   0.760  13.713  2.6126 -0.4803 -1.0401
 5322SOL     OW27424   4.099   1.798  16.979 -0.4397  0.1219 -0.5077
 5322SOL    HW127425   4.067   1.719  16.937 -0.5755 -0.0189 -0.1417
 5322SOL    HW227426   4.035   1.867  16.963  0.5160  1.9473  3.5418
 5323SOL     OW27427   4.474   3.880   8.847  0.6825  0.1746  0.1271
 5323SOL    HW127428   4.399   3.861   8.792  0.8425 -0.5687  0.1683
 5323SOL    HW227429   4.546   3.840   8.799  1.0384  0.8332  0.1172
 5324SOL     OW27430   4.716   0.222  13.085 -0.1974  0.3830  0.0044
 5324SOL    HW127431   4.703   0.218  13.180 -1.2482 -3.0729 -0.2719
 5324SOL    HW227432   0.046   0.302  13.074  0.0944 -0.0849 -1.9888
 5325SOL     OW27433   3.035   0.487   1.276 -1.2451 -0.2426 -0.0158
 5325SOL    HW127434   3.052   0.476   1.369 -3.2391  3.1434  0.7473
 5325SOL    HW227435   3.087   0.561   1.245  0.2159 -0.7705  1.1815
 5326SOL     OW27436   4.313   2.275   2.476  0.4836  0.8073  0.5142
 5326SOL    HW127437   4.253   2.236   2.413  2.1011 -0.0865 -0.4695
 5326SOL    HW227438   4.254   2.319   2.537  0.6307  0.2315  1.0796
 5327SOL     OW27439   4.585   0.778   1.892 -0.7394  0.5675 -0.5739
 5327SOL    HW127440   4.548   0.704   1.844  2.3237 -1.2470 -0.1557
 5327SOL    HW227441   4.504   0.814   1.928  0.2536 -2.7824  5.1770
 5328SOL     OW27442   0.783   2.486   6.578 -0.1485  0.3228  0.3499
 5328SOL    HW127443   0.699   2.532   6.582  0.2850  0.8633  3.2939
 5328SOL    HW227444   0.753   2.396   6.567 -0.7529  0.4914  0.5809
 5329SOL     OW27445   4.406   4.290   2.621 -0.5261  0.0790  0.5782
 5329SOL    HW127446   4.465   4.256   2.553  1.1643 -1.3938  2.7876
 5329SOL    HW227447   4.466   4.321   2.689  2.1306 -2.1611 -0.7601
 5330SOL     OW27448   3.572   4.521   5.047  0.0463  0.2182 -0.0312
 5330SOL    HW127449   3.660   4.558   5.055  0.0706  0.1125  0.1684
 5330SOL    HW227450   3.595   4.436   5.008  2.0017  0.6454  0.1909
 5331SOL     OW27451   3.869   3.193   8.602 -0.3176 -0.2165 -0.1404
 5331SOL    HW127452   3.943   3.204   8.662 -1.3646 -1.9041  1.4428
 5331SOL    HW227453   3.905   3.120   8.552 -1.6827 -0.8063 -0.2503
 5332SOL     OW27454   2.421   1.907  12.313  0.1606 -0.2782  0.1076
 5332SOL    HW127455   2.484   1.846  12.275 -1.0502 -1.5542  0.1564
 5332SOL    HW227456   2.358   1.849  12.356  1.6087 -0.9790  1.2541
 5333SOL     OW27457   4.107   1.907   4.913 -0.0240 -0.1401  0.1897
 5333SOL    HW127458   4.155   1.901   4.830  0.1153 -1.6261  0.3768
 5333SOL    HW227459   4.025   1.862   4.893  0.4744 -0.0838 -2.0288
 5334SOL     OW27460   1.292   2.935   7.720 -0.2522  0.0459 -0.7974
 5334SOL    HW127461   1.230   2.887   7.665 -1.1393 -0.8155  0.9561
 5334SOL    HW227462   1.328   2.996   7.656  0.7361  0.6482  0.3237
 5335SOL     OW27463   2.204   0.322   5.885  0.3694  0.6347 -0.0892
 5335SOL    HW127464   2.178   0.356   5.799  0.1100  2.2497  0.6313
 5335SOL    HW227465   2.116   0.301   5.916  1.6055 -0.8962  2.4322
 5336SOL     OW27466   1.510   0.349  16.577  0.1618  0.1539  0.4732
 5336SOL    HW127467   1.563   0.429  16.573  1.5261 -0.7261  0.8073
 5336SOL    HW227468   1.455   0.350  16.499  0.6434 -0.7990  0.1140
 5337SOL     OW27469   4.363   1.113  12.502  0.0962  0.1319  0.0156
 5337SOL    HW127470   4.418   1.073  12.570  0.5348 -1.4690 -1.2915
 5337SOL    HW227471   4.428   1.168  12.458 -0.5510 -0.3897 -1.5617
 5338SOL     OW27472   3.058   3.841   0.458 -0.0431  0.7222  0.1638
 5338SOL    HW127473   2.967   3.821   0.482 -0.9158  2.0676 -2.0264
 5338SOL    HW227474   3.099   3.812   0.539  2.6641 -1.4989 -1.9993
 5339SOL     OW27475   4.457   0.962   3.714 -0.3526 -0.1189 -0.0016
 5339SOL    HW127476   4.413   0.907   3.650  0.9055 -0.0720 -0.9171
 5339SOL    HW227477   4.408   1.044   3.704  2.1134  1.4277  0.5037
 5340SOL     OW27478   2.366   0.501   9.036  0.4451  0.0358  0.0482
 5340SOL    HW127479   2.390   0.560   9.107 -0.7285 -1.8235  1.9689
 5340SOL    HW227480   2.272   0.491   9.052  0.7347 -0.9778  1.1228
 5341SOL     OW27481   4.219   3.126   3.651  0.4827 -0.4224  0.4787
 5341SOL    HW127482   4.166   3.120   3.731  1.1756  1.0380  1.0443
 5341SOL    HW227483   4.279   3.052   3.663 -2.6780 -3.0946 -0.2696
 5342SOL     OW27484   3.099   2.122   7.948 -0.2088 -0.4923  0.3860
 5342SOL    HW127485   3.113   2.208   7.988  1.4183  0.9122 -3.2654
 5342SOL    HW227486   3.132   2.137   7.860 -2.1855 -1.5623 -0.5316
 5343SOL     OW27487   3.494   1.842  15.176  0.3542 -0.3957 -0.0650
 5343SOL    HW127488   3.405   1.818  15.151  0.0567  0.8144 -0.1626
 5343SOL    HW227489   3.500   1.819  15.269 -1.5814  1.5119  0.5122
 5344SOL     OW27490   3.073   3.468  17.355  0.4745 -0.0388  0.2935
 5344SOL    HW127491   3.156   3.470  17.307 -0.7226 -0.8475 -1.7771
 5344SOL    HW227492   3.068   3.562  17.373  1.2275 -0.0521  0.5668
 5345SOL     OW27493   2.141   2.270   7.187 -0.2042  0.3999  0.1404
 5345SOL    HW127494   2.071   2.333   7.207 -0.7856 -1.0018  2.4911
 5345SOL    HW227495   2.214   2.329   7.171  0.3308 -0.8444 -2.0041
 5346SOL     OW27496   1.320   1.360   1.964  0.9511 -0.3291 -0.1726
 5346SOL    HW127497   1.331   1.357   2.059  1.8571  3.3240 -0.1576
 5346SOL    HW227498   1.384   1.295   1.937 -2.4968 -2.6490 -2.6293
 5347SOL     OW27499   4.710   0.278   2.272 -0.5088 -0.0242  0.4654
 5347SOL    HW127500   4.704   0.373   2.266 -1.2740 -0.2184 -1.7418
 5347SOL    HW227501   0.042   0.251   2.197 -0.5447  4.1145 -1.0524
 5348SOL     OW27502   1.306   4.635  10.133 -0.3874  0.1746  0.3253
 5348SOL    HW127503   1.238   4.631  10.200 -1.5961  0.0529 -0.9119
 5348SOL    HW227504   1.288   4.554  10.086 -0.2453  1.2067 -1.5457
 5349SOL     OW27505   2.014   2.026   6.996 -0.0580  0.7393 -0.2895
 5349SOL    HW127506   2.069   2.091   7.040 -2.1666 -0.2130  3.7974
 5349SOL    HW227507   1.983   2.072   6.919 -1.3559  0.7591  0.2415
 5350SOL     OW27508   3.687   0.281   3.142  0.1326 -0.0928 -0.1107
 5350SOL    HW127509   3.610   0.249   3.189  0.1807  0.3063  0.2354
 5350SOL    HW227510   3.690   0.208   3.080 -0.5146 -1.7528  1.8205
 5351SOL     OW27511   2.407   1.359   6.777 -0.0855  0.2504 -0.5675
 5351SOL    HW127512   2.376   1.441   6.815 -1.4545 -0.6896  0.3518
 5351SOL    HW227513   2.461   1.329   6.851 -0.4373  1.0541  0.0116
 5352SOL     OW27514   1.256   2.313   3.958 -0.2983  0.3514 -0.8346
 5352SOL    HW127515   1.268   2.219   3.940 -1.5710  0.0573 -0.1487
 5352SOL    HW227516   1.222   2.341   3.873  0.0879  0.0660 -1.0821
 5353SOL     OW27517   0.647   1.304   7.784  0.3625 -0.1729  0.0230
 5353SOL    HW127518   0.657   1.382   7.838 -2.1486 -0.2764  0.6493
 5353SOL    HW227519   0.559   1.320   7.750 -0.0622  0.0712  1.2424
 5354SOL     OW27520   0.457   1.034   3.524 -0.2497 -0.0791  0.3694
 5354SOL    HW127521   0.383   0.991   3.482  0.9964 -2.1352  0.2709
 5354SOL    HW227522   0.411   1.113   3.552 -0.4655  0.2029 -0.7876
 5355SOL     OW27523   4.498   0.304  15.054  0.1760  0.0366  0.0138
 5355SOL    HW127524   4.516   0.251  14.976  1.1439 -0.6885  0.7262
 5355SOL    HW227525   4.460   0.240  15.114  0.1904 -0.6156 -0.6714
 5356SOL     OW27526   2.903   1.051  15.782  0.1429  0.0273 -0.0782
 5356SOL    HW127527   2.882   1.012  15.697  3.3316 -1.0514 -0.3661
 5356SOL    HW227528   2.866   0.983  15.837 -0.6743  0.7712  0.2922
 5357SOL     OW27529   2.154   1.633  14.267  0.0034 -0.0717 -0.2941
 5357SOL    HW127530   2.128   1.573  14.337 -1.4022  1.0493  0.1258
 5357SOL    HW227531   2.250   1.627  14.273 -0.2010 -2.1414  1.0721
 5358SOL     OW27532   1.437   3.110  12.309  0.2376  0.0915  0.0856
 5358SOL    HW127533   1.395   3.128  12.393 -0.3460  0.0063 -0.1822
 5358SOL    HW227534   1.530   3.114  12.328  0.3020  1.4211 -0.4944
 5359SOL     OW27535   3.392   3.662   9.939 -0.0969 -0.2057  0.1771
 5359SOL    HW127536   3.300   3.678   9.961  0.5298  0.1703  2.5990
 5359SOL    HW227537   3.418   3.613  10.018 -2.8351  1.7323  2.2897
 5360SOL     OW27538   1.674   0.523   4.152 -0.4528 -0.7368 -0.5132
 5360SOL    HW127539   1.687   0.531   4.247  1.8418  1.1607 -0.9844
 5360SOL    HW227540   1.609   0.593   4.148  0.2583  0.0032  0.7333
 5361SOL     OW27541   3.934   0.783   3.928  0.4158 -0.3429 -0.0964
 5361SOL    HW127542   3.841   0.798   3.912  1.0582  0.0760 -3.5028
 5361SOL    HW227543   3.935   0.692   3.899 -0.4706 -0.3265 -0.1548
 5362SOL     OW27544   2.551   0.570  11.541  0.5150  0.7089 -0.1655
 5362SOL    HW127545   2.488   0.525  11.484 -1.7756  0.2481  2.7290
 5362SOL    HW227546   2.496   0.559  11.619  2.2165  0.7799  1.0367
 5363SOL     OW27547   1.468   0.036  15.639  0.1038  0.0922 -0.1510
 5363SOL    HW127548   1.537   0.101  15.653  2.9499 -2.5258 -1.8584
 5363SOL    HW227549   1.403   0.061  15.705 -1.4252 -0.0437 -1.6240
 5364SOL     OW27550   3.929   4.137  12.412  0.3026 -0.1001 -0.0295
 5364SOL    HW127551   3.883   4.119  12.494  1.0808  1.4784  0.7536
 5364SOL    HW227552   3.895   4.225  12.395 -0.1563 -0.7736 -2.5800
 5365SOL     OW27553   1.016   3.509  10.084 -0.0502  0.0995 -0.0938
 5365SOL    HW127554   1.077   3.440  10.109 -3.1827 -2.0517  1.5190
 5365SOL    HW227555   1.032   3.565  10.160 -0.5925 -0.1329  0.1914
 5366SOL     OW27556   1.706   0.529   7.803  0.4088  0.1934  0.0781
 5366SOL    HW127557   1.647   0.587   7.851 -0.6333 -0.7865 -0.0244
 5366SOL    HW227558   1.777   0.529   7.868  1.0282  1.9521 -0.6001
 5367SOL     OW27559   2.620   1.366   7.342  0.2387 -0.2879  0.4113
 5367SOL    HW127560   2.535   1.389   7.378  0.2685 -1.7809  1.4229
 5367SOL    HW227561   2.597   1.293   7.285  2.2371 -1.4577  1.0683
 5368SOL     OW27562   2.171   2.781   8.586  0.0819 -0.4066 -0.3720
 5368SOL    HW127563   2.111   2.768   8.660 -1.6175 -0.6307 -1.7751
 5368SOL    HW227564   2.114   2.772   8.509  0.2462 -0.0699 -0.5338
 5369SOL     OW27565   1.396   3.041   5.390  0.3192  0.3042  0.7581
 5369SOL    HW127566   1.420   3.082   5.307  0.3566 -0.4686  0.3896
 5369SOL    HW227567   1.423   2.950   5.376  1.1536  0.4757  1.2724
 5370SOL     OW27568   2.299   0.923   8.070 -0.3422  0.0721 -0.0683
 5370SOL    HW127569   2.336   0.838   8.093  1.7167  0.3488 -2.3273
 5370SOL    HW227570   2.354   0.935   7.993  0.2332  0.6064  0.4247
 5371SOL     OW27571   0.476   3.681   7.936  0.4182  0.3513  0.4195
 5371SOL    HW127572   0.442   3.769   7.955 -2.4683 -0.5453 -0.5976
 5371SOL    HW227573   0.537   3.679   8.010 -0.7390  1.2602  1.3910
 5372SOL     OW27574   0.414   2.654   4.773  0.0790  0.2572  0.2431
 5372SOL    HW127575   0.484   2.717   4.755 -0.4204  1.2478  1.7571
 5372SOL    HW227576   0.418   2.606   4.690 -0.4793  1.0746 -0.2584
 5373SOL     OW27577   2.064   1.411  16.510 -0.3932 -0.3417  0.0934
 5373SOL    HW127578   2.130   1.358  16.556 -1.0775 -0.4543  0.9382
 5373SOL    HW227579   2.018   1.436  16.590 -0.0179  2.0789 -0.4447
 5374SOL     OW27580   0.499   2.488   2.354  0.2024  0.6443 -0.2852
 5374SOL    HW127581   0.547   2.407   2.373 -0.4692  0.2335 -0.3182
 5374SOL    HW227582   0.407   2.470   2.375  0.1209  0.9829 -0.3597
 5375SOL     OW27583   2.440   4.206   7.041 -0.1268 -0.2930 -0.8107
 5375SOL    HW127584   2.356   4.242   7.069  0.9157  1.5130 -0.0225
 5375SOL    HW227585   2.479   4.192   7.127 -0.9709  0.1269 -0.3585
 5376SOL     OW27586   2.558   3.198   7.714 -0.1921  0.1268 -0.2353
 5376SOL    HW127587   2.527   3.123   7.664  0.7922 -0.2434 -0.2899
 5376SOL    HW227588   2.483   3.230   7.764 -1.0479 -0.5758 -1.0745
 5377SOL     OW27589   0.678   1.939   0.924 -0.3797 -0.2900  0.2629
 5377SOL    HW127590   0.768   1.958   0.897 -0.1220  1.2534  2.2182
 5377SOL    HW227591   0.664   2.027   0.959  1.3525  0.0296  0.1451
 5378SOL     OW27592   0.306   4.077   8.148 -0.3437 -0.1072  0.2652
 5378SOL    HW127593   0.227   4.097   8.197 -0.1233  1.0211  0.1702
 5378SOL    HW227594   0.322   3.992   8.188 -2.4197 -1.4461 -1.7375
 5379SOL     OW27595   0.218   0.014   8.435  0.6397 -0.2182 -0.6008
 5379SOL    HW127596   0.164   0.075   8.485 -1.1549 -3.5137  1.5053
 5379SOL    HW227597   0.252   0.069   8.364  2.8001 -1.7511 -0.7458
 5380SOL     OW27598   4.077   0.138  12.395  0.5182 -0.2103  0.0776
 5380SOL    HW127599   4.093   0.218  12.445 -0.7997  0.1808 -0.1260
 5380SOL    HW227600   4.087   0.073  12.464  0.2907  3.9185  3.9764
 5381SOL     OW27601   1.507   3.040   0.707  0.3397 -0.4012  0.0291
 5381SOL    HW127602   1.431   2.983   0.709 -0.6611  0.9621  0.9448
 5381SOL    HW227603   1.528   3.045   0.613 -0.0426  3.1632  0.1118
 5382SOL     OW27604   1.922   1.963   5.029  0.2463  0.2838 -0.1377
 5382SOL    HW127605   1.941   1.976   5.122 -0.1929  0.4962 -0.0768
 5382SOL    HW227606   1.954   1.874   5.013 -0.7696 -0.3688  1.4829
 5383SOL     OW27607   1.685   3.740   5.219 -0.7410  0.2616  0.4629
 5383SOL    HW127608   1.684   3.799   5.143  0.1843  0.0664  0.2933
 5383SOL    HW227609   1.603   3.753   5.265 -0.6777  3.2676 -0.2741
 5384SOL     OW27610   0.973   1.164   3.415 -0.2324  0.4721  0.3093
 5384SOL    HW127611   0.971   1.112   3.335 -0.6407  0.1537  0.5257
 5384SOL    HW227612   1.011   1.103   3.478  2.1831  1.0034 -0.6228
 5385SOL     OW27613   4.561   0.913   1.357  0.1860  0.5785  0.4772
 5385SOL    HW127614   4.538   0.928   1.266  2.1620 -0.8686 -0.2741
 5385SOL    HW227615   4.643   0.865   1.348 -0.0738 -0.1902  2.1600
 5386SOL     OW27616   1.458   1.197   3.181  0.8641 -0.4499 -0.1076
 5386SOL    HW127617   1.535   1.143   3.163  1.1999 -0.5792  1.8082
 5386SOL    HW227618   1.407   1.154   3.113 -0.3312  0.1159  0.4299
 5387SOL     OW27619   3.571   1.434  14.743  0.4658 -0.2719 -0.0776
 5387SOL    HW127620   3.589   1.351  14.787  0.3279  0.1390  0.7465
 5387SOL    HW227621   3.654   1.451  14.699 -0.3255 -0.6372 -1.7307
 5388SOL     OW27622   4.670   4.010   9.295  0.1343 -0.0721 -0.1282
 5388SOL    HW127623   4.679   4.052   9.209 -0.6324 -0.0037 -0.1730
 5388SOL    HW227624   4.672   3.915   9.283 -2.5179 -0.2901  1.2317
 5389SOL     OW27625   0.936   1.399  16.252  0.1124  0.0978 -0.9402
 5389SOL    HW127626   0.950   1.436  16.340 -1.0901 -1.3920 -0.1299
 5389SOL    HW227627   0.850   1.440  16.243  1.0542  1.9972 -1.4574
 5390SOL     OW27628   2.962   3.911   3.805 -0.1580  0.3315 -0.0693
 5390SOL    HW127629   2.987   3.978   3.869  0.6040  1.1152 -1.1676
 5390SOL    HW227630   2.888   3.866   3.845 -0.8999 -0.3582 -2.1989
 5391SOL     OW27631   3.612   3.644  12.891  0.7910 -0.1402 -0.4043
 5391SOL    HW127632   3.594   3.561  12.848 -0.1874  1.1535 -2.5246
 5391SOL    HW227633   3.659   3.623  12.971  1.3061 -1.6644 -1.1194
 5392SOL     OW27634   3.718   3.005   5.066 -0.0747  0.4171 -0.3724
 5392SOL    HW127635   3.771   2.930   5.042  0.0965  0.0229  1.2347
 5392SOL    HW227636   3.786   3.071   5.060  2.1848 -1.7960  0.8667
 5393SOL     OW27637   2.025   4.039   8.467  0.4091  0.2917 -0.0187
 5393SOL    HW127638   1.997   4.011   8.554  2.6190 -1.6308  0.1097
 5393SOL    HW227639   2.054   4.125   8.497 -1.2525  1.1977 -0.9855
 5394SOL     OW27640   2.160   0.193   0.466  0.4507 -0.1842  0.2103
 5394SOL    HW127641   2.080   0.208   0.516 -0.1090  1.4506 -1.2157
 5394SOL    HW227642   2.157   0.276   0.419  2.8811 -1.0203 -1.4018
 5395SOL     OW27643   1.856   3.748   7.928  0.5813 -0.0989 -0.2304
 5395SOL    HW127644   1.848   3.747   7.833  1.0026  0.4818 -0.2716
 5395SOL    HW227645   1.949   3.727   7.935  0.2317 -1.2703  0.7891
 5396SOL     OW27646   3.849   2.033  13.914  0.2824  0.2359 -0.6729
 5396SOL    HW127647   3.908   1.960  13.932 -0.6283 -0.2706  0.2499
 5396SOL    HW227648   3.905   2.075  13.849 -0.8172  0.5862 -1.4091
 5397SOL     OW27649   4.242   4.415   6.090 -0.1249  0.0548  0.1640
 5397SOL    HW127650   4.241   4.366   6.008  1.1232  1.4807 -0.6869
 5397SOL    HW227651   4.291   4.493   6.064  1.4900 -1.4075 -1.1835
 5398SOL     OW27652   3.348   0.487  14.866 -0.2220  0.3658 -0.4868
 5398SOL    HW127653   3.431   0.524  14.895  0.3231 -1.3951  0.2346
 5398SOL    HW227654   3.371   0.398  14.839  0.1953  0.5165 -0.6272
 5399SOL     OW27655   1.268   2.891  10.588  0.2341 -0.0332 -0.0304
 5399SOL    HW127656   1.283   2.894  10.494 -0.0239 -0.6697 -0.0915
 5399SOL    HW227657   1.329   2.817  10.597  1.6002  1.3402  2.0127
 5400SOL     OW27658   3.874   0.666   2.968  0.2708  0.1808  0.1286
 5400SOL    HW127659   3.937   0.730   3.003 -1.2115  2.3582 -1.1759
 5400SOL    HW227660   3.927   0.587   2.956 -0.7985 -0.2082 -2.0633
 5401SOL     OW27661   1.384   0.835   2.909 -0.2293  0.2041 -0.7273
 5401SOL    HW127662   1.474   0.802   2.906 -0.2941  0.0642 -1.2059
 5401SOL    HW227663   1.388   0.917   2.859 -0.8310 -1.0787 -2.8936
 5402SOL     OW27664   2.683   1.114   7.663 -0.2448 -0.4089 -0.4697
 5402SOL    HW127665   2.631   1.093   7.740  2.2442 -1.8746  0.8280
 5402SOL    HW227666   2.667   1.032   7.615 -0.5696  1.1495 -2.9923
 5403SOL     OW27667   4.146   0.324   7.587  0.9335 -0.6475  0.2018
 5403SOL    HW127668   4.164   0.236   7.555  0.0914  0.6533 -3.7706
 5403SOL    HW227669   4.065   0.288   7.623  1.3061 -1.0284  0.6617
 5404SOL     OW27670   0.175   1.840   9.443  0.0472 -0.5123  0.3471
 5404SOL    HW127671   0.156   1.924   9.484  2.0706  0.0811  0.0688
 5404SOL    HW227672   0.233   1.863   9.371  1.4360 -0.2341  1.5687
 5405SOL     OW27673   4.314   1.772   4.715  0.4804 -0.3474  0.2994
 5405SOL    HW127674   4.383   1.716   4.679  1.0952  0.8950 -0.4974
 5405SOL    HW227675   4.365   1.794   4.794  0.5869 -0.3191  0.2235
 5406SOL     OW27676   3.296   2.080   4.951  0.0110 -0.1837  0.0726
 5406SOL    HW127677   3.328   2.058   4.864  0.7608  0.4217  0.1921
 5406SOL    HW227678   3.327   2.011   5.010 -1.0660 -0.6568  0.0872
 5407SOL     OW27679   4.493   1.119   0.950 -0.0267  0.1287  0.2110
 5407SOL    HW127680   4.533   1.157   0.872  1.7781 -1.3228  0.4301
 5407SOL    HW227681   4.492   1.190   1.015  0.2663  1.7694 -1.5648
 5408SOL     OW27682   2.620   4.412   8.458  0.5809  0.3131  0.6384
 5408SOL    HW127683   2.557   4.383   8.523 -0.8848 -0.6848 -1.2426
 5408SOL    HW227684   2.596   4.358   8.383  0.8629 -0.9526  1.4636
 5409SOL     OW27685   3.906   1.585   3.753 -0.2114  0.0649 -0.2255
 5409SOL    HW127686   3.869   1.502   3.725  1.4277 -0.1100 -1.8622
 5409SOL    HW227687   3.992   1.558   3.786 -0.7813 -0.6118  0.7261
 5410SOL     OW27688   1.053   1.817   7.924  0.3372  0.0399  0.5944
 5410SOL    HW127689   1.085   1.744   7.870 -0.2361  0.7552 -0.7021
 5410SOL    HW227690   1.054   1.774   8.010 -0.0777 -2.5873 -0.6939
 5411SOL     OW27691   4.266   4.521   4.587 -0.5394  0.2107  0.9263
 5411SOL    HW127692   4.215   4.574   4.647  0.0697 -0.2156  1.8217
 5411SOL    HW227693   4.266   4.440   4.638 -1.3252 -0.1952  0.2922
 5412SOL     OW27694   1.667   0.142   6.930 -0.3708  0.1584 -0.2855
 5412SOL    HW127695   1.597   0.194   6.969  0.2117 -0.4843  1.5877
 5412SOL    HW227696   1.642   0.052   6.948  0.8881 -0.0031  0.6743
 5413SOL     OW27697   2.664   0.682  17.562  0.0498  0.0299 -0.2354
 5413SOL    HW127698   2.716   0.761  17.574 -0.2147  0.3316 -1.0561
 5413SOL    HW227699   2.728   0.629  17.514  0.3536 -0.3833  0.6340
 5414SOL     OW27700   3.532   2.336  12.851  0.5814  0.0471 -0.3211
 5414SOL    HW127701   3.518   2.421  12.808  0.6104  0.1938 -0.0405
 5414SOL    HW227702   3.578   2.368  12.928 -0.7401 -0.4825  0.6864
 5415SOL     OW27703   2.467   4.567   6.004  0.1959 -0.3787  0.6792
 5415SOL    HW127704   2.441   4.615   6.083  0.2330 -0.3000  0.6433
 5415SOL    HW227705   2.421   4.633   5.951 -1.4059 -3.3668 -1.6516
 5416SOL     OW27706   2.994   3.989   5.946 -0.0576 -0.1545  0.6233
 5416SOL    HW127707   3.003   3.919   5.881 -0.8854 -1.0743  1.4961
 5416SOL    HW227708   2.909   4.024   5.919  0.0666 -1.3005 -1.2476
 5417SOL     OW27709   1.705   3.008  14.408  0.1032  0.4628 -0.0132
 5417SOL    HW127710   1.635   2.981  14.467  0.1885  1.4241  0.5314
 5417SOL    HW227711   1.662   3.027  14.324 -1.0636  1.1906  0.7460
 5418SOL     OW27712   2.608   3.744  14.493 -0.4638  0.2315 -0.1228
 5418SOL    HW127713   2.644   3.712  14.576  0.0417 -1.3826 -0.9677
 5418SOL    HW227714   2.529   3.690  14.489 -0.2180 -0.2370  1.4491
 5419SOL     OW27715   0.221   2.879  12.264 -0.1230  0.0900  0.1960
 5419SOL    HW127716   0.270   2.824  12.326 -0.2456  1.8567  1.8797
 5419SOL    HW227717   0.227   2.964  12.308  3.3860  0.2953 -0.6321
 5420SOL     OW27718   1.413   3.433  10.451 -0.4871  0.4902  0.1435
 5420SOL    HW127719   1.382   3.374  10.382 -1.6712  2.5096 -1.0381
 5420SOL    HW227720   1.332   3.435  10.502 -0.1605  1.4149  0.6312
 5421SOL     OW27721   4.179   3.654   4.412  0.2996  0.0535  0.3443
 5421SOL    HW127722   4.213   3.742   4.421 -1.3840  0.9230 -1.8570
 5421SOL    HW227723   4.160   3.644   4.319 -0.1736 -2.4136  0.6918
 5422SOL     OW27724   4.146   2.942   7.061 -0.0633  0.2701 -0.1732
 5422SOL    HW127725   4.172   3.010   6.999  1.2684  0.8210  1.0072
 5422SOL    HW227726   4.151   2.995   7.140  0.7674  1.8594 -1.3082
 5423SOL     OW27727   2.851   0.241   7.057  0.6203  0.0255 -0.0016
 5423SOL    HW127728   2.872   0.287   7.138  2.5709 -1.7190  0.4681
 5423SOL    HW227729   2.784   0.302   7.026  0.9802  0.7465  0.6289
 5424SOL     OW27730   2.412   0.839   6.532 -0.6159  0.3608 -0.5246
 5424SOL    HW127731   2.340   0.902   6.530 -0.5099  0.4715 -0.7906
 5424SOL    HW227732   2.478   0.881   6.477  1.1666 -4.3946 -2.0491
 5425SOL     OW27733   2.280   3.019   7.091 -0.5513  0.5012  0.0554
 5425SOL    HW127734   2.291   2.976   7.176  1.4333 -0.7891 -0.8503
 5425SOL    HW227735   2.232   2.955   7.040 -0.1638  1.3038 -1.3280
 5426SOL     OW27736   4.272   4.082  14.989  0.1039 -0.3172 -0.4356
 5426SOL    HW127737   4.274   4.177  14.981  2.1850 -0.3941 -1.0192
 5426SOL    HW227738   4.258   4.067  14.896  2.8305  0.8942 -1.0453
 5427SOL     OW27739   2.668   2.909   7.101 -0.3522 -0.2466  0.2870
 5427SOL    HW127740   2.657   2.999   7.072 -0.5616 -1.0541 -2.1616
 5427SOL    HW227741   2.698   2.916   7.192 -0.3417  1.3929  0.1594
 5428SOL     OW27742   3.159   2.719  12.396 -0.2119  0.0314  0.0978
 5428SOL    HW127743   3.194   2.699  12.309  0.5824 -1.1879  0.6883
 5428SOL    HW227744   3.204   2.642  12.431 -0.5493 -0.9686 -1.6484
 5429SOL     OW27745   2.279   0.686  11.466  0.0892  0.2163  0.3144
 5429SOL    HW127746   2.275   0.590  11.473  0.0441  0.2353  0.5347
 5429SOL    HW227747   2.328   0.707  11.546  0.9370 -0.0246 -0.1418
 5430SOL     OW27748   1.053   2.980   2.981  0.3066 -0.1095  0.3261
 5430SOL    HW127749   0.961   3.006   2.977  0.7318  1.8387  2.8811
 5430SOL    HW227750   1.057   2.899   2.931 -0.9010  0.7441 -1.1710
 5431SOL     OW27751   0.933   0.038   7.603  0.0034 -0.2660 -0.2171
 5431SOL    HW127752   0.903   0.099   7.536  2.1033 -1.6495 -2.4084
 5431SOL    HW227753   0.977   0.103   7.657 -1.4303  0.8302 -0.3580
 5432SOL     OW27754   3.103   1.666   4.186 -0.2400 -0.5923 -1.1211
 5432SOL    HW127755   3.150   1.631   4.262  1.2263  2.3988 -0.6425
 5432SOL    HW227756   3.033   1.601   4.179 -0.5066 -0.6610  1.9946
 5433SOL     OW27757   0.734   0.773  16.435 -0.1925 -0.7440 -0.4520
 5433SOL    HW127758   0.812   0.793  16.383 -0.7728  0.8516 -0.7109
 5433SOL    HW227759   0.685   0.723  16.370 -0.8513 -0.3970 -0.2239
 5434SOL     OW27760   0.860   0.329   5.354  0.2255  0.7683 -0.3231
 5434SOL    HW127761   0.807   0.408   5.364  0.2100  0.5306  1.3383
 5434SOL    HW227762   0.792   0.264   5.334  2.2668 -0.8290 -2.0944
 5435SOL     OW27763   0.510   0.600   9.115 -0.0548 -0.5379  0.2957
 5435SOL    HW127764   0.482   0.590   9.206 -1.0808 -1.2526 -0.0956
 5435SOL    HW227765   0.432   0.635   9.072  0.9163  0.4691 -0.6741
 5436SOL     OW27766   1.152   2.575   5.145 -0.0039  0.2415  0.4505
 5436SOL    HW127767   1.196   2.526   5.214  2.5812 -0.8893 -1.9915
 5436SOL    HW227768   1.226   2.594   5.086 -0.4680 -1.2759 -0.6070
 5437SOL     OW27769   1.474   3.802  15.981 -0.1095 -0.1973  0.1013
 5437SOL    HW127770   1.506   3.869  15.920  0.1459 -0.2052  0.2256
 5437SOL    HW227771   1.462   3.852  16.062 -0.8601  0.0078 -0.1347
 5438SOL     OW27772   3.146   0.311   5.743 -0.2000  0.5630 -0.6911
 5438SOL    HW127773   3.165   0.307   5.837 -0.9861 -0.9061 -0.5920
 5438SOL    HW227774   3.232   0.288   5.708  0.4069 -1.0011  1.8055
 5439SOL     OW27775   0.414   0.457  16.990 -0.0388 -0.4118  0.5745
 5439SOL    HW127776   0.399   0.494  17.077  2.3768  2.4587 -0.2033
 5439SOL    HW227777   0.323   0.433  16.973  0.2174 -0.1949 -1.1344
 5440SOL     OW27778   2.292   1.267   3.704  0.0018 -0.0206  0.2363
 5440SOL    HW127779   2.305   1.252   3.611 -1.3234  3.3298 -0.4794
 5440SOL    HW227780   2.335   1.352   3.714  0.4282 -0.4208  1.7970
 5441SOL     OW27781   0.049   1.805   8.099 -0.4637  0.3346  0.2206
 5441SOL    HW127782   4.709   1.828   8.029  0.1034  1.9054  0.2511
 5441SOL    HW227783   0.103   1.883   8.102  0.3011 -0.2495  1.6568
 5442SOL     OW27784   0.412   2.136   7.149 -0.4506  0.3022 -0.2665
 5442SOL    HW127785   0.483   2.086   7.190 -0.8235 -0.7569 -0.9207
 5442SOL    HW227786   0.429   2.107   7.059 -2.6143  2.5627 -1.4145
 5443SOL     OW27787   3.257   0.344  11.571 -0.4843  0.0903 -0.4106
 5443SOL    HW127788   3.265   0.270  11.511 -2.4894  1.0412 -1.8599
 5443SOL    HW227789   3.172   0.384  11.551 -0.4275  0.3400 -0.1515
 5444SOL     OW27790   3.419   2.934   9.266 -0.1638  0.4887  0.3052
 5444SOL    HW127791   3.328   2.962   9.249 -0.8424 -1.3942  0.8434
 5444SOL    HW227792   3.450   2.981   9.343 -1.1133  0.3114  0.7974
 5445SOL     OW27793   3.456   3.961   8.576  0.0787 -0.2391 -0.3461
 5445SOL    HW127794   3.545   3.927   8.564  0.1223 -0.9060  1.9606
 5445SOL    HW227795   3.430   3.914   8.655  0.4346  0.8196  0.4037
 5446SOL     OW27796   0.211   1.150   2.709 -0.0796  0.3179 -0.0231
 5446SOL    HW127797   0.236   1.061   2.737  1.7555  0.3264 -1.6235
 5446SOL    HW227798   0.265   1.196   2.773 -0.6966  0.5339  0.3378
 5447SOL     OW27799   2.182   2.518  15.961 -0.5285 -0.2761  0.1622
 5447SOL    HW127800   2.147   2.462  15.892  1.1393  0.1707 -1.0395
 5447SOL    HW227801   2.273   2.494  15.976 -1.7732 -3.8091  1.8356
 5448SOL     OW27802   1.946   1.540   3.371 -0.0529 -0.4799 -0.1060
 5448SOL    HW127803   2.019   1.576   3.422 -1.2696  0.2671  1.1115
 5448SOL    HW227804   1.902   1.619   3.339  1.1801  0.4967  0.6401
 5449SOL     OW27805   3.909   2.914   7.578 -0.2012  0.1117 -0.6090
 5449SOL    HW127806   3.834   2.856   7.587  1.2325 -1.4727  1.2125
 5449SOL    HW227807   3.877   2.999   7.607  0.2540 -0.0226  0.2974
 5450SOL     OW27808   1.489   3.769   2.895 -0.5606  0.0520  0.0051
 5450SOL    HW127809   1.519   3.789   2.806  1.6819 -3.5091 -0.0637
 5450SOL    HW227810   1.447   3.853   2.910 -3.1275 -1.0467 -1.0187
 5451SOL     OW27811   4.549   4.695   3.478  0.7708  0.1791  0.4187
 5451SOL    HW127812   4.564   4.674   3.570  1.0854 -0.3148  0.2536
 5451SOL    HW227813   4.614   4.641   3.434 -1.5008 -3.0141  0.9941
 5452SOL     OW27814   2.092   0.243   0.141 -0.3707 -0.4424  0.4432
 5452SOL    HW127815   2.028   0.191   0.189 -1.2186  1.5107  1.4420
 5452SOL    HW227816   2.052   0.257   0.056  1.2229  0.7174 -0.1262
 5453SOL     OW27817   0.098   4.033  14.274  0.0961  0.2881 -0.0257
 5453SOL    HW127818   0.166   4.096  14.251  1.3243 -0.4509  1.5267
 5453SOL    HW227819   0.034   4.093  14.312  1.6365  1.5030  0.6706
 5454SOL     OW27820   0.300   0.975   7.942  0.1723 -0.5479 -0.9905
 5454SOL    HW127821   0.248   0.935   8.013 -0.0156  0.2140 -0.6956
 5454SOL    HW227822   0.369   0.914   7.917 -1.2152 -2.0770 -1.1434
 5455SOL     OW27823   2.483   2.784  12.881 -0.0252 -0.0130 -0.3773
 5455SOL    HW127824   2.576   2.771  12.862 -0.1738 -0.6518 -0.6560
 5455SOL    HW227825   2.434   2.747  12.809  1.6262 -1.6258 -0.6824
 5456SOL     OW27826   3.335   3.094  16.900 -0.2316  0.0541  0.0381
 5456SOL    HW127827   3.380   3.070  16.981 -1.6625 -2.6658  0.0456
 5456SOL    HW227828   3.367   3.021  16.846  0.4636  0.3437  0.0685
 5457SOL     OW27829   3.849   3.881  17.069 -0.0349 -0.1929  0.7211
 5457SOL    HW127830   3.874   3.891  17.161  1.2416 -0.6343  0.4132
 5457SOL    HW227831   3.755   3.872  17.082 -0.2951 -0.4007 -1.3837
 5458SOL     OW27832   0.362   3.359   8.144 -0.1379 -0.2269 -0.1697
 5458SOL    HW127833   0.301   3.422   8.105  0.1545 -0.2933 -0.7272
 5458SOL    HW227834   0.395   3.415   8.214 -0.4518  0.8520 -0.8910
 5459SOL     OW27835   2.880   0.582   8.368  0.3824  0.4900  0.2800
 5459SOL    HW127836   2.821   0.567   8.295  0.4160  3.1968 -0.3149
 5459SOL    HW227837   2.966   0.600   8.329 -0.0670 -0.0886 -0.9760
 5460SOL     OW27838   4.165   1.340   2.968 -0.2983  0.3180  0.1819
 5460SOL    HW127839   4.078   1.378   2.954 -0.7149 -0.4390  0.7215
 5460SOL    HW227840   4.184   1.294   2.886 -1.1343 -0.0463  0.1910
 5461SOL     OW27841   4.394   0.960   5.192  0.5164  0.3353  0.5541
 5461SOL    HW127842   4.338   0.956   5.269  1.9445 -0.5209  1.5460
 5461SOL    HW227843   4.338   1.019   5.142  0.1575  1.2598  2.0561
 5462SOL     OW27844   1.769   3.140   6.640 -0.0689 -0.1833 -0.9321
 5462SOL    HW127845   1.803   3.187   6.717 -3.0473 -1.7373  1.3409
 5462SOL    HW227846   1.844   3.090   6.609  0.1619  0.1707 -0.9550
 5463SOL     OW27847   0.261   2.339  13.207  0.0966 -0.3650 -0.7566
 5463SOL    HW127848   0.224   2.317  13.122  1.0633  2.1285 -1.8521
 5463SOL    HW227849   0.254   2.271  13.274 -1.8276 -0.0386 -0.6477
 5464SOL     OW27850   3.117   3.411  16.053 -0.5043  0.0522  0.0121
 5464SOL    HW127851   3.170   3.406  16.133  1.5122  4.2414 -1.0830
 5464SOL    HW227852   3.119   3.318  16.030 -2.0450 -0.2741  1.2324
 5465SOL     OW27853   2.295   2.679   8.187  0.0236  0.2716  0.2055
 5465SOL    HW127854   2.379   2.716   8.162 -0.0051 -0.1723 -0.5317
 5465SOL    HW227855   2.328   2.593   8.214  0.5912  0.6386  0.6640
 5466SOL     OW27856   4.270   3.034  11.667  0.7638 -0.5280 -0.2168
 5466SOL    HW127857   4.254   3.005  11.577 -0.8275 -0.3624  0.0055
 5466SOL    HW227858   4.365   3.031  11.662  0.9217  4.5342 -0.3704
 5467SOL     OW27859   2.578   3.927   3.885  0.0657  0.3837  0.6328
 5467SOL    HW127860   2.658   3.876   3.896  0.0246  0.3766  0.9103
 5467SOL    HW227861   2.527   3.912   3.965 -1.9233  2.6246 -0.2279
 5468SOL     OW27862   1.607   4.586   4.347 -0.4278 -0.1502  0.5204
 5468SOL    HW127863   1.640   4.653   4.288 -0.3968  0.2171  0.9547
 5468SOL    HW227864   1.622   4.503   4.301 -0.0744 -0.6083  1.4530
 5469SOL     OW27865   0.108   4.637  10.089 -0.6639 -0.2721 -0.1053
 5469SOL    HW127866   0.046   4.565  10.077 -0.6729 -0.5029  1.3562
 5469SOL    HW227867   0.192   4.591  10.097  0.5549  1.7546 -1.2431
 5470SOL     OW27868   2.470   4.026  12.200 -0.4979  0.3155  0.0212
 5470SOL    HW127869   2.492   3.951  12.255  0.5304  0.8155  0.2797
 5470SOL    HW227870   2.376   4.006  12.195 -0.1613 -0.9001 -1.4740
 5471SOL     OW27871   4.229   1.661   5.891 -0.7709 -0.2683  0.0157
 5471SOL    HW127872   4.302   1.629   5.945  0.3048 -0.8426 -1.7880
 5471SOL    HW227873   4.263   1.665   5.802  0.6872 -0.2857  0.5668
 5472SOL     OW27874   2.420   1.223   4.145  0.3256 -0.4360 -0.3103
 5472SOL    HW127875   2.368   1.214   4.065 -0.0821 -0.3491 -0.0568
 5472SOL    HW227876   2.414   1.319   4.151  0.5426 -0.4686  0.3306
 5473SOL     OW27877   1.436   2.624  16.398 -0.0684  0.0879  0.4075
 5473SOL    HW127878   1.350   2.588  16.373 -0.0287 -1.2758  2.2967
 5473SOL    HW227879   1.437   2.714  16.364  0.1465  0.2080  0.7332
 5474SOL     OW27880   2.922   0.436   2.729  0.2014  0.5122 -0.0169
 5474SOL    HW127881   2.883   0.451   2.815  3.1136  0.2143  1.3862
 5474SOL    HW227882   2.863   0.376   2.683  0.9039 -0.2115  0.0174
 5475SOL     OW27883   1.178   4.656   3.256  0.8220  0.4457  0.4406
 5475SOL    HW127884   1.117   4.652   3.182  2.7417  2.4896 -1.2701
 5475SOL    HW227885   1.261   4.646   3.209  1.3916  0.8042  1.3740
 5476SOL     OW27886   4.078   2.792  16.839  0.6606 -0.8045 -0.2098
 5476SOL    HW127887   4.077   2.823  16.929 -0.5306  2.6334 -1.4293
 5476SOL    HW227888   3.997   2.741  16.834 -0.5753  1.0928  0.6900
 5477SOL     OW27889   3.860   4.450   8.073  0.2516 -0.0411  0.1350
 5477SOL    HW127890   3.771   4.483   8.089 -0.5859 -2.5695  0.7679
 5477SOL    HW227891   3.902   4.473   8.156 -3.5420  2.7837  1.2716
 5478SOL     OW27892   2.212   1.372   4.684 -0.2148  0.1310  0.3253
 5478SOL    HW127893   2.137   1.341   4.633 -0.9415  3.1800 -0.4655
 5478SOL    HW227894   2.176   1.380   4.772 -0.7814 -0.6168  0.1642
 5479SOL     OW27895   4.230   3.059   8.358 -0.2775 -0.4692  0.5916
 5479SOL    HW127896   4.306   3.106   8.393  0.4755 -1.3684  0.1893
 5479SOL    HW227897   4.205   3.106   8.278  0.1012 -0.5476  0.4244
 5480SOL     OW27898   1.213   3.031   5.118  0.1319  0.7937  0.1951
 5480SOL    HW127899   1.127   3.073   5.115  0.0383  0.4597 -1.9819
 5480SOL    HW227900   1.196   2.957   5.175  0.7262 -0.7482 -1.6197
 5481SOL     OW27901   1.507   4.298   0.242  0.1076 -0.2517 -0.0494
 5481SOL    HW127902   1.524   4.227   0.304 -1.0997 -0.1965  0.3339
 5481SOL    HW227903   1.421   4.286   0.203  0.6703 -0.9876 -1.1032
 5482SOL     OW27904   3.628   1.605   5.826 -0.1742  0.2957 -0.0936
 5482SOL    HW127905   3.601   1.624   5.916 -1.2499 -0.0182 -0.3553
 5482SOL    HW227906   3.724   1.605   5.831 -0.1108 -1.8982 -1.2664
 5483SOL     OW27907   4.636   1.372   0.119  0.6580 -0.3084  0.3284
 5483SOL    HW127908   4.628   1.292   0.068 -0.0319  0.8411 -1.3624
 5483SOL    HW227909   4.654   1.433   0.048 -2.0490 -0.4740 -0.4830
 5484SOL     OW27910   2.828   2.992  15.007 -0.2688 -0.4926 -0.1915
 5484SOL    HW127911   2.880   2.913  14.999  0.9566  0.3618 -0.6904
 5484SOL    HW227912   2.740   2.959  15.025  0.2803 -2.4031 -1.0731
 5485SOL     OW27913   3.441   4.523   1.390 -0.0100  0.5138 -0.3637
 5485SOL    HW127914   3.490   4.554   1.466  1.4038 -1.3472 -0.5235
 5485SOL    HW227915   3.390   4.450   1.423  0.9873 -0.0960 -0.1806
 5486SOL     OW27916   1.796   2.934  13.391 -0.1129 -0.1532  0.2926
 5486SOL    HW127917   1.706   2.922  13.361 -0.1063 -3.1871  1.5071
 5486SOL    HW227918   1.814   2.854  13.441 -0.5765  0.5885  1.6351
 5487SOL     OW27919   1.063   0.452   2.020  0.1145  0.2832  0.3223
 5487SOL    HW127920   1.119   0.443   2.097  0.9061 -1.8423 -0.4998
 5487SOL    HW227921   0.990   0.409   2.064 -0.5556  1.3448  0.2466
 5488SOL     OW27922   2.341   2.984   8.548 -0.1806 -0.5319  0.4518
 5488SOL    HW127923   2.276   2.914   8.557 -1.9474  1.3243  1.8974
 5488SOL    HW227924   2.401   2.950   8.614 -1.2358 -0.5376  1.4110
 5489SOL     OW27925   2.629   1.718   8.362 -0.2172  0.3766  0.1495
 5489SOL    HW127926   2.641   1.684   8.450  1.5786  0.8021  0.0715
 5489SOL    HW227927   2.697   1.785   8.355 -0.3816  0.6693  1.3073
 5490SOL     OW27928   3.798   0.017   1.948 -0.8658  0.2384 -0.0152
 5490SOL    HW127929   3.772   0.109   1.953 -0.4718  0.2547  1.7422
 5490SOL    HW227930   3.725   4.684   1.916 -0.1272 -0.9344  0.2883
 5491SOL     OW27931   3.154   4.039   4.570  0.1182  0.0225  0.3059
 5491SOL    HW127932   3.220   4.101   4.601  0.6615 -0.0120 -0.7748
 5491SOL    HW227933   3.133   3.993   4.651 -1.8445 -1.1067 -0.8516
 5492SOL     OW27934   0.104   2.662   3.622  0.0386  0.8197 -0.6890
 5492SOL    HW127935   0.140   2.671   3.710 -0.7521 -2.5439 -0.0006
 5492SOL    HW227936   0.074   2.571   3.632  0.4430  0.8501  0.8237
 5493SOL     OW27937   2.866   3.695   9.086 -0.6595  0.3699 -0.0656
 5493SOL    HW127938   2.949   3.650   9.101 -1.5031 -0.3608  2.3373
 5493SOL    HW227939   2.808   3.622   9.062 -1.3186 -0.0704  2.9058
 5494SOL     OW27940   1.102   1.457   9.330 -0.1536 -0.2963  0.3859
 5494SOL    HW127941   1.044   1.381   9.341 -0.5581 -0.1759 -0.9746
 5494SOL    HW227942   1.045   1.518   9.284 -0.0478  0.0328  0.6887
 5495SOL     OW27943   0.641   3.485   7.410  0.1909  0.1517 -0.7771
 5495SOL    HW127944   0.630   3.415   7.474  1.4710  0.6684  0.0181
 5495SOL    HW227945   0.719   3.460   7.361  1.7795  1.1708  1.1806
 5496SOL     OW27946   3.846   4.220   2.921 -0.0464  0.1492  0.4925
 5496SOL    HW127947   3.817   4.248   3.008 -0.5334 -2.4578  1.1813
 5496SOL    HW227948   3.933   4.260   2.921 -0.4174  0.9400 -0.2133
 5497SOL     OW27949   1.286   4.525  15.796 -0.5936 -0.1028 -0.5882
 5497SOL    HW127950   1.308   4.514  15.704  2.2203 -2.4429  0.3807
 5497SOL    HW227951   1.196   4.557  15.791  0.0922  1.7638 -1.1258
 5498SOL     OW27952   0.545   3.048   1.107 -0.6120  0.7670 -0.3263
 5498SOL    HW127953   0.477   3.099   1.152 -1.3339 -1.9057  1.6054
 5498SOL    HW227954   0.511   3.050   1.018 -1.2909  1.7051 -0.0484
 5499SOL     OW27955   2.024   0.791   3.317  0.3946  0.2766 -0.3487
 5499SOL    HW127956   2.050   0.879   3.344  1.2914 -0.2650  0.5624
 5499SOL    HW227957   2.000   0.746   3.398  1.0971  0.6541  0.0743
 5500SOL     OW27958   2.812   0.690   5.895  0.0173  0.2803  0.0131
 5500SOL    HW127959   2.876   0.728   5.954  0.5656 -0.3957 -0.1460
 5500SOL    HW227960   2.840   0.599   5.907 -1.6558 -0.1177  0.8799
 5501SOL     OW27961   2.942   1.776   1.879 -0.1840  0.5219 -0.2317
 5501SOL    HW127962   2.857   1.781   1.923 -1.1456  1.1030 -2.1720
 5501SOL    HW227963   2.929   1.828   1.800 -1.6095  2.0442  1.0109
 5502SOL     OW27964   0.283   4.246   2.865  0.5119 -0.2676  0.2089
 5502SOL    HW127965   0.197   4.211   2.889 -0.7482  4.4647  2.5177
 5502SOL    HW227966   0.313   4.191   2.793 -0.7912  0.1620 -0.6574
 5503SOL     OW27967   0.309   3.862   8.562 -0.2021 -0.1572 -0.0893
 5503SOL    HW127968   0.262   3.855   8.645  2.3647 -1.7943  1.2216
 5503SOL    HW227969   0.360   3.783   8.574 -0.9384 -0.3556  1.6275
 5504SOL     OW27970   4.174   1.887   1.871  0.0144 -0.5818  0.0383
 5504SOL    HW127971   4.093   1.937   1.860 -0.2273 -0.9547  0.1404
 5504SOL    HW227972   4.207   1.890   1.781 -1.6121  3.0461 -0.4391
 5505SOL     OW27973   3.444   2.607   2.571  0.0202 -0.2163  0.1064
 5505SOL    HW127974   3.365   2.649   2.604  0.2302  0.1565  0.1356
 5505SOL    HW227975   3.448   2.659   2.490  1.5131 -0.9075 -0.2668
 5506SOL     OW27976   0.366   2.081   3.481 -0.1610 -0.0219 -0.3925
 5506SOL    HW127977   0.403   2.018   3.419 -2.7526  0.5844 -2.5772
 5506SOL    HW227978   0.271   2.076   3.472  0.0369 -1.3270 -1.8331
 5507SOL     OW27979   3.312   3.464  11.801  0.6729  0.6847  0.3833
 5507SOL    HW127980   3.298   3.513  11.721  0.9170 -0.2553 -0.2373
 5507SOL    HW227981   3.224   3.425  11.798  1.6282 -1.2622 -2.4473
 5508SOL     OW27982   0.339   4.013   4.758  0.0249 -0.6042  0.3001
 5508SOL    HW127983   0.423   4.048   4.787 -0.8896  0.2305  1.9521
 5508SOL    HW227984   0.370   3.954   4.689  1.5853 -0.3425  0.7652
 5509SOL     OW27985   0.924   1.539  13.220  0.1152 -0.0452  0.0508
 5509SOL    HW127986   0.959   1.462  13.175  2.4360  1.0372  0.0408
 5509SOL    HW227987   1.008   1.576  13.245  0.5027  0.0195 -1.3510
 5510SOL     OW27988   0.905   0.545   6.626  0.7895  0.2446 -0.1666
 5510SOL    HW127989   0.981   0.502   6.665  0.0877  0.0080  0.9419
 5510SOL    HW227990   0.874   0.471   6.573  0.8822 -1.2167  1.8284
 5511SOL     OW27991   3.731   0.186   7.611 -0.7445  0.8570 -0.7195
 5511SOL    HW127992   3.715   0.276   7.583 -0.1033  1.2013  0.0253
 5511SOL    HW227993   3.819   0.169   7.577 -1.2052  0.1259 -1.5550
 5512SOL     OW27994   0.501   0.530  14.886  0.0298 -0.0687 -0.1365
 5512SOL    HW127995   0.533   0.447  14.922 -0.8761  0.2768  1.4630
 5512SOL    HW227996   0.577   0.586  14.901 -0.7038  0.6127  1.0401
 5513SOL     OW27997   3.277   1.274  11.145 -0.4111 -0.1381 -0.2904
 5513SOL    HW127998   3.214   1.306  11.080  1.2225  1.9832 -0.8132
 5513SOL    HW227999   3.353   1.326  11.118 -1.0830  0.9549 -0.0829
 5514SOL     OW28000   3.581   4.027   8.060 -0.3152  0.7927 -0.2571
 5514SOL    HW128001   3.661   4.080   8.059  0.8792 -1.0351 -2.0362
 5514SOL    HW228002   3.507   4.086   8.070 -1.0247 -0.6225  2.7913
 5515SOL     OW28003   0.162   2.588  12.844  0.6986 -0.0935  0.4512
 5515SOL    HW128004   0.101   2.643  12.794  1.4456 -0.4474 -0.8334
 5515SOL    HW228005   0.174   2.642  12.923 -2.0587  0.1513  0.6942
 5516SOL     OW28006   0.997   1.778   6.119 -0.5794  0.2084  0.8441
 5516SOL    HW128007   1.050   1.725   6.060  1.0370 -0.2510  2.6894
 5516SOL    HW228008   1.032   1.727   6.193  1.3821  0.5072  0.1291
 5517SOL     OW28009   3.714   2.307   4.825  0.4367 -0.2058  0.3843
 5517SOL    HW128010   3.684   2.222   4.858 -1.8269  1.5150  2.7989
 5517SOL    HW228011   3.761   2.288   4.744  3.0126 -0.2545  1.8887
 5518SOL     OW28012   0.402   3.780  15.469  0.3011 -0.1134  0.3077
 5518SOL    HW128013   0.314   3.817  15.467  0.2801 -0.2454 -1.0833
 5518SOL    HW228014   0.446   3.830  15.400 -0.7523  2.2516  1.3416
 5519SOL     OW28015   2.419   0.778   2.241  0.1073  0.1077 -0.2252
 5519SOL    HW128016   2.457   0.861   2.210  2.7399 -0.1927  2.2509
 5519SOL    HW228017   2.353   0.771   2.172 -0.4082 -1.1827  0.4022
 5520SOL     OW28018   1.343   4.695   1.889 -0.5545  0.2777 -0.0871
 5520SOL    HW128019   1.278   0.039   1.861 -1.4498  0.2769  1.9851
 5520SOL    HW228020   1.428   0.016   1.880 -0.1906 -0.1677  1.2449
 5521SOL     OW28021   3.595   1.340   6.254 -0.3931  0.3444 -0.0386
 5521SOL    HW128022   3.627   1.285   6.184  0.6082 -1.5914  1.9348
 5521SOL    HW228023   3.672   1.326   6.310 -1.2063 -0.1344  0.9799
 5522SOL     OW28024   1.874   1.659  11.832  0.3179  0.3687  0.2337
 5522SOL    HW128025   1.791   1.634  11.791  0.2832  2.9231 -1.2547
 5522SOL    HW228026   1.891   1.741  11.785 -2.0008  0.8477  0.2413
 5523SOL     OW28027   2.727   0.589   5.585  0.5002  0.3397 -0.4084
 5523SOL    HW128028   2.691   0.632   5.663  0.8865 -2.4136  1.2638
 5523SOL    HW228029   2.788   0.533   5.633 -0.8931 -1.2462 -0.4698
 5524SOL     OW28030   4.014   3.518   2.425 -0.3294  0.7508 -0.1160
 5524SOL    HW128031   4.054   3.540   2.341 -2.0448  1.3784 -0.7851
 5524SOL    HW228032   3.939   3.474   2.385 -0.1625 -1.0122  1.5479
 5525SOL     OW28033   4.265   4.021  12.344  0.4014  0.0472  0.4523
 5525SOL    HW128034   4.344   4.001  12.295  0.6002 -1.2538  1.3039
 5525SOL    HW228035   4.198   3.986  12.286  1.3340  0.2246 -0.7300
 5526SOL     OW28036   3.138   1.188   3.840  0.3166  0.3913  0.2141
 5526SOL    HW128037   3.153   1.139   3.759  0.2747  0.5745  0.0937
 5526SOL    HW228038   3.197   1.143   3.900 -0.8438  3.2257  3.4840
 5527SOL     OW28039   2.198   3.487  12.621 -0.4007  0.0510  0.7206
 5527SOL    HW128040   2.229   3.399  12.642  2.9433  0.3789 -2.6481
 5527SOL    HW228041   2.161   3.510  12.706 -1.7795  1.6820 -0.3137
 5528SOL     OW28042   2.152   3.469   1.954 -0.0371  0.0473  0.2012
 5528SOL    HW128043   2.140   3.563   1.965 -1.6034 -0.0475 -0.5910
 5528SOL    HW228044   2.165   3.445   2.045  2.5363  0.0532 -0.1537
 5529SOL     OW28045   2.055   0.481  12.417 -0.3380  0.0433  0.4614
 5529SOL    HW128046   2.063   0.575  12.405 -0.8797 -0.1199 -1.0919
 5529SOL    HW228047   1.992   0.490  12.489  2.0464 -0.7823  2.6761
 5530SOL     OW28048   4.440   2.524  11.348  0.2115  0.3937  0.1647
 5530SOL    HW128049   4.364   2.466  11.348 -0.6101  1.4751 -1.2522
 5530SOL    HW228050   4.443   2.543  11.255  1.7831 -2.6687 -0.4104
 5531SOL     OW28051   2.041   1.496   5.599 -0.3112  0.1000 -0.2172
 5531SOL    HW128052   1.973   1.539   5.547 -0.0788 -0.3277 -0.8798
 5531SOL    HW228053   2.105   1.567   5.601 -1.2558  0.8226  3.5113
 5532SOL     OW28054   1.652   1.902  15.512 -0.3897  0.1377  0.1009
 5532SOL    HW128055   1.679   1.835  15.449 -1.6666  0.4870 -0.8220
 5532SOL    HW228056   1.558   1.882  15.518 -0.4304  0.7467  1.4493
 5533SOL     OW28057   2.125   2.043   7.351 -0.4555 -0.0836  0.1985
 5533SOL    HW128058   2.139   2.126   7.306  2.6876 -0.9517 -0.4090
 5533SOL    HW228059   2.187   1.988   7.304  0.6036  0.5722  0.8172
 5534SOL     OW28060   1.572   2.454   4.196 -0.9811 -0.4641  0.3821
 5534SOL    HW128061   1.527   2.532   4.162 -1.2017 -0.8089 -0.1250
 5534SOL    HW228062   1.647   2.492   4.242  0.2757  0.4685 -2.4001
 5535SOL     OW28063   2.619   2.742   3.257  0.0692  0.5342 -0.2193
 5535SOL    HW128064   2.626   2.689   3.177 -1.3179 -1.6926  1.1300
 5535SOL    HW228065   2.528   2.731   3.286  0.3191  0.2063  0.4375
 5536SOL     OW28066   3.098   1.296   8.412  0.2475 -0.1619  0.0327
 5536SOL    HW128067   3.162   1.237   8.451  0.4511  1.1378  1.7195
 5536SOL    HW228068   3.017   1.268   8.456 -0.1223  1.3156  0.3172
 5537SOL     OW28069   4.164   2.619   8.580 -0.8316  0.3286  0.0314
 5537SOL    HW128070   4.110   2.665   8.645 -1.8134  1.6572 -1.7099
 5537SOL    HW228071   4.114   2.632   8.499  0.4908 -1.1806 -1.0220
 5538SOL     OW28072   4.203   3.858   4.142  0.3944  0.1917 -0.1987
 5538SOL    HW128073   4.115   3.895   4.142 -0.1346 -1.0213  1.7715
 5538SOL    HW228074   4.262   3.930   4.164 -1.3159  1.5839 -0.1435
 5539SOL     OW28075   0.541   3.102   3.777 -0.1665  0.2390 -0.1002
 5539SOL    HW128076   0.470   3.159   3.807 -0.2815  0.7850 -1.4415
 5539SOL    HW228077   0.499   3.039   3.718 -0.3715  0.6064 -0.3476
 5540SOL     OW28078   2.079   3.476   2.968 -0.1762 -0.2787  0.2207
 5540SOL    HW128079   2.101   3.467   3.061  0.4940  0.4316  0.1248
 5540SOL    HW228080   1.993   3.433   2.962  0.3315 -1.1020 -1.2450
 5541SOL     OW28081   3.818   1.418   2.513  0.3907  0.2703 -0.5103
 5541SOL    HW128082   3.806   1.410   2.608  1.4684 -1.0064 -0.4854
 5541SOL    HW228083   3.732   1.432   2.474 -1.1608 -0.2867  2.6961
 5542SOL     OW28084   2.741   2.003  11.868  0.0197 -0.5906 -0.4197
 5542SOL    HW128085   2.681   1.938  11.830 -2.8087  2.3693 -1.0546
 5542SOL    HW228086   2.813   1.943  11.886 -1.2343 -2.0542 -0.2405
 5543SOL     OW28087   1.603   3.396  10.774 -0.2291  0.2675  0.1547
 5543SOL    HW128088   1.588   3.474  10.827  0.0189  1.0655 -0.9360
 5543SOL    HW228089   1.634   3.332  10.838  0.3681 -0.5060 -0.8962
 5544SOL     OW28090   1.286   0.362   1.909  0.3176 -0.1529 -0.0989
 5544SOL    HW128091   1.248   0.288   1.863 -1.5818  1.2892 -0.8686
 5544SOL    HW228092   1.207   0.411   1.931 -0.7526 -1.2412 -1.5744
 5545SOL     OW28093   4.569   4.067   6.114 -0.2541  0.2262 -0.7229
 5545SOL    HW128094   4.597   3.975   6.114  0.1333  0.3490 -1.0012
 5545SOL    HW228095   4.590   4.098   6.202 -1.1036  1.3456 -0.9187
 5546SOL     OW28096   1.965   0.404   8.416  0.2168 -0.1789 -0.5901
 5546SOL    HW128097   1.969   0.347   8.340 -1.2705 -1.3879  0.2360
 5546SOL    HW228098   2.052   0.444   8.410  0.5060 -0.6107  0.7696
 5547SOL     OW28099   0.611   1.835   7.818  0.2899  0.0903  0.3112
 5547SOL    HW128100   0.591   1.789   7.900 -1.3036  0.6224  0.1999
 5547SOL    HW228101   0.639   1.925   7.833  1.1340 -0.2605  0.8881
 5548SOL     OW28102   2.901   3.064   8.032 -0.3752 -0.2545 -0.1481
 5548SOL    HW128103   2.817   3.019   8.043 -0.0227 -1.2131 -1.3649
 5548SOL    HW228104   2.875   3.127   7.965 -0.3417 -0.0813  0.0029
 5549SOL     OW28105   1.801   3.113   8.124 -0.0102  0.0452 -0.5691
 5549SOL    HW128106   1.845   3.079   8.047 -1.3728  1.8568 -2.1546
 5549SOL    HW228107   1.869   3.089   8.187 -0.7199  0.2322  0.2771
 5550SOL     OW28108   4.293   1.714  15.536 -0.3281 -0.7905 -0.1254
 5550SOL    HW128109   4.384   1.707  15.506 -0.3550 -0.2979 -0.3158
 5550SOL    HW228110   4.263   1.623  15.540 -1.8850 -0.3238 -1.2477
 5551SOL     OW28111   3.847   4.660  14.619 -0.5505  0.8220 -0.0240
 5551SOL    HW128112   3.882   4.669  14.530  4.0292  1.1410  1.8007
 5551SOL    HW228113   3.755   4.672  14.596 -0.3870 -1.6275 -1.9497
 5552SOL     OW28114   4.049   3.226   5.271  0.0431  0.2013  0.2682
 5552SOL    HW128115   4.115   3.163   5.242  0.8259  0.3305  1.7627
 5552SOL    HW228116   4.099   3.290   5.322 -1.8740  0.7295  1.4918
 5553SOL     OW28117   2.342   4.530  12.731  0.5454 -0.3098 -0.1909
 5553SOL    HW128118   2.288   4.521  12.809  1.3901 -0.6456  0.3598
 5553SOL    HW228119   2.424   4.550  12.776  0.8046 -1.3170 -0.2101
 5554SOL     OW28120   1.939   3.563   4.546  0.5738 -0.8302 -0.4071
 5554SOL    HW128121   1.856   3.535   4.586 -0.0330  1.8634  0.2033
 5554SOL    HW228122   1.953   3.644   4.593 -0.1948 -0.7160 -0.3759
 5555SOL     OW28123   2.726   1.588   6.255  0.3087  0.0198  0.0001
 5555SOL    HW128124   2.772   1.515   6.214  0.8017  1.3109 -1.7554
 5555SOL    HW228125   2.781   1.665   6.239 -0.2645  1.2382  3.9045
 5556SOL     OW28126   1.680   4.013   4.507  0.2429  0.0520 -0.1542
 5556SOL    HW128127   1.661   3.954   4.580  1.3460 -1.3875 -1.0495
 5556SOL    HW228128   1.601   4.009   4.452 -1.2944 -1.9763  2.1804
 5557SOL     OW28129   1.921   1.557   9.098  0.2404 -0.2495 -0.5869
 5557SOL    HW128130   1.876   1.479   9.131  1.6984 -1.7288 -2.0839
 5557SOL    HW228131   2.011   1.525   9.103 -0.3303 -1.7729  0.0367
 5558SOL     OW28132   1.192   1.863   7.246  0.0124  0.0986 -0.3415
 5558SOL    HW128133   1.279   1.823   7.255  0.2261  0.4027 -1.0644
 5558SOL    HW228134   1.144   1.816   7.177 -0.2050 -0.0968 -0.0574
 5559SOL     OW28135   1.543   0.529   0.403  0.2401  0.2317 -0.3007
 5559SOL    HW128136   1.625   0.553   0.445  0.8850  2.4408 -2.7759
 5559SOL    HW228137   1.478   0.535   0.473 -0.9674  1.9508 -1.5384
 5560SOL     OW28138   3.856   1.359   3.360  0.3214  0.4658 -0.1225
 5560SOL    HW128139   3.850   1.371   3.455  1.5498  0.3662 -0.0258
 5560SOL    HW228140   3.950   1.341   3.358  0.0503 -0.8178 -1.0192
 5561SOL     OW28141   1.736   2.832   3.334 -0.3083  0.0822 -0.3389
 5561SOL    HW128142   1.802   2.763   3.341 -0.0652  0.4656  1.0781
 5561SOL    HW228143   1.769   2.894   3.399  0.2785 -1.0775  0.4597
 5562SOL     OW28144   1.513   2.824   1.065 -0.2257  0.0284 -0.2047
 5562SOL    HW128145   1.598   2.785   1.047  0.1100  1.5204 -1.8566
 5562SOL    HW228146   1.484   2.847   0.977 -0.7817  0.5997  0.1246
 5563SOL     OW28147   2.667   1.580   3.987  0.4030  0.1690  0.0535
 5563SOL    HW128148   2.709   1.638   3.924  0.6357 -0.7517 -0.6369
 5563SOL    HW228149   2.659   1.642   4.059 -1.3957  1.9046 -1.6257
 5564SOL     OW28150   1.075   3.393   2.464 -0.3307 -0.0767 -0.2768
 5564SOL    HW128151   1.090   3.487   2.449  0.9550 -0.2910 -0.3081
 5564SOL    HW228152   1.032   3.375   2.380  0.7478  0.5275 -0.9650
 5565SOL     OW28153   2.257   3.361   5.543 -0.5198  0.1703  0.7648
 5565SOL    HW128154   2.200   3.368   5.466 -0.9439  2.4546  1.2758
 5565SOL    HW228155   2.194   3.391   5.608  1.0503 -2.7721  3.6054
 5566SOL     OW28156   1.431   2.807  14.210  0.7143 -0.5626 -0.4782
 5566SOL    HW128157   1.344   2.807  14.170  0.0214 -1.2780  1.0376
 5566SOL    HW228158   1.408   2.853  14.290  1.1375  2.0668 -1.8566
 5567SOL     OW28159   1.417   2.192   3.175 -0.1066  0.3081 -0.3125
 5567SOL    HW128160   1.471   2.232   3.107 -1.2958 -0.2279 -1.5725
 5567SOL    HW228161   1.333   2.178   3.133 -0.3286  0.7054 -0.0007
 5568SOL     OW28162   0.337   2.527  13.822 -0.1500 -0.2676  0.1010
 5568SOL    HW128163   0.409   2.548  13.882  0.2476  0.9358 -0.8025
 5568SOL    HW228164   0.365   2.585  13.752  1.2033  0.0994  0.9512
 5569SOL     OW28165   3.652   3.906   3.695 -0.7095  0.1475  0.9479
 5569SOL    HW128166   3.726   3.941   3.744  0.4200  3.0852 -2.9402
 5569SOL    HW228167   3.667   3.811   3.700  0.1368  0.1873 -1.0333
 5570SOL     OW28168   1.435   2.756   7.841  0.7282  0.1789 -0.2046
 5570SOL    HW128169   1.524   2.783   7.818  0.7502  1.6556  1.5197
 5570SOL    HW228170   1.392   2.831   7.800 -2.4530 -0.9721  1.0420
 5571SOL     OW28171   3.959   3.237   0.344 -0.2082  0.2470 -0.8639
 5571SOL    HW128172   3.989   3.283   0.423  0.9019 -0.6123 -0.7898
 5571SOL    HW228173   3.938   3.318   0.296 -0.6108  1.0170  0.6111
 5572SOL     OW28174   1.759   4.631   7.356 -0.3236 -0.3397 -0.0894
 5572SOL    HW128175   1.803   4.578   7.422 -1.1483  0.1400  0.8543
 5572SOL    HW228176   1.750   4.557   7.297  1.5292 -1.2238  0.7414
 5573SOL     OW28177   1.281   0.741   0.782 -0.0946 -0.0407  0.0113
 5573SOL    HW128178   1.329   0.823   0.795  0.9544 -0.2947 -2.0582
 5573SOL    HW228179   1.266   0.700   0.867  0.6911  2.6915  1.4549
 5574SOL     OW28180   4.171   0.574   4.753 -0.1886 -0.6604  0.5646
 5574SOL    HW128181   4.128   0.660   4.761  0.7306  0.0981 -2.6950
 5574SOL    HW228182   4.260   0.607   4.764 -1.1505  1.6735  1.4212
 5575SOL     OW28183   3.808   4.689   2.231  0.4456  0.3354  0.4762
 5575SOL    HW128184   3.813   4.672   2.137  0.3252 -0.4191  0.6031
 5575SOL    HW228185   3.899   4.677   2.260 -0.0291 -3.3351  0.4723
 5576SOL     OW28186   3.227   3.105   3.883  0.4594 -0.2370 -0.2418
 5576SOL    HW128187   3.256   3.130   3.971 -0.1763 -1.1153  0.2153
 5576SOL    HW228188   3.136   3.090   3.908  0.2259  0.1116 -0.8866
 5577SOL     OW28189   2.880   1.738   7.370 -0.5094 -0.2163 -0.2973
 5577SOL    HW128190   2.898   1.649   7.339  0.2275 -0.5434  1.0711
 5577SOL    HW228191   2.796   1.727   7.415 -0.4866  1.3565  0.1261
 5578SOL     OW28192   1.678   3.239   6.203  0.5342 -0.4287 -0.0765
 5578SOL    HW128193   1.717   3.184   6.272 -1.0523 -2.2146 -0.6112
 5578SOL    HW228194   1.733   3.318   6.201  0.8804 -0.6604  0.4104
 5579SOL     OW28195   3.437   1.518   0.177 -0.3448 -0.4272 -0.3351
 5579SOL    HW128196   3.443   1.545   0.268 -0.0490 -0.6739 -0.2798
 5579SOL    HW228197   3.530   1.512   0.151  0.0749  3.5516  0.2012
 5580SOL     OW28198   4.446   1.012  15.105  0.0529  0.3454 -0.5073
 5580SOL    HW128199   4.443   1.005  15.010  0.2703  1.4587 -0.5870
 5580SOL    HW228200   4.358   1.046  15.116 -0.1448 -0.0400 -0.9263
 5581SOL     OW28201   0.050   1.700   6.005 -0.0223 -0.5911  0.4769
 5581SOL    HW128202   0.077   1.675   6.094  1.6549 -0.1755  0.0869
 5581SOL    HW228203   0.131   1.738   5.970 -0.6762 -0.5028 -0.9465
 5582SOL     OW28204   3.690   1.152   4.973  0.1350  0.5327 -0.1476
 5582SOL    HW128205   3.671   1.060   4.954  1.6739 -0.5920  3.6227
 5582SOL    HW228206   3.697   1.147   5.069 -0.3376 -0.0210 -0.1407
 5583SOL     OW28207   2.121   3.679  11.810  0.5380  0.9156  0.8395
 5583SOL    HW128208   2.150   3.667  11.900 -2.2975  0.6178  1.7087
 5583SOL    HW228209   2.159   3.599  11.773 -0.0574  0.6071  0.8971
 5584SOL     OW28210   3.421   0.749   6.793  0.2234 -0.8416 -0.5734
 5584SOL    HW128211   3.514   0.765   6.804 -0.1752  0.9472  0.2944
 5584SOL    HW228212   3.388   0.837   6.811  0.8275 -0.9594  1.0912
 5585SOL     OW28213   0.053   2.313   6.438 -0.6239  0.3978 -0.4429
 5585SOL    HW128214   0.093   2.398   6.453 -0.2351  0.2644 -0.7167
 5585SOL    HW228215   4.688   2.320   6.478 -0.1228  2.8934  0.1737
 5586SOL     OW28216   4.532   2.724   2.781 -0.1632 -0.0658  0.0258
 5586SOL    HW128217   4.611   2.716   2.727  1.0511  2.2916  1.4678
 5586SOL    HW228218   4.476   2.764   2.715  0.1966 -2.7537 -1.9080
 5587SOL     OW28219   1.179   0.426   1.530 -0.1371 -0.7606  0.3214
 5587SOL    HW128220   1.207   0.404   1.441 -0.4439  0.9189 -0.1930
 5587SOL    HW228221   1.194   0.349   1.584 -0.1544 -0.0089  1.4060
 5588SOL     OW28222   1.062   4.699   2.480 -0.1305 -0.1186 -0.1947
 5588SOL    HW128223   1.108   4.639   2.539 -0.4746  1.2407  1.4614
 5588SOL    HW228224   1.102   4.673   2.397 -1.2460 -1.7788 -0.2050
 5589SOL     OW28225   3.184   1.827   6.909 -0.8145  0.2380 -0.2024
 5589SOL    HW128226   3.136   1.908   6.893  1.6878  1.7960  0.2679
 5589SOL    HW228227   3.227   1.849   6.991 -0.4243 -2.5898  0.3779
 5590SOL     OW28228   2.994   0.945  11.899  0.4688 -0.0583 -0.6747
 5590SOL    HW128229   3.033   0.872  11.850  0.0199 -1.6857  1.3668
 5590SOL    HW228230   3.041   0.948  11.982  1.1849 -1.2903 -1.0282
 5591SOL     OW28231   1.928   3.253  17.499 -0.1070 -0.3744 -0.0159
 5591SOL    HW128232   1.910   3.270  17.407  0.0670 -1.1852 -0.1976
 5591SOL    HW228233   1.954   3.161  17.502 -1.4873 -0.8234 -2.3971
 5592SOL     OW28234   3.455   2.157   3.097 -0.1439 -0.6182  0.0049
 5592SOL    HW128235   3.511   2.173   3.021 -1.8943  2.1757 -0.6792
 5592SOL    HW228236   3.493   2.075   3.127  2.1854  0.1835 -0.7848
 5593SOL     OW28237   0.086   0.394   1.526 -0.1514 -0.1836  0.3410
 5593SOL    HW128238   0.161   0.337   1.512  1.4948  2.7274 -2.5283
 5593SOL    HW228239   0.034   0.375   1.448 -1.9154  0.1152  1.4257
 5594SOL     OW28240   1.015   2.365  14.759 -0.3383 -0.0127 -0.1619
 5594SOL    HW128241   1.046   2.450  14.791  1.1868 -0.7163  0.2368
 5594SOL    HW228242   1.095   2.347  14.708 -0.7199 -0.5994 -0.5524
 5595SOL     OW28243   3.745   0.261   5.039  0.6816 -0.4323 -0.6795
 5595SOL    HW128244   3.777   0.322   5.105  0.0566 -1.0369  0.1766
 5595SOL    HW228245   3.673   0.315   5.006  1.2833  0.1085 -1.1121
 5596SOL     OW28246   0.679   3.090   4.422  0.1479  0.5129 -0.3853
 5596SOL    HW128247   0.595   3.123   4.392 -1.2572 -1.8858  0.8820
 5596SOL    HW228248   0.720   3.175   4.435 -0.0367  0.4146  0.8794
 5597SOL     OW28249   1.228   2.697  15.562 -0.3349  0.1894  0.5955
 5597SOL    HW128250   1.288   2.762  15.598  0.6873 -0.4521  0.0634
 5597SOL    HW228251   1.281   2.622  15.535  1.4192  1.1701  1.3869
 5598SOL     OW28252   3.594   0.480   2.327 -0.0310  0.3345  0.8843
 5598SOL    HW128253   3.616   0.546   2.393  0.3000 -0.8216  1.9321
 5598SOL    HW228254   3.670   0.495   2.271  1.9287  0.1378  3.5048
 5599SOL     OW28255   2.340   0.844   3.482 -0.2837 -0.4613  1.0472
 5599SOL    HW128256   2.278   0.917   3.472  0.4903  0.1410  0.6793
 5599SOL    HW228257   2.405   0.881   3.541 -1.4798  3.7152 -0.2584
 5600SOL     OW28258   0.457   1.637  10.572  0.0869 -0.4516  0.3557
 5600SOL    HW128259   0.508   1.624  10.652  1.4848  1.1017 -0.2728
 5600SOL    HW228260   0.482   1.564  10.516 -2.4023  1.5111 -3.3449
 5601SOL     OW28261   1.861   1.922   2.874 -0.4989  0.0880  0.0533
 5601SOL    HW128262   1.877   2.008   2.836 -0.3634 -1.8787 -4.3171
 5601SOL    HW228263   1.894   1.925   2.963  2.0988 -0.3078 -0.9000
 5602SOL     OW28264   0.605   3.190   0.559  0.1507  0.3157 -0.6325
 5602SOL    HW128265   0.590   3.151   0.473 -2.1195 -1.4600  0.5496
 5602SOL    HW228266   0.660   3.267   0.544 -0.1138  0.3358 -1.4581
 5603SOL     OW28267   1.492   0.990   7.434 -0.0832  0.0016 -0.0846
 5603SOL    HW128268   1.443   1.069   7.410 -0.0888  0.5571  1.7424
 5603SOL    HW228269   1.529   1.009   7.520 -0.6576 -0.0778  0.1817
 5604SOL     OW28270   1.139   2.109   7.675 -0.1774 -0.5387 -0.6646
 5604SOL    HW128271   1.136   2.080   7.584 -2.2394  1.7827 -1.3291
 5604SOL    HW228272   1.156   2.203   7.669 -3.0407  0.1012  1.1138
 5605SOL     OW28273   2.716   3.104   3.998  0.2746  0.0866 -0.1200
 5605SOL    HW128274   2.738   3.197   4.000 -1.7485  0.5558 -0.3577
 5605SOL    HW228275   2.791   3.060   4.039  1.2510 -1.6872 -3.7302
 5606SOL     OW28276   0.964   1.418   8.386  0.7698  0.0587 -0.1193
 5606SOL    HW128277   0.929   1.507   8.378  0.7174  0.0157 -0.3704
 5606SOL    HW228278   0.889   1.371   8.423  0.7670 -0.8542 -1.2829
 5607SOL     OW28279   1.853   2.586  17.088 -0.3321  0.1523  0.0017
 5607SOL    HW128280   1.759   2.606  17.089  0.8134  5.4489  0.9550
 5607SOL    HW228281   1.893   2.658  17.137 -2.0451  1.0702  0.0571
 5608SOL     OW28282   0.793   0.016  10.995 -0.3567 -0.6102 -0.3194
 5608SOL    HW128283   0.808   0.041  11.086  1.1053 -2.0198 -0.1794
 5608SOL    HW228284   0.818   4.645  10.989 -0.9121 -0.7316 -0.7252
 5609SOL     OW28285   1.743   3.004   7.490 -0.0645 -0.2485  0.1738
 5609SOL    HW128286   1.797   3.069   7.445 -1.4655  0.0517 -1.0552
 5609SOL    HW228287   1.809   2.934   7.493  0.5289  0.3096  0.2759
 5610SOL     OW28288   2.675   0.441   4.997  0.9230 -0.0585 -0.3517
 5610SOL    HW128289   2.639   0.482   4.917  0.5031  4.1583  1.9756
 5610SOL    HW228290   2.608   0.448   5.065  2.1129 -1.3787  0.9469
 5611SOL     OW28291   4.576   1.939   1.659 -0.2273 -0.1132 -0.2371
 5611SOL    HW128292   4.615   1.852   1.650 -0.4262 -0.3742  1.3928
 5611SOL    HW228293   4.647   2.003   1.657 -0.2748 -0.1467 -2.6921
 5612SOL     OW28294   3.949   4.148   3.825 -0.3232 -0.1017 -0.4467
 5612SOL    HW128295   4.028   4.108   3.861 -0.0226  1.6689  0.8772
 5612SOL    HW228296   3.982   4.221   3.772 -1.4872  0.2724 -0.6639
 5613SOL     OW28297   2.851   1.964   2.732 -0.1527  0.0547  0.6804
 5613SOL    HW128298   2.872   1.950   2.640  0.7374  0.9303  0.7364
 5613SOL    HW228299   2.922   2.013   2.773  1.0847 -2.7425  1.8745
 5614SOL     OW28300   0.616   0.661  10.960  0.3964  0.1931  0.4474
 5614SOL    HW128301   0.678   0.724  10.923  1.5096 -1.3640 -0.3344
 5614SOL    HW228302   0.597   0.702  11.044 -3.1103  0.1978 -0.3485
 5615SOL     OW28303   2.391   1.677   8.125  0.3347  0.0603  0.1739
 5615SOL    HW128304   2.303   1.699   8.155  1.5332  1.2773  2.7526
 5615SOL    HW228305   2.437   1.687   8.208 -1.9700  0.5897  1.3851
 5616SOL     OW28306   3.132   1.828   7.549 -0.2141 -0.1137  0.2100
 5616SOL    HW128307   3.182   1.748   7.535  0.2093  0.3278 -0.7760
 5616SOL    HW228308   3.055   1.805   7.497  0.4453  0.7787 -1.1498
 5617SOL     OW28309   3.603   0.107   1.482 -0.2526 -0.0980  0.7728
 5617SOL    HW128310   3.660   0.030   1.493  2.3353  1.6584 -0.2802
 5617SOL    HW228311   3.519   0.062   1.476 -0.5075  0.5362 -0.3071
 5618SOL     OW28312   0.302   3.455  14.136  0.0115  1.1442  0.3893
 5618SOL    HW128313   0.328   3.364  14.130  1.3329  1.3229  3.4514
 5618SOL    HW228314   0.283   3.458  14.230  1.0557  1.8666  0.5810
 5619SOL     OW28315   2.046   4.462   3.688  0.3245 -0.3631  0.1970
 5619SOL    HW128316   2.007   4.498   3.608  0.5067 -2.7065 -0.9268
 5619SOL    HW228317   2.090   4.544   3.711 -0.9062  0.8121 -1.5938
 5620SOL     OW28318   4.218   1.742   5.126 -0.1099  0.1052  0.7033
 5620SOL    HW128319   4.219   1.798   5.048  4.3652  0.7451  1.2066
 5620SOL    HW228320   4.164   1.670   5.095 -0.5029  0.8820 -0.4518
 5621SOL     OW28321   0.622   2.221   8.613  0.1223  0.2424  0.5793
 5621SOL    HW128322   0.576   2.228   8.696  0.6767  1.1489  0.8010
 5621SOL    HW228323   0.606   2.306   8.572  0.6813  1.2407  2.4705
 5622SOL     OW28324   0.514   2.583   3.594 -0.3774 -0.5053  0.3352
 5622SOL    HW128325   0.516   2.488   3.591 -2.3551 -0.4078 -3.0963
 5622SOL    HW228326   0.442   2.610   3.538  0.9451 -1.7375 -1.9543
 5623SOL     OW28327   0.782   2.054  10.171  0.3742 -0.3357  0.4355
 5623SOL    HW128328   0.777   2.061  10.266 -0.5618 -0.1533  0.3704
 5623SOL    HW228329   0.829   2.136  10.158  0.0191 -0.2387 -0.2696
 5624SOL     OW28330   0.559   0.874   7.643 -0.2204  0.4072  0.0745
 5624SOL    HW128331   0.607   0.857   7.724 -1.4052 -1.0005  0.4753
 5624SOL    HW228332   0.478   0.824   7.651  1.3890 -2.0200  1.2051
 5625SOL     OW28333   0.189   3.565  16.738  0.2467 -0.0750  0.2771
 5625SOL    HW128334   0.099   3.594  16.723 -0.2119  1.6796  6.3019
 5625SOL    HW228335   0.160   3.502  16.804 -0.1015 -1.6081 -1.3580
 5626SOL     OW28336   3.136   1.394   8.908  0.1223  0.2563 -0.0348
 5626SOL    HW128337   3.207   1.330   8.897  0.1962  0.5453 -1.2800
 5626SOL    HW228338   3.169   1.475   8.871  0.4777 -0.4623 -1.3024
 5627SOL     OW28339   4.524   3.065  12.611 -0.1679 -0.1332  0.2255
 5627SOL    HW128340   4.522   3.015  12.530 -1.9504  2.4276 -1.2761
 5627SOL    HW228341   4.534   3.156  12.583 -0.7237 -0.0375  0.3450
 5628SOL     OW28342   0.445   1.510   7.149 -0.0536  0.5802 -0.1915
 5628SOL    HW128343   0.458   1.571   7.221  1.3470  2.0160 -1.6534
 5628SOL    HW228344   0.349   1.515   7.146  0.1146  2.8325 -1.8664
 5629SOL     OW28345   2.928   1.101   4.064 -0.0981 -0.8295 -0.1143
 5629SOL    HW128346   2.935   1.113   3.969  1.5189 -0.3676  0.0560
 5629SOL    HW228347   2.840   1.136   4.078 -0.3330  0.2004 -4.2863
 5630SOL     OW28348   3.928   1.114   7.147  0.6939 -0.3675 -0.5514
 5630SOL    HW128349   3.961   1.203   7.159  0.8074 -0.5507  0.4672
 5630SOL    HW228350   4.006   1.063   7.168 -0.9009 -1.9214  1.5730
 5631SOL     OW28351   3.719   0.910  10.099 -0.3816 -0.0269 -0.7751
 5631SOL    HW128352   3.743   0.963  10.024  0.8854 -1.2191 -1.2196
 5631SOL    HW228353   3.802   0.863  10.109 -1.2257 -1.2485  0.5023
 5632SOL     OW28354   3.477   1.762  11.627  0.0016 -0.6650 -0.0289
 5632SOL    HW128355   3.516   1.849  11.640 -1.3078 -0.1166  0.2357
 5632SOL    HW228356   3.556   1.713  11.603  0.0218 -1.6391  1.9790
 5633SOL     OW28357   2.629   1.453   4.415 -0.2346 -0.4066 -0.3060
 5633SOL    HW128358   2.594   1.513   4.348 -0.2642  1.1118  1.0554
 5633SOL    HW228359   2.556   1.446   4.477  1.1453 -1.4167  1.1874
 5634SOL     OW28360   2.848   4.516   5.005 -0.1905  0.0630 -0.1118
 5634SOL    HW128361   2.838   4.533   5.098  0.1720 -1.8612  0.2819
 5634SOL    HW228362   2.929   4.465   5.008 -0.0842  0.1490 -1.4176
 5635SOL     OW28363   0.809   1.975   9.076 -0.3724  0.2809  0.3713
 5635SOL    HW128364   0.738   1.934   9.126  0.9957 -1.2473  1.0554
 5635SOL    HW228365   0.780   2.066   9.079  1.0421  0.8296 -2.4411
 5636SOL     OW28366   4.328   2.404   8.592 -0.3249 -0.4324 -0.5975
 5636SOL    HW128367   4.264   2.377   8.657  0.3346 -0.7924 -0.0961
 5636SOL    HW228368   4.288   2.486   8.564 -0.0019  1.3318  3.9813
 5637SOL     OW28369   1.775   0.241   2.488 -0.1024  0.0111 -0.1015
 5637SOL    HW128370   1.856   0.278   2.454 -1.0165  0.6849 -1.5704
 5637SOL    HW228371   1.751   0.202   2.404 -0.5963 -1.9669  0.9521
 5638SOL     OW28372   0.308   0.344   5.755 -0.3581 -0.0547 -0.2686
 5638SOL    HW128373   0.278   0.269   5.806  1.9044  0.1185  1.3379
 5638SOL    HW228374   0.387   0.376   5.800  1.1481 -2.5561 -1.1673
 5639SOL     OW28375   0.501   0.253   9.414 -0.3899 -0.3830 -0.4693
 5639SOL    HW128376   0.524   0.165   9.385 -1.0345 -1.0667  1.0725
 5639SOL    HW228377   0.409   0.257   9.390 -0.5875  0.4934  0.4131
 5640SOL     OW28378   0.088   2.925   8.179 -0.9854 -0.0477  0.0814
 5640SOL    HW128379   0.087   2.932   8.084  1.4601 -0.7127  0.0297
 5640SOL    HW228380   0.163   2.982   8.197 -0.7855  0.0345 -1.0561
 5641SOL     OW28381   2.497   2.932   2.586  0.1544  0.2253  0.2920
 5641SOL    HW128382   2.506   2.905   2.494 -1.3850 -2.6640  0.9852
 5641SOL    HW228383   2.567   2.996   2.590 -1.0373  1.3667  2.6402
 5642SOL     OW28384   3.798   4.045   2.419 -0.0289 -0.0000 -0.3495
 5642SOL    HW128385   3.870   4.102   2.444  0.4909 -0.6266 -0.4332
 5642SOL    HW228386   3.836   3.960   2.441  0.0673 -0.1961 -1.2801
 5643SOL     OW28387   3.487   0.836   3.061 -0.1986 -0.0979 -0.2279
 5643SOL    HW128388   3.530   0.751   3.048  0.6616  0.6618 -2.4344
 5643SOL    HW228389   3.431   0.832   2.984 -0.0862  0.7547 -0.3515
 5644SOL     OW28390   0.389   2.062   8.439 -0.5223 -0.6080 -0.0082
 5644SOL    HW128391   0.471   2.103   8.466  0.1441 -1.8655 -0.1064
 5644SOL    HW228392   0.386   1.997   8.509  0.8388  0.0612  0.6617
 5645SOL     OW28393   3.137   2.229   2.552 -0.6810 -0.9736  0.0632
 5645SOL    HW128394   3.228   2.202   2.543 -0.7346 -1.1239 -0.0389
 5645SOL    HW228395   3.132   2.321   2.579 -1.2140  0.0387 -3.4537
 5646SOL     OW28396   3.381   4.299   2.073 -0.1000 -0.2039 -0.6312
 5646SOL    HW128397   3.468   4.288   2.112 -1.2170 -2.4688  1.2549
 5646SOL    HW228398   3.374   4.218   2.023 -1.1740 -0.9101  0.6554
 5647SOL     OW28399   1.866   3.668  10.689 -0.1527 -0.2692  0.4846
 5647SOL    HW128400   1.788   3.692  10.739 -1.0646 -0.7582 -0.7073
 5647SOL    HW228401   1.875   3.745  10.633  1.7610  0.0884  1.2707
 5648SOL     OW28402   3.449   1.547  11.046  0.6786 -0.4308 -0.2989
 5648SOL    HW128403   3.522   1.489  11.070  3.5956  2.5981 -1.8543
 5648SOL    HW228404   3.460   1.625  11.100 -2.0648 -0.0949 -0.2296
 5649SOL     OW28405   0.019   4.503   4.558  0.9295  0.3460  0.5240
 5649SOL    HW128406   0.106   4.539   4.573  1.3074 -1.3476  2.3528
 5649SOL    HW228407   0.017   4.451   4.638  2.2523  2.1434  1.7099
 5650SOL     OW28408   2.964   2.523   4.087  0.1913  0.4543 -0.1494
 5650SOL    HW128409   2.953   2.474   4.168  0.6845  0.3268 -0.1596
 5650SOL    HW228410   3.032   2.484   4.032 -1.5294  0.2826 -2.1399
 5651SOL     OW28411   0.244   3.398   7.140  0.0238  0.0860  0.3520
 5651SOL    HW128412   0.229   3.470   7.202 -0.7300 -1.1436  1.6004
 5651SOL    HW228413   0.208   3.329   7.196  0.3422  1.1330  1.8439
 5652SOL     OW28414   3.153   3.366   6.853 -0.1059  0.0662  0.0313
 5652SOL    HW128415   3.166   3.273   6.866 -1.0619  0.4006  3.2773
 5652SOL    HW228416   3.096   3.369   6.777 -1.5296 -3.9307  0.9602
 5653SOL     OW28417   1.992   1.590   8.845  0.0042  0.2428  0.0886
 5653SOL    HW128418   2.003   1.683   8.824 -1.6423  0.6569  1.0198
 5653SOL    HW228419   1.956   1.589   8.934  0.1179 -1.0954  0.1269
 5654SOL     OW28420   0.104   0.785   3.667 -0.4028  0.3249  0.4451
 5654SOL    HW128421   0.111   0.768   3.761  0.0270 -1.2468  0.1222
 5654SOL    HW228422   0.052   0.713   3.632  0.0938  0.4464 -0.5396
 5655SOL     OW28423   2.030   2.030  12.507  0.8196  0.1305  0.3702
 5655SOL    HW128424   2.113   1.985  12.522  0.6016 -0.7020 -0.8569
 5655SOL    HW228425   2.066   2.087  12.438  0.2845  0.3626  0.2860
 5656SOL     OW28426   4.091   4.284  14.773 -0.1179 -0.0273 -0.1341
 5656SOL    HW128427   4.155   4.320  14.835 -1.1277 -1.6806  1.8796
 5656SOL    HW228428   4.147   4.210  14.748  0.7950  0.3273  0.8942
 5657SOL     OW28429   0.817   3.984  11.099 -0.3789  0.0399 -0.0478
 5657SOL    HW128430   0.739   3.953  11.053 -1.4229  0.5805  1.3610
 5657SOL    HW228431   0.828   4.075  11.072  2.7591 -0.6333 -1.0991
 5658SOL     OW28432   1.327   0.130   8.755  0.2819 -0.5037 -0.0287
 5658SOL    HW128433   1.357   0.200   8.698  0.1581  0.3824  1.0045
 5658SOL    HW228434   1.398   0.125   8.819 -1.2142 -0.3632  1.6452
 5659SOL     OW28435   2.172   3.831   6.602 -0.4703  1.0521  0.3664
 5659SOL    HW128436   2.258   3.797   6.630 -0.3482  0.5002 -0.7031
 5659SOL    HW228437   2.160   3.916   6.644 -0.0980 -0.1981  3.0107
 5660SOL     OW28438   1.928   0.278   4.125 -0.1410  0.2465  0.3148
 5660SOL    HW128439   1.963   0.366   4.114 -1.5824  0.5761 -1.6392
 5660SOL    HW228440   1.857   0.283   4.188  1.0672  3.1440  1.4202
 5661SOL     OW28441   1.071   0.842   4.564  0.5823  0.1979 -0.3960
 5661SOL    HW128442   1.109   0.887   4.489 -1.1752  1.1497 -0.7297
 5661SOL    HW228443   1.067   0.754   4.526  3.1147  0.5101 -1.3952
 5662SOL     OW28444   3.977   0.167   6.499 -0.3867  0.0332  0.2726
 5662SOL    HW128445   3.900   0.209   6.463 -2.3329 -1.5497  2.5656
 5662SOL    HW228446   3.977   0.075   6.472  1.5382 -0.0075  0.4191
 5663SOL     OW28447   3.373   0.778  11.061 -0.1661 -0.0556  0.2574
 5663SOL    HW128448   3.299   0.837  11.074 -0.2706  0.0101 -0.6580
 5663SOL    HW228449   3.362   0.748  10.971 -0.8046 -1.0411  0.6695
 5664SOL     OW28450   1.155   0.484   3.575  0.2063  0.0697  0.6212
 5664SOL    HW128451   1.245   0.461   3.552  0.9494  0.4490  3.2624
 5664SOL    HW228452   1.116   0.408   3.533 -2.8766  2.4948 -0.8990
 5665SOL     OW28453   3.459   1.407   6.485  0.3039 -0.1050 -0.1195
 5665SOL    HW128454   3.478   1.360   6.403  1.7621  0.9130 -0.3630
 5665SOL    HW228455   3.509   1.488   6.474 -2.6377  1.5765 -1.3264
 5666SOL     OW28456   4.680   0.548   2.280  0.0830 -0.5785 -0.3787
 5666SOL    HW128457   4.627   0.542   2.201  2.2230  2.2029 -2.0593
 5666SOL    HW228458   4.621   0.595   2.339  0.8034 -1.0602  0.7254
 5667SOL     OW28459   4.041   3.206  11.596  0.0965 -0.5635  0.3536
 5667SOL    HW128460   4.119   3.163  11.631  1.1659  2.5318  1.8618
 5667SOL    HW228461   4.073   3.242  11.513 -1.2537 -1.0494 -0.3806
 5668SOL     OW28462   0.024   0.914   7.266 -0.1131 -0.9006  0.2410
 5668SOL    HW128463   0.037   0.923   7.172  0.0789 -2.6337  0.0992
 5668SOL    HW228464   4.657   0.877   7.265 -0.9552  1.1057 -0.3968
 5669SOL     OW28465   3.725   4.386   2.525 -0.3336 -0.5635 -0.1707
 5669SOL    HW128466   3.800   4.328   2.540 -0.0572 -0.7194 -2.1897
 5669SOL    HW228467   3.669   4.358   2.598  0.4030 -1.0534  0.2067
 5670SOL     OW28468   2.682   2.949   7.866 -0.4139  0.2112  0.2302
 5670SOL    HW128469   2.624   3.025   7.872  2.0806  2.1874 -0.2798
 5670SOL    HW228470   2.644   2.908   7.788 -1.3297 -3.1832  2.4962
 5671SOL     OW28471   1.510   1.383   0.801 -0.1326  0.1242 -0.3042
 5671SOL    HW128472   1.434   1.441   0.793 -0.5971  0.0037  3.2863
 5671SOL    HW228473   1.538   1.419   0.885 -1.5044 -2.8675  1.4177
 5672SOL     OW28474   4.217   4.472   8.262 -0.3675 -0.0493  0.1539
 5672SOL    HW128475   4.262   4.537   8.315 -1.4064  1.4535 -0.7856
 5672SOL    HW228476   4.201   4.534   8.190  2.8049  0.6626  0.0758
 5673SOL     OW28477   2.162   2.498  11.202 -0.0824  0.7094 -0.0510
 5673SOL    HW128478   2.129   2.489  11.113  0.9600  0.9737 -0.4620
 5673SOL    HW228479   2.082   2.481  11.252  0.5941 -1.0508  0.4462
 5674SOL     OW28480   4.202   0.480  11.420 -0.3241 -0.2130 -0.6144
 5674SOL    HW128481   4.137   0.498  11.352 -0.6486  0.9519 -0.0033
 5674SOL    HW228482   4.267   0.550  11.413 -0.0566 -0.2789  1.3020
 5675SOL     OW28483   2.841   4.411   7.252 -0.9999 -0.3568 -0.5616
 5675SOL    HW128484   2.888   4.331   7.227  0.1866  0.4887 -1.0375
 5675SOL    HW228485   2.820   4.386   7.342  1.4877 -0.9109 -0.1300
 5676SOL     OW28486   1.213   4.444  13.462  0.2386  0.2632  0.3755
 5676SOL    HW128487   1.145   4.440  13.395 -0.4593 -0.8660  1.1543
 5676SOL    HW228488   1.283   4.390  13.423 -0.6217 -1.2651  0.9310
 5677SOL     OW28489   3.900   3.582   6.112  0.5688 -0.1176 -0.3319
 5677SOL    HW128490   3.932   3.512   6.056 -1.5487 -0.7502 -0.7244
 5677SOL    HW228491   3.877   3.654   6.053  0.2207  1.2227  1.4369
 5678SOL     OW28492   2.774   0.127  14.186 -0.0627 -0.0020  0.0776
 5678SOL    HW128493   2.835   0.101  14.117 -0.8118  0.5863 -0.8110
 5678SOL    HW228494   2.713   0.177  14.132 -1.1328  0.0940  1.3649
 5679SOL     OW28495   3.284   1.012   5.763  0.1841  0.0642  0.1865
 5679SOL    HW128496   3.228   0.934   5.764  1.2309 -0.7262 -1.9416
 5679SOL    HW228497   3.314   0.998   5.853 -1.6459 -2.5772  0.3839
 5680SOL     OW28498   0.155   3.641   9.394  0.4150  0.4318 -0.0723
 5680SOL    HW128499   0.150   3.731   9.361 -1.5791 -0.5309 -2.3778
 5680SOL    HW228500   0.248   3.629   9.375  0.9741 -0.2732  3.0431
 5681SOL     OW28501   1.711   4.535   5.421 -0.4687 -0.5889  0.0094
 5681SOL    HW128502   1.749   4.520   5.508 -2.3530 -1.0401  0.7439
 5681SOL    HW228503   1.764   4.476   5.367 -1.6344 -1.1405 -0.5153
 5682SOL     OW28504   0.428   0.642   3.245 -0.4898  0.3618 -0.3512
 5682SOL    HW128505   0.503   0.639   3.304  0.6271 -1.0138 -1.8392
 5682SOL    HW228506   0.439   0.552   3.217 -2.5926  0.1699 -0.5490
 5683SOL     OW28507   2.810   0.690   2.268 -0.1649 -0.1302 -0.5095
 5683SOL    HW128508   2.816   0.718   2.177  2.9188  0.0535 -0.2445
 5683SOL    HW228509   2.728   0.639   2.267 -0.0906 -0.2103 -1.8861
 5684SOL     OW28510   4.215   2.633   5.882 -0.0025 -0.1647 -0.4268
 5684SOL    HW128511   4.250   2.687   5.953 -3.4873  1.1160  0.2733
 5684SOL    HW228512   4.270   2.664   5.810 -0.8041  2.3330  0.0475
 5685SOL     OW28513   1.993   1.733   4.144 -0.3412 -0.0983  0.3154
 5685SOL    HW128514   1.918   1.698   4.191 -0.8954 -0.8442 -1.1230
 5685SOL    HW228515   1.952   1.816   4.119 -0.1932  0.0333  0.5027
 5686SOL     OW28516   3.969   0.450  13.704 -0.4414 -0.1623  0.0417
 5686SOL    HW128517   3.981   0.395  13.781 -0.3848  1.0299  0.8889
 5686SOL    HW228518   4.058   0.485  13.701 -0.7910  0.5250 -2.8626
 5687SOL     OW28519   0.761   1.102   9.025 -0.1841 -0.6272  0.1788
 5687SOL    HW128520   0.670   1.099   9.054 -0.7285  0.2114 -1.4570
 5687SOL    HW228521   0.773   1.015   8.987  3.0804  1.4855 -3.5847
 5688SOL     OW28522   1.571   3.401  16.017  0.2141  0.1411 -0.2153
 5688SOL    HW128523   1.540   3.330  15.961 -0.8072  0.2795  0.1786
 5688SOL    HW228524   1.490   3.412  16.066  0.3902  2.9656 -0.5296
 5689SOL     OW28525   1.525   2.021   7.672  0.1354  0.3653  0.7954
 5689SOL    HW128526   1.441   1.998   7.713  0.3181 -1.7307  0.0113
 5689SOL    HW228527   1.506   2.114   7.664  0.4069  0.3912  0.4608
 5690SOL     OW28528   2.674   0.305  17.636 -0.3982 -0.0324 -0.6057
 5690SOL    HW128529   2.725   0.355  17.572  0.5444  1.1976  1.1078
 5690SOL    HW228530   2.675   0.218  17.596  1.2314 -0.2933 -0.0083
 5691SOL     OW28531   1.373   0.548   0.613  0.8456  0.1320  0.0851
 5691SOL    HW128532   1.317   0.609   0.661  0.1971 -0.2515 -0.1856
 5691SOL    HW228533   1.307   0.483   0.589  2.4965 -1.6934  0.4916
 5692SOL     OW28534   2.555   2.298  10.946 -0.6286  0.0598  0.1933
 5692SOL    HW128535   2.497   2.372  10.963 -1.0041 -0.1014 -0.3909
 5692SOL    HW228536   2.619   2.309  11.017  1.3187 -3.2448 -1.0498
 5693SOL     OW28537   2.323   3.722   1.811 -0.6798  0.2102  0.1844
 5693SOL    HW128538   2.331   3.782   1.737  1.5544  1.2067  1.2626
 5693SOL    HW228539   2.377   3.647   1.789  0.3803  1.6532 -2.1254
 5694SOL     OW28540   1.577   4.373   3.913  0.1054 -0.0626 -0.5238
 5694SOL    HW128541   1.646   4.424   3.869  0.9852 -0.7154  0.1064
 5694SOL    HW228542   1.543   4.325   3.837 -0.0614 -1.5344  0.4976
 5695SOL     OW28543   3.398   1.485  10.787  0.3439  0.0264  0.7970
 5695SOL    HW128544   3.331   1.553  10.775  0.0492 -1.1065 -3.8210
 5695SOL    HW228545   3.407   1.504  10.881  1.1129 -0.9958  0.9242
 5696SOL     OW28546   3.827   0.453   2.206 -0.3284 -0.2972  0.0070
 5696SOL    HW128547   3.772   0.375   2.207 -2.3868  1.1423  1.2215
 5696SOL    HW228548   3.872   0.449   2.290 -2.5367  0.9571  1.2443
 5697SOL     OW28549   1.036   0.650   3.308 -0.2356 -0.2551 -0.3728
 5697SOL    HW128550   0.980   0.726   3.290  0.0166  0.9126  3.9000
 5697SOL    HW228551   1.092   0.679   3.380 -1.9736  1.0462  0.4638
 5698SOL     OW28552   3.822   1.853   5.723  0.1201 -0.0118  0.0945
 5698SOL    HW128553   3.877   1.926   5.752 -0.3720 -0.0917  1.2240
 5698SOL    HW228554   3.857   1.783   5.778 -0.2442  1.1893  1.8601
 5699SOL     OW28555   0.600   1.825  16.964 -0.1744 -0.0256 -0.4293
 5699SOL    HW128556   0.567   1.738  16.986  1.9292 -0.3414  1.4105
 5699SOL    HW228557   0.572   1.869  17.045 -0.3188  0.9149 -0.9829
 5700SOL     OW28558   1.190   0.730   5.698 -0.5176 -0.2099 -0.4434
 5700SOL    HW128559   1.154   0.647   5.667  0.5482 -0.6382 -0.5270
 5700SOL    HW228560   1.213   0.773   5.616  0.2748  2.8161  1.3509
 5701SOL     OW28561   2.940   1.818   6.622 -0.3082 -0.0729  0.1027
 5701SOL    HW128562   2.920   1.870   6.699 -0.1622 -1.2521  0.9270
 5701SOL    HW228563   3.035   1.807   6.629  0.0600  1.4259 -2.4087
 5702SOL     OW28564   4.352   0.487   8.566  0.0686 -0.3504 -0.0546
 5702SOL    HW128565   4.436   0.444   8.582 -0.0853 -0.6130  0.0540
 5702SOL    HW228566   4.302   0.410   8.539 -0.8757 -0.1430  1.1053
 5703SOL     OW28567   3.986   2.961   0.762  0.7696 -0.0563  0.0366
 5703SOL    HW128568   4.059   2.987   0.818  0.9173 -0.3917 -0.0008
 5703SOL    HW228569   3.999   2.867   0.757  0.6169 -0.0584 -0.3173
 5704SOL     OW28570   2.843   4.355  11.971 -0.4607  0.5014 -0.0182
 5704SOL    HW128571   2.781   4.427  11.964 -1.3096 -0.0948  1.3519
 5704SOL    HW228572   2.915   4.403  11.931 -0.7521 -0.3391 -1.5371
 5705SOL     OW28573   2.845   3.778   2.003 -0.8218 -0.2107 -0.2162
 5705SOL    HW128574   2.757   3.817   1.997 -1.4496 -1.8653 -1.8403
 5705SOL    HW228575   2.871   3.795   1.912  1.3599  1.7611  0.7875
 5706SOL     OW28576   1.318   0.180   4.474  0.2865 -0.4174  0.6943
 5706SOL    HW128577   1.318   0.256   4.415  0.1394 -1.3209 -0.4489
 5706SOL    HW228578   1.280   0.113   4.418 -2.2507  1.6873 -0.1286
 5707SOL     OW28579   1.477   3.948   1.773 -0.3173  0.7592  0.2999
 5707SOL    HW128580   1.524   4.009   1.716 -0.3454  2.1321  1.7321
 5707SOL    HW228581   1.534   3.966   1.848  1.7663  0.6233 -1.2444
 5708SOL     OW28582   4.435   0.049   8.208  0.8797 -0.1464 -0.0265
 5708SOL    HW128583   4.494   4.703   8.174  1.1957 -0.4431  1.1177
 5708SOL    HW228584   4.474   0.076   8.291 -1.5127 -0.0089  1.0534
 5709SOL     OW28585   3.834   3.037   8.298 -0.2346 -0.1985  0.0085
 5709SOL    HW128586   3.833   3.016   8.391 -0.3033 -0.2247  0.0022
 5709SOL    HW228587   3.908   2.988   8.264 -0.1480 -1.6546  2.3658
 5710SOL     OW28588   2.852   4.664  11.097 -0.2055 -0.3049 -0.4066
 5710SOL    HW128589   2.871   4.701  11.011 -0.1702  0.2179 -0.1739
 5710SOL    HW228590   2.757   4.656  11.089 -0.0812 -1.1429 -1.0483
 5711SOL     OW28591   3.575   4.431   1.056 -0.2874 -0.5247 -0.1160
 5711SOL    HW128592   3.509   4.500   1.072 -1.0159 -1.2002 -0.2036
 5711SOL    HW228593   3.523   4.355   1.082 -1.4387 -0.2636 -1.6458
 5712SOL     OW28594   3.003   2.225   5.884 -0.3001  1.3573 -0.2036
 5712SOL    HW128595   3.016   2.305   5.934 -0.3996  1.1736  0.1203
 5712SOL    HW228596   2.925   2.250   5.836 -1.3958 -0.1332  0.7743
 5713SOL     OW28597   2.523   2.564   2.200  0.0346  0.0082  0.2361
 5713SOL    HW128598   2.572   2.586   2.121 -0.1837  1.7772  0.5884
 5713SOL    HW228599   2.555   2.636   2.255 -0.6682 -0.8660  1.7809
 5714SOL     OW28600   1.093   4.275   8.099 -0.1883  0.0169  0.1391
 5714SOL    HW128601   1.087   4.337   8.026  0.9793 -2.3802 -1.9728
 5714SOL    HW228602   1.018   4.302   8.152 -1.6239 -0.2428 -1.7432
 5715SOL     OW28603   0.387   2.301   3.268 -0.3961 -0.3621  0.1341
 5715SOL    HW128604   0.316   2.281   3.207  0.2712 -2.1871 -0.0208
 5715SOL    HW228605   0.366   2.249   3.346 -0.3778 -0.8529 -0.1963
 5716SOL     OW28606   1.391   1.859   4.860 -0.1572 -0.1024 -0.4871
 5716SOL    HW128607   1.306   1.887   4.894 -0.2611  1.8503 -2.3472
 5716SOL    HW228608   1.419   1.930   4.803 -0.2574  0.9350  0.7691
 5717SOL     OW28609   1.802   1.842   9.160  0.4646 -0.3185 -0.1876
 5717SOL    HW128610   1.709   1.823   9.173  0.4823  0.4796  1.1997
 5717SOL    HW228611   1.844   1.760   9.185  1.0862 -0.2086 -0.8617
 5718SOL     OW28612   2.440   4.463   0.875  0.0018  0.3060 -0.1970
 5718SOL    HW128613   2.397   4.522   0.937 -1.2128  1.1472 -1.8278
 5718SOL    HW228614   2.376   4.392   0.862 -1.0185  0.6700  2.8739
 5719SOL     OW28615   3.118   3.177   6.447  0.8072  0.3397  0.0051
 5719SOL    HW128616   3.084   3.240   6.510 -0.4737 -1.5580  1.2088
 5719SOL    HW228617   3.207   3.212   6.441  0.1434  2.1896  0.8703
 5720SOL     OW28618   0.417   3.859   6.416  0.2898  0.2881 -0.6797
 5720SOL    HW128619   0.502   3.874   6.375  0.8335  1.8541  1.0176
 5720SOL    HW228620   0.428   3.875   6.510 -0.8617  1.5549 -0.7579
 5721SOL     OW28621   3.188   1.805  15.984  0.1009  0.1213 -0.1959
 5721SOL    HW128622   3.238   1.824  16.064  1.1714 -0.0906 -0.8162
 5721SOL    HW228623   3.134   1.884  15.986 -1.4103 -0.9129  0.0642
 5722SOL     OW28624   0.495   4.689   2.931 -0.6447 -0.7015  0.6158
 5722SOL    HW128625   0.531   4.612   2.975 -0.1631 -0.5568  0.4726
 5722SOL    HW228626   0.463   4.641   2.855  0.8280  0.1900 -0.5913
 5723SOL     OW28627   4.271   1.742   8.569 -0.0954  0.1597 -0.0032
 5723SOL    HW128628   4.294   1.814   8.628 -1.1840 -1.3120  2.1881
 5723SOL    HW228629   4.178   1.764   8.558  0.1968  0.8633 -1.0964
 5724SOL     OW28630   3.993   0.825   1.992  0.3578  0.3271  0.1404
 5724SOL    HW128631   3.934   0.752   2.010  0.0536  0.0638 -1.9173
 5724SOL    HW228632   3.952   0.879   1.925  1.3409  2.2908  1.1207
 5725SOL     OW28633   3.907   2.808   2.018  0.3391 -0.3352  0.1673
 5725SOL    HW128634   3.826   2.828   2.066  0.3273  1.4449 -0.5872
 5725SOL    HW228635   3.944   2.748   2.083 -2.3097 -1.4654  0.6131
 5726SOL     OW28636   1.895   0.671   7.129 -0.0572  0.1866  0.4985
 5726SOL    HW128637   1.951   0.599   7.102 -1.3011 -0.8098  0.6016
 5726SOL    HW228638   1.850   0.632   7.204 -1.4600  0.9106  0.0272
 5727SOL     OW28639   0.267   3.954   7.472  0.5409  0.0448 -0.4938
 5727SOL    HW128640   0.349   4.002   7.485  0.1637  0.7992 -0.8376
 5727SOL    HW228641   0.224   3.965   7.557  0.8491 -0.0221 -0.3326
 5728SOL     OW28642   3.492   1.328   4.902 -0.1350 -0.5674 -0.2833
 5728SOL    HW128643   3.484   1.338   4.807 -1.9360  0.1864 -0.0464
 5728SOL    HW228644   3.575   1.282   4.914 -0.0655  0.2105  2.2270
 5729SOL     OW28645   3.310   4.533  14.629  0.2468  0.4630  0.6229
 5729SOL    HW128646   3.242   4.510  14.566  1.2789 -0.3363 -0.2067
 5729SOL    HW228647   3.317   4.446  14.668  0.6292  0.6375  0.9493
 5730SOL     OW28648   2.849   3.782   7.708 -0.4060 -0.1386 -0.9365
 5730SOL    HW128649   2.821   3.779   7.800 -0.1651 -0.1614 -0.8636
 5730SOL    HW228650   2.880   3.692   7.696  0.8221  0.2727 -0.8477
 5731SOL     OW28651   0.152   3.213   3.185  0.1798  0.0420  0.3365
 5731SOL    HW128652   0.132   3.137   3.239 -2.5857 -0.1062 -0.9272
 5731SOL    HW228653   0.102   3.280   3.231  0.7208  1.6964 -1.4987
 5732SOL     OW28654   4.195   1.439   8.720 -0.3582 -0.2620  0.3925
 5732SOL    HW128655   4.193   1.524   8.765 -0.1227  0.0900 -0.2557
 5732SOL    HW228656   4.136   1.387   8.775 -1.1550  0.9190  0.6612
 5733SOL     OW28657   0.654   1.324   1.747  0.6234 -0.1712  0.2460
 5733SOL    HW128658   0.735   1.292   1.787  0.7881 -1.9047 -1.4606
 5733SOL    HW228659   0.666   1.414   1.776 -1.3836  0.7044 -1.5941
 5734SOL     OW28660   2.087   2.703  16.139 -0.1962  0.0519  0.2331
 5734SOL    HW128661   2.122   2.649  16.068  0.0936 -1.2538  1.3707
 5734SOL    HW228662   2.110   2.787  16.099  2.3219 -0.0259  1.5351
 5735SOL     OW28663   3.068   4.126  11.895 -0.3200  0.7474 -0.2207
 5735SOL    HW128664   3.108   4.211  11.875 -0.5803  0.8633 -0.2404
 5735SOL    HW228665   2.992   4.126  11.837 -0.2874 -0.1518 -0.2595
 5736SOL     OW28666   0.646   1.212   5.765 -0.0991 -0.3376 -0.1816
 5736SOL    HW128667   0.590   1.136   5.745 -0.5844 -0.3383  1.2191
 5736SOL    HW228668   0.653   1.246   5.676  0.6909  0.3560  0.1485
 5737SOL     OW28669   2.036   3.133   7.709  0.0762  0.1526  0.4535
 5737SOL    HW128670   2.069   3.153   7.621 -1.3514 -1.5578 -0.4788
 5737SOL    HW228671   2.049   3.038   7.701 -0.6639  0.1689 -1.1092
 5738SOL     OW28672   0.875   4.036   5.436 -0.0726  0.3902 -0.2529
 5738SOL    HW128673   0.889   4.028   5.530 -1.1527  0.1981 -0.1054
 5738SOL    HW228674   0.809   4.106   5.429 -0.4682  0.0594  0.2142
 5739SOL     OW28675   1.457   1.554   5.358  0.2570 -0.1400 -0.0385
 5739SOL    HW128676   1.491   1.603   5.432 -2.2392 -1.7193  2.1917
 5739SOL    HW228677   1.454   1.620   5.290  1.2968  0.2494  0.3101
 5740SOL     OW28678   0.044   0.556   6.642 -0.2434  0.4309  0.5503
 5740SOL    HW128679   0.109   0.623   6.664  0.1499  0.3511 -0.3832
 5740SOL    HW228680   0.089   0.472   6.631  0.9765  1.1345  0.1305
 5741SOL     OW28681   1.911   0.114   4.990 -0.2468 -0.2089  0.1611
 5741SOL    HW128682   1.927   0.199   4.948  0.6064 -0.5278 -0.1546
 5741SOL    HW228683   1.930   0.043   4.929 -0.2258  0.5118 -0.6666
 5742SOL     OW28684   3.638   2.433   9.109  0.5294 -0.4540 -0.0887
 5742SOL    HW128685   3.695   2.410   9.035  1.7169 -3.5907  1.7872
 5742SOL    HW228686   3.612   2.355   9.157  0.9970 -0.8112 -0.4155
 5743SOL     OW28687   0.255   4.208   3.622 -0.9215 -0.2292 -0.7014
 5743SOL    HW128688   0.226   4.167   3.703  2.5639 -1.3417 -0.0204
 5743SOL    HW228689   0.195   4.282   3.610 -0.7215 -0.1664 -1.3095
 5744SOL     OW28690   0.761   1.997  12.093  0.2081 -0.2259  0.1379
 5744SOL    HW128691   0.849   1.979  12.058  0.8867  1.9404  0.7500
 5744SOL    HW228692   0.710   2.018  12.016 -2.4406  0.8358  2.2075
 5745SOL     OW28693   3.498   4.398   0.552 -0.1944  0.1322  0.5601
 5745SOL    HW128694   3.581   4.444   0.544 -0.0880  0.0667  1.3120
 5745SOL    HW228695   3.505   4.340   0.628  0.9982 -0.2598  0.1397
 5746SOL     OW28696   4.326   1.277   8.537  0.3377  0.2422 -0.6127
 5746SOL    HW128697   4.412   1.283   8.579 -0.0843  0.5561  0.2056
 5746SOL    HW228698   4.276   1.342   8.586  1.2096 -2.0235  3.3324
 5747SOL     OW28699   0.798   4.429   5.582 -0.4723  0.0039 -0.3316
 5747SOL    HW128700   0.834   4.491   5.519 -0.6687  1.3280  0.8644
 5747SOL    HW228701   0.872   4.415   5.640 -0.7449  0.9038  0.2251
 5748SOL     OW28702   0.862   4.029  14.090  0.3160  0.4501  0.5075
 5748SOL    HW128703   0.791   3.966  14.077  0.2676  1.0405 -2.1598
 5748SOL    HW228704   0.920   3.973  14.141 -0.4275  0.3568  1.2415
 5749SOL     OW28705   2.025   0.794   5.661  0.7298  0.1506 -0.0602
 5749SOL    HW128706   2.063   0.878   5.687 -2.0429  0.2181  3.7300
 5749SOL    HW228707   2.051   0.738   5.734  0.5048  2.2058  1.6055
 5750SOL     OW28708   3.201   0.241   3.652  0.1089 -0.1756 -0.2958
 5750SOL    HW128709   3.212   0.182   3.727  2.2395  1.0575  0.3530
 5750SOL    HW228710   3.138   0.302   3.688  0.9262 -0.0997  0.9881
 5751SOL     OW28711   2.991   3.746   5.030 -0.3289 -0.7994  0.0288
 5751SOL    HW128712   2.928   3.717   5.097  1.1973 -0.0752  1.7862
 5751SOL    HW228713   3.049   3.671   5.044 -0.9106 -1.2415  0.0983
 5752SOL     OW28714   0.431   4.410   3.546  0.7000 -0.0117 -0.2437
 5752SOL    HW128715   0.374   4.485   3.564  2.3407  1.0554  0.5273
 5752SOL    HW228716   0.378   4.346   3.594  0.7613  1.6866  2.1072
 5753SOL     OW28717   1.859   1.692   8.164  0.3487  0.1433  0.7694
 5753SOL    HW128718   1.823   1.732   8.085  0.9507 -0.9434 -0.0517
 5753SOL    HW228719   1.778   1.685   8.214 -1.0890  1.0135 -1.4229
 5754SOL     OW28720   3.982   3.566   7.132  1.3425  0.1315 -0.3985
 5754SOL    HW128721   3.930   3.491   7.160  1.1298 -0.2534 -1.8162
 5754SOL    HW228722   3.923   3.636   7.106  0.4686  0.2912  2.0461
 5755SOL     OW28723   4.640   0.367   0.214 -0.4181  0.4571  0.3313
 5755SOL    HW128724   4.621   0.461   0.216 -2.0261  0.1023  1.5801
 5755SOL    HW228725   4.606   0.354   0.125 -1.4758  1.1986  0.6240
 5756SOL     OW28726   0.384   4.561   6.281  0.2672 -0.1706  0.2265
 5756SOL    HW128727   0.435   4.638   6.306  0.0698 -0.2720  0.9408
 5756SOL    HW228728   0.296   4.590   6.303 -0.0535  0.2162 -1.5098
 5757SOL     OW28729   3.058   0.065   4.461 -0.0540  0.3817 -0.1941
 5757SOL    HW128730   3.073   0.157   4.484  1.7486 -0.1749  0.7844
 5757SOL    HW228731   3.007   0.072   4.380 -0.8567  0.8587  0.3436
 5758SOL     OW28732   0.423   3.659   3.267  0.0801 -0.1571 -0.1152
 5758SOL    HW128733   0.380   3.745   3.264  0.0181 -0.1977 -0.4550
 5758SOL    HW228734   0.467   3.654   3.182  2.7744  0.5492  1.2376
 5759SOL     OW28735   4.286   2.694  16.673 -0.5950  0.2888  0.2455
 5759SOL    HW128736   4.299   2.782  16.638 -0.5186  0.2093  0.0760
 5759SOL    HW228737   4.218   2.712  16.738 -1.0655 -0.9709  0.1016
 5760SOL     OW28738   4.299   4.171   3.446  0.5559  0.2233  0.3844
 5760SOL    HW128739   4.336   4.223   3.518  0.7567 -1.1400  1.2628
 5760SOL    HW228740   4.374   4.116   3.422 -0.1919 -1.0417  0.9605
 5761SOL     OW28741   3.798   3.369  14.885  0.3577  0.1576 -0.0712
 5761SOL    HW128742   3.856   3.302  14.921 -1.3836 -1.6093 -0.5426
 5761SOL    HW228743   3.869   3.418  14.844 -0.3572 -0.3232 -1.8670
 5762SOL     OW28744   0.758   0.428   7.998 -0.6717  0.3914 -0.4617
 5762SOL    HW128745   0.804   0.481   8.063  0.4336 -0.3068 -0.6798
 5762SOL    HW228746   0.704   0.364   8.045  0.2061 -0.3624 -0.4845
 5763SOL     OW28747   0.918   0.142   8.444 -0.5372  0.0375  0.3152
 5763SOL    HW128748   1.001   0.104   8.470 -0.2394 -0.1870 -0.9402
 5763SOL    HW228749   0.939   0.222   8.396  0.0488 -0.0771  0.3829
 5764SOL     OW28750   2.770   1.514   9.565 -0.6501  0.5277  0.6308
 5764SOL    HW128751   2.725   1.527   9.649  0.2368  0.5296  1.1016
 5764SOL    HW228752   2.782   1.419   9.567  0.7508  0.6235 -2.2774
 5765SOL     OW28753   4.519   4.182   2.387  0.3168 -0.4261  0.3444
 5765SOL    HW128754   4.594   4.209   2.335 -1.1221 -0.7157 -1.8792
 5765SOL    HW228755   4.523   4.086   2.386 -0.8163 -0.4415 -1.7647
 5766SOL     OW28756   3.224   2.812   4.353 -0.2158  0.1638 -0.2347
 5766SOL    HW128757   3.279   2.737   4.333 -0.1271  0.4575 -1.0784
 5766SOL    HW228758   3.183   2.799   4.268  0.7918 -1.8201 -0.4085
 5767SOL     OW28759   4.083   0.928  14.279  0.9926  0.2280  0.0476
 5767SOL    HW128760   4.061   0.918  14.372  2.4657 -1.1504  0.2521
 5767SOL    HW228761   4.143   1.002  14.274  2.7555 -1.3058 -1.8423
 5768SOL     OW28762   4.699   1.712   8.837 -0.2802 -0.2636  0.1691
 5768SOL    HW128763   4.604   1.711   8.830 -0.2724 -1.4766  0.2922
 5768SOL    HW228764   4.703   1.737   8.929 -0.9556 -0.4980  0.2599
 5769SOL     OW28765   1.551   3.098  15.634 -0.2218  0.2849 -0.0538
 5769SOL    HW128766   1.463   3.075  15.604 -0.0112 -1.0230  0.3143
 5769SOL    HW228767   1.600   3.018  15.616  0.0144  0.3648  0.2283
 5770SOL     OW28768   4.589   4.161   9.044 -0.2660  0.0650 -0.6079
 5770SOL    HW128769   4.593   4.256   9.048  2.7564 -0.0704  0.0883
 5770SOL    HW228770   4.495   4.148   9.054  0.0687  0.3568  2.8375
 5771SOL     OW28771   0.085   1.242  11.514  0.3219 -0.4504 -0.1604
 5771SOL    HW128772   0.115   1.311  11.454  0.8411 -0.6225 -0.1012
 5771SOL    HW228773   0.022   1.188  11.467 -1.8013  1.4853  0.4999
 5772SOL     OW28774   2.512   1.393  12.929 -0.1924  0.1983  0.3565
 5772SOL    HW128775   2.581   1.417  12.990  0.2331 -0.1594  0.0100
 5772SOL    HW228776   2.455   1.466  12.953  1.1548  1.3910 -0.0547
 5773SOL     OW28777   4.366   2.060   3.583 -0.5204 -0.4150 -0.0396
 5773SOL    HW128778   4.351   1.970   3.611  0.7511 -0.4629  0.4610
 5773SOL    HW228779   4.397   2.090   3.669 -0.4179  0.8540 -0.5259
 5774SOL     OW28780   1.560   3.129  14.225 -0.7634  0.2487  0.8751
 5774SOL    HW128781   1.560   3.177  14.142 -3.1534  0.0251  0.7685
 5774SOL    HW228782   1.469   3.131  14.253 -2.3891 -2.6090 -4.3679
 5775SOL     OW28783   1.486   2.558   5.409 -0.0597 -0.5921  0.0397
 5775SOL    HW128784   1.407   2.511   5.438 -1.2172  0.2255 -1.7562
 5775SOL    HW228785   1.454   2.614   5.338 -1.2604 -0.5636  0.6008
 5776SOL     OW28786   3.131   1.461  13.067  0.2860  0.1265  0.4179
 5776SOL    HW128787   3.122   1.536  13.009 -0.2578 -0.7573 -0.6674
 5776SOL    HW228788   3.155   1.394  13.002 -1.3188 -0.5228  0.4791
 5777SOL     OW28789   4.307   0.790   1.390 -0.0962 -0.5522 -1.0121
 5777SOL    HW128790   4.292   0.822   1.479 -1.1739 -1.1857 -0.9651
 5777SOL    HW228791   4.396   0.824   1.382  0.1962 -1.4534 -1.5636
 5778SOL     OW28792   0.933   4.159  16.124 -0.4599 -0.4343  0.1164
 5778SOL    HW128793   1.022   4.129  16.103 -1.0243 -1.1133 -1.3009
 5778SOL    HW228794   0.911   4.227  16.062 -0.0709 -1.1778 -0.8412
 5779SOL     OW28795   0.478   1.797  16.270 -0.2549  0.4040  0.0920
 5779SOL    HW128796   0.567   1.766  16.253 -0.0661  1.1988 -0.3653
 5779SOL    HW228797   0.452   1.816  16.180 -1.5378 -0.2877  0.3145
 5780SOL     OW28798   1.590   1.830  13.541  0.0359  0.0080  0.0278
 5780SOL    HW128799   1.512   1.885  13.544 -0.9719 -1.3685 -0.5552
 5780SOL    HW228800   1.563   1.751  13.493 -2.1167  0.6584  0.1542
 5781SOL     OW28801   2.127   1.827   7.618 -0.0497 -0.1660  0.2664
 5781SOL    HW128802   2.138   1.889   7.546 -0.5013  0.4252  0.7020
 5781SOL    HW228803   2.180   1.760   7.574 -0.3760 -1.4497  1.8638
 5782SOL     OW28804   2.511   0.549  12.027 -0.2700 -0.2077  0.4557
 5782SOL    HW128805   2.566   0.472  12.015 -0.5001 -0.3925  0.5987
 5782SOL    HW228806   2.569   0.625  12.020 -1.3736  0.5791 -0.1700
 5783SOL     OW28807   4.396   2.092  14.194 -0.2368 -0.2482 -0.1348
 5783SOL    HW128808   4.388   2.004  14.230  0.4785 -0.6777 -1.0442
 5783SOL    HW228809   4.484   2.093  14.157 -1.0582 -2.4596 -2.1691
 5784SOL     OW28810   4.127   1.161  11.364  0.3258  0.5454 -0.0822
 5784SOL    HW128811   4.210   1.208  11.360 -1.2347  3.2265 -1.3732
 5784SOL    HW228812   4.076   1.225  11.413 -0.9956 -0.2878 -0.3734
 5785SOL     OW28813   1.435   0.091  14.681  0.4816  0.1280 -0.2592
 5785SOL    HW128814   1.513   0.142  14.706  0.0345  0.4514  0.4584
 5785SOL    HW228815   1.477   0.010  14.651 -0.9879 -0.4686 -0.6672
 5786SOL     OW28816   0.022   4.167   1.049  0.1919 -0.8632 -0.5696
 5786SOL    HW128817   0.089   4.235   1.054  0.0083 -0.6880 -0.5201
 5786SOL    HW228818   0.022   4.158   0.953  0.0976  1.4216 -0.7823
 5787SOL     OW28819   4.144   1.516  13.095  0.6049 -0.0879 -0.0586
 5787SOL    HW128820   4.179   1.603  13.114  0.3249  0.2262 -1.0148
 5787SOL    HW228821   4.053   1.525  13.066  0.8672 -1.1728 -1.2048
 5788SOL     OW28822   1.332   0.158   4.034  0.0942 -0.2237 -0.1511
 5788SOL    HW128823   1.403   0.153   4.097 -0.0819  2.0885  0.2481
 5788SOL    HW228824   1.361   0.232   3.980  0.9722 -0.6697 -0.2854
 5789SOL     OW28825   4.210   2.892   2.189 -0.0297  0.2305  0.4785
 5789SOL    HW128826   4.263   2.876   2.110 -1.1892  0.2554 -0.3018
 5789SOL    HW228827   4.260   2.952   2.244  0.1626  0.0108  0.5436
 5790SOL     OW28828   0.598   3.540   6.652 -0.1028  0.2667 -0.2289
 5790SOL    HW128829   0.515   3.589   6.655  1.6506  3.0641  1.9355
 5790SOL    HW228830   0.575   3.475   6.585 -0.2805  1.3880 -1.2651
 5791SOL     OW28831   0.103   2.360   2.098  0.2924 -0.4553 -0.2782
 5791SOL    HW128832   0.082   2.372   2.191  0.6435 -0.9665 -0.1293
 5791SOL    HW228833   0.028   2.406   2.061 -1.0542 -1.0062  1.7873
 5792SOL     OW28834   1.319   0.766   5.938 -0.0024 -0.4018  0.1331
 5792SOL    HW128835   1.405   0.731   5.917  0.7695  0.9313  1.1034
 5792SOL    HW228836   1.281   0.781   5.851  0.8583 -0.3742 -0.2373
 5793SOL     OW28837   2.413   0.916  12.167  0.3206  0.1062 -0.1772
 5793SOL    HW128838   2.362   0.988  12.130  0.7924  2.1905  3.1963
 5793SOL    HW228839   2.443   0.875  12.086 -0.4218  0.3065 -0.5528
 5794SOL     OW28840   1.412   3.192  15.356  0.4536 -0.1482  0.1093
 5794SOL    HW128841   1.329   3.239  15.347  0.6186  0.1040 -0.1072
 5794SOL    HW228842   1.443   3.171  15.269 -1.7511  2.7684 -1.3845
 5795SOL     OW28843   4.645   0.581   0.915 -0.3057 -0.3506 -0.0251
 5795SOL    HW128844   0.002   0.586   0.859 -1.3012  0.9483 -1.2991
 5795SOL    HW228845   4.673   0.505   0.967 -0.6309 -2.6962 -3.2240
 5796SOL     OW28846   0.396   4.446   0.962 -0.7199 -0.2946 -0.1572
 5796SOL    HW128847   0.465   4.456   1.027 -1.1415  0.8332  0.1196
 5796SOL    HW228848   0.316   4.471   1.009 -1.0384 -1.4587 -0.0692
 5797SOL     OW28849   3.413   1.078   2.455  0.1344 -0.9751 -0.6896
 5797SOL    HW128850   3.431   1.019   2.382 -0.7615 -2.0135 -0.0773
 5797SOL    HW228851   3.503   1.086   2.487  0.1623  2.2343 -1.6352
 5798SOL     OW28852   0.680   4.714   5.570 -0.0728  0.1000 -0.0157
 5798SOL    HW128853   0.639   0.069   5.613  1.9240  0.7662  0.7238
 5798SOL    HW228854   0.681   0.014   5.477 -0.0334 -0.8388 -0.2170
 5799SOL     OW28855   0.722   4.156   0.708 -0.5094 -0.1934  0.3295
 5799SOL    HW128856   0.769   4.136   0.789 -1.4075 -0.1347  0.8696
 5799SOL    HW228857   0.673   4.075   0.698  1.5318 -1.3978  0.1269
 5800SOL     OW28858   0.568   3.182   9.918 -0.5802  0.0001 -0.0225
 5800SOL    HW128859   0.502   3.220   9.860  3.2300  2.2127 -2.9752
 5800SOL    HW228860   0.643   3.241   9.912 -0.1970 -0.7913 -3.1238
 5801SOL     OW28861   1.798   3.500  11.395  0.2977  0.4490  0.1005
 5801SOL    HW128862   1.805   3.418  11.445 -1.5346 -0.1341 -0.5779
 5801SOL    HW228863   1.837   3.463  11.315  0.5572 -0.6316  0.7151
 5802SOL     OW28864   3.855   2.507   6.864 -0.5307 -0.4534 -0.0607
 5802SOL    HW128865   3.780   2.503   6.923  0.2144 -0.0719  0.9198
 5802SOL    HW228866   3.839   2.594   6.828 -1.5724 -0.7384 -0.2770
 5803SOL     OW28867   0.427   3.304  12.959  0.1777 -0.3761  0.4960
 5803SOL    HW128868   0.411   3.310  13.053 -3.2162 -1.9234  0.0295
 5803SOL    HW228869   0.396   3.390  12.930  3.9508  0.3596 -1.3496
 5804SOL     OW28870   3.001   3.270   7.397 -0.0997 -0.2376  0.1748
 5804SOL    HW128871   2.985   3.358   7.364 -1.6018 -1.1821 -1.6107
 5804SOL    HW228872   2.915   3.246   7.432 -1.1615  2.7483 -0.4287
 5805SOL     OW28873   1.588   0.775  14.808 -0.2387  0.3592  0.3395
 5805SOL    HW128874   1.620   0.687  14.788 -0.2160 -0.1547  2.7282
 5805SOL    HW228875   1.658   0.840  14.807 -0.0411  0.1465  0.2989
 5806SOL     OW28876   0.905   2.938   9.635 -0.1330 -0.2787 -0.0729
 5806SOL    HW128877   0.984   2.965   9.587 -0.1006  1.4741  0.9733
 5806SOL    HW228878   0.892   2.846   9.613  2.1808 -0.5872 -0.1928
 5807SOL     OW28879   0.152   1.864   3.448  0.1494 -0.4415 -0.2634
 5807SOL    HW128880   0.148   1.882   3.354  0.4114  1.2272  0.0538
 5807SOL    HW228881   0.164   1.769   3.440  1.4288 -0.2440 -0.7044
 5808SOL     OW28882   2.977   1.113  10.348  0.4659  0.0977 -0.1738
 5808SOL    HW128883   2.968   1.178  10.279  1.8025  0.6756  0.2015
 5808SOL    HW228884   3.071   1.121  10.367  0.2345  1.2219  0.4858
 5809SOL     OW28885   4.506   1.641   4.590 -0.5436  0.6159  0.4975
 5809SOL    HW128886   4.574   1.705   4.569 -0.1774 -0.7919 -2.5633
 5809SOL    HW228887   4.567   1.569   4.604  0.5887  1.5857  0.4663
 5810SOL     OW28888   3.342   3.709   4.524 -0.0093 -0.0883 -0.5823
 5810SOL    HW128889   3.409   3.644   4.506 -0.7882 -0.8614 -0.6712
 5810SOL    HW228890   3.279   3.675   4.461  1.0847 -2.2222 -0.5019
 5811SOL     OW28891   0.502   1.044   2.295 -0.0501 -0.6574 -0.2115
 5811SOL    HW128892   0.594   1.049   2.321 -0.2615 -0.0082  0.3858
 5811SOL    HW228893   0.469   1.123   2.337 -0.7164 -1.7560  1.3190
 5812SOL     OW28894   0.463   3.797   5.640  0.2716  0.0293  0.2417
 5812SOL    HW128895   0.461   3.701   5.648  1.0470  0.1345  1.6408
 5812SOL    HW228896   0.449   3.819   5.732 -1.0410  1.0541 -0.1896
 5813SOL     OW28897   1.855   2.369   6.917 -0.1595 -0.5237 -0.1154
 5813SOL    HW128898   1.899   2.327   6.843 -0.0043  2.0157 -1.4543
 5813SOL    HW228899   1.927   2.390   6.977 -0.6110  1.2567 -0.2014
 5814SOL     OW28900   2.695   3.010   6.330  0.0194 -0.6446 -0.0164
 5814SOL    HW128901   2.617   3.060   6.307  0.2957  0.4285  1.3987
 5814SOL    HW228902   2.679   2.919   6.303 -0.9611 -0.6932  0.7345
 5815SOL     OW28903   0.395   0.491   9.579  0.1788  0.0306 -0.1471
 5815SOL    HW128904   0.425   0.415   9.529 -2.6649 -0.3402 -1.3161
 5815SOL    HW228905   0.312   0.455   9.610  0.3377  0.2693  0.5404
 5816SOL     OW28906   3.509   3.434  11.451  0.4051  0.1076  0.3234
 5816SOL    HW128907   3.428   3.475  11.422  1.2328  0.3139 -1.6472
 5816SOL    HW228908   3.511   3.356  11.396  2.4678  1.2641 -1.2105
 5817SOL     OW28909   3.059   3.634  11.895  0.7510 -0.3118 -0.4510
 5817SOL    HW128910   3.000   3.658  11.823  1.3855  0.5003 -0.7081
 5817SOL    HW228911   3.124   3.702  11.872 -0.4783  1.2307  0.6214
 5818SOL     OW28912   1.878   0.499  16.808  0.0246  0.0466  0.1278
 5818SOL    HW128913   1.812   0.543  16.862  0.6270  0.3836  0.5889
 5818SOL    HW228914   1.940   0.570  16.791 -0.1975 -0.3033 -2.1852
 5819SOL     OW28915   1.247   2.290   9.249 -0.8295  0.4689  0.6491
 5819SOL    HW128916   1.181   2.241   9.299 -1.4223  1.0969  0.4763
 5819SOL    HW228917   1.263   2.228   9.177 -1.6664 -0.8622  1.6049
 5820SOL     OW28918   4.225   4.627   5.252  0.5246  0.6510  0.1387
 5820SOL    HW128919   4.306   4.677   5.249  1.7654 -1.2556  2.1983
 5820SOL    HW228920   4.253   4.554   5.197 -0.8040 -0.0448  0.3770
 5821SOL     OW28921   2.302   4.427   2.831 -0.0602 -0.5436 -0.5064
 5821SOL    HW128922   2.244   4.351   2.839  1.1609 -1.3109  1.0337
 5821SOL    HW228923   2.370   4.370   2.795 -1.9940 -2.4378 -1.1823
 5822SOL     OW28924   0.802   1.593   7.821 -0.1076 -0.1351 -0.3565
 5822SOL    HW128925   0.813   1.577   7.914  1.4304  0.2402 -0.4693
 5822SOL    HW228926   0.740   1.666   7.822  0.5949  0.5170 -3.3739
 5823SOL     OW28927   0.484   1.471   4.153  0.3907 -0.5821 -0.2233
 5823SOL    HW128928   0.578   1.452   4.154  0.2303 -1.3962 -1.1231
 5823SOL    HW228929   0.487   1.555   4.108 -0.2924  0.7112  2.1171
 5824SOL     OW28930   4.641   2.586   6.070 -0.4248  0.1360  0.1391
 5824SOL    HW128931   4.626   2.679   6.052  0.7995  0.3944  0.4507
 5824SOL    HW228932   4.574   2.580   6.139 -0.5552 -1.7725 -0.1566
 5825SOL     OW28933   1.366   0.410   8.599 -0.1383 -0.1080 -0.4789
 5825SOL    HW128934   1.405   0.363   8.525 -3.2270 -0.7693 -1.6989
 5825SOL    HW228935   1.440   0.460   8.631 -0.3283  0.5563 -1.0549
 5826SOL     OW28936   2.605   0.434   1.282  0.1034  0.2126  0.0357
 5826SOL    HW128937   2.679   0.467   1.230 -1.3396 -0.9102 -2.7534
 5826SOL    HW228938   2.589   0.360   1.224 -0.4423  1.0544 -0.8917
 5827SOL     OW28939   2.549   1.494   0.402  0.2045 -0.1715 -0.3736
 5827SOL    HW128940   2.550   1.587   0.422  1.5995 -0.0360 -1.0836
 5827SOL    HW228941   2.635   1.492   0.360  0.4434 -0.2250  0.1226
 5828SOL     OW28942   3.222   0.346   2.076 -0.3246 -0.0097 -0.1442
 5828SOL    HW128943   3.309   0.342   2.036  0.2376 -0.7614  1.1483
 5828SOL    HW228944   3.219   0.265   2.128 -1.4587 -1.1658 -1.9854
 5829SOL     OW28945   2.471   4.423   3.287 -0.1352 -0.0733  0.1436
 5829SOL    HW128946   2.432   4.375   3.359 -1.9945  0.0114 -0.8026
 5829SOL    HW228947   2.481   4.355   3.220  0.4241 -1.0707  1.2461
 5830SOL     OW28948   0.191   0.804  16.536  0.5543  0.2492 -0.3240
 5830SOL    HW128949   0.284   0.809  16.558  0.0218 -0.1506  2.1362
 5830SOL    HW228950   0.168   0.891  16.567  1.7702  0.7265 -0.7581
 5831SOL     OW28951   4.013   4.207  15.053  0.0972  0.2205  0.1899
 5831SOL    HW128952   4.082   4.258  15.010 -0.2268  0.9859  0.5814
 5831SOL    HW228953   4.064   4.132  15.084  0.5307  0.2626 -0.4260
 5832SOL     OW28954   0.937   4.572   5.400 -0.1367  0.0398 -0.3392
 5832SOL    HW128955   1.024   4.541   5.373  0.0189  0.4174 -0.2814
 5832SOL    HW228956   0.957   4.654   5.447  0.2392  0.3751 -1.0870
 5833SOL     OW28957   3.935   2.333   0.402  0.4454  0.2370  0.7363
 5833SOL    HW128958   3.863   2.391   0.427  1.4914  1.1323  1.6604
 5833SOL    HW228959   3.947   2.282   0.482  1.2584  0.0174  0.4705
 5834SOL     OW28960   1.391   0.963   4.037  0.0833  0.5306  0.3902
 5834SOL    HW128961   1.358   1.004   4.117  2.3698  2.7460  0.2107
 5834SOL    HW228962   1.315   0.910   4.012 -0.8580  2.1586 -0.2374
 5835SOL     OW28963   3.731   1.880   3.914 -0.0692  0.2030  0.0320
 5835SOL    HW128964   3.676   1.958   3.904 -2.6395 -1.5832  0.3466
 5835SOL    HW228965   3.663   1.816   3.931  0.2307 -0.3432 -0.7950
 5836SOL     OW28966   0.573   0.484  12.532 -0.0631  0.5066  0.3926
 5836SOL    HW128967   0.660   0.522  12.535  0.5500 -0.8924  0.6317
 5836SOL    HW228968   0.536   0.529  12.456 -0.1112 -0.2992 -0.0653
 5837SOL     OW28969   4.087   0.088   5.609  0.0845 -0.4200 -0.1043
 5837SOL    HW128970   4.016   0.141   5.646 -0.7432 -2.9791  1.9863
 5837SOL    HW228971   4.065   0.085   5.516  1.7727 -1.1575 -0.4667
 5838SOL     OW28972   1.390   4.402   7.194 -0.2489 -0.2401 -0.1386
 5838SOL    HW128973   1.423   4.312   7.194  0.8577  0.1615 -0.9204
 5838SOL    HW228974   1.395   4.426   7.286 -0.9139 -0.0118 -0.1620
 5839SOL     OW28975   3.741   2.030   8.069  0.3624  0.2426  0.1101
 5839SOL    HW128976   3.728   2.046   8.162  0.0653 -1.4490  0.3608
 5839SOL    HW228977   3.655   1.990   8.051  1.3315 -1.3774 -0.8760
 5840SOL     OW28978   2.634   2.815  10.602 -0.2139  0.2390  0.0170
 5840SOL    HW128979   2.625   2.720  10.605 -1.9597  0.3241 -2.5823
 5840SOL    HW228980   2.726   2.834  10.581  0.2453 -0.1790  1.6379
 5841SOL     OW28981   0.214   1.681   9.655  0.3981  0.5321  0.6900
 5841SOL    HW128982   0.285   1.739   9.681  0.1267  1.5431 -0.8945
 5841SOL    HW228983   0.187   1.731   9.578  1.7102  0.4786  0.1968
 5842SOL     OW28984   2.117   3.854   8.300  0.0740 -0.8708 -0.0824
 5842SOL    HW128985   2.197   3.870   8.350  0.2505  1.3478 -1.0906
 5842SOL    HW228986   2.059   3.917   8.342  0.0610  0.2541 -1.7882
 5843SOL     OW28987   2.186   2.133   3.316 -0.6506 -0.0859  0.3052
 5843SOL    HW128988   2.175   2.146   3.410 -0.2368  0.4789  0.2782
 5843SOL    HW228989   2.155   2.219   3.287 -0.6797 -0.3370 -0.4121
 5844SOL     OW28990   3.584   1.631   8.851 -0.0759 -0.5346 -0.4907
 5844SOL    HW128991   3.558   1.651   8.941 -2.2898  0.1877 -1.2792
 5844SOL    HW228992   3.662   1.582   8.876  0.8851 -0.0626 -2.5133
 5845SOL     OW28993   0.488   3.716   6.025 -0.2030 -0.6240  0.4164
 5845SOL    HW128994   0.461   3.659   5.953  0.1339 -0.2277 -0.0247
 5845SOL    HW228995   0.435   3.662   6.084  0.1041 -0.5564  0.7559
 5846SOL     OW28996   2.929   3.868   9.821 -0.7575  0.1085 -0.8625
 5846SOL    HW128997   2.929   3.953   9.776 -1.0912  0.0888 -0.9038
 5846SOL    HW228998   2.850   3.868   9.876  1.0017  1.3069  1.6863
 5847SOL     OW28999   4.328   2.378   0.409 -0.1387  0.0206 -0.3302
 5847SOL    HW129000   4.259   2.435   0.444 -2.3161 -0.6324 -3.5692
 5847SOL    HW229001   4.319   2.316   0.482  1.0549  0.3313  0.0836
 5848SOL     OW29002   3.734   0.616  13.772  0.1891  0.6681 -0.2837
 5848SOL    HW129003   3.812   0.600  13.719 -0.7501  0.4426 -1.6096
 5848SOL    HW229004   3.696   0.696  13.735 -0.5715  0.3302 -0.2170
 5849SOL     OW29005   3.457   2.585  15.201  0.1983 -0.1749 -0.0707
 5849SOL    HW129006   3.426   2.550  15.117 -0.9630  2.2947 -0.6536
 5849SOL    HW229007   3.433   2.506  15.249  3.7536  0.4456  2.7406
 5850SOL     OW29008   2.797   3.511   8.526 -0.0282  0.3199  0.1246
 5850SOL    HW129009   2.878   3.479   8.567 -0.1931  0.3057  0.4379
 5850SOL    HW229010   2.737   3.438   8.536  0.5565 -0.3071 -0.9020
 5851SOL     OW29011   1.645   2.224  12.738 -0.2847  0.0292 -0.1582
 5851SOL    HW129012   1.709   2.257  12.675 -0.6246 -0.3328 -0.6941
 5851SOL    HW229013   1.684   2.142  12.770  1.5408  0.7935 -0.4109
 5852SOL     OW29014   4.222   4.483  13.481  0.2554 -0.0605 -0.5755
 5852SOL    HW129015   4.317   4.484  13.467  0.1858  2.4344 -0.8816
 5852SOL    HW229016   4.184   4.406  13.439  0.0434 -1.8195  2.8450
 5853SOL     OW29017   1.934   2.125  11.360 -0.2667  0.3176 -0.0256
 5853SOL    HW129018   1.859   2.082  11.319  0.0549 -0.3172  0.0441
 5853SOL    HW229019   2.006   2.124  11.297  1.0165 -1.0648  1.4637
 5854SOL     OW29020   2.525   1.120   2.711  0.3400 -0.4917 -0.5760
 5854SOL    HW129021   2.555   1.183   2.646 -1.4786 -0.2415 -1.1632
 5854SOL    HW229022   2.515   1.036   2.667 -0.2421  0.4431 -2.2389
 5855SOL     OW29023   0.933   0.611   2.946 -0.4250  0.4437  0.6965
 5855SOL    HW129024   0.985   0.543   2.904  0.6811  0.8451  1.4401
 5855SOL    HW229025   0.873   0.565   3.005 -2.4667 -0.3807 -2.0027
 5856SOL     OW29026   1.080   2.281   4.792 -0.0004  0.0798  0.2142
 5856SOL    HW129027   1.162   2.231   4.780 -0.0311  0.0566  0.1033
 5856SOL    HW229028   1.017   2.217   4.759  0.3065  0.3366 -0.8402
 5857SOL     OW29029   3.443   0.653   2.052 -0.4432 -0.5292  0.1258
 5857SOL    HW129030   3.377   0.600   2.097 -0.2923 -1.0270 -0.2378
 5857SOL    HW229031   3.404   0.665   1.965  1.6012  0.6289 -0.6238
 5858SOL     OW29032   1.852   0.074  14.476  0.9157 -0.5555 -0.0381
 5858SOL    HW129033   1.868   0.163  14.443  1.3652 -0.9867 -0.9883
 5858SOL    HW229034   1.834   0.086  14.569  1.6823  1.8869 -0.2090
 5859SOL     OW29035   2.788   1.416   6.535 -0.4600  0.0160 -0.0645
 5859SOL    HW129036   2.734   1.486   6.573 -0.4133 -0.8629  1.6515
 5859SOL    HW229037   2.869   1.462   6.512  1.2370 -2.5072  0.8571
 5860SOL     OW29038   2.661   3.692   6.751 -0.3183  0.3573 -0.5943
 5860SOL    HW129039   2.714   3.628   6.704  3.2379  0.9531  2.6183
 5860SOL    HW229040   2.685   3.669   6.841  1.5257 -1.9441 -1.6939
 5861SOL     OW29041   3.901   3.166  11.051  0.7374  0.0774 -0.0422
 5861SOL    HW129042   3.943   3.163  10.965 -0.9118 -0.9123 -0.8222
 5861SOL    HW229043   3.956   3.233  11.091 -0.1539  1.1266 -0.5640
 5862SOL     OW29044   3.139   4.381   6.794  0.8048  0.0115 -0.2990
 5862SOL    HW129045   3.130   4.475   6.778  2.2206  0.2497  0.2551
 5862SOL    HW229046   3.234   4.369   6.788  0.4474 -2.2057 -1.2181
 5863SOL     OW29047   1.081   4.005   8.195 -0.3119  0.2686 -0.4410
 5863SOL    HW129048   1.042   4.089   8.173 -0.1507  0.8844  1.6066
 5863SOL    HW229049   1.022   3.949   8.145  0.2019 -1.0624  0.4223
 5864SOL     OW29050   1.905   4.465   1.416 -0.1267 -0.3472 -0.1181
 5864SOL    HW129051   1.941   4.516   1.489  1.4608 -1.2257 -0.2911
 5864SOL    HW229052   1.821   4.508   1.402  0.0165  0.0698  0.2919
 5865SOL     OW29053   3.844   4.412  10.263 -0.3282 -0.0420  0.6898
 5865SOL    HW129054   3.778   4.479  10.281  0.5275 -0.0233  3.7751
 5865SOL    HW229055   3.815   4.397  10.174  0.9349  0.9224  0.1056
 5866SOL     OW29056   3.839   0.599   8.649 -0.1769  0.2236 -0.2040
 5866SOL    HW129057   3.888   0.680   8.658 -0.5038  0.7710 -3.2175
 5866SOL    HW229058   3.905   0.530   8.640  0.4989  0.5249  2.3366
 5867SOL     OW29059   0.036   2.907   7.555  0.0163  0.1648 -0.5068
 5867SOL    HW129060   0.079   2.841   7.499 -0.2173 -0.9559  0.6334
 5867SOL    HW229061   0.111   2.923   7.612  0.5158 -1.7006 -0.6179
 5868SOL     OW29062   3.328   3.210   3.235 -0.1644 -0.0429  0.0331
 5868SOL    HW129063   3.339   3.277   3.168  2.1866 -1.1572 -0.6892
 5868SOL    HW229064   3.398   3.224   3.299 -1.2232 -0.6642  1.3451
 5869SOL     OW29065   3.304   0.741  12.074  0.2203 -0.3357  0.6297
 5869SOL    HW129066   3.238   0.763  12.008 -0.2855 -0.2983  1.1477
 5869SOL    HW229067   3.383   0.780  12.036 -1.6172  0.9263 -1.8654
 5870SOL     OW29068   0.380   2.119   8.774  0.0288  0.1704  0.1220
 5870SOL    HW129069   0.382   2.025   8.791 -0.8319  0.3184  1.0061
 5870SOL    HW229070   0.319   2.125   8.700  0.0423 -0.7307  0.0392
 5871SOL     OW29071   1.520   2.014  12.575 -0.1812 -0.5195  0.4106
 5871SOL    HW129072   1.428   2.038  12.583 -0.0204 -0.3725  1.8721
 5871SOL    HW229073   1.561   2.064  12.645 -1.6835  0.0497  0.8835
 5872SOL     OW29074   4.234   1.974   7.541  0.0915  0.2621  0.3615
 5872SOL    HW129075   4.301   2.042   7.545 -0.0063  0.1607  3.0960
 5872SOL    HW229076   4.172   2.014   7.601  0.1025  0.8422 -0.0090
 5873SOL     OW29077   1.237   3.900  14.074 -0.1964 -0.0535 -0.3624
 5873SOL    HW129078   1.241   3.991  14.102 -1.0883 -1.0867  3.0668
 5873SOL    HW229079   1.328   3.871  14.069  0.6409  1.8828  4.1062
 5874SOL     OW29080   1.369   3.286   1.846  0.9545 -0.0430 -0.4411
 5874SOL    HW129081   1.369   3.342   1.768 -0.9705  0.9490  0.2602
 5874SOL    HW229082   1.445   3.230   1.832  1.5996  0.8454 -0.5238
 5875SOL     OW29083   2.823   2.770   4.072  0.3692  1.3270 -0.6311
 5875SOL    HW129084   2.740   2.761   4.119 -0.0290 -0.1902 -1.6496
 5875SOL    HW229085   2.847   2.678   4.073 -0.2277  1.1543 -1.9426
 5876SOL     OW29086   2.437   3.159  16.650  0.2082  0.2633 -0.3341
 5876SOL    HW129087   2.367   3.093  16.647  0.4033  0.0387  0.1334
 5876SOL    HW229088   2.442   3.197  16.562  1.3462 -0.2678 -0.4895
 5877SOL     OW29089   3.117   3.816   3.363 -0.1580 -0.4236 -0.2793
 5877SOL    HW129090   3.025   3.797   3.384 -0.3205  2.1384  1.3223
 5877SOL    HW229091   3.156   3.831   3.449 -1.4242 -1.8872  0.5586
 5878SOL     OW29092   0.331   2.822   8.752  0.1409  0.3073  0.4381
 5878SOL    HW129093   0.387   2.850   8.680  0.7333  0.0556  0.8006
 5878SOL    HW229094   0.364   2.879   8.822 -1.3692  3.1194 -1.1306
 5879SOL     OW29095   3.069   4.158  10.435 -0.1778 -0.3088  0.3490
 5879SOL    HW129096   3.100   4.233  10.486 -1.6881 -0.9859  2.2957
 5879SOL    HW229097   3.141   4.098  10.456  0.4956  0.3839  0.0088
 5880SOL     OW29098   0.952   4.028  17.071  0.3565 -0.0051  0.4357
 5880SOL    HW129099   1.027   4.053  17.125  1.8636  0.7526 -2.0001
 5880SOL    HW229100   0.890   4.088  17.112 -0.1968  0.0036 -0.4047
 5881SOL     OW29101   3.230   3.968   9.605 -0.2466 -0.0036  0.5900
 5881SOL    HW129102   3.230   3.874   9.624 -0.5802 -0.0433  0.4089
 5881SOL    HW229103   3.183   4.004   9.680  0.3013  1.9888 -0.0489
 5882SOL     OW29104   2.939   0.967   5.769 -0.1785 -0.1488  0.6455
 5882SOL    HW129105   3.004   1.037   5.770 -1.7138  1.2706  1.6407
 5882SOL    HW229106   2.882   1.003   5.837  0.2700 -0.2631  1.0795
 5883SOL     OW29107   1.187   1.141   5.096 -0.5479 -0.4362  0.0678
 5883SOL    HW129108   1.127   1.215   5.106  3.7936  3.1609 -0.5747
 5883SOL    HW229109   1.127   1.079   5.137 -0.7077 -0.3899 -0.1003
 5884SOL     OW29110   2.084   3.608  12.838  0.0628  0.0436  0.3935
 5884SOL    HW129111   2.019   3.669  12.805  0.7924  1.3394  1.3452
 5884SOL    HW229112   2.052   3.591  12.926 -0.7906 -0.2124  0.0326
 5885SOL     OW29113   0.254   4.235  16.610 -0.0075 -0.8227  0.3870
 5885SOL    HW129114   0.324   4.190  16.657  2.3293  2.7977  0.3821
 5885SOL    HW229115   0.286   4.236  16.519  0.5096  2.5216  0.5795
 5886SOL     OW29116   4.290   1.018   3.999 -0.5431 -0.0316 -0.2556
 5886SOL    HW129117   4.212   1.050   3.953  0.5495  0.5290 -1.7213
 5886SOL    HW229118   4.252   0.958   4.063  2.4603 -1.3851  0.2622
 5887SOL     OW29119   3.786   0.267   6.325  0.1705 -0.2264  0.4174
 5887SOL    HW129120   3.707   0.215   6.339 -1.0509  1.2251 -1.0816
 5887SOL    HW229121   3.770   0.298   6.236  2.0786  1.1303  0.5457
 5888SOL     OW29122   3.438   2.386   6.825 -0.1723 -0.4132 -0.3447
 5888SOL    HW129123   3.427   2.398   6.731 -0.9636 -0.0433 -0.2058
 5888SOL    HW229124   3.463   2.294   6.822 -0.7349 -0.6203  1.4969
 5889SOL     OW29125   0.103   4.176   3.867  0.0555 -0.6146 -0.1135
 5889SOL    HW129126   0.025   4.219   3.833  0.9731 -1.5272 -3.3757
 5889SOL    HW229127   0.059   4.101   3.907 -2.8373  2.2791  2.0780
 5890SOL     OW29128   3.333   2.926  11.004  0.0616  0.5707  0.7927
 5890SOL    HW129129   3.238   2.919  10.996  0.1630  1.3901 -1.1323
 5890SOL    HW229130   3.327   2.995  11.070 -2.7145  1.0185  0.0682
 5891SOL     OW29131   0.209   3.922  16.386  0.4177 -0.3584  0.7920
 5891SOL    HW129132   0.146   3.924  16.458 -0.9251 -1.6422 -0.3494
 5891SOL    HW229133   0.293   3.905  16.427  2.4891  2.4092 -2.3376
 5892SOL     OW29134   3.810   3.291   5.120  0.2678 -0.2468  0.3789
 5892SOL    HW129135   3.884   3.279   5.179 -0.3631 -0.7135  1.0804
 5892SOL    HW229136   3.831   3.241   5.041 -0.5625 -0.5800  0.3676
 5893SOL     OW29137   1.959   2.980   5.246 -0.2615 -0.6440  0.4215
 5893SOL    HW129138   2.052   2.967   5.230 -0.0891 -3.1836  3.4157
 5893SOL    HW229139   1.960   3.058   5.302  0.5062  1.3532 -2.3727
 5894SOL     OW29140   1.313   0.748  16.163 -0.2536  0.6187  0.1946
 5894SOL    HW129141   1.293   0.825  16.216  0.8525  0.6136  0.6275
 5894SOL    HW229142   1.293   0.775  16.073 -1.4225  0.8174  0.5163
 5895SOL     OW29143   3.978   2.567  13.871  0.2374  0.0480  0.9356
 5895SOL    HW129144   3.930   2.503  13.923 -2.4247  0.5651 -0.8962
 5895SOL    HW229145   4.058   2.521  13.846 -0.8346 -1.4710  0.2652
 5896SOL     OW29146   2.093   0.041   0.835  0.0554 -0.6236  0.5360
 5896SOL    HW129147   2.078   0.005   0.748  0.1248  2.2083 -0.6489
 5896SOL    HW229148   2.065   4.687   0.889 -0.4559 -1.3983 -0.7973
 5897SOL     OW29149   1.146   1.016   3.242  0.6742  0.4062  0.0723
 5897SOL    HW129150   1.223   0.960   3.229  2.1204  2.0038  1.6544
 5897SOL    HW229151   1.088   0.980   3.176  0.4266  1.8315 -0.4793
 5898SOL     OW29152   1.325   4.214  12.374  0.3792  0.1358 -0.0770
 5898SOL    HW129153   1.406   4.213  12.323  0.3507 -1.0442 -0.0840
 5898SOL    HW229154   1.360   4.216  12.463 -1.6151 -0.0198  0.7126
 5899SOL     OW29155   2.255   0.508   8.013  0.4672  0.0705  0.2877
 5899SOL    HW129156   2.192   0.542   8.077  0.2116 -0.6980  0.4459
 5899SOL    HW229157   2.243   0.564   7.937  0.4765  0.9829  0.9601
 5900SOL     OW29158   1.751   2.599   3.101  0.2652  0.1873  0.7253
 5900SOL    HW129159   1.772   2.582   3.193  2.1672 -0.7108  0.1381
 5900SOL    HW229160   1.760   2.509   3.068  3.4344 -0.0968  2.3051
 5901SOL     OW29161   4.013   3.061  16.370  0.1509  0.6637 -0.0379
 5901SOL    HW129162   4.009   3.014  16.286  0.3004  3.6894 -1.7157
 5901SOL    HW229163   3.959   3.000  16.419  1.3343 -1.5016 -1.3959
 5902SOL     OW29164   3.919   3.437   9.203  0.2398  0.4488 -0.8836
 5902SOL    HW129165   3.958   3.496   9.267 -2.0129  0.1944  0.7423
 5902SOL    HW229166   3.888   3.361   9.252  0.9973  1.8956  1.8419
 5903SOL     OW29167   0.298   2.669   3.416  0.3507  0.0551 -0.2413
 5903SOL    HW129168   0.236   2.649   3.346 -1.3646  1.1468  0.9573
 5903SOL    HW229169   0.240   2.672   3.492  1.9765 -0.8362  1.0259
 5904SOL     OW29170   2.396   4.019   3.081 -0.3541  0.0543 -0.2441
 5904SOL    HW129171   2.356   4.069   3.153 -0.1199 -0.6330  0.3608
 5904SOL    HW229172   2.397   3.936   3.128  0.3175 -0.3196 -0.9355
 5905SOL     OW29173   3.050   2.572   5.744 -0.0652  0.2980 -0.8569
 5905SOL    HW129174   3.123   2.633   5.735 -0.8266  1.3660  0.1198
 5905SOL    HW229175   3.039   2.561   5.839  1.5922 -2.3576 -0.9713
 5906SOL     OW29176   2.771   2.975   3.259  0.4160  0.3831  0.3420
 5906SOL    HW129177   2.778   2.989   3.353 -0.0450  1.8812  0.1498
 5906SOL    HW229178   2.710   2.901   3.260 -1.6537  2.0988  0.5922
 5907SOL     OW29179   2.168   3.151   7.462  0.0962  0.1861 -0.1170
 5907SOL    HW129180   2.163   3.243   7.436 -0.0731  0.2366  0.1016
 5907SOL    HW229181   2.089   3.120   7.418  0.1660  1.6152 -1.2492
 5908SOL     OW29182   4.654   4.407   8.419  0.1675  0.0409  0.2398
 5908SOL    HW129183   0.008   4.379   8.470 -1.0291 -1.2144  1.2992
 5908SOL    HW229184   4.587   4.383   8.483 -1.3853 -0.9429 -1.7618
 5909SOL     OW29185   2.863   0.220   7.351 -0.2269 -0.0714 -0.1989
 5909SOL    HW129186   2.789   0.172   7.389 -1.5487  1.5914 -0.6337
 5909SOL    HW229187   2.919   0.148   7.322 -2.0374 -1.3558 -0.5227
 5910SOL     OW29188   0.757   1.541   9.098  0.2912  0.1191 -0.0237
 5910SOL    HW129189   0.790   1.525   9.010  0.1692  0.7700 -0.1869
 5910SOL    HW229190   0.720   1.457   9.124  1.3430 -1.2003 -2.8282
 5911SOL     OW29191   2.351   1.358   8.637  0.2221 -0.0809 -0.4698
 5911SOL    HW129192   2.287   1.390   8.574  0.5725 -2.7934 -2.2057
 5911SOL    HW229193   2.322   1.267   8.643  0.5115  0.0029  2.1006
 5912SOL     OW29194   3.945   3.137  10.318 -0.9076 -0.3590  0.2539
 5912SOL    HW129195   3.900   3.189  10.251  1.9717 -0.0114 -1.3978
 5912SOL    HW229196   4.017   3.104  10.265 -0.5300 -0.6105  0.9295
 5913SOL     OW29197   1.376   2.775   9.642  0.0705 -0.0121 -0.2068
 5913SOL    HW129198   1.370   2.865   9.610  0.6432  0.2024  0.2758
 5913SOL    HW229199   1.402   2.730   9.562 -0.6628  0.3248 -0.6391
 5914SOL     OW29200   2.420   3.066   7.469  0.2070  0.1447 -0.3483
 5914SOL    HW129201   2.441   3.151   7.430 -0.3950  1.0353  1.2494
 5914SOL    HW229202   2.325   3.072   7.479  0.1271 -0.2775 -0.8914
 5915SOL     OW29203   1.012   1.833   5.737  0.0220 -0.1920  0.6747
 5915SOL    HW129204   0.931   1.883   5.742  0.6002  0.6013  2.1529
 5915SOL    HW229205   1.083   1.897   5.734  1.6980 -2.1215 -1.0608
 5916SOL     OW29206   0.669   4.402  15.184  0.3880  0.4123  0.2627
 5916SOL    HW129207   0.756   4.439  15.196  0.5687  0.6418 -1.7243
 5916SOL    HW229208   0.692   4.336  15.118  0.5450 -0.0288  0.7565
 5917SOL     OW29209   2.470   0.744   3.254  0.4241 -0.0126  0.1177
 5917SOL    HW129210   2.410   0.774   3.186  0.5394  0.5737  0.2667
 5917SOL    HW229211   2.419   0.768   3.332  2.1915 -1.0439  1.6074
 5918SOL     OW29212   1.591   2.553  11.005  0.1048  0.5115 -0.3577
 5918SOL    HW129213   1.638   2.527  11.084  0.2517 -0.5924 -0.8050
 5918SOL    HW229214   1.538   2.476  10.983  1.9334 -0.4063 -1.5450
 5919SOL     OW29215   3.568   1.698  14.507  0.2279  0.1594  0.1941
 5919SOL    HW129216   3.639   1.652  14.551 -0.0409  1.1843  1.6609
 5919SOL    HW229217   3.512   1.622  14.487 -0.4903  0.7643 -0.0801
 5920SOL     OW29218   3.747   3.626   8.801  0.3281  0.4489 -0.4098
 5920SOL    HW129219   3.720   3.643   8.891 -1.2564  0.8927 -0.9584
 5920SOL    HW229220   3.817   3.567   8.825  0.1656  0.4427  0.0473
 5921SOL     OW29221   0.510   4.573   2.462 -0.5789 -0.4038  0.3571
 5921SOL    HW129222   0.514   4.501   2.400  1.3112 -1.8177  2.0903
 5921SOL    HW229223   0.429   4.618   2.438  0.2977  2.1411  2.1008
 5922SOL     OW29224   2.462   2.168   4.445  0.7777 -0.5080 -0.0105
 5922SOL    HW129225   2.551   2.132   4.451  1.4079  1.1518  0.6480
 5922SOL    HW229226   2.471   2.216   4.363 -2.3583 -2.3548 -1.4185
 5923SOL     OW29227   3.660   1.852   4.962  0.0661  0.2047 -0.6031
 5923SOL    HW129228   3.572   1.817   4.951  1.1671 -2.8582  0.3913
 5923SOL    HW229229   3.696   1.790   5.025 -0.0768 -0.1215 -0.8442
 5924SOL     OW29230   3.228   4.016  10.598 -0.8690 -0.5420  0.2438
 5924SOL    HW129231   3.222   3.937  10.651  1.0461  1.0690  2.8383
 5924SOL    HW229232   3.319   4.043  10.605 -0.9541  0.6074 -3.1004
 5925SOL     OW29233   0.851   1.183   5.045 -0.0892 -0.1895  0.0594
 5925SOL    HW129234   0.847   1.223   4.958  0.7019 -0.6678 -0.1951
 5925SOL    HW229235   0.871   1.257   5.104  0.5667  1.6179 -2.4302
 5926SOL     OW29236   0.097   2.961   5.098  0.2723  0.4169 -0.3120
 5926SOL    HW129237   0.069   2.999   5.181 -0.7605  0.5270 -0.7071
 5926SOL    HW229238   0.099   2.868   5.120  0.3894  0.5252  0.1332
 5927SOL     OW29239   4.170   1.225   2.150  0.0780 -0.1057 -0.2880
 5927SOL    HW129240   4.123   1.153   2.192  0.8854  1.0479  2.5924
 5927SOL    HW229241   4.114   1.222   2.072  1.8316  0.0554 -1.5555
 5928SOL     OW29242   4.406   4.471   2.070 -0.1774  0.0759  0.6809
 5928SOL    HW129243   4.466   4.412   2.024 -0.2390 -0.7577  1.6864
 5928SOL    HW229244   4.363   4.510   1.994 -0.6863 -0.8747  0.4853
 5929SOL     OW29245   3.976   0.365   8.643 -0.1311  0.6438 -0.1276
 5929SOL    HW129246   3.972   0.289   8.584  0.7358 -0.1292  0.8050
 5929SOL    HW229247   4.040   0.335   8.707 -0.1746  0.6455 -0.0824
 5930SOL     OW29248   4.273   3.136  15.589  0.1168  0.2461  0.3947
 5930SOL    HW129249   4.350   3.193  15.589 -0.0886  0.5331  2.0907
 5930SOL    HW229250   4.250   3.126  15.496  0.4342 -0.3057  0.3763
 5931SOL     OW29251   1.408   4.303   3.724 -0.0529 -0.4798 -0.1342
 5931SOL    HW129252   1.383   4.367   3.657  0.0281 -0.0500  0.2490
 5931SOL    HW229253   1.325   4.282   3.768 -0.7394  0.5352 -0.9159
 5932SOL     OW29254   4.294   0.397   6.163 -0.1928 -1.0597 -0.4726
 5932SOL    HW129255   4.263   0.335   6.229  0.7172  0.1946  1.1547
 5932SOL    HW229256   4.373   0.350   6.135 -0.5341 -0.5585 -2.2392
 5933SOL     OW29257   4.292   0.912   1.614 -0.0894 -0.2040  0.1231
 5933SOL    HW129258   4.266   1.001   1.636 -0.2974  0.2049 -1.7194
 5933SOL    HW229259   4.314   0.876   1.700 -0.1066 -0.8644 -0.1492
 5934SOL     OW29260   0.345   3.714   5.194 -0.2413  0.0213 -0.3822
 5934SOL    HW129261   0.408   3.687   5.260 -1.7426 -0.4664  0.8356
 5934SOL    HW229262   0.380   3.798   5.163 -2.2323  1.2776  0.8509
 5935SOL     OW29263   3.827   3.699   6.734 -0.6855  0.5133 -0.8559
 5935SOL    HW129264   3.754   3.762   6.738 -0.4015  0.8198 -0.5243
 5935SOL    HW229265   3.791   3.615   6.761  2.0934 -0.2589  0.3844
 5936SOL     OW29266   1.385   0.003   7.713  0.2599  0.3142  0.3452
 5936SOL    HW129267   1.379   0.042   7.626 -1.2176 -0.1238  0.2468
 5936SOL    HW229268   1.463   4.672   7.694 -0.7992 -0.9979 -0.4475
 5937SOL     OW29269   3.286   4.309   5.319  0.3148  0.2243  0.1583
 5937SOL    HW129270   3.231   4.268   5.386 -1.7904  0.4580 -1.4357
 5937SOL    HW229271   3.304   4.232   5.264  3.7528  2.1063 -1.3276
 5938SOL     OW29272   4.065   0.540  14.004  0.4805  0.2730 -0.3168
 5938SOL    HW129273   4.150   0.580  14.023 -0.5015  0.8107  2.9174
 5938SOL    HW229274   3.999   0.607  14.021 -0.2789 -0.4026 -0.5738
 5939SOL     OW29275   1.164   2.152   3.124  0.2382  0.0048 -0.1391
 5939SOL    HW129276   1.078   2.155   3.081  0.6685 -0.2561 -1.0271
 5939SOL    HW229277   1.179   2.058   3.116  1.6305  0.2416 -0.2891
 5940SOL     OW29278   1.792   2.605  10.067  0.7751  0.0660 -0.2297
 5940SOL    HW129279   1.708   2.651  10.066 -0.0967 -1.5452 -1.6627
 5940SOL    HW229280   1.852   2.678  10.080 -1.0466  1.2015  1.8473
 5941SOL     OW29281   1.735   1.342   7.066  0.4321 -0.2699 -0.2083
 5941SOL    HW129282   1.701   1.359   6.978 -1.5043  1.2560  0.8338
 5941SOL    HW229283   1.659   1.293   7.096 -1.2278  1.7388 -1.0757
 5942SOL     OW29284   1.993   4.655   3.468 -0.2166  0.5994 -0.6174
 5942SOL    HW129285   1.964   4.642   3.378  1.4160  0.7839 -1.1575
 5942SOL    HW229286   2.070   4.710   3.459 -0.6681  1.4256  0.5553
 5943SOL     OW29287   1.365   0.350   6.795 -0.0558  0.0672 -0.0534
 5943SOL    HW129288   1.356   0.258   6.821  0.9997  0.0590  0.2892
 5943SOL    HW229289   1.283   0.386   6.827 -0.8317 -0.2428 -1.6901
 5944SOL     OW29290   1.024   1.447  12.654  0.3858  0.1076  0.2982
 5944SOL    HW129291   1.046   1.489  12.571  1.1731 -3.0351 -1.1013
 5944SOL    HW229292   1.055   1.360  12.628 -3.0918 -0.5548 -1.5991
 5945SOL     OW29293   2.058   0.452   7.101  0.4198  0.7716  0.1883
 5945SOL    HW129294   2.070   0.373   7.154  0.3009 -0.2492 -1.3043
 5945SOL    HW229295   1.973   0.427   7.065  0.3058  1.6833 -0.1738
 5946SOL     OW29296   3.238   1.148   6.331 -0.1403  0.9129 -0.0292
 5946SOL    HW129297   3.247   1.125   6.423  1.5031  0.0253 -0.3927
 5946SOL    HW229298   3.299   1.087   6.288  2.1058  0.9285  3.1088
 5947SOL     OW29299   1.429   1.805   8.283 -0.0678 -0.6654  0.1412
 5947SOL    HW129300   1.378   1.860   8.223 -0.6266  1.3761  2.4982
 5947SOL    HW229301   1.362   1.741   8.307 -1.8046  0.3498 -1.9456
 5948SOL     OW29302   1.925   3.009  14.539  0.0257 -0.2045  0.0937
 5948SOL    HW129303   1.842   3.022  14.494  0.9850 -1.5530 -2.0555
 5948SOL    HW229304   1.896   2.959  14.616  0.6275  0.7552  0.9519
 5949SOL     OW29305   1.085   4.019   5.079 -0.0704 -0.2657 -0.2901
 5949SOL    HW129306   1.141   4.059   5.145 -2.2682  0.6818  1.0103
 5949SOL    HW229307   1.003   4.008   5.126 -1.1088 -0.7566 -2.1919
 5950SOL     OW29308   1.280   4.587   1.250 -0.3504  0.4798 -0.1976
 5950SOL    HW129309   1.276   4.658   1.315 -0.7849  0.6452 -0.4086
 5950SOL    HW229310   1.222   4.627   1.186  0.6010 -0.1567 -1.4682
 5951SOL     OW29311   0.075   0.213   3.337  0.1289  0.1731 -0.1397
 5951SOL    HW129312   0.075   0.284   3.402 -1.3543  1.4095 -1.5144
 5951SOL    HW229313   0.141   0.154   3.374 -0.1436  0.1574  0.3194
 5952SOL     OW29314   4.389   4.666  16.761 -0.4335  0.0606 -0.3870
 5952SOL    HW129315   4.359   0.027  16.802 -1.3038 -0.2282 -0.4582
 5952SOL    HW229316   4.465   4.689  16.708  0.2569  1.2550  1.1116
 5953SOL     OW29317   4.265   2.598  16.393 -0.2802  0.5910  0.6176
 5953SOL    HW129318   4.330   2.659  16.357 -0.1587  0.7489  1.0990
 5953SOL    HW229319   4.272   2.626  16.485 -1.2644 -4.1931  2.1262
 5954SOL     OW29320   3.808   0.463   8.883 -0.6110  0.1177  0.2399
 5954SOL    HW129321   3.800   0.525   8.811  2.9373 -0.5044 -0.7011
 5954SOL    HW229322   3.850   0.390   8.837  1.5573  0.2752  1.9697
 5955SOL     OW29323   2.122   4.628   7.713  0.1938 -0.2069  0.2248
 5955SOL    HW129324   2.063   4.644   7.787  0.2321 -1.4149  0.5107
 5955SOL    HW229325   2.193   4.581   7.757  0.9044  0.2115 -0.4772
 5956SOL     OW29326   0.005   0.539  11.785 -0.0253  0.1426 -0.2615
 5956SOL    HW129327   0.011   0.627  11.747  0.3007  0.5302  0.7032
 5956SOL    HW229328   0.090   0.500  11.761 -0.1250 -0.5507  0.4991
 5957SOL     OW29329   2.105   0.564  17.337 -0.0114  0.2671 -0.4019
 5957SOL    HW129330   2.133   0.654  17.319 -0.5610  0.5162 -0.0245
 5957SOL    HW229331   2.082   0.539  17.248 -0.1577 -0.6053 -0.1185
 5958SOL     OW29332   0.235   3.073  12.794  0.5774 -0.7513  0.6345
 5958SOL    HW129333   0.178   3.009  12.838  0.8381  0.6240  2.9424
 5958SOL    HW229334   0.175   3.099  12.723  1.1802 -1.8035 -0.2630
 5959SOL     OW29335   2.332   0.532  11.074  0.0810  0.0884 -0.6383
 5959SOL    HW129336   2.240   0.543  11.098  1.1299  3.0598  1.8287
 5959SOL    HW229337   2.347   0.444  11.110 -1.3741 -0.2844 -0.9017
 5960SOL     OW29338   0.772   4.530   9.218 -0.1821 -0.0024  0.1239
 5960SOL    HW129339   0.757   4.483   9.136  2.1940 -0.3878 -0.0734
 5960SOL    HW229340   0.768   4.452   9.273  0.8617 -0.4488 -0.4421
 5961SOL     OW29341   2.017   0.608   5.849 -0.2776 -0.5122 -0.1649
 5961SOL    HW129342   2.089   0.545   5.855  0.9020  0.8243 -0.3166
 5961SOL    HW229343   1.937   0.557   5.836 -0.7696 -0.1657  1.5140
 5962SOL     OW29344   1.869   4.352   8.781 -0.3154  0.0910 -0.6384
 5962SOL    HW129345   1.855   4.432   8.832  2.8862 -2.3402  4.0626
 5962SOL    HW229346   1.780   4.337   8.751 -1.4561  2.2858  1.6552
 5963SOL     OW29347   3.145   2.206   9.401 -0.2283 -0.2523  0.9889
 5963SOL    HW129348   3.063   2.222   9.447 -0.4554 -0.7077  0.7472
 5963SOL    HW229349   3.121   2.228   9.311  0.1782 -0.2197  0.8880
 5964SOL     OW29350   3.115   4.276   9.655 -0.6629 -0.0951 -0.3186
 5964SOL    HW129351   3.139   4.222   9.730  1.2211  0.3387 -0.5968
 5964SOL    HW229352   3.095   4.359   9.699  0.9219  0.5432 -0.8030
 5965SOL     OW29353   1.873   3.697   4.282  0.5420 -0.1274 -0.1809
 5965SOL    HW129354   1.839   3.766   4.338 -0.2761 -1.7228  1.2831
 5965SOL    HW229355   1.930   3.646   4.340 -1.4137 -1.7397  0.3218
 5966SOL     OW29356   1.146   1.151   2.654  0.0544  0.1264 -0.3907
 5966SOL    HW129357   1.230   1.114   2.625 -0.0007  0.3138 -0.7869
 5966SOL    HW229358   1.182   1.227   2.701  2.3263 -1.6727  0.7848
 5967SOL     OW29359   1.839   1.945   4.042  0.1721  0.3249  0.4690
 5967SOL    HW129360   1.888   2.023   4.016 -0.1213  0.7469  1.1764
 5967SOL    HW229361   1.760   1.988   4.075 -0.0238 -1.6240  2.5084
 5968SOL     OW29362   1.211   3.661   4.064  0.1964 -0.1815 -0.5082
 5968SOL    HW129363   1.173   3.650   4.151 -0.7368  2.8692 -0.5244
 5968SOL    HW229364   1.301   3.636   4.085 -0.5290 -2.3461 -0.0268
 5969SOL     OW29365   1.529   0.619   8.638 -0.3763 -0.1615  0.0608
 5969SOL    HW129366   1.587   0.684   8.677  2.1679 -1.5912 -1.3654
 5969SOL    HW229367   1.445   0.659   8.616 -0.0754  0.7596  0.5782
 5970SOL     OW29368   2.926   4.042   0.002 -0.4638  0.1199 -0.2428
 5970SOL    HW129369   2.973   4.017   0.081 -0.4191  0.3754 -0.1882
 5970SOL    HW229370   2.859   3.975  17.673 -0.7124  0.0802  1.0499
 5971SOL     OW29371   0.191   2.691   5.149 -0.0099  0.6464  0.7593
 5971SOL    HW129372   0.126   2.667   5.215 -0.8851  0.4794 -0.1632
 5971SOL    HW229373   0.191   2.616   5.089 -1.4508  0.8994  0.4560
 5972SOL     OW29374   4.696   1.419   4.633  0.0785  0.3188 -0.1345
 5972SOL    HW129375   0.009   1.393   4.719  0.9047 -1.9340 -1.1322
 5972SOL    HW229376   0.052   1.417   4.576 -0.5980 -1.5777 -0.9784
 5973SOL     OW29377   0.391   3.574   7.500  0.2882 -0.1056  0.2846
 5973SOL    HW129378   0.443   3.643   7.542 -0.5128 -0.9466  2.6738
 5973SOL    HW229379   0.461   3.513   7.475  1.1697  1.2112 -0.4346
 5974SOL     OW29380   0.154   0.204   6.418  0.2083 -0.2098 -0.1412
 5974SOL    HW129381   0.074   0.194   6.469  0.4393  0.9654  0.4554
 5974SOL    HW229382   0.203   0.245   6.489 -2.7335  0.9238  1.2039
 5975SOL     OW29383   0.788   4.605   1.241 -0.0914  0.2836 -0.4285
 5975SOL    HW129384   0.806   4.633   1.151 -1.4353 -1.0325 -1.1075
 5975SOL    HW229385   0.733   4.671   1.284  0.4598 -0.5001  1.4795
 5976SOL     OW29386   3.826   4.400   1.170  0.0240 -0.0229  0.3103
 5976SOL    HW129387   3.869   4.481   1.141 -0.9814  0.4030  0.0225
 5976SOL    HW229388   3.742   4.410   1.125  0.9290  1.1578 -1.0954
 5977SOL     OW29389   1.151   0.383   9.598 -0.6873  0.1020 -0.0790
 5977SOL    HW129390   1.149   0.291   9.573 -2.8379  0.4272 -1.0961
 5977SOL    HW229391   1.092   0.408   9.528 -0.9091 -0.6764 -0.1679
 5978SOL     OW29392   0.872   1.397   4.877 -0.2812  0.0734 -0.2661
 5978SOL    HW129393   0.965   1.412   4.863  0.2706 -2.3889  0.7361
 5978SOL    HW229394   0.854   1.395   4.783  0.1518 -0.0586 -0.3456
 5979SOL     OW29395   4.297   0.800   7.438 -0.3370  0.3566 -0.5771
 5979SOL    HW129396   4.259   0.815   7.525  0.1448  2.0271 -0.6537
 5979SOL    HW229397   4.266   0.710   7.429  1.9369 -0.4130 -0.5122
 5980SOL     OW29398   0.545   4.320   2.334 -0.0716  0.5898 -0.1139
 5980SOL    HW129399   0.562   4.348   2.244 -0.7472  0.8980 -0.1454
 5980SOL    HW229400   0.574   4.229   2.329 -0.2753  0.3120  4.4649
 5981SOL     OW29401   1.413   0.072   5.486 -0.2595  0.2620  0.6957
 5981SOL    HW129402   1.492   0.103   5.441 -0.9629  0.5830 -0.3143
 5981SOL    HW229403   1.431   4.703   5.515  0.4871 -0.5315 -2.2330
 5982SOL     OW29404   0.544   2.452   8.511 -0.3249  0.0945  0.0870
 5982SOL    HW129405   0.571   2.529   8.561  0.3226 -0.0874  0.0146
 5982SOL    HW229406   0.515   2.479   8.424 -1.8681  0.3552  0.6827
 5983SOL     OW29407   1.257   4.564   1.643 -0.3407 -0.0048  0.2861
 5983SOL    HW129408   1.311   4.620   1.698 -0.5739 -0.8448  1.3537
 5983SOL    HW229409   1.174   4.560   1.690 -2.4466  1.3290 -3.2827
 5984SOL     OW29410   1.468   3.370   3.944 -0.8572  0.0534 -0.1631
 5984SOL    HW129411   1.442   3.417   3.865 -0.3804  1.6050  0.6069
 5984SOL    HW229412   1.473   3.284   3.901  1.7473  0.0748  0.0639
 5985SOL     OW29413   0.209   4.031  15.961  0.3413  0.3839 -0.3613
 5985SOL    HW129414   0.284   4.036  16.021  0.2761 -1.0572 -0.1554
 5985SOL    HW229415   0.241   4.042  15.871  0.3895 -1.4325 -0.5743
 5986SOL     OW29416   1.439   3.907   8.049  0.6104 -0.3436 -0.0833
 5986SOL    HW129417   1.419   3.964   8.124 -0.4134 -1.3686  0.4289
 5986SOL    HW229418   1.530   3.936   8.038  0.6418 -0.4456 -0.0896
 5987SOL     OW29419   1.108   0.660   6.061 -0.5132 -0.3505  0.2006
 5987SOL    HW129420   1.189   0.686   6.017 -1.4070  1.2416 -0.5128
 5987SOL    HW229421   1.135   0.571   6.083 -0.7412 -0.6232 -0.6123
 5988SOL     OW29422   4.151   1.199   6.938 -0.5780 -0.5803 -0.2592
 5988SOL    HW129423   4.220   1.161   6.884 -1.2952  0.1885 -1.7087
 5988SOL    HW229424   4.180   1.184   7.028  0.1304 -2.1395 -0.7499
 5989SOL     OW29425   3.653   4.064   6.928  0.1657  0.3833  0.0665
 5989SOL    HW129426   3.629   3.991   6.985 -3.1879  0.9060 -0.6723
 5989SOL    HW229427   3.644   4.024   6.841 -2.5736 -0.8487  0.9304
 5990SOL     OW29428   3.048   1.347  11.015  0.5710  0.2011  0.7634
 5990SOL    HW129429   3.029   1.373  10.925 -2.3721 -2.3132  0.6632
 5990SOL    HW229430   3.010   1.420  11.064 -1.2638  0.4234 -1.0028
 5991SOL     OW29431   4.506   0.359   9.920 -0.3887  0.2145 -0.4906
 5991SOL    HW129432   4.413   0.356   9.945 -0.5141  0.6752 -0.8978
 5991SOL    HW229433   4.538   0.272   9.942  1.1300  0.8039 -0.4147
 5992SOL     OW29434   1.302   1.480  15.317 -0.1272  0.0669  0.8375
 5992SOL    HW129435   1.323   1.571  15.298 -2.8496  0.4936 -0.1588
 5992SOL    HW229436   1.222   1.479  15.264  2.1716  2.3144 -2.6604
 5993SOL     OW29437   2.691   0.920   5.913  0.5421  0.0560  0.2067
 5993SOL    HW129438   2.664   0.950   5.826  0.3142  0.1611  0.3154
 5993SOL    HW229439   2.731   0.835   5.892  1.2436  0.2746  0.6451
 5994SOL     OW29440   4.320   4.345   2.299  0.3467 -0.2424  0.3331
 5994SOL    HW129441   4.338   4.388   2.215  0.8771  0.0500  0.5975
 5994SOL    HW229442   4.409   4.313   2.314  0.6814  1.4275  1.8511
 5995SOL     OW29443   4.380   3.092   6.702  0.2003 -0.2662 -0.0682
 5995SOL    HW129444   4.402   3.109   6.793 -3.3149 -0.9717  0.9261
 5995SOL    HW229445   4.450   3.030   6.681  0.8699  0.6690 -0.5567
 5996SOL     OW29446   0.299   4.716  16.853  0.2022  0.5545 -0.0755
 5996SOL    HW129447   0.249   0.000  16.935  0.3048 -3.0709  0.2242
 5996SOL    HW229448   0.290   4.626  16.822  0.4858  1.6210 -3.1817
 5997SOL     OW29449   2.910   1.152   4.749 -0.2891  0.2242 -0.3296
 5997SOL    HW129450   2.924   1.164   4.843  2.3617 -0.4122 -0.6190
 5997SOL    HW229451   2.947   1.066   4.726 -0.0252 -0.3209  2.1580
 5998SOL     OW29452   1.043   1.717   4.969 -0.4952 -0.0172  0.3022
 5998SOL    HW129453   1.075   1.680   5.052  1.7376 -0.6815 -0.8378
 5998SOL    HW229454   1.077   1.806   4.973 -2.8808  0.8331  1.7951
 5999SOL     OW29455   4.026   1.554  11.926 -0.7001 -0.0817 -0.1095
 5999SOL    HW129456   4.062   1.513  12.005 -2.3712 -2.0473 -0.3649
 5999SOL    HW229457   4.094   1.530  11.864 -0.9507  0.0093 -0.4177
 6000SOL     OW29458   0.539   0.073   7.652 -0.2108  0.0961 -0.3638
 6000SOL    HW129459   0.489   0.108   7.578 -0.8214 -0.8797 -0.4051
 6000SOL    HW229460   0.476   0.012   7.690  0.2023 -0.6790 -0.9183
 6001SOL     OW29461   2.652   4.332  16.034  0.4842 -0.0220  0.2964
 6001SOL    HW129462   2.744   4.307  16.026  0.7572  0.7264  1.1048
 6001SOL    HW229463   2.656   4.424  16.061  2.3868 -0.3718  1.2046
 6002SOL     OW29464   1.879   3.167   8.555 -0.1014  0.6044 -0.6103
 6002SOL    HW129465   1.956   3.218   8.531 -0.3167  1.8208  1.3289
 6002SOL    HW229466   1.817   3.235   8.581 -0.7273  0.0395 -0.6120
 6003SOL     OW29467   1.950   1.847  14.184  0.1108  0.0454  0.1004
 6003SOL    HW129468   2.024   1.793  14.209  0.0148  0.0559  0.4072
 6003SOL    HW229469   1.975   1.871  14.095 -0.9897 -1.2589 -0.5656
 6004SOL     OW29470   2.596   3.002  15.239 -0.3150  0.0058  0.1184
 6004SOL    HW129471   2.532   3.066  15.208 -0.6061 -0.5342 -0.4000
 6004SOL    HW229472   2.547   2.924  15.214 -0.1577  0.5237 -1.7700
 6005SOL     OW29473   3.456   3.952   5.355 -0.1014 -0.0329  0.1144
 6005SOL    HW129474   3.474   4.014   5.426  2.2217  1.0811 -1.4470
 6005SOL    HW229475   3.403   3.880   5.390 -0.8245  0.1941 -0.5191
 6006SOL     OW29476   4.203   2.984   8.764  1.0129  0.6692 -0.1558
 6006SOL    HW129477   4.272   2.920   8.782  0.5459 -0.2332 -1.5484
 6006SOL    HW229478   4.149   2.978   8.843 -0.5354 -0.4563 -1.2954
 6007SOL     OW29479   3.626   0.949   0.815  0.3399  0.0323 -0.5505
 6007SOL    HW129480   3.696   0.909   0.866  0.9828  1.6187 -0.1822
 6007SOL    HW229481   3.580   0.989   0.889  0.8551 -1.7151  0.7029
 6008SOL     OW29482   2.537   4.224   4.416  0.5696  0.4563 -0.2325
 6008SOL    HW129483   2.569   4.209   4.327 -0.0121  1.0884 -0.5390
 6008SOL    HW229484   2.458   4.269   4.390  0.1899 -0.7838 -1.2322
 6009SOL     OW29485   2.158   1.491  11.964  0.4046 -0.2580 -0.4580
 6009SOL    HW129486   2.072   1.455  11.990 -0.6447  1.5249 -1.5028
 6009SOL    HW229487   2.213   1.413  11.971  1.7453  0.8726  1.7476
 6010SOL     OW29488   3.670   2.376   1.719 -0.5974  0.9350 -0.1382
 6010SOL    HW129489   3.731   2.310   1.750 -1.5069 -0.2151 -0.7928
 6010SOL    HW229490   3.734   2.447   1.723 -1.7566  2.0613 -1.3432
 6011SOL     OW29491   1.360   0.401   6.020  0.1061  0.3768 -0.3428
 6011SOL    HW129492   1.360   0.375   6.112 -2.6567  1.8516  0.0589
 6011SOL    HW229493   1.421   0.474   6.024  0.6789 -0.0819 -0.7117
 6012SOL     OW29494   3.435   2.690   2.281 -0.3321  0.4128  0.0290
 6012SOL    HW129495   3.368   2.758   2.277 -2.5011 -1.7407 -0.0193
 6012SOL    HW229496   3.403   2.637   2.208  0.2511 -1.6124  1.2585
 6013SOL     OW29497   1.749   0.486   5.392 -0.1646  0.2094 -0.2946
 6013SOL    HW129498   1.701   0.565   5.416  1.5390  1.3042 -0.4676
 6013SOL    HW229499   1.688   0.417   5.419  1.8686 -1.6283 -0.3747
 6014SOL     OW29500   4.300   1.883   3.022 -0.5448 -0.5026  0.1693
 6014SOL    HW129501   4.245   1.902   3.098 -0.2714  0.1081  0.2127
 6014SOL    HW229502   4.359   1.957   3.033 -0.3871 -0.7019  0.6824
 6015SOL     OW29503   0.508   1.705   1.991  0.1496 -0.2737  0.4147
 6015SOL    HW129504   0.553   1.762   2.053 -0.2968 -0.3189  0.7876
 6015SOL    HW229505   0.563   1.713   1.913 -2.2356  0.7980 -1.1600
 6016SOL     OW29506   1.806   4.441   7.186 -0.2939  0.6836  0.0310
 6016SOL    HW129507   1.876   4.478   7.131 -0.8136  0.5116 -0.7457
 6016SOL    HW229508   1.848   4.360   7.216 -1.4656  0.7931  1.9646
 6017SOL     OW29509   2.190   3.723   8.570 -0.3286 -0.2147 -0.2028
 6017SOL    HW129510   2.261   3.787   8.561  0.3092 -0.7977  0.7600
 6017SOL    HW229511   2.222   3.644   8.527  0.7560  0.2208 -0.1906
 6018SOL     OW29512   2.499   3.454   9.312  0.3137 -0.0961 -0.4563
 6018SOL    HW129513   2.531   3.535   9.272 -0.1547  0.5472  0.4738
 6018SOL    HW229514   2.404   3.466   9.319  0.3672  0.2331 -0.2702
 6019SOL     OW29515   3.299   0.735   6.509 -0.4532 -0.0346 -0.1135
 6019SOL    HW129516   3.261   0.821   6.526  0.8339  0.1306  1.8361
 6019SOL    HW229517   3.331   0.715   6.597  1.1946  0.2686 -0.6522
 6020SOL     OW29518   3.137   0.266   1.127  0.2546  0.0020  0.0892
 6020SOL    HW129519   3.217   0.310   1.097 -0.4112  0.5262 -0.9095
 6020SOL    HW229520   3.090   0.347   1.146 -0.8494 -0.4891 -0.5388
 6021SOL     OW29521   3.192   4.129   9.864 -0.3732 -0.1065 -0.1895
 6021SOL    HW129522   3.270   4.142   9.918  0.8650 -4.0180 -1.0336
 6021SOL    HW229523   3.129   4.132   9.936  0.9473  0.2678  0.9548
 6022SOL     OW29524   0.569   4.010  16.934 -0.1149  0.1574 -0.5272
 6022SOL    HW129525   0.528   4.069  16.871  0.4648 -0.5323 -1.5555
 6022SOL    HW229526   0.544   4.053  17.016 -1.0090  3.1168 -2.3441
 6023SOL     OW29527   2.736   3.745  14.739 -0.1221 -0.2878 -0.2160
 6023SOL    HW129528   2.650   3.783  14.757  0.2349  1.3579 -2.1105
 6023SOL    HW229529   2.787   3.823  14.718 -1.7539  0.8476  0.0258
 6024SOL     OW29530   4.083   1.732   7.215 -0.2219 -0.1844 -0.2539
 6024SOL    HW129531   4.047   1.804   7.268  0.1892 -0.4395  0.3778
 6024SOL    HW229532   4.129   1.781   7.147  0.4130 -0.9490 -0.3712
 6025SOL     OW29533   4.155   4.064   1.676  0.1270 -0.5017 -0.9771
 6025SOL    HW129534   4.089   3.994   1.671 -0.3982 -0.0384 -0.4832
 6025SOL    HW229535   4.157   4.072   1.771  0.4202 -0.4355 -0.9883
 6026SOL     OW29536   1.445   1.306   2.207 -0.3700 -0.0226 -0.0622
 6026SOL    HW129537   1.517   1.243   2.206 -0.2715  0.0554  1.9300
 6026SOL    HW229538   1.390   1.259   2.270 -0.6254  0.6996  0.2567
 6027SOL     OW29539   1.312   0.053   3.493 -0.0991  0.1154 -0.5825
 6027SOL    HW129540   1.404   0.076   3.489  0.3149 -1.5532 -0.6053
 6027SOL    HW229541   1.295   0.030   3.401 -0.2602  1.6035 -0.9287
 6028SOL     OW29542   3.508   0.104   7.171 -0.2061 -0.1803  0.1423
 6028SOL    HW129543   3.471   0.028   7.216 -2.1844  0.1732 -0.8755
 6028SOL    HW229544   3.586   0.064   7.133 -0.5722  0.5498 -1.3820
 6029SOL     OW29545   3.317   2.545   7.237 -0.4788  0.4527 -0.4003
 6029SOL    HW129546   3.270   2.598   7.301  2.3615  0.5509  1.6238
 6029SOL    HW229547   3.400   2.529   7.282 -0.4416  1.3971 -0.1533
 6030SOL     OW29548   2.241   0.883  16.864 -0.0307 -0.0988 -0.2754
 6030SOL    HW129549   2.174   0.832  16.910 -2.1309  1.2827 -1.8044
 6030SOL    HW229550   2.210   0.865  16.775  1.6675 -1.4487 -0.5987
 6031SOL     OW29551   2.585   1.417   2.389 -0.4541  0.1453  0.3072
 6031SOL    HW129552   2.679   1.435   2.385 -1.0196  3.0221  0.3427
 6031SOL    HW229553   2.594   1.352   2.458 -0.1166  0.2300  0.3458
 6032SOL     OW29554   2.300   4.418  14.957 -0.6771 -0.0333 -0.4207
 6032SOL    HW129555   2.368   4.370  15.003  0.0532 -0.4176 -1.8954
 6032SOL    HW229556   2.312   4.395  14.865  0.6758 -2.9586  0.5138
 6033SOL     OW29557   2.259   0.198   2.886  0.3172 -0.0656 -0.0647
 6033SOL    HW129558   2.296   0.159   2.964 -0.7650  2.3040  1.6454
 6033SOL    HW229559   2.274   0.292   2.893 -0.3633  0.1636 -1.6762
 6034SOL     OW29560   2.150   1.587   3.558  0.2402  0.1117 -0.3959
 6034SOL    HW129561   2.236   1.587   3.600  0.9075 -0.7037 -1.7684
 6034SOL    HW229562   2.093   1.579   3.635  0.0331 -0.8710 -0.6576
 6035SOL     OW29563   0.177   2.310   0.050  0.0423 -0.3229  0.0187
 6035SOL    HW129564   0.149   2.257  17.661 -2.1652 -0.5781  1.0503
 6035SOL    HW229565   0.111   2.379   0.049  1.1040  0.7286  1.9506
 6036SOL     OW29566   3.080   3.964   6.919 -0.1351 -0.6648  0.3312
 6036SOL    HW129567   2.993   3.980   6.955  0.8091  3.1390  0.9398
 6036SOL    HW229568   3.070   3.983   6.826 -0.1271 -0.2887  0.4071
 6037SOL     OW29569   1.843   3.556  14.520 -0.3431  0.3635  0.0462
 6037SOL    HW129570   1.827   3.464  14.500  0.3699  0.2321  0.0612
 6037SOL    HW229571   1.813   3.556  14.611 -0.2016 -1.0416  0.0915
 6038SOL     OW29572   1.169   2.823   4.820 -0.5012  0.1762 -0.0996
 6038SOL    HW129573   1.255   2.795   4.851  0.3588 -1.2186 -3.8518
 6038SOL    HW229574   1.140   2.740   4.783  2.8594 -1.4293  0.8545
 6039SOL     OW29575   1.489   0.994  16.400 -0.1089  0.3171  0.2612
 6039SOL    HW129576   1.551   1.053  16.441  1.7941 -1.7691  0.4035
 6039SOL    HW229577   1.533   0.910  16.412  1.0857  0.0824 -5.3878
 6040SOL     OW29578   1.733   4.097   3.820 -0.2677  0.0905 -0.4615
 6040SOL    HW129579   1.804   4.060   3.872 -0.0918 -1.0087 -1.4901
 6040SOL    HW229580   1.667   4.098   3.889  2.1654 -1.6350  1.8776
 6041SOL     OW29581   3.308   4.560  17.660  0.2291 -0.2840  0.5098
 6041SOL    HW129582   3.397   4.530  17.642  0.2936  0.4595 -0.3710
 6041SOL    HW229583   3.268   4.472  17.657 -1.8085  0.7039 -1.1421
 6042SOL     OW29584   2.208   1.754  12.433 -0.1437 -0.2332  0.1111
 6042SOL    HW129585   2.242   1.672  12.398 -2.1817 -1.1624  0.3649
 6042SOL    HW229586   2.133   1.719  12.481 -0.3378 -0.2460 -0.1997
 6043SOL     OW29587   0.564   0.137   4.391  0.0716 -0.1010  0.9092
 6043SOL    HW129588   0.505   0.212   4.385 -0.2061 -0.2536  1.7551
 6043SOL    HW229589   0.550   0.112   4.482  0.8113  2.5249  1.7345
 6044SOL     OW29590   3.905   0.255  10.722  0.1564 -0.1617  0.2709
 6044SOL    HW129591   3.900   0.273  10.815  1.3961  1.9351 -0.0703
 6044SOL    HW229592   3.826   0.202  10.712  1.0316 -1.4329  0.0962
 6045SOL     OW29593   3.406   3.412   7.666 -0.8823 -0.1900 -0.4861
 6045SOL    HW129594   3.413   3.385   7.574 -1.6689  2.4490 -1.3376
 6045SOL    HW229595   3.438   3.337   7.716 -2.2361 -0.9702 -0.8044
 6046SOL     OW29596   3.376   3.458   0.788 -0.2332 -0.2340  0.3452
 6046SOL    HW129597   3.286   3.431   0.774 -0.4576  2.1763 -3.1059
 6046SOL    HW229598   3.423   3.378   0.767 -0.3020 -0.0984 -0.3263
 6047SOL     OW29599   4.541   3.088   8.536  0.2792  0.0379 -0.0713
 6047SOL    HW129600   4.526   3.055   8.447  0.0638 -0.4087  0.1297
 6047SOL    HW229601   4.621   3.139   8.521  0.4967  0.0193  1.0669
 6048SOL     OW29602   0.181   3.913   4.953 -0.1133  0.2105 -0.2927
 6048SOL    HW129603   0.238   3.963   4.895  0.5637  0.1298  0.3022
 6048SOL    HW229604   0.213   3.825   4.934 -0.2768  0.3549 -1.2345
 6049SOL     OW29605   3.934   3.039   2.589 -0.4030  0.5077 -0.5997
 6049SOL    HW129606   3.972   2.954   2.612  1.0528  2.0566  2.7409
 6049SOL    HW229607   4.016   3.082   2.565 -0.5668  0.4824 -1.2037
 6050SOL     OW29608   0.670   0.112  15.976  0.3856 -0.5029  0.2064
 6050SOL    HW129609   0.645   0.027  16.012 -2.3648  0.0944 -0.2459
 6050SOL    HW229610   0.667   0.099  15.881  0.6074  1.4322 -0.0784
 6051SOL     OW29611   2.314   4.175  17.233 -0.1617  0.8885  0.0463
 6051SOL    HW129612   2.230   4.204  17.270  0.1797  1.1324  0.6415
 6051SOL    HW229613   2.270   4.121  17.168 -0.5605  1.1953  0.0603
 6052SOL     OW29614   3.305   2.244   9.097 -0.0028  0.6279  0.0234
 6052SOL    HW129615   3.317   2.317   9.157 -0.4421  0.4771  0.2989
 6052SOL    HW229616   3.229   2.198   9.133  1.7192 -4.3121 -2.6055
 6053SOL     OW29617   0.239   1.142   9.468 -0.1430 -0.1223  0.5233
 6053SOL    HW129618   0.286   1.221   9.495 -1.4327  0.9365 -0.3514
 6053SOL    HW229619   0.273   1.082   9.535  1.7037 -0.8867 -1.0935
 6054SOL     OW29620   2.465   0.396   3.907 -0.1857  0.4047  0.2791
 6054SOL    HW129621   2.458   0.455   3.982 -2.9582  1.1224 -0.5348
 6054SOL    HW229622   2.542   0.346   3.933 -1.7642 -1.1715  1.9146
 6055SOL     OW29623   1.685   3.654   5.538 -0.2218  0.4930  0.5119
 6055SOL    HW129624   1.615   3.720   5.539 -1.9610 -1.3027 -1.4852
 6055SOL    HW229625   1.723   3.658   5.626 -0.2139  0.9088  0.4887
 6056SOL     OW29626   3.696   0.732   1.988 -0.7259 -0.2973  0.4969
 6056SOL    HW129627   3.686   0.802   2.053 -1.8643 -2.1216  2.2838
 6056SOL    HW229628   3.617   0.681   2.008 -1.0600  0.4071  0.9610
 6057SOL     OW29629   1.372   0.258   9.996 -0.5278 -0.6167 -0.1128
 6057SOL    HW129630   1.296   0.292   9.950 -1.3393 -0.7568  1.1247
 6057SOL    HW229631   1.343   0.300  10.077  1.9542  0.6872  0.1152
 6058SOL     OW29632   0.144   2.215   5.209 -0.0116 -0.1768 -0.4424
 6058SOL    HW129633   0.079   2.250   5.149  1.7350  2.2365 -0.9081
 6058SOL    HW229634   0.219   2.196   5.152 -0.5964 -0.7394 -1.0166
 6059SOL     OW29635   3.717   0.557  16.391 -0.5157  0.4262 -0.3530
 6059SOL    HW129636   3.727   0.478  16.444  1.5278  1.4412  0.7831
 6059SOL    HW229637   3.626   0.581  16.408  0.1212  2.1296  0.7015
 6060SOL     OW29638   1.139   4.417   9.341 -0.2324  0.7925 -0.4434
 6060SOL    HW129639   1.048   4.389   9.351  0.8359 -2.6530 -0.3692
 6060SOL    HW229640   1.130   4.512   9.352  0.0254  0.6084  1.4322
 6061SOL     OW29641   0.591   2.491   7.509 -0.4546 -0.6324  0.5473
 6061SOL    HW129642   0.511   2.518   7.554  0.2967 -0.0574  1.5266
 6061SOL    HW229643   0.587   2.402   7.475  1.8128 -0.5658  0.0777
 6062SOL     OW29644   1.889   0.590  15.697  0.6245  0.0768  0.1259
 6062SOL    HW129645   1.934   0.536  15.762 -0.5095  0.3709  1.1479
 6062SOL    HW229646   1.952   0.656  15.667 -0.1270  1.4692  1.5651
 6063SOL     OW29647   3.524   0.732  11.745 -0.4207 -0.1157 -0.1822
 6063SOL    HW129648   3.451   0.670  11.747 -0.1526 -0.4852 -1.5003
 6063SOL    HW229649   3.513   0.787  11.822  1.2305 -0.4027  0.2795
 6064SOL     OW29650   1.182   2.230   6.861  0.5830 -0.1972  0.1925
 6064SOL    HW129651   1.089   2.208   6.867  0.2208  1.3884  0.3837
 6064SOL    HW229652   1.219   2.161   6.915 -0.0905 -1.7923 -1.3680
 6065SOL     OW29653   4.339   2.885   3.928 -0.1870 -0.0448 -0.5236
 6065SOL    HW129654   4.407   2.825   3.959 -1.1119  0.4558  2.4735
 6065SOL    HW229655   4.274   2.824   3.893 -2.4764  2.1757 -0.0893
 6066SOL     OW29656   0.869   3.265   8.633  0.2847 -0.0982 -0.6370
 6066SOL    HW129657   0.934   3.208   8.593  2.2382 -0.9449  3.7049
 6066SOL    HW229658   0.913   3.342   8.669 -3.4183  1.7201  0.0305
 6067SOL     OW29659   2.109   2.407   8.647 -0.3079  0.0019 -0.2104
 6067SOL    HW129660   2.162   2.483   8.622  0.1681 -0.2819 -0.0586
 6067SOL    HW229661   2.141   2.339   8.589 -2.6257 -1.4930  0.2622
 6068SOL     OW29662   1.746   1.689  13.747  0.6780  0.3231  0.5070
 6068SOL    HW129663   1.839   1.666  13.754 -0.1582 -2.7186  1.5436
 6068SOL    HW229664   1.740   1.754  13.677 -1.8990 -0.4200  0.0489
 6069SOL     OW29665   3.594   0.500  15.825 -0.1857  0.9447 -0.1856
 6069SOL    HW129666   3.617   0.531  15.913  0.5530  1.3768 -0.5278
 6069SOL    HW229667   3.521   0.445  15.853  0.2981  0.1628 -0.4496
 6070SOL     OW29668   0.981   4.617  16.077  0.1178 -0.3615 -0.4642
 6070SOL    HW129669   0.989   4.712  16.077 -0.3664 -0.3149 -1.1275
 6070SOL    HW229670   0.888   4.602  16.096  0.4024  1.9684  2.7130
 6071SOL     OW29671   1.289   2.388   3.338 -0.3879  0.0619 -0.0592
 6071SOL    HW129672   1.294   2.315   3.276 -0.1131 -0.9310  1.1254
 6071SOL    HW229673   1.357   2.449   3.309 -2.2090  1.9557 -0.3147
 6072SOL     OW29674   1.222   4.298  15.572 -1.2406  0.4531 -0.7045
 6072SOL    HW129675   1.254   4.210  15.593 -0.0992  0.5197 -2.1840
 6072SOL    HW229676   1.305   4.340  15.552 -1.0448  0.7615  0.7250
 6073SOL     OW29677   3.103   4.541   3.082 -0.0130 -0.2535  0.1094
 6073SOL    HW129678   3.119   4.465   3.028 -1.9745 -2.4109  2.5566
 6073SOL    HW229679   3.124   4.505   3.168 -2.6359 -2.2386 -0.0668
 6074SOL     OW29680   3.928   0.560   1.972  0.2993 -0.1975 -0.6557
 6074SOL    HW129681   3.934   0.491   2.038 -0.3072 -0.0878 -0.4881
 6074SOL    HW229682   3.835   0.581   1.980  0.5095 -0.0300  1.1971
 6075SOL     OW29683   0.205   3.153   4.926  0.1476 -0.0816  0.0964
 6075SOL    HW129684   0.142   3.088   4.958 -0.1213 -0.2170 -0.7021
 6075SOL    HW229685   0.274   3.141   4.990  0.5130  0.6019 -0.1645
 6076SOL     OW29686   4.421   0.877   6.988  0.1311  0.2466 -0.2036
 6076SOL    HW129687   4.433   0.970   7.007 -0.0702  0.1952  0.1682
 6076SOL    HW229688   4.475   0.871   6.909 -0.5849  0.9117 -0.7513
 6077SOL     OW29689   2.459   2.183   8.989 -0.3841 -0.2500  0.1066
 6077SOL    HW129690   2.546   2.192   8.949  0.1324  0.1213  1.3029
 6077SOL    HW229691   2.433   2.274   9.001 -0.5218 -0.1428 -0.9960
 6078SOL     OW29692   2.471   4.551   8.031  0.0841 -0.2175 -0.2770
 6078SOL    HW129693   2.511   4.621   8.083  0.2163  0.7353 -1.6581
 6078SOL    HW229694   2.531   4.479   8.048  1.7447  1.3819  0.6446
 6079SOL     OW29695   3.516   3.230   2.677 -0.3897 -0.3704 -0.2234
 6079SOL    HW129696   3.547   3.155   2.728  0.1672 -1.8193 -2.7051
 6079SOL    HW229697   3.591   3.245   2.620 -0.7205  1.1287 -0.2782
 6080SOL     OW29698   3.770   1.137  13.664  0.1324  0.3479 -0.0005
 6080SOL    HW129699   3.702   1.198  13.695 -0.6228  0.7316 -2.3898
 6080SOL    HW229700   3.809   1.184  13.590  2.3377  0.8129  1.4565
 6081SOL     OW29701   1.238   1.320   0.164 -0.4992 -0.0024 -0.1450
 6081SOL    HW129702   1.278   1.403   0.191 -1.4621  1.1284 -2.2006
 6081SOL    HW229703   1.159   1.343   0.115  1.0014  2.2823 -1.5673
 6082SOL     OW29704   4.436   4.233   5.927  0.4296  0.6099 -0.0602
 6082SOL    HW129705   4.348   4.197   5.921 -0.0635  1.3437  2.5508
 6082SOL    HW229706   4.481   4.172   5.986  0.2969  0.4619 -0.1144
 6083SOL     OW29707   0.316   2.276   1.920 -0.1177  0.5950  0.4440
 6083SOL    HW129708   0.378   2.325   1.974  0.1637  1.6088 -0.8230
 6083SOL    HW229709   0.235   2.303   1.963  0.5581 -0.0398  2.1493
 6084SOL     OW29710   0.231   1.243   9.882  0.5039 -0.3162 -0.3890
 6084SOL    HW129711   0.214   1.303   9.809  0.1548 -2.6565 -2.2389
 6084SOL    HW229712   0.257   1.162   9.839  0.9446 -0.7957  0.7758
 6085SOL     OW29713   0.615   3.579  11.081  0.0673  0.0254  0.4816
 6085SOL    HW129714   0.684   3.637  11.115  1.0989 -1.3083  0.6985
 6085SOL    HW229715   0.543   3.591  11.142  1.7057  1.1377  2.1974
 6086SOL     OW29716   3.786   1.825  15.665  0.6396  0.1115  0.6237
 6086SOL    HW129717   3.818   1.765  15.597  1.5999 -0.2884  1.4236
 6086SOL    HW229718   3.847   1.899  15.670  0.5148  0.3747 -1.5814
 6087SOL     OW29719   3.941   1.647   5.880  0.1876  0.6171  0.7016
 6087SOL    HW129720   4.034   1.643   5.857 -0.6023 -1.6324 -2.1747
 6087SOL    HW229721   3.934   1.557   5.913 -0.5419  1.4750  2.9194
 6088SOL     OW29722   1.566   0.779   4.167  0.1836 -0.1669 -0.1787
 6088SOL    HW129723   1.638   0.841   4.175 -0.3040  0.4879 -0.8653
 6088SOL    HW229724   1.556   0.789   4.072  1.2369 -0.2036 -0.2922
 6089SOL     OW29725   2.391   1.459   5.383 -0.3840  0.3155 -0.6778
 6089SOL    HW129726   2.405   1.521   5.311 -0.7626 -0.7230 -1.6481
 6089SOL    HW229727   2.463   1.398   5.369 -0.4918  0.1235 -0.3882
 6090SOL     OW29728   0.738   4.115  16.646  0.3293  0.1750  0.2748
 6090SOL    HW129729   0.811   4.068  16.684 -0.7965  0.0121  2.2340
 6090SOL    HW229730   0.699   4.150  16.726  0.9415  1.4218  0.0279
 6091SOL     OW29731   4.057   4.124   0.743 -0.3500  0.2112  1.2865
 6091SOL    HW129732   4.130   4.144   0.684 -3.3644  1.0229 -2.1147
 6091SOL    HW229733   4.071   4.188   0.813 -0.1796 -0.1817  1.6122
 6092SOL     OW29734   3.646   4.364   9.310  0.3258  0.3343  0.4539
 6092SOL    HW129735   3.606   4.316   9.383 -1.7520  0.9832 -0.2622
 6092SOL    HW229736   3.629   4.455   9.334  0.7369  0.2981  0.8874
 6093SOL     OW29737   1.005   2.890   0.010 -0.3281  0.3984 -0.6540
 6093SOL    HW129738   1.046   2.833   0.076 -1.5111 -0.6963 -0.8750
 6093SOL    HW229739   0.914   2.870   0.033 -0.8023  1.1070 -1.9313
 6094SOL     OW29740   1.331   0.779   8.553  0.2899  0.0520  0.4804
 6094SOL    HW129741   1.283   0.759   8.473 -1.2668 -0.8766  1.6452
 6094SOL    HW229742   1.408   0.820   8.513  1.0767 -1.8759  0.0047
 6095SOL     OW29743   4.287   2.022   4.131  0.6228  0.0889 -0.4598
 6095SOL    HW129744   4.356   1.984   4.077  1.0401 -0.1313  0.2331
 6095SOL    HW229745   4.298   2.115   4.111 -1.4912  0.6901  1.1380
 6096SOL     OW29746   1.161   0.963   7.563 -0.3201 -0.1682 -0.2549
 6096SOL    HW129747   1.194   1.031   7.504  0.6053  0.6057  1.1522
 6096SOL    HW229748   1.071   0.961   7.530 -0.5911 -1.0316  0.5466
 6097SOL     OW29749   2.949   2.673  11.731 -0.7645 -0.1117  0.0874
 6097SOL    HW129750   2.978   2.669  11.822 -0.2636 -2.0097 -0.1556
 6097SOL    HW229751   3.035   2.689  11.692 -0.2402 -1.7839  0.5591
 6098SOL     OW29752   1.873   0.846   3.095 -0.0803 -0.1333  0.2537
 6098SOL    HW129753   1.927   0.858   3.017 -2.0037 -1.6331 -1.3166
 6098SOL    HW229754   1.934   0.827   3.166  1.3878  0.7534 -0.7800
 6099SOL     OW29755   0.705   3.359  16.851 -0.0571 -0.1629  0.1048
 6099SOL    HW129756   0.666   3.333  16.934  0.3666 -0.6067  0.1617
 6099SOL    HW229757   0.642   3.420  16.812  0.1247  0.4392  0.7673
 6100SOL     OW29758   1.283   3.077   4.077  0.0729  0.3654 -0.2762
 6100SOL    HW129759   1.205   3.021   4.078 -0.0879  0.5590 -1.9712
 6100SOL    HW229760   1.269   3.144   4.144 -0.8049 -1.1613  1.0488
 6101SOL     OW29761   3.686   4.568   1.530  0.4810 -0.0147  0.3077
 6101SOL    HW129762   3.702   4.494   1.472  2.3022 -1.4436  2.6518
 6101SOL    HW229763   3.683   4.526   1.616 -0.3827 -0.2549  0.1660
 6102SOL     OW29764   2.887   2.854  10.561  0.3790  0.8502 -0.4162
 6102SOL    HW129765   2.946   2.843  10.487 -0.2189  0.1181 -0.7799
 6102SOL    HW229766   2.903   2.775  10.613  0.5044 -0.6470 -2.7435
 6103SOL     OW29767   4.061   3.558   7.913  0.5846  0.2716  0.1728
 6103SOL    HW129768   4.016   3.643   7.916  0.2413  0.1512 -1.4948
 6103SOL    HW229769   4.071   3.525   8.002 -3.5438  0.0219  0.5727
 6104SOL     OW29770   3.648   3.297  14.468 -0.3323 -0.1157 -0.0651
 6104SOL    HW129771   3.596   3.370  14.503  1.8280  2.0668 -1.4255
 6104SOL    HW229772   3.664   3.242  14.545  1.3673  1.0197  0.3875
 6105SOL     OW29773   4.581   2.913   6.723 -0.1490  0.1817  0.5194
 6105SOL    HW129774   4.629   2.858   6.662  0.7036  0.2747  1.1043
 6105SOL    HW229775   4.651   2.963   6.765 -0.8294 -0.4597  2.4328
 6106SOL     OW29776   2.810   0.227   6.131  0.0359 -0.6106  0.3999
 6106SOL    HW129777   2.817   0.142   6.088 -1.6745  0.1556 -1.3867
 6106SOL    HW229778   2.717   0.231   6.153  0.0462  0.8928  0.1808
 6107SOL     OW29779   4.312   1.142   6.133 -0.0595 -0.0129 -0.4212
 6107SOL    HW129780   4.386   1.196   6.160  0.2027 -0.6722  0.1710
 6107SOL    HW229781   4.354   1.094   6.062 -0.6358 -0.7393 -0.2771
 6108SOL     OW29782   1.656   3.552   0.715 -0.1211 -0.1723  0.0698
 6108SOL    HW129783   1.611   3.612   0.775 -1.6526 -1.7265  0.4774
 6108SOL    HW229784   1.742   3.581   0.743  0.1334 -1.5316  0.7282
 6109SOL     OW29785   0.212   3.600   8.820  0.2346 -0.6645  0.3487
 6109SOL    HW129786   0.153   3.664   8.858 -0.3438 -0.6235 -0.6207
 6109SOL    HW229787   0.293   3.625   8.864  0.4474 -2.8462  1.1970
 6110SOL     OW29788   0.074   3.833   3.084 -0.0062  0.0370 -0.1853
 6110SOL    HW129789   0.001   3.772   3.092  0.4603 -0.3633  1.1154
 6110SOL    HW229790   0.135   3.775   3.039  1.0007  1.5378 -0.7462
 6111SOL     OW29791   1.903   0.556   2.108 -0.1650  0.3392  0.0833
 6111SOL    HW129792   1.835   0.529   2.046  0.2454  1.5826 -0.8979
 6111SOL    HW229793   1.982   0.573   2.057 -0.1743  1.6704  0.4991
 6112SOL     OW29794   3.953   4.518   9.524 -0.4919 -0.6051  0.2367
 6112SOL    HW129795   3.928   4.609   9.507  2.4988  0.2359  0.4134
 6112SOL    HW229796   3.954   4.482   9.435  1.6169 -0.4207  0.1949
 6113SOL     OW29797   1.935   1.537   3.726  0.1929 -0.0836  0.1015
 6113SOL    HW129798   1.934   1.628   3.757 -2.2815 -0.1503  0.2135
 6113SOL    HW229799   1.840   1.541   3.733  0.1411 -0.8153 -0.1942
 6114SOL     OW29800   1.428   4.116   8.938 -0.4019  0.0067  0.7255
 6114SOL    HW129801   1.455   4.043   8.994 -2.8165 -0.7729  0.8302
 6114SOL    HW229802   1.503   4.175   8.949  1.0789 -1.9283  0.9103
 6115SOL     OW29803   0.513   1.942  14.056 -0.5165 -0.0659 -0.2243
 6115SOL    HW129804   0.494   2.032  14.083  1.3755  0.5576 -1.0204
 6115SOL    HW229805   0.601   1.939  14.021  0.6032 -0.8709  2.6845
 6116SOL     OW29806   4.082   2.110   0.287 -0.7666 -0.0770 -0.7366
 6116SOL    HW129807   4.142   2.121   0.361 -0.1587  0.8328 -1.3624
 6116SOL    HW229808   4.050   2.199   0.270  1.1176  1.0682  1.7655
 6117SOL     OW29809   0.701   3.701  13.586 -0.0076 -0.0021 -0.2601
 6117SOL    HW129810   0.643   3.626  13.596 -0.0105 -0.0690 -0.8034
 6117SOL    HW229811   0.662   3.777  13.630  2.2250  0.5036  0.8919
 6118SOL     OW29812   3.607   0.619   3.625 -0.3040 -0.2384 -0.3712
 6118SOL    HW129813   3.636   0.532   3.600 -0.4857  0.0940 -1.7463
 6118SOL    HW229814   3.552   0.597   3.700  1.0908 -0.8074  0.4763
 6119SOL     OW29815   2.427   3.543   2.275  0.7888  0.8194  0.1108
 6119SOL    HW129816   2.332   3.544   2.267  0.7626 -1.0666  0.1870
 6119SOL    HW229817   2.445   3.610   2.210  1.3883  1.5033  0.9793
 6120SOL     OW29818   3.927   2.685   9.718 -0.5869  0.2062 -0.2993
 6120SOL    HW129819   3.845   2.638   9.704 -0.4674 -0.4109  1.0609
 6120SOL    HW229820   3.965   2.707   9.633 -0.4366  0.4206 -0.1767
 6121SOL     OW29821   1.246   2.507   7.490 -0.7812  0.3928 -0.4960
 6121SOL    HW129822   1.185   2.475   7.556  0.5354 -0.1108  0.4874
 6121SOL    HW229823   1.267   2.599   7.501  0.7388  0.1473 -1.3407
 6122SOL     OW29824   0.513   3.011   6.831  0.1652  0.2947  0.2712
 6122SOL    HW129825   0.578   3.077   6.854 -0.3789  0.4616  1.3448
 6122SOL    HW229826   0.432   3.054   6.860 -0.5912  0.4434 -2.0760
 6123SOL     OW29827   1.460   2.876   3.404  0.2779 -0.3411  0.5244
 6123SOL    HW129828   1.460   2.970   3.422 -1.3746 -0.1416 -0.5020
 6123SOL    HW229829   1.547   2.845   3.378  0.5948  0.3446  0.7824
 6124SOL     OW29830   2.606   2.090   8.541 -0.0022  0.2714 -0.4285
 6124SOL    HW129831   2.534   2.054   8.592  0.9343  1.2215  1.5960
 6124SOL    HW229832   2.625   2.174   8.585  2.0486  1.0440 -2.7753
 6125SOL     OW29833   2.488   2.159   3.415 -0.5012  0.3903  0.1874
 6125SOL    HW129834   2.492   2.215   3.338 -1.6843  0.4532  0.1674
 6125SOL    HW229835   2.518   2.079   3.373 -0.0285  1.3910 -1.3485
 6126SOL     OW29836   4.397   4.439  11.675  0.2998  0.0522  0.7990
 6126SOL    HW129837   4.384   4.520  11.625  1.0155  1.4669  2.9339
 6126SOL    HW229838   4.346   4.460  11.753  1.3499 -0.2350  1.5540
 6127SOL     OW29839   2.023   0.102   2.976 -0.0063  0.1693  0.2068
 6127SOL    HW129840   1.979   0.159   2.912  1.4280  0.5799 -0.4038
 6127SOL    HW229841   2.113   0.129   2.959 -0.0904  0.9305  0.9412
 6128SOL     OW29842   0.258   1.981  10.996  0.4394  0.9176  0.1240
 6128SOL    HW129843   0.168   1.966  10.966  1.0937  1.1139 -1.9850
 6128SOL    HW229844   0.255   2.052  11.060 -0.3807  0.8097  0.2117
 6129SOL     OW29845   2.041   4.394   8.012 -0.4379 -0.1027  0.7840
 6129SOL    HW129846   1.986   4.434   7.945 -1.8165 -0.4959  1.6618
 6129SOL    HW229847   1.978   4.379   8.083 -0.6448 -1.7633  0.2605
 6130SOL     OW29848   3.069   0.520   4.138 -0.1793 -0.1726  0.0375
 6130SOL    HW129849   3.011   0.564   4.077 -2.0619 -0.0766  1.8963
 6130SOL    HW229850   3.147   0.574   4.125  0.4473 -1.0823  0.0220
 6131SOL     OW29851   0.426   2.964   1.661  0.0696 -0.2132 -0.0258
 6131SOL    HW129852   0.390   2.901   1.599  1.9691 -0.3458 -0.9878
 6131SOL    HW229853   0.395   2.942   1.749 -0.2930  2.9308  0.6326
 6132SOL     OW29854   1.615   0.599   7.533 -0.1043  0.0716  0.3882
 6132SOL    HW129855   1.665   0.607   7.614  1.0734 -0.8808 -0.2506
 6132SOL    HW229856   1.568   0.516   7.541  2.7428 -1.5628  0.1448
 6133SOL     OW29857   2.751   4.063   2.816  0.7360 -0.1249 -0.3430
 6133SOL    HW129858   2.764   3.968   2.807 -0.2550 -0.2230 -0.7440
 6133SOL    HW229859   2.656   4.059   2.812  0.4964  2.4410  2.9993
 6134SOL     OW29860   3.698   2.102   7.347  0.1278 -0.1189 -0.5310
 6134SOL    HW129861   3.655   2.019   7.366  1.7843 -0.9342 -0.3510
 6134SOL    HW229862   3.781   2.069   7.313  0.8691  1.0194  0.2121
 6135SOL     OW29863   0.973   2.104  10.553 -0.4693 -0.6920 -0.3599
 6135SOL    HW129864   0.900   2.107  10.491 -0.2401 -0.7689 -0.6324
 6135SOL    HW229865   0.934   2.059  10.628  2.0434 -0.2706  1.1516
 6136SOL     OW29866   2.489   2.068   6.999 -0.3202 -0.4301  0.1905
 6136SOL    HW129867   2.446   2.030   6.922 -2.0618  1.1869  0.3605
 6136SOL    HW229868   2.441   2.149   7.011  2.5770  1.2210  0.5889
 6137SOL     OW29869   1.755   1.468   5.210  0.0226 -0.0783  0.1360
 6137SOL    HW129870   1.703   1.548   5.208 -0.1399 -0.2057 -0.8647
 6137SOL    HW229871   1.794   1.483   5.296 -2.5142  1.2977  1.0299
 6138SOL     OW29872   1.313   3.121   4.657  0.9930  0.2535 -0.5435
 6138SOL    HW129873   1.325   3.163   4.572 -0.2841  1.1455 -0.2880
 6138SOL    HW229874   1.281   3.033   4.638 -0.9721  0.8631  0.0185
 6139SOL     OW29875   3.036   2.791   6.687 -0.1028  0.0017  0.0872
 6139SOL    HW129876   3.097   2.794   6.761  1.2765 -1.0907 -1.0043
 6139SOL    HW229877   2.982   2.712   6.695 -0.0632  0.0212  0.5793
 6140SOL     OW29878   1.112   2.566   4.717  0.1390 -0.3080  0.1603
 6140SOL    HW129879   1.097   2.472   4.715 -0.5087 -0.2554  1.9729
 6140SOL    HW229880   1.193   2.564   4.668  0.5155  1.7127  0.6879
 6141SOL     OW29881   4.370   0.014   6.293 -0.1338  0.0100 -0.0982
 6141SOL    HW129882   4.289   0.062   6.310 -1.4509 -1.9071 -1.0199
 6141SOL    HW229883   4.333   4.649   6.316  1.1897 -0.3459  0.7115
 6142SOL     OW29884   3.830   0.873   6.096 -0.6028  0.3988  0.4056
 6142SOL    HW129885   3.912   0.897   6.139 -0.4317  0.0078  0.3069
 6142SOL    HW229886   3.848   0.896   6.005  0.5779  1.5681  0.9367
 6143SOL     OW29887   4.388   1.052   2.116 -0.1527 -0.5996  0.2822
 6143SOL    HW129888   4.475   1.093   2.116  0.8900 -2.8340 -0.6519
 6143SOL    HW229889   4.325   1.124   2.113 -0.2140 -0.5352  2.8388
 6144SOL     OW29890   2.932   3.996  10.654  0.0022 -0.0771  0.5239
 6144SOL    HW129891   3.025   3.988  10.633  0.1048  0.7251  0.6670
 6144SOL    HW229892   2.929   4.092  10.647 -1.0151 -0.0557  1.2313
 6145SOL     OW29893   3.183   0.434   2.456  0.0141  0.4105  0.2150
 6145SOL    HW129894   3.127   0.357   2.444 -0.7511  0.9030  0.7108
 6145SOL    HW229895   3.220   0.425   2.544 -2.1197 -2.8136  0.7644
 6146SOL     OW29896   0.557   0.968  16.000 -0.4601  0.5024  0.1317
 6146SOL    HW129897   0.530   0.876  16.005  0.1474  0.5448  3.8516
 6146SOL    HW229898   0.634   0.961  15.944 -0.8146 -0.0182 -0.3079
 6147SOL     OW29899   0.232   2.978   7.749 -0.0049 -0.3780  0.7187
 6147SOL    HW129900   0.302   2.925   7.710 -1.0688 -1.1671 -0.1114
 6147SOL    HW229901   0.210   2.934   7.831 -1.8586 -0.6634  0.0776
 6148SOL     OW29902   3.999   1.846   3.784 -0.2659 -0.0653 -0.2641
 6148SOL    HW129903   3.931   1.877   3.845  1.7310 -0.8502  2.3642
 6148SOL    HW229904   3.953   1.764   3.770 -2.4825  0.7085  2.4069
 6149SOL     OW29905   1.638   0.396   9.459 -0.4583 -0.1014 -0.2991
 6149SOL    HW129906   1.704   0.398   9.528 -1.5694  0.5942  0.7416
 6149SOL    HW229907   1.695   0.399   9.382 -0.7489 -3.0461 -0.6421
 6150SOL     OW29908   1.700   3.384  16.823 -0.1532  0.4138 -0.2021
 6150SOL    HW129909   1.624   3.347  16.868  1.0855 -0.2962  1.2828
 6150SOL    HW229910   1.659   3.374  16.737  0.1821 -1.7248 -0.0989
 6151SOL     OW29911   3.205   4.157   9.424 -0.3311  0.1884 -0.1517
 6151SOL    HW129912   3.182   4.209   9.501 -0.5146  1.1276 -0.8400
 6151SOL    HW229913   3.211   4.071   9.466  0.8902 -0.8655 -2.4282
 6152SOL     OW29914   2.848   4.084  11.706  0.1467  0.3570 -0.3362
 6152SOL    HW129915   2.848   4.144  11.631  0.3392 -0.9360 -1.3692
 6152SOL    HW229916   2.817   4.005  11.662 -0.7739 -0.3232  1.5444
 6153SOL     OW29917   1.877   3.907  14.922 -0.1498  0.0257 -0.0103
 6153SOL    HW129918   1.868   4.001  14.938 -1.9041  0.1581 -1.6511
 6153SOL    HW229919   1.884   3.912  14.826 -0.7837 -1.1440 -0.1221
 6154SOL     OW29920   2.315   0.787   7.379  0.8735  0.4856 -0.1628
 6154SOL    HW129921   2.227   0.752   7.366  0.3247  1.2517  1.5195
 6154SOL    HW229922   2.288   0.878   7.369  2.4780  0.9219 -0.6788
 6155SOL     OW29923   2.721   0.289   4.261  0.3680  0.0620 -0.0887
 6155SOL    HW129924   2.741   0.275   4.169 -0.0310  1.4886 -0.3953
 6155SOL    HW229925   2.651   0.225   4.277 -0.4888  0.5493 -1.9078
 6156SOL     OW29926   0.128   0.845  12.512  0.7142 -0.1514 -0.3155
 6156SOL    HW129927   0.111   0.883  12.599  3.0634 -0.5275  0.2983
 6156SOL    HW229928   0.185   0.920  12.493 -0.1040  0.4619 -0.3690
 6157SOL     OW29929   3.042   1.817  16.284 -0.0207  0.0895 -0.0117
 6157SOL    HW129930   3.015   1.891  16.230 -1.7187  0.8292  1.8420
 6157SOL    HW229931   3.133   1.816  16.254 -0.3048  0.0999 -0.8668
 6158SOL     OW29932   4.249   0.518  13.693  0.0590  0.1377  0.9098
 6158SOL    HW129933   4.275   0.598  13.741 -2.6578  0.3537  2.0521
 6158SOL    HW229934   4.336   0.501  13.658 -1.1521 -1.8466 -1.0680
 6159SOL     OW29935   4.488   2.991   5.127  0.5455  0.1345 -1.1291
 6159SOL    HW129936   4.480   2.896   5.119 -1.0320  0.2163 -0.5191
 6159SOL    HW229937   4.448   3.015   5.043  2.0778 -0.8251 -2.1619
 6160SOL     OW29938   4.620   3.994   3.235 -0.3745  0.3513  0.9332
 6160SOL    HW129939   4.536   3.986   3.189  0.0803  0.5541  0.0583
 6160SOL    HW229940   4.682   3.947   3.178  0.0229 -0.9538  2.4311
 6161SOL     OW29941   2.020   2.998   8.243  0.0949  0.2011 -0.1941
 6161SOL    HW129942   2.038   2.929   8.180  1.4046  1.5055 -1.2643
 6161SOL    HW229943   2.018   2.956   8.328  0.2289  2.6161  1.0134
 6162SOL     OW29944   3.805   2.201   5.442 -0.0764 -0.0952  0.0909
 6162SOL    HW129945   3.740   2.205   5.512 -1.9410 -1.3681 -1.5832
 6162SOL    HW229946   3.754   2.165   5.370  1.4923  0.7118 -1.4388
 6163SOL     OW29947   2.660   0.316   2.354  0.4696 -0.2704 -0.0700
 6163SOL    HW129948   2.692   0.290   2.267  0.2378  2.4815 -0.9579
 6163SOL    HW229949   2.637   0.407   2.340  2.2298 -0.0723 -1.8141
 6164SOL     OW29950   4.477   2.944  12.233 -0.2476 -0.1503 -0.4472
 6164SOL    HW129951   4.420   2.887  12.285 -0.3599 -0.5023 -0.9525
 6164SOL    HW229952   4.436   3.029  12.251  1.0345  0.8454 -2.1227
 6165SOL     OW29953   3.191   3.148   8.031 -0.1529 -0.2175 -0.1754
 6165SOL    HW129954   3.170   3.236   8.000 -0.9065 -0.0705  0.7447
 6165SOL    HW229955   3.264   3.172   8.089  0.6663 -1.1839 -0.8070
 6166SOL     OW29956   1.663   3.454   4.652  0.1081  0.7813 -0.2695
 6166SOL    HW129957   1.608   3.497   4.719  0.4871  0.7864  0.0366
 6166SOL    HW229958   1.710   3.394   4.709  0.7718  2.5214  1.0420
 6167SOL     OW29959   2.614   3.905   2.026 -0.2024  0.0467 -0.0899
 6167SOL    HW129960   2.540   3.845   2.033 -1.3592  1.3649 -0.9490
 6167SOL    HW229961   2.592   3.977   2.085 -0.1417 -0.5591  0.6590
 6168SOL     OW29962   0.609   0.864   2.008  0.3393  0.9720  0.5102
 6168SOL    HW129963   0.625   0.785   1.956  1.1629  1.4671  0.0106
 6168SOL    HW229964   0.697   0.902   2.010 -0.3432  2.6417 -1.2818
 6169SOL     OW29965   1.815   2.856  16.888 -0.0523  0.2536  0.6368
 6169SOL    HW129966   1.769   2.937  16.910  0.0700  0.1158  1.4115
 6169SOL    HW229967   1.745   2.793  16.909  0.2730  0.2277  1.6201
 6170SOL     OW29968   4.708   2.983   2.058 -0.0643  0.8167 -0.2565
 6170SOL    HW129969   4.673   2.896   2.039  1.6902  0.2770 -1.0659
 6170SOL    HW229970   0.013   3.002   1.968 -1.2256  0.6076 -0.6332
 6171SOL     OW29971   1.513   1.876   9.363  0.2181 -0.4612 -0.6324
 6171SOL    HW129972   1.446   1.892   9.297 -0.2281  0.5274  0.0601
 6171SOL    HW229973   1.475   1.914   9.443 -0.0508  0.3096 -1.1276
 6172SOL     OW29974   0.577   4.081  17.574 -0.0512 -0.3245 -0.0497
 6172SOL    HW129975   0.593   4.072  17.668  0.0658 -2.5244 -0.2950
 6172SOL    HW229976   0.562   3.988  17.563 -3.1553  0.4811 -2.4788
 6173SOL     OW29977   3.429   3.908   4.033 -0.0119  0.4343  0.3086
 6173SOL    HW129978   3.395   3.949   4.112 -1.1180 -2.6249  1.4266
 6173SOL    HW229979   3.483   3.833   4.058  0.0039  0.5274  0.5506
 6174SOL     OW29980   0.200   1.942   0.998  0.0167 -0.0130  0.1849
 6174SOL    HW129981   0.200   1.967   0.905  0.3210 -1.0696 -0.0998
 6174SOL    HW229982   0.292   1.917   1.009 -0.1992 -0.7223  0.3782
 6175SOL     OW29983   2.219   1.480   8.420 -0.2000 -0.3632  0.3213
 6175SOL    HW129984   2.242   1.411   8.357 -1.7168 -0.3714 -0.2196
 6175SOL    HW229985   2.190   1.549   8.361  0.3144 -1.1768 -0.8917
 6176SOL     OW29986   3.761   3.449   8.089 -0.0786  0.2073 -0.5654
 6176SOL    HW129987   3.747   3.364   8.132  1.4848 -0.4476 -1.3515
 6176SOL    HW229988   3.670   3.474   8.075 -0.2680 -1.3243 -2.0362
 6177SOL     OW29989   2.966   0.569  12.045  0.1855 -0.1293 -0.7800
 6177SOL    HW129990   2.966   0.651  11.997  0.3437 -0.3998 -1.2456
 6177SOL    HW229991   2.922   0.591  12.127  0.5353 -0.0159 -0.6228
 6178SOL     OW29992   3.944   2.010   0.028 -0.6448 -0.4211 -0.2788
 6178SOL    HW129993   3.965   2.079   0.091  0.7900 -1.1594  0.0410
 6178SOL    HW229994   3.963   1.935   0.083 -0.0985  0.9499  1.4087
 6179SOL     OW29995   4.504   4.187   4.957  0.0454 -0.9840 -0.2243
 6179SOL    HW129996   4.507   4.204   4.863 -0.7454 -1.0827 -0.2636
 6179SOL    HW229997   4.595   4.182   4.987  0.5110 -1.8350 -1.7979
 6180SOL     OW29998   3.272   4.410   6.144  0.3969 -0.0418 -0.5204
 6180SOL    HW129999   3.255   4.502   6.159 -1.9870 -0.6749  0.6107
 6180SOL    HW230000   3.183   4.374   6.145  0.6392 -0.5708  1.2545
 6181SOL     OW30001   2.039   0.304   3.777  0.3452  0.2380  0.2136
 6181SOL    HW130002   1.963   0.265   3.819  0.1416 -0.2936 -0.6386
 6181SOL    HW230003   2.061   0.382   3.828  1.0619 -1.0537  1.8444
 6182SOL     OW30004   0.799   3.014   3.884  0.1288 -0.6095  0.6790
 6182SOL    HW130005   0.756   2.984   3.964 -0.9423 -1.8381 -0.3503
 6182SOL    HW230006   0.727   3.048   3.831  0.8526  0.4216  0.3661
 6183SOL     OW30007   1.703   1.186   6.528  0.0878 -0.5090 -0.5411
 6183SOL    HW130008   1.670   1.228   6.449 -1.3087 -1.4482 -0.4654
 6183SOL    HW230009   1.673   1.243   6.598 -2.9742 -1.1283 -1.3693
 6184SOL     OW30010   0.164   1.462   9.070 -0.4004  0.0317 -0.4337
 6184SOL    HW130011   0.221   1.385   9.072 -1.2066 -0.5525  0.7802
 6184SOL    HW230012   0.212   1.521   9.127  1.3499 -0.6820 -1.1795
 6185SOL     OW30013   1.019   1.149  10.692  1.0956  0.1920  0.1609
 6185SOL    HW130014   1.002   1.236  10.656  0.3182  0.4276  1.0814
 6185SOL    HW230015   1.044   1.167  10.782  0.6717  1.2881  0.0658
 6186SOL     OW30016   4.017   3.323  16.378  1.1723 -0.7896  0.0293
 6186SOL    HW130017   4.006   3.228  16.377  1.1529 -0.8016  1.6208
 6186SOL    HW230018   3.941   3.361  16.334  2.9731  2.2652 -0.4611
 6187SOL     OW30019   0.725   4.691   3.957 -0.8267 -0.1534 -0.2290
 6187SOL    HW130020   0.693   0.001   4.041 -0.8011 -0.2289 -0.1912
 6187SOL    HW230021   0.715   4.596   3.963 -2.5711  0.0536  0.2983
 6188SOL     OW30022   3.218   1.599   0.355 -0.2037  0.5475 -0.2339
 6188SOL    HW130023   3.158   1.556   0.295  0.6393 -0.0232 -0.6697
 6188SOL    HW230024   3.235   1.682   0.310  1.7148 -0.3933 -1.2418
 6189SOL     OW30025   0.587   2.352   8.929  0.1024 -0.1208 -0.8360
 6189SOL    HW130026   0.593   2.444   8.905 -0.1958  0.2437  0.4938
 6189SOL    HW230027   0.493   2.338   8.925  0.3238 -2.0135  0.6786
 6190SOL     OW30028   1.210   3.999   3.691 -0.4254 -0.0399  0.7239
 6190SOL    HW130029   1.161   4.034   3.616  1.4282 -0.1375 -0.5502
 6190SOL    HW230030   1.206   4.077   3.745  0.1947 -1.8284  3.3461
 6191SOL     OW30031   3.225   0.578   2.217  0.0841  0.0636  0.2104
 6191SOL    HW130032   3.213   0.507   2.153 -0.6266  0.1750  0.2231
 6191SOL    HW230033   3.213   0.528   2.299  2.3655 -1.4916 -0.3925
 6192SOL     OW30034   4.542   4.189   3.869 -0.1249  0.1334  0.0568
 6192SOL    HW130035   4.475   4.257   3.864 -1.1459 -0.9463 -0.8469
 6192SOL    HW230036   4.498   4.116   3.824  0.9518 -0.3236 -0.2510
 6193SOL     OW30037   4.125   1.575   1.498 -0.2016  0.4626  0.0486
 6193SOL    HW130038   4.040   1.608   1.470  1.3796  2.4026 -2.5018
 6193SOL    HW230039   4.109   1.484   1.522 -1.8831  0.8013  0.1988
 6194SOL     OW30040   0.102   2.493  15.251  0.0324  0.0456 -0.2039
 6194SOL    HW130041   0.161   2.532  15.187 -0.8839 -2.3063 -2.4728
 6194SOL    HW230042   0.115   2.399  15.235  0.5283 -0.3320  2.3219
 6195SOL     OW30043   2.689   4.553   7.689 -0.2122 -0.0728 -0.2575
 6195SOL    HW130044   2.650   4.466   7.687 -3.2613  1.3368 -1.6645
 6195SOL    HW230045   2.737   4.558   7.771 -1.1527  0.6344  0.2471
 6196SOL     OW30046   2.374   4.662  15.070  0.7125  0.1996 -0.4186
 6196SOL    HW130047   2.380   4.716  14.991 -0.9636 -0.7443 -1.1960
 6196SOL    HW230048   2.311   4.593  15.048 -1.9974  2.6147 -0.3261
 6197SOL     OW30049   0.140   0.205   6.844  0.0263 -0.2599  0.2768
 6197SOL    HW130050   0.182   0.241   6.922  0.9435  1.6070 -1.0717
 6197SOL    HW230051   0.047   0.222   6.861 -0.0513  0.3292 -0.7514
 6198SOL     OW30052   1.055   4.293   1.067 -0.3735 -0.2674 -0.1620
 6198SOL    HW130053   1.028   4.202   1.057 -0.1663 -0.6185  2.4520
 6198SOL    HW230054   0.973   4.339   1.082 -0.1982  0.1765 -0.5801
 6199SOL     OW30055   4.289   1.858   3.762  0.0726  0.1655  0.2743
 6199SOL    HW130056   4.200   1.854   3.797 -0.1342  1.3848 -0.1083
 6199SOL    HW230057   4.323   1.772   3.785 -1.3752 -0.2029  1.0472
 6200SOL     OW30058   1.279   3.105   6.381  0.2637 -0.2061  0.4338
 6200SOL    HW130059   1.314   3.033   6.328  2.4531 -0.9051  2.8624
 6200SOL    HW230060   1.207   3.067   6.432  0.0642  0.0497  0.3454
 6201SOL     OW30061   0.103   3.385   9.274  1.0857 -0.4758 -0.6703
 6201SOL    HW130062   0.117   3.473   9.308  0.9654 -0.2970 -1.0788
 6201SOL    HW230063   0.192   3.351   9.261  0.7210 -1.5202 -0.4936
 6202SOL     OW30064   3.320   1.103  10.859  0.5369 -0.3089 -0.5212
 6202SOL    HW130065   3.280   1.053  10.931  0.5969  2.0249  1.1396
 6202SOL    HW230066   3.399   1.135  10.902 -0.2265 -0.7241  1.2350
 6203SOL     OW30067   2.229   1.705   5.185  0.1082 -0.0150 -0.0038
 6203SOL    HW130068   2.245   1.770   5.253  2.5144  0.0477 -0.6313
 6203SOL    HW230069   2.319   1.679   5.166  0.4008  0.2004  1.0731
 6204SOL     OW30070   0.052   4.023  12.755  0.2233 -0.3008 -0.1832
 6204SOL    HW130071   0.092   3.941  12.727  0.3921 -0.3883  0.3265
 6204SOL    HW230072   4.719   4.042  12.678 -0.2360 -0.4599  0.0982
 6205SOL     OW30073   2.240   4.373   4.608 -0.1589 -0.5486  0.6612
 6205SOL    HW130074   2.216   4.399   4.519 -2.0537 -1.7691  0.8109
 6205SOL    HW230075   2.166   4.316   4.629 -0.2160 -1.3680 -1.7910
 6206SOL     OW30076   4.094   2.683   4.563  0.1403 -0.1850 -0.0766
 6206SOL    HW130077   4.134   2.602   4.530  1.6790  1.3072 -1.8312
 6206SOL    HW230078   4.074   2.730   4.482  0.6417  0.2085  0.0342
 6207SOL     OW30079   1.574   4.243  17.618 -0.2198 -0.6948 -0.0686
 6207SOL    HW130080   1.515   4.303  17.662 -2.8309 -2.3908 -1.2265
 6207SOL    HW230081   1.618   4.307  17.562 -1.0134 -0.6425 -0.6385
 6208SOL     OW30082   2.727   4.069   8.020 -0.4952 -0.2272  0.1047
 6208SOL    HW130083   2.796   4.017   8.061  0.8382  0.6136 -1.0990
 6208SOL    HW230084   2.661   4.006   7.992  0.4689 -0.6870 -1.0957
 6209SOL     OW30085   0.734   1.560   7.524  0.7112  0.4577 -0.3081
 6209SOL    HW130086   0.672   1.633   7.534  0.3994  0.3742 -1.7094
 6209SOL    HW230087   0.815   1.610   7.526 -0.4500  2.2923  1.4631
 6210SOL     OW30088   2.595   4.019   5.045  0.0858 -0.4806  0.4670
 6210SOL    HW130089   2.690   4.025   5.038 -0.1070  1.1456 -0.6803
 6210SOL    HW230090   2.595   3.948   5.109  1.9614  0.0324  1.0262
 6211SOL     OW30091   0.018   2.601   9.005  0.5877 -0.1738  0.1140
 6211SOL    HW130092   0.036   2.618   8.913 -1.5684  0.3448 -0.2242
 6211SOL    HW230093   4.646   2.579   9.002  0.6009 -0.2362  0.1721
 6212SOL     OW30094   0.856   1.082   4.039  0.1348  0.3450  0.0812
 6212SOL    HW130095   0.940   1.090   3.994  0.6316  0.7329  1.0614
 6212SOL    HW230096   0.876   1.123   4.124  1.6296 -2.1627  0.9327
 6213SOL     OW30097   2.530   1.657   7.229 -0.1727 -0.7173 -0.0631
 6213SOL    HW130098   2.479   1.683   7.152 -0.5629  0.1693  0.4869
 6213SOL    HW230099   2.595   1.597   7.195  0.1564 -0.8432  0.7964
 6214SOL     OW30100   0.960   1.388  12.310  0.5327  0.0906  0.4486
 6214SOL    HW130101   1.020   1.386  12.235  1.2081 -0.4627  0.9960
 6214SOL    HW230102   1.013   1.445  12.366  0.9570  0.0242  0.1172
 6215SOL     OW30103   3.743   4.251   5.626 -0.9336  0.4725 -0.1414
 6215SOL    HW130104   3.828   4.207   5.612 -1.1945  0.2768 -1.1037
 6215SOL    HW230105   3.768   4.334   5.585  1.1062  0.7492  1.6251
 6216SOL     OW30106   2.591   1.803  11.706  0.1344  0.1297 -0.3084
 6216SOL    HW130107   2.576   1.708  11.704 -0.2682  0.1746  0.5261
 6216SOL    HW230108   2.617   1.819  11.616 -2.3679  0.3781 -0.9918
 6217SOL     OW30109   0.851   0.199   1.973  0.2461 -0.3253 -0.0214
 6217SOL    HW130110   0.813   0.260   2.037 -0.9140 -0.3776 -0.6669
 6217SOL    HW230111   0.929   0.185   2.026  0.2330 -2.0735 -0.4748
 6218SOL     OW30112   4.385   2.307  14.359 -0.3996  0.0579 -0.0933
 6218SOL    HW130113   4.446   2.376  14.334 -1.0799  0.4139 -0.7740
 6218SOL    HW230114   4.385   2.243  14.288 -3.8870 -1.3919  1.2269
 6219SOL     OW30115   1.927   1.464  14.152 -0.2963  0.3423 -0.4120
 6219SOL    HW130116   1.858   1.517  14.111 -0.6283  1.2342  1.2823
 6219SOL    HW230117   1.875   1.450  14.231 -0.9570  2.6919 -0.4234
 6220SOL     OW30118   0.173   4.209   3.216 -0.2791 -0.2896 -0.0345
 6220SOL    HW130119   0.209   4.277   3.272  1.1844 -2.8635  2.1348
 6220SOL    HW230120   0.158   4.249   3.131 -3.1217 -0.7813  0.2315
 6221SOL     OW30121   4.054   0.143   4.667  0.6684  0.2940  0.3586
 6221SOL    HW130122   4.036   0.089   4.590  1.1577 -0.5032  0.7960
 6221SOL    HW230123   3.966   0.180   4.675 -0.1643 -1.9103  1.6281
 6222SOL     OW30124   1.827   0.343  14.888 -0.2981  0.5423 -0.6283
 6222SOL    HW130125   1.912   0.387  14.884  0.0520 -0.3262 -2.9782
 6222SOL    HW230126   1.780   0.406  14.942 -2.4409 -1.2221 -0.4450
 6223SOL     OW30127   4.557   2.732   0.148  0.0072  0.1527  0.0748
 6223SOL    HW130128   4.623   2.765   0.086 -0.1973 -0.2146 -0.3309
 6223SOL    HW230129   4.521   2.819   0.168  0.3874 -0.0525  1.6321
 6224SOL     OW30130   0.047   4.078   4.677  1.0252  0.2204 -0.6873
 6224SOL    HW130131   0.122   4.045   4.726  0.3157 -2.8129 -1.6381
 6224SOL    HW230132   4.718   4.134   4.737  1.6658 -2.2016  2.1134
 6225SOL     OW30133   4.063   2.484  10.305 -0.0416 -0.3769  0.0012
 6225SOL    HW130134   4.116   2.432  10.366 -0.5984 -0.9645 -0.0178
 6225SOL    HW230135   4.012   2.412  10.268  2.1112 -1.9769  0.1762
 6226SOL     OW30136   1.264   2.471  13.869 -0.1596 -0.3639 -0.0383
 6226SOL    HW130137   1.188   2.524  13.890  0.3401  1.5293 -2.9790
 6226SOL    HW230138   1.291   2.427  13.950 -0.4784 -1.6312 -0.6169
 6227SOL     OW30139   3.470   2.251   6.156 -0.2242 -0.2404 -0.0917
 6227SOL    HW130140   3.477   2.169   6.107 -0.7319  1.0083 -2.2243
 6227SOL    HW230141   3.485   2.222   6.247 -0.2532  0.7065  0.2151
 6228SOL     OW30142   3.790   2.331  13.978 -0.5892 -0.0140  0.5847
 6228SOL    HW130143   3.851   2.282  14.033  1.2302  1.8532  0.2197
 6228SOL    HW230144   3.732   2.369  14.044  0.5061  1.5684  0.6469
 6229SOL     OW30145   3.606   4.273   4.725  0.1973  0.7671  0.6456
 6229SOL    HW130146   3.678   4.330   4.699  1.6267 -1.6277 -0.7131
 6229SOL    HW230147   3.639   4.262   4.814 -0.9808 -0.8231  0.8838
 6230SOL     OW30148   3.985   4.328   1.408  0.0820  0.4260 -0.1586
 6230SOL    HW130149   3.954   4.357   1.322  1.2146 -0.6122 -0.9155
 6230SOL    HW230150   3.938   4.245   1.415 -1.3132  1.3075  1.0546
 6231SOL     OW30151   2.248   0.937   7.709  0.3361  0.4157 -0.0152
 6231SOL    HW130152   2.180   0.963   7.647 -1.9377 -1.0517  1.8307
 6231SOL    HW230153   2.277   1.020   7.747 -2.9339  1.8638 -0.6542
 6232SOL     OW30154   3.754   2.837   8.801 -0.4926 -0.0230  0.5446
 6232SOL    HW130155   3.750   2.902   8.872  0.7199 -0.8534  1.3673
 6232SOL    HW230156   3.706   2.762   8.838 -0.7196  0.2717  0.8497
 6233SOL     OW30157   4.023   2.882   9.264 -0.1140 -0.1383  0.1644
 6233SOL    HW130158   3.983   2.860   9.180 -1.4974 -2.2267  1.3679
 6233SOL    HW230159   4.020   2.978   9.266  0.1991 -0.1165 -0.4355
 6234SOL     OW30160   4.080   0.693   1.530  0.5102  0.0394  0.1829
 6234SOL    HW130161   4.033   0.766   1.490  0.1336 -0.5629 -0.4784
 6234SOL    HW230162   4.040   0.620   1.483  1.5389 -0.4385  0.0627
 6235SOL     OW30163   4.644   0.016   3.738  0.0837 -0.5056  0.0220
 6235SOL    HW130164   4.604   0.054   3.816  2.5212  5.4663 -1.5816
 6235SOL    HW230165   0.012   0.005   3.772  0.0845  3.9857  1.4533
 6236SOL     OW30166   3.329   4.289   6.387 -0.4556 -0.0685  0.2744
 6236SOL    HW130167   3.305   4.342   6.311  1.9754  1.1432  0.3658
 6236SOL    HW230168   3.407   4.338   6.413 -0.3703 -0.5898  1.0072
 6237SOL     OW30169   4.519   3.982   6.572  0.5797 -0.4430 -0.0806
 6237SOL    HW130170   4.513   3.933   6.654  0.4547 -1.3226 -0.6206
 6237SOL    HW230171   4.600   4.032   6.584  0.0027  0.5683 -0.3621
 6238SOL     OW30172   0.114   1.462   0.550  0.2500  0.2983  0.0004
 6238SOL    HW130173   0.141   1.480   0.640  0.2734  2.0258 -0.3529
 6238SOL    HW230174   0.130   1.545   0.506  1.2427  1.0781  1.8154
 6239SOL     OW30175   2.099   3.756   3.029  0.4833  0.3069  0.2833
 6239SOL    HW130176   2.190   3.730   3.044  0.6090 -0.6988 -2.3324
 6239SOL    HW230177   2.071   3.682   2.976  0.9888 -0.6320  1.3128
 6240SOL     OW30178   2.545   1.783   6.358  0.3513 -0.4468 -0.2503
 6240SOL    HW130179   2.489   1.734   6.419 -1.5652  2.1115  0.0280
 6240SOL    HW230180   2.593   1.710   6.318 -0.3808 -0.0159 -1.9036
 6241SOL     OW30181   2.086   4.635   6.341  0.1388 -0.4768 -0.2726
 6241SOL    HW130182   2.014   4.573   6.331 -0.2476 -0.0771  0.0743
 6241SOL    HW230183   2.143   4.579   6.393  0.8947 -0.6050 -1.2304
 6242SOL     OW30184   4.025   0.483  15.910  0.3283 -0.1348  0.0493
 6242SOL    HW130185   3.929   0.492  15.909  0.1683 -1.9025 -0.8698
 6242SOL    HW230186   4.041   0.441  15.825  0.5426 -1.1957  0.6145
 6243SOL     OW30187   1.829   1.866   1.828  0.4033 -0.2273 -0.4174
 6243SOL    HW130188   1.916   1.826   1.826  1.6120  2.1926  2.5231
 6243SOL    HW230189   1.785   1.799   1.775  0.7155 -1.3657  0.7620
 6244SOL     OW30190   4.694   0.678  11.068 -0.2243  0.3296 -0.2786
 6244SOL    HW130191   4.619   0.736  11.081  0.3812  0.5291  2.2650
 6244SOL    HW230192   0.029   0.721  11.131  0.9803 -1.7409  0.0673
 6245SOL     OW30193   1.928   2.191   2.794 -1.1326 -0.2176  0.5981
 6245SOL    HW130194   1.909   2.259   2.728  1.8072  0.7848  0.7989
 6245SOL    HW230195   2.016   2.165   2.768 -0.9207  0.4891  0.5955
 6246SOL     OW30196   1.780   3.745   0.043 -0.3660  0.6862 -0.1417
 6246SOL    HW130197   1.787   3.737   0.138  1.4624 -0.5320 -0.3853
 6246SOL    HW230198   1.729   3.826   0.038 -0.3724  0.7792  1.6522
 6247SOL     OW30199   1.274   2.305  14.661 -0.0862  0.5644  0.4722
 6247SOL    HW130200   1.353   2.330  14.612 -0.6387 -0.8272 -1.1428
 6247SOL    HW230201   1.311   2.279  14.745 -0.7508 -0.4173  0.4525
 6248SOL     OW30202   2.383   3.387  10.217 -0.4782 -0.7413 -0.1038
 6248SOL    HW130203   2.299   3.356  10.185 -0.8242 -1.1923  1.2442
 6248SOL    HW230204   2.364   3.481  10.211  0.6476 -0.4195  1.2983
 6249SOL     OW30205   0.442   2.582   1.685  0.3454  0.1583 -0.3148
 6249SOL    HW130206   0.429   2.650   1.619  2.8226  0.1442 -0.8017
 6249SOL    HW230207   0.358   2.580   1.732 -0.0426  1.7187 -0.9464
 6250SOL     OW30208   4.194   0.134   4.193 -0.5533  0.0699  0.3513
 6250SOL    HW130209   4.143   0.090   4.260 -0.3524 -1.1796 -0.3065
 6250SOL    HW230210   4.274   0.081   4.188 -0.4320  0.2525  0.3581
 6251SOL     OW30211   0.502   1.701   6.249  0.2939  0.1655  0.0216
 6251SOL    HW130212   0.423   1.740   6.287  1.7118  0.8229  2.3025
 6251SOL    HW230213   0.470   1.681   6.161 -1.5322  1.3757  0.4029
 6252SOL     OW30214   2.361   4.366   8.860  0.1528  0.3528  0.1171
 6252SOL    HW130215   2.316   4.447   8.883 -1.0616 -0.4043  0.3864
 6252SOL    HW230216   2.442   4.397   8.818  2.6782 -3.7677  1.9263
 6253SOL     OW30217   4.371   4.195   7.388  0.5013  0.3688  0.0845
 6253SOL    HW130218   4.289   4.175   7.433  1.2894 -2.8076  0.1575
 6253SOL    HW230219   4.410   4.107   7.391  0.2516  0.2369 -0.3666
 6254SOL     OW30220   3.577   2.652   8.926 -0.1471 -0.1038 -0.0258
 6254SOL    HW130221   3.555   2.559   8.923 -0.7828  0.0435  0.1078
 6254SOL    HW230222   3.496   2.694   8.954 -0.3106 -0.8004  0.5357
 6255SOL     OW30223   1.434   4.442   3.211  0.0343  0.0038  0.3267
 6255SOL    HW130224   1.520   4.432   3.169  0.0347  0.4347  0.2272
 6255SOL    HW230225   1.458   4.463   3.302 -1.0414 -2.1409  1.0858
 6256SOL     OW30226   4.160   0.225  10.846  0.2282 -0.1676 -0.1760
 6256SOL    HW130227   4.102   0.200  10.775  0.3872  0.5929 -0.5643
 6256SOL    HW230228   4.127   0.313  10.862  2.9783  0.5289  1.7981
 6257SOL     OW30229   1.622   3.470  12.462 -0.2953  0.0089  0.3778
 6257SOL    HW130230   1.652   3.383  12.438 -1.6146 -0.3952  0.2209
 6257SOL    HW230231   1.557   3.434  12.522 -2.0238 -0.7992 -1.9889
 6258SOL     OW30232   3.590   3.357   7.215 -0.3174  0.3595  0.4176
 6258SOL    HW130233   3.542   3.428   7.257  1.4182  2.1782 -0.6581
 6258SOL    HW230234   3.633   3.407   7.146 -1.9577 -0.6316 -1.3315
 6259SOL     OW30235   4.029   2.062  11.105  0.0957  0.3620 -0.2216
 6259SOL    HW130236   4.055   2.016  11.186  1.1484  2.0639  0.4085
 6259SOL    HW230237   4.117   2.070  11.069  0.7724 -1.0241  1.0932
 6260SOL     OW30238   3.463   2.047  13.937 -0.2193  0.6076 -0.5881
 6260SOL    HW130239   3.375   2.012  13.953 -0.8236  1.4868 -1.9616
 6260SOL    HW230240   3.436   2.138  13.921 -2.9226 -0.3251 -1.2594
 6261SOL     OW30241   2.578   0.599  12.870 -0.6016 -0.6207 -0.0241
 6261SOL    HW130242   2.662   0.593  12.824 -1.0071 -0.3204 -0.8169
 6261SOL    HW230243   2.517   0.616  12.798  0.8733 -2.0599 -1.6130
 6262SOL     OW30244   2.690   3.357   1.801  0.2883 -0.0978  0.0130
 6262SOL    HW130245   2.673   3.264   1.788 -0.6825  0.1608 -0.5219
 6262SOL    HW230246   2.762   3.373   1.739  0.5777 -2.6556 -0.3218
 6263SOL     OW30247   3.994   4.590   6.287 -0.0169  0.6125  0.3730
 6263SOL    HW130248   4.085   4.563   6.277  0.3266  2.9616 -2.8549
 6263SOL    HW230249   3.983   4.637   6.204 -0.7855 -1.7985 -0.8974
 6264SOL     OW30250   2.864   3.046   4.255 -0.3486 -0.4560 -0.5426
 6264SOL    HW130251   2.789   2.991   4.276 -1.0616  1.6519  2.4057
 6264SOL    HW230252   2.928   3.018   4.320  0.3347  0.4426 -0.8227
 6265SOL     OW30253   0.755   1.533   5.861 -0.4240 -0.1539 -0.3324
 6265SOL    HW130254   0.769   1.611   5.914  2.9235 -1.9888  1.4431
 6265SOL    HW230255   0.845   1.504   5.843  1.1043  4.3110  0.3361
 6266SOL     OW30256   0.201   0.182   1.019  0.1862 -0.4298 -0.0426
 6266SOL    HW130257   0.234   0.231   1.095 -1.9972  1.4447 -0.2990
 6266SOL    HW230258   0.114   0.165   1.054  0.3732  0.0602  0.6717
 6267SOL     OW30259   4.616   2.562  13.954 -0.0576 -0.2267 -0.5219
 6267SOL    HW130260   4.662   2.533  13.875 -0.1869  0.1157 -0.7212
 6267SOL    HW230261   4.593   2.475  13.986 -0.7557 -0.0776 -0.6317
 6268SOL     OW30262   0.853   2.670   6.950  0.1102  0.2661 -0.2118
 6268SOL    HW130263   0.874   2.745   7.006 -0.8377  1.1662 -1.0602
 6268SOL    HW230264   0.766   2.696   6.920  0.9723  0.5463 -2.4418
 6269SOL     OW30265   3.997   2.486  14.295 -0.4803 -0.3393 -0.1816
 6269SOL    HW130266   4.015   2.536  14.215 -2.9781  0.0199 -0.5087
 6269SOL    HW230267   4.038   2.539  14.364 -1.5425  2.5519 -1.7810
 6270SOL     OW30268   0.363   1.807   5.572  0.6362  0.3247 -0.4035
 6270SOL    HW130269   0.394   1.896   5.550 -0.4193  0.2537 -2.1609
 6270SOL    HW230270   0.400   1.796   5.660 -0.2294 -1.3763 -0.2722
 6271SOL     OW30271   0.569   4.703   9.307  0.3197 -0.0340  0.7612
 6271SOL    HW130272   0.644   4.669   9.258  1.4841 -2.3594  4.1419
 6271SOL    HW230273   0.516   0.026   9.241  1.3203 -1.5831 -1.0742
 6272SOL     OW30274   0.509   0.313   2.282  0.6310 -0.2712 -0.5575
 6272SOL    HW130275   0.585   0.323   2.339  0.2946  4.1845 -0.9296
 6272SOL    HW230276   0.527   0.369   2.207  0.4135  0.4735 -0.0478
 6273SOL     OW30277   1.933   4.343   4.962  0.7722 -0.3546  0.1914
 6273SOL    HW130278   2.008   4.401   4.947  0.1682  0.0205 -1.4112
 6273SOL    HW230279   1.882   4.358   4.882  0.0300 -0.6700  0.5998
 6274SOL     OW30280   2.356   0.548   8.584  0.6719  0.4719 -0.3701
 6274SOL    HW130281   2.422   0.516   8.646 -0.3092 -1.1413 -0.1783
 6274SOL    HW230282   2.300   0.584   8.653  1.6193 -0.2886  0.7918
 6275SOL     OW30283   1.322   4.575   8.325 -0.0939 -0.7980  0.2628
 6275SOL    HW130284   1.263   4.625   8.381 -1.1727 -0.4701 -1.1717
 6275SOL    HW230285   1.262   4.566   8.252  0.5173 -0.2569 -0.3071
 6276SOL     OW30286   1.198   2.085  14.509  0.3382 -0.0123  0.2595
 6276SOL    HW130287   1.193   2.172  14.549 -0.7805  0.8354 -1.7409
 6276SOL    HW230288   1.228   2.116  14.424  1.4936 -0.0418  0.6552
 6277SOL     OW30289   1.900   3.173  11.428 -0.5226  0.3191  0.0566
 6277SOL    HW130290   1.902   3.224  11.509 -1.8165 -0.4303  0.5623
 6277SOL    HW230291   1.979   3.120  11.429 -0.6253  0.1718  0.4565
 6278SOL     OW30292   1.907   3.642   9.124  0.3042 -0.1220  0.1249
 6278SOL    HW130293   1.998   3.641   9.097  0.7711  1.0865  1.6509
 6278SOL    HW230294   1.903   3.587   9.203 -0.7952 -2.1733 -1.3615
 6279SOL     OW30295   4.449   2.090   0.755  0.1173 -0.5697  0.9692
 6279SOL    HW130296   4.522   2.075   0.696  0.6453 -1.9989  1.9778
 6279SOL    HW230297   4.390   2.137   0.696 -0.9957 -2.4965  0.5451
 6280SOL     OW30298   0.146   3.545   8.514  0.3258 -0.1143  0.5759
 6280SOL    HW130299   0.192   3.461   8.520 -0.0511 -0.2201  1.9288
 6280SOL    HW230300   0.159   3.590   8.597 -1.3458  1.2554  0.0926
 6281SOL     OW30301   3.465   3.519  14.560  0.4533 -0.3080  0.4737
 6281SOL    HW130302   3.541   3.573  14.542 -0.5981  1.2628  0.7034
 6281SOL    HW230303   3.407   3.538  14.486 -0.3885  1.4097  1.5782
 6282SOL     OW30304   2.922   3.343   6.059  0.1838 -0.3980 -0.4765
 6282SOL    HW130305   2.903   3.278   6.127  1.1135  1.0127  1.1082
 6282SOL    HW230306   2.957   3.284   5.991 -0.6415 -2.5590  0.9648
 6283SOL     OW30307   3.409   4.568   8.386  0.3101 -0.4170 -0.1924
 6283SOL    HW130308   3.414   4.591   8.479 -0.2401 -0.9581 -0.0352
 6283SOL    HW230309   3.494   4.525   8.379  0.7143  0.5104 -1.1520
 6284SOL     OW30310   0.481   3.978   4.342 -0.0886  0.2696 -0.0693
 6284SOL    HW130311   0.559   3.924   4.332 -1.4611 -1.7683  0.2928
 6284SOL    HW230312   0.521   4.033   4.409  2.6082  0.2054 -1.6117
 6285SOL     OW30313   0.935   3.129   3.220  0.4809  0.3181  0.7115
 6285SOL    HW130314   0.957   3.172   3.303 -0.4414  3.2269 -0.5435
 6285SOL    HW230315   0.866   3.067   3.242 -0.6212  2.3098  2.8497
 6286SOL     OW30316   2.545   0.834   6.877 -0.0946 -0.0204  0.6280
 6286SOL    HW130317   2.548   0.909   6.818  1.5150 -2.2416 -2.0583
 6286SOL    HW230318   2.618   0.844   6.938 -0.5412  0.0594  1.1485
 6287SOL     OW30319   0.182   3.163   4.641  0.1516 -0.1034  0.0219
 6287SOL    HW130320   0.257   3.182   4.697 -0.4584  3.9876 -0.5203
 6287SOL    HW230321   0.106   3.177   4.699  0.0398 -3.2745  0.6294
 6288SOL     OW30322   2.896   4.381   3.290 -0.2154  0.0900  0.0815
 6288SOL    HW130323   2.877   4.472   3.269  1.4543  0.1566 -1.1390
 6288SOL    HW230324   2.867   4.332   3.212 -0.4285 -0.4907  0.5289
 6289SOL     OW30325   0.762   1.593   8.092  0.2547  0.1323 -0.6495
 6289SOL    HW130326   0.705   1.669   8.106  0.3699 -0.1709  1.4556
 6289SOL    HW230327   0.743   1.539   8.168 -0.2269  2.2070  0.7082
 6290SOL     OW30328   2.744   0.151   8.215 -0.5863 -0.1175  0.3897
 6290SOL    HW130329   2.732   0.171   8.308  0.4325  0.0156  0.4922
 6290SOL    HW230330   2.761   0.057   8.215 -1.0625 -0.2186 -1.2005
 6291SOL     OW30331   2.554   4.104  17.211 -0.5596  0.3065  0.0427
 6291SOL    HW130332   2.541   4.064  17.125  1.6158 -1.1690  0.4144
 6291SOL    HW230333   2.468   4.144  17.226 -0.5688 -0.3864  1.8531
 6292SOL     OW30334   3.085   0.667   8.218  0.1955 -0.2723 -0.2741
 6292SOL    HW130335   3.177   0.647   8.234  1.0955  2.2411 -2.1037
 6292SOL    HW230336   3.075   0.759   8.242 -1.2382 -0.6740  0.6380
 6293SOL     OW30337   3.948   1.778   8.296 -0.2542  0.2404  0.2538
 6293SOL    HW130338   3.993   1.843   8.349  1.3082 -0.6225 -0.0059
 6293SOL    HW230339   3.927   1.706   8.355  2.3477 -2.4088 -2.0285
 6294SOL     OW30340   4.520   2.098   3.812 -0.1297  0.1696  0.3539
 6294SOL    HW130341   4.588   2.049   3.765 -0.5016 -1.7334  1.7941
 6294SOL    HW230342   4.507   2.041   3.887  0.1959 -0.5918 -0.1633
 6295SOL     OW30343   2.402   3.758   3.188 -0.0513  0.2676  0.3869
 6295SOL    HW130344   2.441   3.719   3.266 -2.9538  0.0852  1.7283
 6295SOL    HW230345   2.449   3.693   3.135 -1.6346  0.9285 -1.8315
 6296SOL     OW30346   2.332   1.876   3.319  0.3261  0.4006 -0.1245
 6296SOL    HW130347   2.293   1.812   3.259 -1.3006  2.7051 -1.5091
 6296SOL    HW230348   2.283   1.958   3.312 -0.7979 -0.3548 -1.0646
 6297SOL     OW30349   1.329   2.818   8.798  0.7378 -0.0600 -0.0899
 6297SOL    HW130350   1.402   2.832   8.738  0.7050  1.2529  0.1569
 6297SOL    HW230351   1.338   2.728   8.828 -1.9321 -0.2949  0.0762
 6298SOL     OW30352   2.408   2.036   0.715 -0.3091 -0.0405 -0.3864
 6298SOL    HW130353   2.406   1.945   0.687 -1.5612 -0.8980  2.5219
 6298SOL    HW230354   2.316   2.055   0.732 -0.4803 -1.8002  0.5996
 6299SOL     OW30355   4.538   4.066   7.951  0.0146  0.1925 -0.1396
 6299SOL    HW130356   4.632   4.067   7.969  0.1394  0.1771 -0.8097
 6299SOL    HW230357   4.508   4.097   8.037  1.5012  1.1521  0.0255
 6300SOL     OW30358   3.471   4.092   6.252  0.1879  0.5896  0.5431
 6300SOL    HW130359   3.456   4.111   6.160 -0.6743 -0.2133  0.5228
 6300SOL    HW230360   3.441   4.177   6.285  2.2587  1.1583  0.9946
 6301SOL     OW30361   2.984   0.685   3.435 -0.2784  0.2633  0.2522
 6301SOL    HW130362   2.907   0.714   3.386 -1.2208 -1.2875  0.8225
 6301SOL    HW230363   3.035   0.661   3.358 -1.1269 -2.6851  0.6021
 6302SOL     OW30364   4.428   3.773  12.178 -0.8047  0.2740 -0.1148
 6302SOL    HW130365   4.458   3.722  12.103 -1.8690  0.2251 -0.5156
 6302SOL    HW230366   4.478   3.855  12.179 -0.1642 -0.1408  0.8783
 6303SOL     OW30367   0.779   2.665   2.211 -0.2750  0.3942  0.6933
 6303SOL    HW130368   0.695   2.687   2.252 -0.7650 -1.4264  0.6425
 6303SOL    HW230369   0.811   2.582   2.244 -2.1777 -1.2184 -1.4994
 6304SOL     OW30370   1.669   0.220  14.712  0.3637  0.5757 -0.3198
 6304SOL    HW130371   1.725   0.261  14.646  1.2435 -0.5120 -0.2325
 6304SOL    HW230372   1.693   0.259  14.796 -2.2489 -3.5544  2.3408
 6305SOL     OW30373   3.667   3.764   7.671 -0.4695  0.3066 -0.2796
 6305SOL    HW130374   3.656   3.673   7.698  3.5341  0.2896  1.2936
 6305SOL    HW230375   3.740   3.799   7.723  0.0385 -0.0029 -0.7805
 6306SOL     OW30376   0.128   4.384   4.905  0.2159 -0.0104 -0.3283
 6306SOL    HW130377   0.045   4.338   4.915  1.0857 -1.6531 -0.8102
 6306SOL    HW230378   0.116   4.475   4.932  0.3725 -0.3034  0.7425
 6307SOL     OW30379   3.628   0.333   3.637  0.2406 -0.0086 -0.0617
 6307SOL    HW130380   3.595   0.294   3.718  3.1083 -2.0861  0.0696
 6307SOL    HW230381   3.571   0.284   3.577  1.4252 -0.1972 -1.0211
 6308SOL     OW30382   3.350   2.339  14.178  0.3527 -0.1129 -0.3719
 6308SOL    HW130383   3.317   2.250  14.188  1.6650 -0.4094  1.5151
 6308SOL    HW230384   3.268   2.387  14.190 -0.2873 -1.2986  0.0292
 6309SOL     OW30385   3.243   1.381  17.677  0.0014 -0.0281 -0.3584
 6309SOL    HW130386   3.312   1.401   0.054  2.0425 -2.0842 -1.9831
 6309SOL    HW230387   3.287   1.344  17.601  1.6437  1.9947 -0.3752
 6310SOL     OW30388   0.407   0.426  14.062  0.3740 -0.1388 -0.4429
 6310SOL    HW130389   0.405   0.382  13.977  0.7446 -1.6070  0.3082
 6310SOL    HW230390   0.497   0.459  14.058 -0.6642  2.9577  2.2015
 6311SOL     OW30391   3.668   0.703   1.710 -0.1005 -0.3043 -0.5340
 6311SOL    HW130392   3.725   0.705   1.787 -0.6838  0.4305 -0.1253
 6311SOL    HW230393   3.601   0.765   1.739  0.8496  1.0932 -1.3512
 6312SOL     OW30394   2.298   3.097   9.248 -0.4345  0.0593  0.5123
 6312SOL    HW130395   2.223   3.157   9.238  0.4701  0.7707 -2.0822
 6312SOL    HW230396   2.253   3.032   9.301 -0.1587  0.1163  0.8116
 6313SOL     OW30397   2.447   1.894  13.016  0.2603  0.6700  0.6381
 6313SOL    HW130398   2.510   1.887  12.944 -0.5311  1.8965 -0.1691
 6313SOL    HW230399   2.404   1.976  12.990 -0.2688  0.5164  1.0364
 6314SOL     OW30400   2.254   3.696   1.460  0.6724 -0.1421 -0.2378
 6314SOL    HW130401   2.173   3.726   1.500  0.3965 -0.6377 -0.4258
 6314SOL    HW230402   2.327   3.721   1.517 -2.2841 -1.5274  4.1435
 6315SOL     OW30403   4.357   2.086   5.007 -0.1750  0.0627  0.3526
 6315SOL    HW130404   4.379   2.002   4.967  2.0172 -0.5784  2.8801
 6315SOL    HW230405   4.384   2.074   5.098  1.5953 -0.2870 -0.2166
 6316SOL     OW30406   1.036   2.403  13.551 -0.3097  0.4702  0.3218
 6316SOL    HW130407   1.132   2.403  13.545 -0.3628 -0.2755 -0.6600
 6316SOL    HW230408   1.028   2.312  13.581 -1.1849  0.8926  1.3401
 6317SOL     OW30409   0.516   2.679   0.842 -0.2424 -0.5468  0.3004
 6317SOL    HW130410   0.540   2.759   0.796  0.3610 -0.1888  1.2200
 6317SOL    HW230411   0.475   2.618   0.781  1.5525 -0.9935 -0.4756
 6318SOL     OW30412   3.931   3.880   0.707 -0.1981 -0.6501 -0.2562
 6318SOL    HW130413   3.856   3.857   0.762 -0.7106 -0.1026 -0.7272
 6318SOL    HW230414   3.921   3.974   0.697 -3.3839 -1.0683 -1.3510
 6319SOL     OW30415   0.059   2.250   7.274 -0.4816  0.3133 -0.6766
 6319SOL    HW130416   0.092   2.200   7.349  1.5969 -3.0589 -3.8155
 6319SOL    HW230417   4.687   2.258   7.298  0.2545  0.4270  2.1180
 6320SOL     OW30418   1.949   4.045   5.593  0.1354 -0.2772  0.2568
 6320SOL    HW130419   1.860   4.072   5.613 -0.1794 -0.6044 -0.7344
 6320SOL    HW230420   1.942   3.954   5.563  1.4259 -0.0965 -0.6097
 6321SOL     OW30421   4.125   4.674  14.765  0.1894 -0.5641  0.3084
 6321SOL    HW130422   4.196   4.637  14.818  1.0128 -1.8875 -1.6968
 6321SOL    HW230423   4.164   4.656  14.679  1.1327 -1.5223  0.9334
 6322SOL     OW30424   1.974   1.754  15.776  0.3619 -0.3150  0.1937
 6322SOL    HW130425   2.045   1.819  15.772 -1.4545  1.5434 -2.3875
 6322SOL    HW230426   1.991   1.718  15.863  2.2372 -0.4458 -0.2291
 6323SOL     OW30427   0.551   3.663   2.227  0.0572 -0.4226  0.2861
 6323SOL    HW130428   0.545   3.573   2.195  0.9137 -0.9671  1.6841
 6323SOL    HW230429   0.645   3.674   2.233 -0.3241  1.7132  2.2784
 6324SOL     OW30430   1.085   1.277   8.139  0.0778 -0.5471  0.5130
 6324SOL    HW130431   0.998   1.241   8.118 -0.4680  1.1937 -0.1554
 6324SOL    HW230432   1.064   1.347   8.200  1.2637  0.8204 -0.6646
 6325SOL     OW30433   4.516   1.556  10.662  0.3553  0.1044  0.1084
 6325SOL    HW130434   4.594   1.556  10.717 -0.5455  0.1109  1.3780
 6325SOL    HW230435   4.546   1.494  10.595  1.2972 -0.9124  1.4682
 6326SOL     OW30436   1.372   2.783  13.144  0.6139 -0.1893  0.4610
 6326SOL    HW130437   1.381   2.775  13.049 -1.9927  2.0050  0.0269
 6326SOL    HW230438   1.291   2.833  13.155  0.0398 -0.7656 -1.1320
 6327SOL     OW30439   4.078   2.420   9.199  0.1073  0.5170  0.4595
 6327SOL    HW130440   4.011   2.426   9.266  0.2911  0.4989  0.6432
 6327SOL    HW230441   4.157   2.383   9.238 -0.6654 -0.2967  1.2395
 6328SOL     OW30442   3.373   0.555   9.697 -0.0297 -0.1238 -0.3241
 6328SOL    HW130443   3.378   0.617   9.770  0.0066  1.4897 -1.6879
 6328SOL    HW230444   3.413   0.605   9.625  1.7560  1.1626  1.5807
 6329SOL     OW30445   2.638   0.769   7.947 -0.3706  0.5319  0.0505
 6329SOL    HW130446   2.603   0.764   8.036 -0.3992 -0.6951 -0.0328
 6329SOL    HW230447   2.729   0.747   7.962  0.0206  3.8767  2.5824
 6330SOL     OW30448   4.463   3.713  17.361  0.0341  0.5412 -0.4195
 6330SOL    HW130449   4.447   3.757  17.445 -0.9599 -1.3977  0.4004
 6330SOL    HW230450   4.531   3.777  17.338 -1.1959  0.7773 -3.4735
 6331SOL     OW30451   4.475   3.349  12.066  0.0483  0.3415  0.3234
 6331SOL    HW130452   4.384   3.318  12.064 -1.0644  3.6499 -0.4290
 6331SOL    HW230453   4.508   3.272  12.020  1.0481  0.2395  1.2175
 6332SOL     OW30454   2.159   2.183   4.480 -0.2227  0.2411  0.1707
 6332SOL    HW130455   2.253   2.196   4.493  0.1068 -2.3289  0.2840
 6332SOL    HW230456   2.124   2.228   4.558 -0.4618 -1.8415  1.2541
 6333SOL     OW30457   0.889   1.810  12.955  0.2016 -0.5190  0.0872
 6333SOL    HW130458   0.885   1.717  12.934 -1.2642 -0.3535 -0.3495
 6333SOL    HW230459   0.800   1.832  12.981  0.3725  0.0862  0.1596
 6334SOL     OW30460   4.367   3.969   3.127 -0.0482  0.1753 -0.0337
 6334SOL    HW130461   4.313   4.043   3.098  0.7654  0.5321 -0.6589
 6334SOL    HW230462   4.307   3.903   3.092  0.7530 -0.6275  0.1105
 6335SOL     OW30463   4.440   0.879   7.762  0.3864 -0.2310 -0.2456
 6335SOL    HW130464   4.531   0.851   7.758  0.1646 -0.8094 -1.2024
 6335SOL    HW230465   4.451   0.946   7.830 -3.0870  1.5155 -1.3543
 6336SOL     OW30466   2.369   4.317   5.907 -0.2395  0.3172  0.0394
 6336SOL    HW130467   2.401   4.400   5.943  0.7266  0.2817 -0.7481
 6336SOL    HW230468   2.359   4.329   5.812  1.3876  1.3897  0.0069
 6337SOL     OW30469   2.242   0.085   3.428 -0.4581 -0.0208  1.1237
 6337SOL    HW130470   2.276   0.174   3.437  0.4028 -0.2476  0.1275
 6337SOL    HW230471   2.287   0.050   3.351 -0.2335  0.3462  1.0903
 6338SOL     OW30472   1.618   2.131  15.817 -0.2001 -0.1069 -0.5506
 6338SOL    HW130473   1.546   2.079  15.854 -1.2831  2.5491  1.0870
 6338SOL    HW230474   1.673   2.151  15.893  0.6549 -2.7763 -0.4625
 6339SOL     OW30475   1.180   1.404   4.105 -0.3326  0.0499  0.1850
 6339SOL    HW130476   1.150   1.387   4.194  0.1628 -0.7362  0.1969
 6339SOL    HW230477   1.100   1.385   4.056  0.5118 -0.2176 -1.0858
 6340SOL     OW30478   2.232   3.184   8.879  0.2975  0.4775  0.1309
 6340SOL    HW130479   2.163   3.154   8.820 -1.1126 -0.8845  2.4665
 6340SOL    HW230480   2.186   3.223   8.953 -1.1744 -0.2173 -0.4102
 6341SOL     OW30481   0.179   1.123   3.051 -0.2708  0.5017  0.5089
 6341SOL    HW130482   0.126   1.056   3.008  1.4920  1.8542 -3.7263
 6341SOL    HW230483   0.257   1.116   2.996 -0.1080 -1.6094  1.0051
 6342SOL     OW30484   2.712   3.884   9.413  0.7536  0.3820 -0.2649
 6342SOL    HW130485   2.631   3.853   9.373  1.3424 -0.2290 -0.9752
 6342SOL    HW230486   2.687   3.965   9.458 -1.5963 -0.8822  0.7352
 6343SOL     OW30487   2.225   0.019  11.934  0.3078  0.4440  0.8626
 6343SOL    HW130488   2.235   0.000  12.028 -2.3799  1.1954  1.2731
 6343SOL    HW230489   2.230   0.114  11.939 -3.3420  0.7201 -1.6329
 6344SOL     OW30490   2.153   0.386  12.190 -0.0925  0.5468 -0.3146
 6344SOL    HW130491   2.126   0.424  12.273 -0.7089  1.5289 -0.9589
 6344SOL    HW230492   2.107   0.301  12.192  1.8756 -0.4387  2.3225
 6345SOL     OW30493   0.557   2.447   0.960 -0.1040  0.3891 -0.6430
 6345SOL    HW130494   0.630   2.485   0.910  0.1657  0.6831 -0.0256
 6345SOL    HW230495   0.512   2.531   0.962  0.2563  0.6007 -1.4082
 6346SOL     OW30496   3.833   4.277  13.157 -0.4181  0.0609  0.7837
 6346SOL    HW130497   3.929   4.280  13.166 -0.3263  0.8990 -0.4455
 6346SOL    HW230498   3.813   4.212  13.225 -0.8694 -0.0276  0.5620
 6347SOL     OW30499   0.879   3.363   7.343  0.3765 -0.0129  0.0330
 6347SOL    HW130500   0.953   3.401   7.392  0.9323  1.0014 -1.5913
 6347SOL    HW230501   0.926   3.331   7.266 -1.8207  1.1560 -1.7674
 6348SOL     OW30502   0.804   1.145   6.193 -0.2306 -0.1231  0.0621
 6348SOL    HW130503   0.802   1.207   6.120  1.0700 -0.0590  0.0817
 6348SOL    HW230504   0.833   1.064   6.151  0.0913 -0.5014  1.0262
 6349SOL     OW30505   3.176   3.876   1.971  0.1734  0.3231 -0.0891
 6349SOL    HW130506   3.123   3.917   2.040 -0.8595 -0.6966 -0.2857
 6349SOL    HW230507   3.113   3.846   1.906  0.1696  0.6485 -0.2331
 6350SOL     OW30508   0.650   3.951  12.903 -0.2920 -0.4263  0.1224
 6350SOL    HW130509   0.711   4.009  12.858  2.7172 -2.5331  1.4784
 6350SOL    HW230510   0.669   3.972  12.994 -0.6845  1.0151 -0.1312
 6351SOL     OW30511   4.308   0.036  12.860  0.6182  0.3826 -0.4623
 6351SOL    HW130512   4.259   0.117  12.847  0.7269  0.9064  2.3061
 6351SOL    HW230513   4.236   4.710  12.901  0.9409  0.6178  0.3672
 6352SOL     OW30514   1.192   3.666   5.359 -0.0258  0.1082 -0.0531
 6352SOL    HW130515   1.162   3.576   5.358 -0.2283  0.2041 -1.6163
 6352SOL    HW230516   1.118   3.711   5.399  0.4615  1.0418 -0.2013
 6353SOL     OW30517   3.175   3.680   2.474 -0.6176 -0.0198  0.1533
 6353SOL    HW130518   3.151   3.657   2.384  0.3105 -1.1858  0.1981
 6353SOL    HW230519   3.212   3.768   2.463  0.4407 -0.5824 -0.8151
 6354SOL     OW30520   3.545   2.469   7.564  0.2667  1.2265  0.0619
 6354SOL    HW130521   3.623   2.414   7.554 -1.9154 -1.8258 -0.0366
 6354SOL    HW230522   3.548   2.516   7.480 -0.8915 -1.8351 -1.7161
 6355SOL     OW30523   1.585   1.419   1.782  0.5302 -0.1696 -0.3281
 6355SOL    HW130524   1.629   1.473   1.848  2.5611 -2.1849 -0.0641
 6355SOL    HW230525   1.511   1.471   1.750 -0.4019 -2.0839 -1.2783
 6356SOL     OW30526   0.029   2.989   5.366  0.8369  0.0524 -0.4573
 6356SOL    HW130527   0.038   2.896   5.390 -0.8643  0.2218  0.9205
 6356SOL    HW230528   4.657   2.997   5.389  0.7776  0.9744 -1.0712
 6357SOL     OW30529   2.760   1.008   5.364  0.1554  0.0371  0.0903
 6357SOL    HW130530   2.836   1.046   5.320  1.5917 -0.0891  2.4759
 6357SOL    HW230531   2.738   0.937   5.302  0.4921 -0.0988  0.1292
 6358SOL     OW30532   1.965   3.458   9.328  0.1620 -0.2107 -0.2598
 6358SOL    HW130533   2.011   3.418   9.402 -0.4699  0.4153  0.4706
 6358SOL    HW230534   1.874   3.436   9.344  0.9468 -2.2396  1.2629
 6359SOL     OW30535   1.429   4.644   7.047  0.0849 -0.5461  0.6686
 6359SOL    HW130536   1.460   4.667   7.135  0.1024 -0.4710  0.6430
 6359SOL    HW230537   1.420   4.549   7.051  0.9770 -0.5762  1.9633
 6360SOL     OW30538   1.033   4.419   8.919  0.1879  0.8859 -0.4385
 6360SOL    HW130539   1.012   4.480   8.848  0.9384  0.0037 -1.4113
 6360SOL    HW230540   1.127   4.405   8.909  0.0744 -1.2642  1.6637
 6361SOL     OW30541   1.676   4.220   3.458  0.1059 -0.3068 -0.1090
 6361SOL    HW130542   1.717   4.133   3.460 -0.9896 -0.8044  0.6118
 6361SOL    HW230543   1.594   4.189   3.495 -0.9051  1.1688 -1.1518
 6362SOL     OW30544   3.783   0.339  12.425 -0.3963 -0.2147  0.1896
 6362SOL    HW130545   3.689   0.319  12.422 -0.3180 -0.2244 -2.8926
 6362SOL    HW230546   3.826   0.287  12.357 -0.6723 -1.6073  1.0866
 6363SOL     OW30547   1.000   1.960  11.985 -0.7114  0.1059  0.1635
 6363SOL    HW130548   1.031   1.984  11.898  1.8781 -2.3459  0.4192
 6363SOL    HW230549   1.035   2.037  12.031 -1.1952  1.1299 -1.2070
 6364SOL     OW30550   3.769   1.164   7.558 -0.4047  0.2572 -0.1908
 6364SOL    HW130551   3.840   1.148   7.620 -3.0210 -0.6675  2.5531
 6364SOL    HW230552   3.787   1.252   7.527 -0.2929  0.4157  0.3226
 6365SOL     OW30553   0.351   3.646   6.828 -0.2813  0.2246 -0.3666
 6365SOL    HW130554   0.385   3.733   6.809 -0.8543  0.8603  1.4799
 6365SOL    HW230555   0.334   3.621   6.737  0.1816 -1.3970 -0.0062
 6366SOL     OW30556   3.902   2.595   7.624 -0.1455  0.2533  0.4560
 6366SOL    HW130557   3.850   2.660   7.577 -0.8474  1.0088  2.2706
 6366SOL    HW230558   3.882   2.514   7.576 -0.2744  0.0240  0.8950
 6367SOL     OW30559   2.200   0.454   2.286 -0.0717 -0.1156 -0.9110
 6367SOL    HW130560   2.264   0.407   2.232  2.1793  2.1120 -0.2053
 6367SOL    HW230561   2.122   0.400   2.294  0.7252 -1.1280 -0.0574
 6368SOL     OW30562   4.288   3.566  13.320 -0.3234  0.4056 -0.6006
 6368SOL    HW130563   4.260   3.654  13.294 -1.6335  0.6419  1.6078
 6368SOL    HW230564   4.219   3.504  13.297  0.7050 -0.7153 -0.7064
 6369SOL     OW30565   0.564   3.948  11.008 -0.2055 -0.1390  0.1837
 6369SOL    HW130566   0.500   4.015  11.032 -1.0536 -0.5396 -0.9322
 6369SOL    HW230567   0.523   3.903  10.934  0.1059  0.6385 -0.4609
 6370SOL     OW30568   4.469   3.057   0.226  0.0417 -0.1575  0.0745
 6370SOL    HW130569   4.520   3.078   0.304 -0.7713  0.5423  0.4214
 6370SOL    HW230570   4.452   3.141   0.181  0.8175  1.2094  2.3304
 6371SOL     OW30571   3.083   0.137   0.365  0.4074 -0.3883  0.2684
 6371SOL    HW130572   3.007   0.168   0.317  0.1610 -0.6754  0.4698
 6371SOL    HW230573   3.090   0.045   0.337 -0.6286 -0.2846 -0.3074
 6372SOL     OW30574   1.788   2.473  11.758 -0.3149  0.6035 -0.0060
 6372SOL    HW130575   1.774   2.527  11.836 -2.0267  0.2788 -0.0980
 6372SOL    HW230576   1.807   2.389  11.799 -0.9215  1.8948  2.9614
 6373SOL     OW30577   3.680   1.181   2.289  0.1861 -0.6244 -0.5206
 6373SOL    HW130578   3.666   1.276   2.290  1.8069 -0.3816 -0.2654
 6373SOL    HW230579   3.709   1.158   2.377  0.4060 -0.6280 -0.5927
 6374SOL     OW30580   3.454   0.541   7.773 -0.2029 -0.5328  0.3370
 6374SOL    HW130581   3.546   0.513   7.768  0.3357  1.2981 -0.2623
 6374SOL    HW230582   3.472   0.631   7.745 -2.0203  0.1843  1.5246
 6375SOL     OW30583   4.044   1.916   4.089  0.4318  0.5013 -0.1811
 6375SOL    HW130584   4.125   1.962   4.109  0.5191 -0.2413  1.1678
 6375SOL    HW230585   4.080   1.831   4.062 -1.1537  0.4285 -2.0448
 6376SOL     OW30586   0.378   2.146   5.730  0.1891  0.7691  0.1998
 6376SOL    HW130587   0.310   2.089   5.767 -0.8697  1.6956 -0.3254
 6376SOL    HW230588   0.372   2.122   5.638 -0.4884  0.8769  0.2134
 6377SOL     OW30589   0.225   1.437  10.404 -0.1370 -0.4715 -0.1758
 6377SOL    HW130590   0.218   1.353  10.449  0.0559  0.7989  2.2081
 6377SOL    HW230591   0.320   1.446  10.396 -0.1218  0.6338  1.3907
 6378SOL     OW30592   3.374   4.317   2.867 -0.4013  0.6675  0.3149
 6378SOL    HW130593   3.290   4.290   2.904  0.2558 -1.4966  0.2673
 6378SOL    HW230594   3.360   4.407   2.838  0.7325  1.3497  1.9133
 6379SOL     OW30595   2.025   0.833   2.841  0.0382  0.3297 -0.0516
 6379SOL    HW130596   2.005   0.770   2.772  1.6446 -1.6292  1.2872
 6379SOL    HW230597   2.017   0.914   2.790  0.1445  0.0736 -0.4768
 6380SOL     OW30598   1.293   4.560   2.820  0.4350  0.0810  0.0866
 6380SOL    HW130599   1.293   4.535   2.728 -1.6707  2.7127 -0.6052
 6380SOL    HW230600   1.201   4.581   2.831  0.2961 -0.2218 -0.5493
 6381SOL     OW30601   0.968   4.065   3.125  0.2393  0.1340 -0.6776
 6381SOL    HW130602   0.933   4.054   3.214 -1.2124  1.3815 -1.0838
 6381SOL    HW230603   1.005   3.978   3.112  0.8296  0.0170  1.8763
 6382SOL     OW30604   1.632   4.521  12.055  0.4405  0.0989  1.0849
 6382SOL    HW130605   1.628   4.516  11.960 -1.1492 -1.1530  1.2045
 6382SOL    HW230606   1.564   4.585  12.076 -0.8260 -1.3564  1.5123
 6383SOL     OW30607   4.699   3.364   7.797  0.0846 -0.5529  0.1764
 6383SOL    HW130608   0.016   3.370   7.710  0.4726  0.7189  0.4310
 6383SOL    HW230609   4.643   3.288   7.778 -1.0369  0.3957 -0.2828
 6384SOL     OW30610   0.973   2.534   6.304  0.3443 -0.0293  0.3762
 6384SOL    HW130611   0.929   2.520   6.388  0.7638  0.3114  0.6489
 6384SOL    HW230612   1.012   2.618   6.329  0.6761 -0.3849  1.0256
 6385SOL     OW30613   4.102   2.074   2.335  0.1300  0.2488 -0.2025
 6385SOL    HW130614   4.082   2.167   2.319  0.9141  0.4878  0.2499
 6385SOL    HW230615   4.092   2.029   2.251  0.7510  0.1342 -0.2098
 6386SOL     OW30616   1.722   2.761   2.353  0.6255 -0.4506 -0.3711
 6386SOL    HW130617   1.810   2.762   2.390  0.7049  2.6876 -0.6410
 6386SOL    HW230618   1.699   2.681   2.400 -0.8609  0.5182  0.5383
 6387SOL     OW30619   0.538   2.561  10.109 -0.2383  0.4058 -0.0662
 6387SOL    HW130620   0.625   2.577  10.073  0.2383  0.2303  1.0051
 6387SOL    HW230621   0.555   2.491  10.172  2.5182  1.2568  0.1322
 6388SOL     OW30622   3.393   3.056   2.296 -0.9364 -0.5802 -0.0298
 6388SOL    HW130623   3.411   3.149   2.308 -1.4756 -0.2591 -1.6355
 6388SOL    HW230624   3.373   3.056   2.202 -0.9962 -1.9192 -0.0266
 6389SOL     OW30625   4.480   3.235   2.787  0.2680 -0.2793 -0.4027
 6389SOL    HW130626   4.449   3.159   2.739 -1.7024 -0.5037  1.2204
 6389SOL    HW230627   4.567   3.206   2.814  0.3204  0.2951  0.0510
 6390SOL     OW30628   1.601   0.511  13.679  0.3518 -0.4452  0.5579
 6390SOL    HW130629   1.575   0.421  13.662  1.2731 -0.8694  1.3790
 6390SOL    HW230630   1.651   0.536  13.601 -1.3221 -2.1639 -1.0550
 6391SOL     OW30631   4.368   4.717   2.235  0.3223 -0.5976 -0.3371
 6391SOL    HW130632   4.390   4.634   2.193 -1.2467 -0.9900 -0.3960
 6391SOL    HW230633   4.457   0.016   2.263 -0.2060  0.0976  0.8511
 6392SOL     OW30634   4.466   1.451   8.985  0.1522  0.6776  0.1242
 6392SOL    HW130635   4.544   1.441   8.930  0.6270  1.4677  0.6569
 6392SOL    HW230636   4.492   1.521   9.045  0.5406 -0.1183  0.8826
 6393SOL     OW30637   4.155   0.754  12.863  0.2718 -0.5512  0.7155
 6393SOL    HW130638   4.168   0.785  12.774  2.0902 -0.3012  1.0654
 6393SOL    HW230639   4.164   0.834  12.915  1.3003  0.5694 -1.1965
 6394SOL     OW30640   1.131   3.741  10.220 -0.0606  0.3167 -1.0476
 6394SOL    HW130641   1.126   3.827  10.262  3.0780  1.5288 -3.1382
 6394SOL    HW230642   1.095   3.764  10.134 -0.2959  3.8949  0.0193
 6395SOL     OW30643   2.891   1.261   8.581  0.0208  0.0897  0.4714
 6395SOL    HW130644   2.837   1.332   8.548  2.5234  1.4692 -0.7104
 6395SOL    HW230645   2.899   1.286   8.673 -0.8141 -2.3736  1.2249
 6396SOL     OW30646   3.438   1.706   4.443 -0.2620 -0.6293  0.5498
 6396SOL    HW130647   3.464   1.624   4.483 -0.9698 -2.3143 -2.4789
 6396SOL    HW230648   3.352   1.682   4.409  0.0966  0.2019 -0.9798
 6397SOL     OW30649   2.243   1.089   6.517  0.1852 -0.0636  0.4865
 6397SOL    HW130650   2.300   1.166   6.508 -1.7803  1.1923 -1.2020
 6397SOL    HW230651   2.199   1.122   6.595  0.8456  0.3734  0.6810
 6398SOL     OW30652   3.667   3.210   6.273 -0.0793 -0.3377 -0.3181
 6398SOL    HW130653   3.592   3.150   6.274 -0.9203  0.7011 -0.3441
 6398SOL    HW230654   3.710   3.190   6.190  2.8982 -0.7701  1.3366
 6399SOL     OW30655   3.913   3.320   7.911 -0.5042  0.3783 -0.1801
 6399SOL    HW130656   3.963   3.399   7.895 -1.1462  1.2396  2.0559
 6399SOL    HW230657   3.838   3.357   7.958 -1.4607 -1.6189 -0.0954
 6400SOL     OW30658   1.807   0.374   7.065  0.0381  0.1683 -0.3817
 6400SOL    HW130659   1.787   0.287   7.032 -2.3571  0.3039  0.7010
 6400SOL    HW230660   1.724   0.393   7.108  1.4897  2.4991  1.4084
 6401SOL     OW30661   2.724   4.327   4.574 -0.4528  0.1874  0.3471
 6401SOL    HW130662   2.761   4.413   4.555 -2.3631  0.8831 -0.1430
 6401SOL    HW230663   2.663   4.315   4.502  0.3549 -3.4306  0.2754
 6402SOL     OW30664   4.230   2.575   4.903 -0.0253  0.0707 -0.1417
 6402SOL    HW130665   4.265   2.489   4.879  1.1566  0.6315 -0.4243
 6402SOL    HW230666   4.146   2.561   4.947  1.5736 -3.5900  1.7928
 6403SOL     OW30667   2.363   2.446   8.989  0.0218 -0.0593  0.0062
 6403SOL    HW130668   2.272   2.474   8.993 -0.3674 -1.3254  0.0673
 6403SOL    HW230669   2.397   2.523   9.034 -2.0823 -0.0007  1.4753
 6404SOL     OW30670   3.531   1.474   5.445 -0.1910 -0.3441  0.4018
 6404SOL    HW130671   3.495   1.407   5.503 -1.4650 -0.0082  0.0044
 6404SOL    HW230672   3.512   1.560   5.483  2.8965  0.5441 -0.0844
 6405SOL     OW30673   2.919   0.683   7.980  0.0986 -0.3675  0.4149
 6405SOL    HW130674   2.978   0.757   7.966 -1.3487  0.5480 -0.8241
 6405SOL    HW230675   2.953   0.658   8.066  2.8220 -1.2395 -0.9219
 6406SOL     OW30676   0.936   3.507  13.298  0.1063  0.2195 -0.2734
 6406SOL    HW130677   0.887   3.425  13.287 -0.5315  0.7115 -1.1045
 6406SOL    HW230678   1.024   3.474  13.275  0.9779  1.6060  1.0654
 6407SOL     OW30679   1.380   3.757   9.887  0.0894  0.3596  0.2744
 6407SOL    HW130680   1.355   3.677   9.933 -0.3605  0.4384  0.1692
 6407SOL    HW230681   1.334   3.738   9.805 -0.9505  2.1178  0.4606
 6408SOL     OW30682   1.994   1.775  16.055 -0.0056 -0.0366  0.1289
 6408SOL    HW130683   2.011   1.866  16.080  2.5609 -0.7463  0.9803
 6408SOL    HW230684   1.899   1.777  16.047 -0.0771 -0.5174  0.9036
 6409SOL     OW30685   4.600   4.172  16.762  0.1475 -0.5200 -0.1520
 6409SOL    HW130686   4.531   4.140  16.705  0.3287 -3.1623  1.0921
 6409SOL    HW230687   4.585   4.113  16.837 -1.5203 -0.6794 -0.6092
 6410SOL     OW30688   0.401   3.098   1.981 -0.3565  0.2322 -0.2080
 6410SOL    HW130689   0.390   3.157   1.906 -1.5008 -1.9505 -1.7455
 6410SOL    HW230690   0.495   3.100   1.996 -0.4858  0.4409  0.6048
 6411SOL     OW30691   3.082   1.294   4.571  0.0171 -0.1605 -0.2237
 6411SOL    HW130692   3.011   1.259   4.624 -1.4884  1.4021 -1.2350
 6411SOL    HW230693   3.063   1.255   4.486 -1.4576  0.3334 -0.1037
 6412SOL     OW30694   3.657   2.435   5.061 -0.5738 -0.2779 -0.0976
 6412SOL    HW130695   3.571   2.392   5.051  0.5868 -2.4101 -0.8560
 6412SOL    HW230696   3.696   2.403   4.980 -0.1231  0.3355 -0.1229
 6413SOL     OW30697   3.489   1.982   3.445 -0.1725  0.4418 -0.2487
 6413SOL    HW130698   3.570   1.977   3.394 -0.1464  1.0570 -0.2697
 6413SOL    HW230699   3.504   2.068   3.484  0.6643  0.3226 -0.3126
 6414SOL     OW30700   2.514   4.506   3.658 -0.1433  0.6176 -0.3150
 6414SOL    HW130701   2.489   4.422   3.697 -0.2836  0.2896 -1.1178
 6414SOL    HW230702   2.584   4.479   3.599 -1.2500 -1.0548 -0.8537
 6415SOL     OW30703   0.526   1.099   6.634  0.4818 -0.0981 -0.1504
 6415SOL    HW130704   0.615   1.093   6.669  0.5628  1.6770 -0.0630
 6415SOL    HW230705   0.522   1.181   6.585 -0.4156  1.0570  1.8448
 6416SOL     OW30706   1.745   1.676   4.234  0.3009  0.3731  0.1774
 6416SOL    HW130707   1.707   1.630   4.310 -1.0126 -2.7259 -2.3508
 6416SOL    HW230708   1.670   1.693   4.178  0.5325  0.4022 -0.1243
 6417SOL     OW30709   4.019   2.310   6.997 -0.7649  1.0610  0.0658
 6417SOL    HW130710   3.987   2.374   6.933 -3.2716 -0.0288  0.2626
 6417SOL    HW230711   4.113   2.310   6.974 -0.5277 -1.2481  1.0736
 6418SOL     OW30712   3.224   1.030   5.494 -0.1987 -0.0440 -0.2460
 6418SOL    HW130713   3.216   1.063   5.583 -0.6368  0.3634 -0.4337
 6418SOL    HW230714   3.315   1.003   5.501  0.0991  1.1597  0.4913
 6419SOL     OW30715   1.501   4.698   5.062  0.0866 -0.1650 -0.1836
 6419SOL    HW130716   1.466   4.655   5.140 -1.7395 -1.3072 -1.6275
 6419SOL    HW230717   1.530   4.621   5.012 -2.4946 -0.6663 -0.9107
 6420SOL     OW30718   0.983   2.507   3.791  0.0305  0.1737 -0.9028
 6420SOL    HW130719   1.017   2.422   3.819  0.6066  1.0936  1.1728
 6420SOL    HW230720   1.005   2.509   3.698 -0.9524  0.8546 -1.1210
 6421SOL     OW30721   2.783   4.100   7.442 -0.0481  0.0942  0.2479
 6421SOL    HW130722   2.717   4.076   7.508 -0.1630  1.1047  0.5030
 6421SOL    HW230723   2.805   4.189   7.472  0.0488  0.1302  0.0684
 6422SOL     OW30724   3.623   4.030   2.667  0.1166 -0.2025 -0.0324
 6422SOL    HW130725   3.700   4.019   2.611  0.9440  3.8112  0.2673
 6422SOL    HW230726   3.599   4.119   2.639  2.0104  0.2971 -0.0642
 6423SOL     OW30727   0.587   2.758   5.189  0.3890  0.4126 -0.0364
 6423SOL    HW130728   0.564   2.687   5.129  1.7311  0.1035 -0.1814
 6423SOL    HW230729   0.497   2.787   5.205 -0.3301 -1.6659 -0.3667
 6424SOL     OW30730   1.032   4.676  15.718  0.2333 -0.2546  0.1281
 6424SOL    HW130731   1.031   0.050  15.707  1.9955 -0.3255 -0.5746
 6424SOL    HW230732   0.956   4.653  15.664  1.1585  0.0855 -1.3390
 6425SOL     OW30733   1.484   3.025  14.645 -0.4216 -0.1654 -0.4112
 6425SOL    HW130734   1.432   2.978  14.710 -1.3505 -0.1950 -1.1789
 6425SOL    HW230735   1.505   3.110  14.684  1.3664 -0.4634 -0.7291
 6426SOL     OW30736   1.687   3.343   2.255 -0.3211  0.3120  0.4105
 6426SOL    HW130737   1.656   3.416   2.200 -1.2010 -0.0995  0.3553
 6426SOL    HW230738   1.774   3.330   2.217 -0.8137  3.8231 -1.9802
 6427SOL     OW30739   4.671   0.547   7.225 -0.2626  0.4004 -0.3616
 6427SOL    HW130740   4.596   0.603   7.245 -0.3938  1.3897 -3.6239
 6427SOL    HW230741   4.703   0.587   7.144  1.4814 -1.5251 -0.6309
 6428SOL     OW30742   3.625   4.593   6.210  0.6098 -0.1818 -0.4735
 6428SOL    HW130743   3.691   4.524   6.207 -0.6811 -1.4668  0.8356
 6428SOL    HW230744   3.577   4.594   6.127 -1.5619  0.7744  0.8078
 6429SOL     OW30745   4.056   1.448   6.860 -0.4420 -0.0054  0.2143
 6429SOL    HW130746   4.064   1.356   6.885 -0.0803  0.1446  0.6630
 6429SOL    HW230747   4.139   1.489   6.885 -0.4306 -0.5226  1.0072
 6430SOL     OW30748   0.704   3.142   9.624 -0.2315 -0.2534 -0.2667
 6430SOL    HW130749   0.777   3.085   9.601 -0.6336  0.1195 -2.5268
 6430SOL    HW230750   0.744   3.150   9.710 -1.6054  0.1089  0.3307
 6431SOL     OW30751   0.573   4.672   3.716 -0.0838 -0.1402 -0.2206
 6431SOL    HW130752   0.503   4.628   3.764 -0.2563 -0.6509 -0.9495
 6431SOL    HW230753   0.645   4.660   3.779 -0.5178  0.7139  0.4450
 6432SOL     OW30754   2.402   3.075   1.461  0.1831  0.0814  0.3410
 6432SOL    HW130755   2.447   3.046   1.381 -1.7675 -0.4468 -0.5489
 6432SOL    HW230756   2.317   3.031   1.454  0.4806 -0.4275 -0.0992
 6433SOL     OW30757   2.648   2.742   2.357 -0.4245 -0.3836 -0.4922
 6433SOL    HW130758   2.742   2.724   2.369 -0.5627  0.1700  1.5836
 6433SOL    HW230759   2.630   2.836   2.363  3.3196  0.3912 -1.1627
 6434SOL     OW30760   3.796   3.063   4.680 -0.2800  0.1965 -0.0425
 6434SOL    HW130761   3.725   2.999   4.675  0.7051 -0.9740  0.9634
 6434SOL    HW230762   3.744   3.143   4.682 -0.7958 -0.0683 -2.9494
 6435SOL     OW30763   1.957   4.518   6.591 -0.0615  0.1553 -0.0338
 6435SOL    HW130764   2.045   4.516   6.552 -0.4184 -0.2882 -0.8045
 6435SOL    HW230765   1.963   4.575   6.668  1.6697 -2.6059  1.8760
 6436SOL     OW30766   4.175   2.780  17.478 -0.1989 -0.5399  0.7272
 6436SOL    HW130767   4.134   2.858  17.515  0.2531  0.3421 -0.6412
 6436SOL    HW230768   4.113   2.742  17.416  0.8947 -1.5319  0.2381
 6437SOL     OW30769   4.155   1.692   9.706 -0.0616  0.0414  0.2319
 6437SOL    HW130770   4.082   1.749   9.682 -0.2408 -0.7580 -1.1346
 6437SOL    HW230771   4.186   1.736   9.786 -0.3158  1.1610 -0.2787
 6438SOL     OW30772   4.203   3.148   5.569  0.2500 -0.0397  0.2898
 6438SOL    HW130773   4.215   3.178   5.659 -2.5334  0.8748  0.3684
 6438SOL    HW230774   4.183   3.229   5.523  1.7093 -0.8229 -1.6946
 6439SOL     OW30775   0.896   3.540   8.000  0.1113  0.3500 -0.1227
 6439SOL    HW130776   0.967   3.523   7.939 -1.4183 -2.5605 -1.0698
 6439SOL    HW230777   0.850   3.457   7.988 -0.3321  0.4560  0.8121
 6440SOL     OW30778   0.069   3.245  12.613  0.4506  0.3883  0.2275
 6440SOL    HW130779   0.052   3.255  12.706 -0.6356  0.2387  0.0432
 6440SOL    HW230780   0.035   3.329  12.582  1.1286  1.5159  2.5356
 6441SOL     OW30781   3.084   2.609   5.262  1.0182  0.4707 -0.1033
 6441SOL    HW130782   3.153   2.676   5.256  1.2152  0.2170 -0.6669
 6441SOL    HW230783   3.133   2.541   5.215  0.6918  0.0272  0.2054
 6442SOL     OW30784   2.447   2.762  15.048  0.0420  0.3387  0.4083
 6442SOL    HW130785   2.466   2.793  14.960 -0.6809  1.0846  0.5218
 6442SOL    HW230786   2.361   2.722  15.040  0.0374  0.6255 -0.9015
 6443SOL     OW30787   2.750   0.086   6.564  0.4829 -0.1784  0.4507
 6443SOL    HW130788   2.667   0.086   6.612  1.3469 -0.6880  1.9293
 6443SOL    HW230789   2.770   0.176   6.589  1.3988  0.0118 -0.9667
 6444SOL     OW30790   2.737   3.069   5.336  0.0796  0.1283 -0.2935
 6444SOL    HW130791   2.675   3.017   5.285 -0.6350  1.2801 -0.6028
 6444SOL    HW230792   2.794   3.103   5.267  0.0919  1.3188  0.2965
 6445SOL     OW30793   2.317   2.318   3.565 -0.1276  0.0711 -0.3924
 6445SOL    HW130794   2.366   2.255   3.512  0.2174  0.5810 -0.6852
 6445SOL    HW230795   2.383   2.388   3.563 -0.6644  0.6491  3.2635
 6446SOL     OW30796   4.590   4.559   7.076  0.0570  0.3718 -0.0173
 6446SOL    HW130797   4.632   4.638   7.110 -2.5498  0.9004  1.9787
 6446SOL    HW230798   4.518   4.601   7.029 -0.9291 -2.1048 -0.6947
 6447SOL     OW30799   2.679   1.867   1.998  0.0422  0.3111  0.5332
 6447SOL    HW130800   2.627   1.895   1.923  1.7249  1.8538 -0.0718
 6447SOL    HW230801   2.612   1.888   2.062 -0.4572 -0.8609  0.3933
 6448SOL     OW30802   3.342   2.685   4.586 -0.2126 -0.1336  0.1391
 6448SOL    HW130803   3.338   2.642   4.500  0.5099 -0.9990  0.5426
 6448SOL    HW230804   3.385   2.624   4.646  0.1617 -1.1768 -1.1934
 6449SOL     OW30805   3.232   3.813   5.447  0.4240 -0.5868  1.1322
 6449SOL    HW130806   3.231   3.897   5.493 -1.8936 -0.0668  0.1316
 6449SOL    HW230807   3.222   3.753   5.521  1.7739 -0.5302  1.3487
 6450SOL     OW30808   1.199   0.339   1.247 -0.0058  0.0655 -0.3313
 6450SOL    HW130809   1.266   0.405   1.233  1.6050 -1.5133 -0.0425
 6450SOL    HW230810   1.139   0.380   1.185 -0.4701 -1.8015 -1.1433
 6451SOL     OW30811   1.505   1.092  12.878  0.0377 -0.2522 -0.2902
 6451SOL    HW130812   1.464   1.162  12.828  1.4227  0.5493 -0.2957
 6451SOL    HW230813   1.484   1.013  12.828 -1.5525 -0.3642  0.5641
 6452SOL     OW30814   3.842   4.385  12.367 -0.0732  0.0013 -0.2775
 6452SOL    HW130815   3.772   4.417  12.310 -0.2400  1.3922  0.7223
 6452SOL    HW230816   3.844   4.459  12.427 -3.7929  0.6880 -0.9833
 6453SOL     OW30817   4.330   0.328   6.477 -0.0474 -0.3249 -0.1321
 6453SOL    HW130818   4.237   0.312   6.461 -0.1784  0.2831  0.0230
 6453SOL    HW230819   4.332   0.423   6.470 -0.4301 -0.2211  1.1315
 6454SOL     OW30820   3.438   3.107  15.563 -0.1010  0.3403  0.1299
 6454SOL    HW130821   3.397   3.153  15.636 -0.0214 -0.4187  0.6560
 6454SOL    HW230822   3.470   3.025  15.601  1.9025  1.6443  1.2958
 6455SOL     OW30823   0.821   2.971   0.811  0.1216  0.4534  0.0873
 6455SOL    HW130824   0.905   2.999   0.776 -0.4878  0.7738 -1.1392
 6455SOL    HW230825   0.836   2.877   0.822  0.7631  0.2842 -2.1519
 6456SOL     OW30826   1.774   0.967   8.295  0.0356 -0.5143 -0.2945
 6456SOL    HW130827   1.725   0.949   8.214  1.2674  0.8617 -1.3428
 6456SOL    HW230828   1.860   0.982   8.256 -0.2963 -0.1918 -0.9170
 6457SOL     OW30829   4.550   0.218   4.251 -0.2538  0.1517 -0.3376
 6457SOL    HW130830   4.528   0.125   4.244  0.2988 -0.0227  0.2045
 6457SOL    HW230831   4.582   0.241   4.163  2.8454  0.3817  0.8279
 6458SOL     OW30832   2.721   0.025  11.345  0.8468  0.1076  0.5882
 6458SOL    HW130833   2.766   4.720  11.264 -0.3477  0.1918 -0.1108
 6458SOL    HW230834   2.800   0.037  11.397  0.4611  0.4239  1.0955
 6459SOL     OW30835   4.563   0.765   6.023 -0.4636 -0.2896  0.1987
 6459SOL    HW130836   4.495   0.738   6.084 -1.5203  1.9721  0.0176
 6459SOL    HW230837   4.623   0.690   6.022 -2.4894 -1.9361  1.9857
 6460SOL     OW30838   2.740   1.828   6.983 -0.2398  0.2983 -0.4022
 6460SOL    HW130839   2.790   1.750   6.958  1.6868  1.1788  0.6870
 6460SOL    HW230840   2.792   1.863   7.056 -0.5506 -1.7755  0.8325
 6461SOL     OW30841   3.890   1.432   6.019 -0.5786  0.1403 -1.0083
 6461SOL    HW130842   3.932   1.346   6.017  0.7417  0.7735  0.1909
 6461SOL    HW230843   3.814   1.415   6.075  0.0419 -0.5546 -0.3788
 6462SOL     OW30844   0.810   1.471   4.581  0.0810 -0.4907  0.2892
 6462SOL    HW130845   0.869   1.405   4.619  1.3663  0.4104 -0.1656
 6462SOL    HW230846   0.822   1.446   4.489 -3.8325 -2.6320  0.3580
 6463SOL     OW30847   3.970   4.604  12.215  1.3451  0.1055 -0.1074
 6463SOL    HW130848   3.986   4.681  12.269  1.1041 -0.8643  1.3315
 6463SOL    HW230849   4.039   4.551  12.254 -0.5686 -1.8100  0.6712
 6464SOL     OW30850   3.487   4.126   5.121 -0.0782 -0.8896  0.1635
 6464SOL    HW130851   3.493   4.071   5.199  0.6016 -1.5354 -0.3351
 6464SOL    HW230852   3.430   4.074   5.065  1.2396  0.1607 -2.1441
 6465SOL     OW30853   0.613   0.231  12.648 -0.4183  0.0496 -0.0708
 6465SOL    HW130854   0.673   0.181  12.593  2.0959  2.8319  0.1757
 6465SOL    HW230855   0.624   0.321  12.619  0.5560  0.6393  2.0773
 6466SOL     OW30856   1.265   0.529   7.148  0.3050 -0.1975  0.2575
 6466SOL    HW130857   1.263   0.580   7.229 -1.9847 -1.7522  1.1554
 6466SOL    HW230858   1.359   0.508   7.151  0.4908  0.3860 -1.5254
 6467SOL     OW30859   3.115   2.362  16.823 -0.0281  0.3252 -0.5826
 6467SOL    HW130860   3.041   2.306  16.849  0.9041 -0.2749  0.7789
 6467SOL    HW230861   3.178   2.342  16.892 -0.5646  0.5254 -0.0360
 6468SOL     OW30862   2.169   2.939   6.060 -0.2767  0.0525 -0.5284
 6468SOL    HW130863   2.091   2.942   6.005 -0.8604  0.0057  0.2884
 6468SOL    HW230864   2.223   2.903   5.990  1.5866 -1.0633  1.4580
 6469SOL     OW30865   2.761   3.439  11.681 -0.3977 -0.0764 -0.3250
 6469SOL    HW130866   2.693   3.502  11.704 -0.7530 -0.5679 -0.0143
 6469SOL    HW230867   2.797   3.411  11.766  2.4790 -3.1358 -2.5560
 6470SOL     OW30868   3.886   2.426   4.599  0.1640 -0.1704 -0.1501
 6470SOL    HW130869   3.943   2.378   4.658  3.1175 -0.5811 -3.3058
 6470SOL    HW230870   3.893   2.511   4.641 -0.7191 -0.3234  0.2954
 6471SOL     OW30871   2.026   0.937   8.131  0.5814  0.0850  0.2610
 6471SOL    HW130872   2.120   0.943   8.112  0.4138  0.3220 -0.4808
 6471SOL    HW230873   2.012   0.881   8.055  2.7565  1.2782 -1.0444
 6472SOL     OW30874   2.149   0.616  16.760 -0.1885 -0.5763 -0.1684
 6472SOL    HW130875   2.168   0.664  16.679  1.9701  0.9244  1.2083
 6472SOL    HW230876   2.202   0.536  16.756 -0.5745 -0.9052  1.1560
 6473SOL     OW30877   2.652   0.253   0.777 -0.3746  0.0104 -0.6515
 6473SOL    HW130878   2.558   0.240   0.789 -0.6155  1.6173 -0.7422
 6473SOL    HW230879   2.670   0.167   0.740  0.4886  0.7715 -1.9998
 6474SOL     OW30880   0.376   2.536  16.676  0.0101 -0.1627 -0.3263
 6474SOL    HW130881   0.396   2.528  16.583  2.3424 -0.4711  0.2046
 6474SOL    HW230882   0.411   2.623  16.694 -4.7135  1.8501 -0.8431
 6475SOL     OW30883   4.306   3.896   0.625 -0.1107  0.4770  0.4146
 6475SOL    HW130884   4.355   3.957   0.680 -0.5701  0.1415  1.1914
 6475SOL    HW230885   4.354   3.816   0.648  1.9356  1.8219  0.8631
 6476SOL     OW30886   0.480   3.149   9.285 -0.4355  0.1174 -0.2900
 6476SOL    HW130887   0.464   3.172   9.377 -0.7462 -0.5610 -0.1732
 6476SOL    HW230888   0.405   3.092   9.270 -0.1434 -0.5240  0.6711
 6477SOL     OW30889   4.234   4.278   7.968  0.0806 -0.2926 -0.1380
 6477SOL    HW130890   4.160   4.275   7.908  0.9801  2.0799 -1.3777
 6477SOL    HW230891   4.196   4.237   8.045 -0.7777  0.7931  0.0173
 6478SOL     OW30892   3.901   0.054   9.410  0.6611  0.2158 -0.2195
 6478SOL    HW130893   3.847   0.112   9.464 -2.0245 -1.2408 -1.3608
 6478SOL    HW230894   3.840   0.037   9.339 -0.0981  0.6326  0.3360
 6479SOL     OW30895   1.419   0.467   4.912 -0.0480  0.1142 -0.0901
 6479SOL    HW130896   1.440   0.471   4.819 -0.4757  0.6472 -0.1629
 6479SOL    HW230897   1.411   0.372   4.916  0.9616  0.0796  1.1577
 6480SOL     OW30898   1.434   3.125  10.040 -0.3735  0.0956 -0.4863
 6480SOL    HW130899   1.432   3.116   9.944 -1.2378 -1.6560 -0.3100
 6480SOL    HW230900   1.376   3.052  10.062 -0.8281  0.9358  1.0620
 6481SOL     OW30901   0.365   2.723   7.227  0.4757  0.3736  0.5878
 6481SOL    HW130902   0.452   2.682   7.236 -0.5300 -2.2229 -1.4694
 6481SOL    HW230903   0.304   2.652   7.247  0.4357  0.1148 -0.4542
 6482SOL     OW30904   0.143   4.491   2.852 -0.2559  0.1861  0.4028
 6482SOL    HW130905   0.117   4.424   2.789 -0.2904 -0.9000  1.5789
 6482SOL    HW230906   0.237   4.498   2.835 -0.6049  3.3801 -0.2779
 6483SOL     OW30907   2.383   0.071   7.882 -0.8001  0.4901 -0.1401
 6483SOL    HW130908   2.418   4.719   7.933 -0.7588 -0.9183 -2.1356
 6483SOL    HW230909   2.414   0.151   7.924  1.1551  0.7441 -2.0608
 6484SOL     OW30910   1.361   4.704   4.283  0.4600  0.3938  0.2722
 6484SOL    HW130911   1.319   4.619   4.272 -0.4947  0.7354  1.2024
 6484SOL    HW230912   1.449   4.680   4.311  1.2882  2.0521 -0.9410
 6485SOL     OW30913   2.774   1.093   7.110 -0.2928 -0.6647 -0.0536
 6485SOL    HW130914   2.755   1.000   7.098 -0.2476 -0.6126 -0.5419
 6485SOL    HW230915   2.686   1.130   7.105 -0.3496 -0.6925  0.7189
 6486SOL     OW30916   0.928   4.309   4.315  0.0563  0.6481 -0.2837
 6486SOL    HW130917   0.948   4.294   4.408 -0.6164 -1.2757 -0.4503
 6486SOL    HW230918   0.969   4.391   4.288  2.0239 -0.4542 -0.6428
 6487SOL     OW30919   0.193   1.603   2.183 -0.0333  0.3050  0.6779
 6487SOL    HW130920   0.243   1.675   2.222 -0.7282 -0.1127  2.3353
 6487SOL    HW230921   0.130   1.644   2.124 -1.3395  0.7142  2.3799
 6488SOL     OW30922   4.341   1.064   8.877 -0.1842  0.0169 -0.2729
 6488SOL    HW130923   4.407   1.044   8.943  0.2952 -0.4746 -0.9017
 6488SOL    HW230924   4.329   1.157   8.892 -0.7586 -0.2827  1.1287
 6489SOL     OW30925   1.546   1.376   8.464 -0.5824  0.1958  0.0952
 6489SOL    HW130926   1.487   1.334   8.401 -0.5348  1.5661 -0.8752
 6489SOL    HW230927   1.602   1.300   8.478 -2.0160 -0.6823  0.9363
 6490SOL     OW30928   2.702   4.080  11.288  0.6138  0.0769 -0.0961
 6490SOL    HW130929   2.619   4.108  11.251  0.5810 -0.0831 -0.1415
 6490SOL    HW230930   2.741   4.042  11.209  0.0220  0.8859 -0.7803
 6491SOL     OW30931   2.522   0.576   4.788  0.1391  0.3520  0.0584
 6491SOL    HW130932   2.433   0.556   4.758  0.0733 -0.6902  0.9448
 6491SOL    HW230933   2.508   0.650   4.846  1.1895  1.2187 -0.7978
 6492SOL     OW30934   3.348   4.220   4.690 -0.2091  0.1102 -0.2004
 6492SOL    HW130935   3.295   4.282   4.740  1.1570  0.2096  1.1109
 6492SOL    HW230936   3.436   4.251   4.714  0.0847 -1.2953  0.4869
 6493SOL     OW30937   4.370   1.610   4.179  0.0812 -0.5870  0.1901
 6493SOL    HW130938   4.339   1.614   4.270  0.4646 -1.9451  0.3775
 6493SOL    HW230939   4.295   1.654   4.139  0.7482  0.0099 -0.4011
 6494SOL     OW30940   1.110   0.321  16.124 -0.0902  0.2134  0.6009
 6494SOL    HW130941   1.058   0.398  16.148  0.4226  0.0018  2.3933
 6494SOL    HW230942   1.052   0.254  16.088  0.6196 -0.7522  1.2565
 6495SOL     OW30943   3.030   1.415   3.927  0.2850  0.2446  0.0127
 6495SOL    HW130944   2.987   1.463   3.857 -0.7233 -0.7334 -0.0401
 6495SOL    HW230945   3.062   1.341   3.875  0.9139 -2.6069  4.4638
 6496SOL     OW30946   0.564   3.661   8.916 -0.6670  0.2666 -0.5382
 6496SOL    HW130947   0.587   3.582   8.965  0.8596  0.1059 -1.5370
 6496SOL    HW230948   0.480   3.683   8.958 -1.1673 -1.1827 -0.7891
 6497SOL     OW30949   1.451   2.763  10.912  0.1234  0.5424 -0.6279
 6497SOL    HW130950   1.495   2.688  10.952  1.8479  2.1108  0.3821
 6497SOL    HW230951   1.422   2.719  10.832 -1.8110  0.9833 -0.1785
 6498SOL     OW30952   1.294   3.789   9.065  0.0017  0.2792 -0.0958
 6498SOL    HW130953   1.375   3.823   9.028  0.2516 -0.1712  0.0317
 6498SOL    HW230954   1.318   3.716   9.122 -1.0386  0.1587  0.1979
 6499SOL     OW30955   4.536   4.261   4.684  0.1899 -0.1166 -0.6051
 6499SOL    HW130956   4.456   4.222   4.648  1.4654 -2.2424 -1.0839
 6499SOL    HW230957   4.585   4.263   4.602 -0.1762  1.2990 -0.7931
 6500SOL     OW30958   0.605   2.063   6.558 -0.2486  0.3906 -0.6238
 6500SOL    HW130959   0.614   1.968   6.560 -2.3439  0.2065  0.2932
 6500SOL    HW230960   0.521   2.074   6.514 -1.1795  0.8834  1.2459
 6501SOL     OW30961   0.732   2.212  15.713  0.1105 -0.2157 -0.4691
 6501SOL    HW130962   0.704   2.285  15.658 -1.5247  1.3078  2.3510
 6501SOL    HW230963   0.756   2.261  15.792 -3.2109  1.8121 -0.6998
 6502SOL     OW30964   2.371   0.124   5.826 -0.0716 -0.0994 -0.0833
 6502SOL    HW130965   2.332   0.201   5.867 -0.9341 -1.1167  1.0215
 6502SOL    HW230966   2.445   0.155   5.774 -0.0827  1.4967  0.8610
 6503SOL     OW30967   1.952   3.445   1.041  0.3351  0.3824  0.1942
 6503SOL    HW130968   1.920   3.360   1.069 -0.5664  0.5430 -0.3581
 6503SOL    HW230969   1.922   3.506   1.109 -1.5046 -0.0757 -0.2108
 6504SOL     OW30970   3.287   1.798   5.874 -1.2141  0.2701 -0.6811
 6504SOL    HW130971   3.320   1.709   5.885 -3.1362 -0.2902  0.7202
 6504SOL    HW230972   3.214   1.785   5.814 -1.3155  0.3312 -0.5717
 6505SOL     OW30973   0.863   2.115   4.072 -0.0113  0.3202  0.4661
 6505SOL    HW130974   0.809   2.141   3.997  1.1346  0.8384 -0.1822
 6505SOL    HW230975   0.855   2.021   4.057  1.0778 -0.2523  3.6402
 6506SOL     OW30976   1.504   1.117   7.696  0.1316 -0.4819 -0.4439
 6506SOL    HW130977   1.589   1.107   7.739  1.1316 -0.9157 -2.5057
 6506SOL    HW230978   1.482   1.200   7.738  1.1412 -0.5277  0.1693
 6507SOL     OW30979   3.617   2.566   6.958  0.0040  0.1574 -0.2736
 6507SOL    HW130980   3.592   2.640   6.902 -0.2748  0.8829  0.8004
 6507SOL    HW230981   3.552   2.502   6.930 -0.2051  0.7372 -1.1064
 6508SOL     OW30982   0.538   4.707   4.176  0.7768 -0.0656  0.1006
 6508SOL    HW130983   0.489   0.063   4.145  4.2362  1.7430 -0.8811
 6508SOL    HW230984   0.563   0.025   4.259 -1.6905 -1.4240  1.4701
 6509SOL     OW30985   0.785   2.873   7.629  0.0258  0.1827 -0.8507
 6509SOL    HW130986   0.806   2.965   7.645  2.5461 -0.3086 -1.3507
 6509SOL    HW230987   0.858   2.832   7.676  0.1434 -2.2672 -3.1656
 6510SOL     OW30988   1.542   0.640   9.390 -0.3301  0.1849  0.1955
 6510SOL    HW130989   1.465   0.588   9.365  0.8759 -1.8499  0.6991
 6510SOL    HW230990   1.580   0.571   9.444 -0.3805 -1.0284 -1.3047
 6511SOL     OW30991   0.069   1.259   8.314 -0.0217  0.0887  0.0582
 6511SOL    HW130992   0.033   1.300   8.393  0.1492  0.0069  0.1783
 6511SOL    HW230993   0.003   1.193   8.294 -0.4284  0.2653  0.7958
 6512SOL     OW30994   4.668   4.092   7.379  0.0383  0.4049 -0.4348
 6512SOL    HW130995   4.720   4.165   7.413  3.2207 -0.0456 -4.3088
 6512SOL    HW230996   4.626   4.121   7.298  0.5140 -0.1531 -0.8805
 6513SOL     OW30997   0.527   1.166   2.010 -0.4023  0.0745 -0.5458
 6513SOL    HW130998   0.499   1.253   1.980 -1.4692 -0.0066  0.2187
 6513SOL    HW230999   0.600   1.200   2.061 -0.5295 -0.9646  0.3166
 6514SOL     OW31000   2.705   1.299   6.850 -0.7056  0.3878 -0.2598
 6514SOL    HW131001   2.780   1.245   6.826 -1.3265  0.2806 -1.9425
 6514SOL    HW231002   2.644   1.234   6.885 -0.4877 -0.5122 -1.5575
 6515SOL     OW31003   0.611   4.049   5.237 -0.4294  0.1454 -0.4363
 6515SOL    HW131004   0.524   4.086   5.223 -0.6505 -0.5009 -0.8033
 6515SOL    HW231005   0.641   4.111   5.304  0.6269  0.6370 -1.3568
 6516SOL     OW31006   4.173   2.059   8.639 -0.2635  0.2865  0.4217
 6516SOL    HW131007   4.169   2.152   8.660 -0.9649 -0.0206  1.6087
 6516SOL    HW231008   4.235   2.062   8.566 -2.0533  1.9058 -1.0464
 6517SOL     OW31009   0.167   3.473   7.991 -0.7767 -0.2133  0.3326
 6517SOL    HW131010   0.151   3.566   8.005 -1.6217 -0.4663  1.0345
 6517SOL    HW231011   0.157   3.483   7.896 -2.8706 -0.5317  0.5135
 6518SOL     OW31012   0.846   0.761   5.387  0.2271 -0.0120 -0.0249
 6518SOL    HW131013   0.781   0.805   5.331 -0.3837  0.1429  0.8108
 6518SOL    HW231014   0.909   0.752   5.315  0.8639  1.5854  0.3315
 6519SOL     OW31015   1.013   2.399   7.976  0.1380 -0.1487 -0.7848
 6519SOL    HW131016   1.069   2.462   8.021  0.7711 -0.4933 -1.0916
 6519SOL    HW231017   0.969   2.363   8.053  0.8360  1.8418  0.5388
 6520SOL     OW31018   1.714   3.687   3.062  0.0217  0.3648  0.1485
 6520SOL    HW131019   1.783   3.693   2.995  1.0875 -0.8060  1.1413
 6520SOL    HW231020   1.641   3.697   3.001 -0.0197  0.9285  0.2918
 6521SOL     OW31021   1.733   0.281   4.318 -0.3153 -0.0720 -0.4534
 6521SOL    HW131022   1.654   0.233   4.294 -0.5787  0.4949 -0.7314
 6521SOL    HW231023   1.707   0.369   4.347  0.1082  0.2239 -0.9658
 6522SOL     OW31024   4.276   0.108  11.050 -0.5390 -0.5237  0.2795
 6522SOL    HW131025   4.252   0.145  10.965 -1.4887 -0.6661  0.4831
 6522SOL    HW231026   4.186   0.107  11.084 -0.2930  1.4863  0.9944
 6523SOL     OW31027   0.879   4.653   5.742 -0.3429  0.0154 -0.0927
 6523SOL    HW131028   0.912   4.710   5.673  1.3819  0.4719  1.0958
 6523SOL    HW231029   0.786   4.656   5.721 -0.8677 -0.2169  2.2199
 6524SOL     OW31030   3.112   4.209   1.239 -0.2674  0.4873 -1.0507
 6524SOL    HW131031   3.033   4.157   1.224  0.7425 -1.1884 -0.5832
 6524SOL    HW231032   3.180   4.142   1.236 -0.8881 -0.0875 -2.3043
 6525SOL     OW31033   1.230   3.774   8.345 -0.0993 -0.8226 -0.0426
 6525SOL    HW131034   1.283   3.751   8.269 -1.4207 -2.5795 -0.4403
 6525SOL    HW231035   1.179   3.846   8.305  1.3594  0.4244  0.3524
 6526SOL     OW31036   0.023   0.249   8.144 -0.5822  0.2806 -0.3779
 6526SOL    HW131037   4.684   0.271   8.073 -2.6569 -1.6475  0.7780
 6526SOL    HW231038   4.696   0.279   8.221  1.5420 -0.0189  1.0786
 6527SOL     OW31039   2.813   4.601   3.782 -0.2158 -0.7035  0.2248
 6527SOL    HW131040   2.805   4.523   3.728  0.5409 -1.4269  1.1707
 6527SOL    HW231041   2.724   4.636   3.774 -0.0002 -0.3104 -0.5004
 6528SOL     OW31042   3.671   3.509   2.703 -0.1547  0.0844 -0.0349
 6528SOL    HW131043   3.602   3.508   2.637 -1.0934  2.3779  0.8965
 6528SOL    HW231044   3.637   3.580   2.757  0.4228  1.2269 -1.1542
 6529SOL     OW31045   0.943   0.466   3.843  0.0045 -0.3974 -0.5742
 6529SOL    HW131046   0.986   0.381   3.855  0.9752  0.1959  0.2369
 6529SOL    HW231047   0.885   0.448   3.769 -2.0634 -0.4196  1.0535
 6530SOL     OW31048   3.449   0.426   1.875  0.1848 -0.6851  0.3828
 6530SOL    HW131049   3.362   0.453   1.846 -0.3649 -2.0026  0.8196
 6530SOL    HW231050   3.489   0.513   1.867 -2.0616  0.1799 -1.6169
 6531SOL     OW31051   1.133   0.260   4.200  0.3256  0.1461 -0.2385
 6531SOL    HW131052   1.124   0.355   4.191 -1.4898 -0.1285 -1.3686
 6531SOL    HW231053   1.222   0.245   4.170  0.3962 -0.3949  0.2444
 6532SOL     OW31054   1.438   2.357   8.610  0.7271  0.4074  0.0106
 6532SOL    HW131055   1.397   2.288   8.558  0.9018  0.8277 -0.6902
 6532SOL    HW231056   1.390   2.432   8.575  1.5108  0.8226 -0.1596
 6533SOL     OW31057   2.567   1.006   6.406 -0.2980  0.7289 -0.3663
 6533SOL    HW131058   2.578   1.101   6.403  1.2473  0.5915  1.5116
 6533SOL    HW231059   2.545   0.977   6.318 -0.6052 -1.4333  0.4370
 6534SOL     OW31060   4.097   2.862   7.882  0.1393 -0.5960 -0.4986
 6534SOL    HW131061   4.133   2.900   7.802 -0.7512 -0.7479 -0.9616
 6534SOL    HW231062   4.071   2.945   7.922  1.8773  0.5364 -1.7222
 6535SOL     OW31063   0.066   1.502  16.049  0.3306 -0.0348 -0.0401
 6535SOL    HW131064   0.115   1.460  15.979 -0.6204 -2.7192  0.9276
 6535SOL    HW231065   0.022   1.578  16.010  1.7881  0.3761 -0.8812
 6536SOL     OW31066   1.850   0.354  14.563  0.2386  0.3619 -0.6159
 6536SOL    HW131067   1.923   0.378  14.620 -1.1474  1.0957  0.8487
 6536SOL    HW231068   1.872   0.413  14.491  0.6956  1.3107  0.3079
 6537SOL     OW31069   0.975   3.240   6.120 -0.1444 -0.3697 -0.0705
 6537SOL    HW131070   0.954   3.333   6.134  1.3706 -0.1194  0.5841
 6537SOL    HW231071   0.960   3.232   6.026 -3.7185 -1.6753  0.6429
 6538SOL     OW31072   2.999   4.298   2.448  0.1815 -0.1117  0.0790
 6538SOL    HW131073   2.947   4.223   2.478  1.5305 -1.1505 -0.1839
 6538SOL    HW231074   3.032   4.259   2.367  0.6397  0.7057 -0.1255
 6539SOL     OW31075   3.985   1.034   4.986 -0.4901 -0.0922 -0.8573
 6539SOL    HW131076   3.966   1.006   5.076 -1.7956  0.4527 -0.9522
 6539SOL    HW231077   3.919   1.102   4.974  0.1670  0.6234 -0.4246
 6540SOL     OW31078   4.418   0.483   9.577  0.0036 -0.1332  0.2524
 6540SOL    HW131079   4.409   0.391   9.551  0.0839  0.7150 -2.7693
 6540SOL    HW231080   4.325   0.503   9.588 -0.3465 -1.3941 -0.4009
 6541SOL     OW31081   0.660   1.292   9.262 -0.0097 -0.1257 -0.2327
 6541SOL    HW131082   0.753   1.269   9.270  0.2589  0.3233 -2.0966
 6541SOL    HW231083   0.642   1.296   9.356  0.1170 -0.9751 -0.1659
 6542SOL     OW31084   0.679   2.117  11.007  0.4632 -0.3698  0.3076
 6542SOL    HW131085   0.719   2.062  11.075 -0.1437 -2.1117 -0.7511
 6542SOL    HW231086   0.757   2.168  10.983  1.1474 -1.5336  0.0729
 6543SOL     OW31087   2.272   4.285  16.262  0.0420 -0.3346  0.0883
 6543SOL    HW131088   2.196   4.233  16.290 -0.3288  0.3752  0.3936
 6543SOL    HW231089   2.322   4.215  16.220  2.0988  0.3672  1.3442
 6544SOL     OW31090   2.369   2.271   5.399  0.2709 -0.3592 -0.0491
 6544SOL    HW131091   2.387   2.323   5.321 -0.7747  2.8619  1.8352
 6544SOL    HW231092   2.446   2.282   5.455 -0.9836 -0.8629  1.7651
 6545SOL     OW31093   3.452   4.294   1.741  0.2593 -0.3101  0.1799
 6545SOL    HW131094   3.423   4.381   1.767 -0.1967 -0.9285  1.7417
 6545SOL    HW231095   3.366   4.252   1.741  0.3025 -0.4145  2.1225
 6546SOL     OW31096   0.054   3.423   3.060 -0.5055 -0.6589  0.7604
 6546SOL    HW131097   0.061   3.438   2.966 -2.4384  5.4586  1.5930
 6546SOL    HW231098   0.114   3.350   3.074  0.2423 -0.4445 -1.3609
 6547SOL     OW31099   1.462   3.790   0.330 -0.2284 -0.3438  0.3124
 6547SOL    HW131100   1.409   3.734   0.274  0.0589 -1.1079  0.8044
 6547SOL    HW231101   1.485   3.728   0.399  0.9757 -1.1844 -0.8420
 6548SOL     OW31102   3.700   1.459   2.796 -0.0044  0.3130  1.0797
 6548SOL    HW131103   3.747   1.379   2.820 -0.0139 -0.4860 -1.6215
 6548SOL    HW231104   3.628   1.460   2.860  0.1152  0.4210  1.2118
 6549SOL     OW31105   4.102   4.522   2.108  0.2168  0.3043  0.2619
 6549SOL    HW131106   4.134   4.609   2.086  0.0870  0.6975  1.5776
 6549SOL    HW231107   4.057   4.501   2.027  1.5882 -3.5572  0.5175
 6550SOL     OW31108   3.511   3.658   3.424 -0.8160  0.2679  0.1879
 6550SOL    HW131109   3.525   3.747   3.391 -2.0812  0.3938  0.0064
 6550SOL    HW231110   3.433   3.635   3.374  1.9535  0.2005 -4.0904
 6551SOL     OW31111   1.871   1.703   1.327  0.0249 -0.0443  0.1604
 6551SOL    HW131112   1.928   1.779   1.336  2.0143 -1.5625  0.4088
 6551SOL    HW231113   1.851   1.700   1.420  2.0322  0.1984  0.6040
 6552SOL     OW31114   3.015   2.306   1.774 -0.3238 -0.1641  0.2686
 6552SOL    HW131115   3.108   2.328   1.764 -0.6583  1.6655  1.4324
 6552SOL    HW231116   3.020   2.234   1.837 -1.9328 -1.9964 -1.7146
 6553SOL     OW31117   0.042   2.206   1.437 -0.5208  0.0259  0.0225
 6553SOL    HW131118   0.023   2.194   1.530  0.8894 -2.7787 -0.0383
 6553SOL    HW231119   0.080   2.121   1.417  0.9677  0.6643  0.1536
 6554SOL     OW31120   1.569   0.797   8.386  0.6674 -0.0509  0.1056
 6554SOL    HW131121   1.612   0.714   8.403  1.6329  0.4681  0.1887
 6554SOL    HW231122   1.640   0.854   8.357  1.5457 -1.3039 -0.2044
 6555SOL     OW31123   1.676   1.363   6.782 -0.5255 -0.1214  0.3341
 6555SOL    HW131124   1.595   1.318   6.804 -0.3093 -1.2844 -1.2127
 6555SOL    HW231125   1.651   1.453   6.801  1.2986 -0.0250  2.2270
 6556SOL     OW31126   2.816   4.353  10.396 -0.1434  0.9907  0.4038
 6556SOL    HW131127   2.779   4.417  10.335 -1.0270  0.7207  0.6578
 6556SOL    HW231128   2.907   4.383  10.391  0.2869 -0.3360  0.1830
 6557SOL     OW31129   2.446   1.643  14.246 -0.7117 -0.3681 -0.1495
 6557SOL    HW131130   2.447   1.579  14.175  1.0614 -0.2773 -0.2193
 6557SOL    HW231131   2.493   1.592  14.312  0.9446  2.2185  0.6745
 6558SOL     OW31132   0.600   1.803   8.110 -0.1124 -0.2490  0.5213
 6558SOL    HW131133   0.566   1.892   8.121 -1.0301 -0.5953  0.4272
 6558SOL    HW231134   0.536   1.765   8.170  0.4317  0.0839  1.3196
 6559SOL     OW31135   0.063   0.549   6.061 -0.3115  0.3728 -0.1273
 6559SOL    HW131136   0.132   0.500   6.106  1.6875 -0.6659 -4.3122
 6559SOL    HW231137   0.114   0.629   6.049 -0.2772  0.0555 -2.0324
 6560SOL     OW31138   1.851   1.312   7.956  0.2124 -0.3600  0.2871
 6560SOL    HW131139   1.883   1.283   8.041  3.5352 -1.0919 -1.2041
 6560SOL    HW231140   1.924   1.292   7.897  0.3764 -0.0863  0.4004
 6561SOL     OW31141   2.186   1.830   2.625  0.5522  0.0376 -0.3307
 6561SOL    HW131142   2.141   1.808   2.543 -2.2380 -3.0342  2.0222
 6561SOL    HW231143   2.180   1.926   2.625  0.4937  0.0237  0.7183
 6562SOL     OW31144   0.558   0.334  16.804  0.7291  0.3235  0.4406
 6562SOL    HW131145   0.488   0.354  16.866 -1.1523 -4.2529 -0.1992
 6562SOL    HW231146   0.570   0.423  16.771 -1.7116  0.3999 -0.2781
 6563SOL     OW31147   3.898   0.093   3.688  0.7347 -0.7676 -0.2874
 6563SOL    HW131148   3.907   0.145   3.608  0.8789 -1.7487 -0.9025
 6563SOL    HW231149   3.920   0.167   3.745 -1.3814 -1.2517  1.1761
 6564SOL     OW31150   1.378   3.660   8.126 -0.2501  0.3826  0.0199
 6564SOL    HW131151   1.447   3.595   8.114 -1.6042 -1.5967  2.7624
 6564SOL    HW231152   1.412   3.746   8.103 -0.4102  0.0386 -1.4780
 6565SOL     OW31153   0.560   2.899  12.739  0.0325 -0.4429  1.0152
 6565SOL    HW131154   0.522   2.824  12.693 -0.3777  0.0089  0.6177
 6565SOL    HW231155   0.639   2.860  12.777  0.1544  1.7052  3.0199
 6566SOL     OW31156   1.113   4.498  15.411  0.1816 -0.7435  0.2282
 6566SOL    HW131157   1.130   4.420  15.465 -2.3297 -2.0306 -0.8545
 6566SOL    HW231158   1.201   4.525  15.386 -0.0942  1.9829  2.2502
 6567SOL     OW31159   1.569   2.630  14.025 -0.5881  0.0618 -0.1418
 6567SOL    HW131160   1.536   2.708  14.070  0.3040  1.3143 -1.6274
 6567SOL    HW231161   1.521   2.563  14.074  0.1066 -0.0208  0.4209
 6568SOL     OW31162   1.620   2.957   3.748  0.4622  0.1874 -0.5136
 6568SOL    HW131163   1.590   3.038   3.788  0.0588 -0.3459  0.2736
 6568SOL    HW231164   1.567   2.905   3.808 -0.5835  0.3243 -1.3145
 6569SOL     OW31165   2.428   1.225  16.809 -0.4402 -0.2727  0.3126
 6569SOL    HW131166   2.458   1.190  16.726 -0.3754 -1.1274  0.6975
 6569SOL    HW231167   2.514   1.234  16.849  0.0195 -3.2741  0.0059
 6570SOL     OW31168   3.312   0.175   2.633 -0.1880 -0.0914 -0.2412
 6570SOL    HW131169   3.377   0.234   2.595  0.2548 -0.5112 -0.1437
 6570SOL    HW231170   3.291   0.215   2.718 -0.0345 -1.0613  0.2544
 6571SOL     OW31171   3.241   2.394  12.864 -0.3128  0.1144  0.0483
 6571SOL    HW131172   3.197   2.310  12.876 -1.4497  0.8957  1.3177
 6571SOL    HW231173   3.318   2.370  12.811 -0.1322  0.8732 -0.0299
 6572SOL     OW31174   1.443   0.602   2.081 -0.1802 -0.1309  0.3284
 6572SOL    HW131175   1.405   0.671   2.026  0.1581 -0.2931 -0.1115
 6572SOL    HW231176   1.363   0.577   2.127  0.2573 -1.8495  0.1509
 6573SOL     OW31177   0.963   0.791  15.398  0.3935  0.3302 -0.5405
 6573SOL    HW131178   0.997   0.880  15.388  0.6697  0.2729 -0.1356
 6573SOL    HW231179   1.001   0.751  15.476 -1.7764 -3.5141 -1.4721
 6574SOL     OW31180   0.058   2.672  11.803  0.6358  0.4018  0.1804
 6574SOL    HW131181   0.052   2.632  11.890  0.0228 -1.7761 -0.8719
 6574SOL    HW231182   0.070   2.766  11.817 -2.7758  1.0887 -1.6295
 6575SOL     OW31183   0.937   3.739   8.559  0.1981  0.2601  0.3891
 6575SOL    HW131184   0.905   3.724   8.648 -1.0369  1.1926  0.1089
 6575SOL    HW231185   0.929   3.657   8.509 -1.6202  0.4941  0.3008
 6576SOL     OW31186   0.587   2.865   0.644 -0.0780 -0.4125  0.2218
 6576SOL    HW131187   0.520   2.927   0.617 -1.2267 -1.7037  0.1389
 6576SOL    HW231188   0.656   2.925   0.672 -0.1378  0.1960 -0.9384
 6577SOL     OW31189   1.324   0.326  16.366  0.1514 -0.5208 -0.2804
 6577SOL    HW131190   1.296   0.262  16.300 -0.0075 -1.3332  0.5649
 6577SOL    HW231191   1.252   0.389  16.363  1.1672  0.7239  1.8771
 6578SOL     OW31192   0.563   1.629  14.823  0.0629  0.3880 -0.4966
 6578SOL    HW131193   0.498   1.683  14.777 -3.3561 -1.4176  2.2413
 6578SOL    HW231194   0.536   1.541  14.798  0.3323  0.4954 -1.1700
 6579SOL     OW31195   4.374   3.199   5.944  0.3406 -0.3062 -0.5866
 6579SOL    HW131196   4.363   3.199   6.039 -1.7502  3.3132 -0.8537
 6579SOL    HW231197   4.418   3.283   5.931 -0.4612  0.0480 -0.9699
 6580SOL     OW31198   3.953   2.337  13.035 -0.3319 -0.1650  0.1816
 6580SOL    HW131199   3.873   2.386  13.015 -0.8235 -2.0518 -2.4310
 6580SOL    HW231200   3.925   2.290  13.114 -2.1451  2.7524  1.2723
 6581SOL     OW31201   4.193   3.046  11.138  0.2255  0.0635  0.4180
 6581SOL    HW131202   4.172   3.140  11.136 -0.3254 -0.0313  1.7080
 6581SOL    HW231203   4.244   3.035  11.219  0.2333  0.0298  0.4082
 6582SOL     OW31204   0.201   1.059   4.802 -0.3724 -0.5919 -0.1012
 6582SOL    HW131205   0.235   1.095   4.884 -0.1742 -1.1843  0.0751
 6582SOL    HW231206   0.106   1.068   4.808 -0.3716  0.1486 -1.2351
 6583SOL     OW31207   0.279   4.477  16.733  0.4649 -0.5351 -0.5290
 6583SOL    HW131208   0.271   4.501  16.641  1.1896  1.6268 -0.0319
 6583SOL    HW231209   0.278   4.381  16.724  4.0010 -0.5879 -0.5288
 6584SOL     OW31210   2.522   3.628   6.283 -0.6083 -0.0255  0.2450
 6584SOL    HW131211   2.568   3.686   6.343 -1.2364  1.7813 -1.0113
 6584SOL    HW231212   2.581   3.558   6.253  1.1473  1.5326  0.0381
 6585SOL     OW31213   3.224   1.915  13.988 -0.0261  0.0107 -0.2191
 6585SOL    HW131214   3.239   1.822  14.000  0.5660 -0.1092 -1.9306
 6585SOL    HW231215   3.142   1.918  13.940  0.2124 -0.6599 -0.6603
 6586SOL     OW31216   2.364   2.698  15.812  0.6947  0.1957 -0.0156
 6586SOL    HW131217   2.300   2.627  15.811 -0.1039  0.8870  1.4812
 6586SOL    HW231218   2.333   2.760  15.879  1.1046  1.8313 -1.3361
 6587SOL     OW31219   3.066   0.821   2.221  0.0824  0.4635 -0.1551
 6587SOL    HW131220   3.124   0.749   2.198  0.2957  0.3887  0.6010
 6587SOL    HW231221   3.007   0.784   2.287  0.6896  1.2044  0.8227
 6588SOL     OW31222   4.560   1.256   2.811  0.4172 -0.0869  0.3828
 6588SOL    HW131223   4.568   1.323   2.878 -1.7681 -0.2257  0.7847
 6588SOL    HW231224   4.626   1.193   2.840 -0.7077 -0.5806  1.8854
 6589SOL     OW31225   0.765   3.734   7.390 -0.3189 -0.0822 -0.0412
 6589SOL    HW131226   0.727   3.650   7.416  0.5756 -0.2897  0.6090
 6589SOL    HW231227   0.687   3.778   7.357 -1.3960  0.0866  2.7331
 6590SOL     OW31228   1.732   1.769  16.048 -0.1837  0.6503  0.1689
 6590SOL    HW131229   1.695   1.682  16.064  1.1642 -0.0715 -0.6385
 6590SOL    HW231230   1.718   1.793  15.956  1.2856  1.9799  0.2938
 6591SOL     OW31231   1.758   0.266   0.367  0.0723  0.6360  0.0759
 6591SOL    HW131232   1.666   0.243   0.354 -0.6696  2.8221  1.4777
 6591SOL    HW231233   1.800   0.200   0.312 -0.0565  0.3601  0.3119
 6592SOL     OW31234   4.207   1.192   1.703 -0.7808 -0.8690  0.3096
 6592SOL    HW131235   4.145   1.246   1.653 -0.9530 -0.0686  1.3754
 6592SOL    HW231236   4.167   1.196   1.790  1.9924 -0.4792  1.5830
 6593SOL     OW31237   3.628   3.955   8.913  0.0793 -0.2184 -0.6343
 6593SOL    HW131238   3.666   3.917   8.834  0.4365  0.9777 -1.0452
 6593SOL    HW231239   3.561   3.898   8.950 -0.4985  0.1935 -1.0606
 6594SOL     OW31240   4.069   1.525   5.031 -0.1220  0.3235  0.6118
 6594SOL    HW131241   4.124   1.498   4.957 -0.6083 -1.1319  0.7762
 6594SOL    HW231242   3.982   1.508   4.994  0.5843 -1.8270 -0.0372
 6595SOL     OW31243   1.095   1.563   2.217  0.6741  0.4752 -0.7454
 6595SOL    HW131244   1.001   1.549   2.211  1.1393 -1.6733 -3.0553
 6595SOL    HW231245   1.124   1.492   2.273  0.7411  1.3178  0.2821
 6596SOL     OW31246   4.644   2.071   0.562 -0.3767 -0.3892  0.1625
 6596SOL    HW131247   4.598   2.078   0.479 -0.7962  1.1328  0.5218
 6596SOL    HW231248   4.714   2.012   0.533 -2.7431 -2.7024 -0.7519
 6597SOL     OW31249   3.737   0.556   3.975 -0.3975  0.4531 -0.3136
 6597SOL    HW131250   3.730   0.464   3.952 -1.1845  0.3414  0.3658
 6597SOL    HW231251   3.680   0.600   3.912 -0.8487  0.0093 -0.2168
 6598SOL     OW31252   2.229   1.754   2.202  0.7444 -0.4197  0.1175
 6598SOL    HW131253   2.251   1.680   2.258  1.6833  1.0627  1.7272
 6598SOL    HW231254   2.303   1.814   2.213  0.3603 -0.1095  1.0806
 6599SOL     OW31255   0.299   3.976   4.021  0.4964 -0.1114 -0.1667
 6599SOL    HW131256   0.217   3.993   3.976  0.8723  0.0579 -0.7893
 6599SOL    HW231257   0.263   3.953   4.107  0.0020 -0.0977 -0.3692
 6600SOL     OW31258   3.656   4.066   3.116  0.0918  0.1310 -0.4837
 6600SOL    HW131259   3.565   4.074   3.087 -0.3214  1.6195  1.2546
 6600SOL    HW231260   3.700   4.094   3.035 -2.0531 -0.3483 -1.8188
 6601SOL     OW31261   0.532   3.424  10.440 -0.1658  0.4992  0.2206
 6601SOL    HW131262   0.627   3.420  10.450  0.2292  1.4668 -3.0409
 6601SOL    HW231263   0.510   3.332  10.453  2.0708 -0.3531 -2.0533
 6602SOL     OW31264   3.062   4.638   0.069  0.4004 -0.2459 -0.5115
 6602SOL    HW131265   3.061   4.633   0.164  2.4553 -0.8696 -0.5090
 6602SOL    HW231266   3.154   4.620   0.046  0.0797 -1.9315 -0.4346
 6603SOL     OW31267   4.491   0.419  13.623 -0.8180 -0.2054 -0.0534
 6603SOL    HW131268   4.449   0.333  13.623  0.8221 -0.9874 -2.0151
 6603SOL    HW231269   4.580   0.386  13.631 -0.1751  1.7111  0.6835
 6604SOL     OW31270   3.871   0.529  13.188 -0.4376 -0.2171  0.7512
 6604SOL    HW131271   3.926   0.482  13.251  0.5190 -0.5177 -0.3011
 6604SOL    HW231272   3.879   0.614  13.232 -1.3470 -0.5737  1.6178
 6605SOL     OW31273   3.449   4.686   8.145 -0.1475  0.2309 -0.2437
 6605SOL    HW131274   3.426   4.641   8.226  1.8119 -1.9750 -0.9018
 6605SOL    HW231275   3.421   0.053   8.171 -3.0307 -0.9544  0.6266
 6606SOL     OW31276   2.484   0.458   5.209 -0.3387 -0.6772  0.4612
 6606SOL    HW131277   2.412   0.416   5.161 -0.4708  1.3230 -1.0821
 6606SOL    HW231278   2.451   0.463   5.299  1.2257  0.8342  0.9646
 6607SOL     OW31279   1.867   4.644   8.465 -0.0905  0.1531  0.0707
 6607SOL    HW131280   1.879   0.016   8.488 -1.4236  0.4387 -0.3928
 6607SOL    HW231281   1.952   4.623   8.426 -0.1118  1.9781 -0.9747
 6608SOL     OW31282   3.195   2.124  11.097 -0.0930 -0.4699 -0.1234
 6608SOL    HW131283   3.240   2.139  11.180  0.5034 -0.1050 -0.5112
 6608SOL    HW231284   3.261   2.174  11.049 -0.9313  1.7947  1.0959
 6609SOL     OW31285   0.185   2.656   5.656 -0.4459  0.7535  0.7542
 6609SOL    HW131286   0.122   2.632   5.724 -0.8616 -0.4752 -0.0493
 6609SOL    HW231287   0.165   2.604   5.578 -1.5874 -0.5319  1.9020
 6610SOL     OW31288   2.510   0.600  10.318 -0.7001 -0.0806  0.9989
 6610SOL    HW131289   2.571   0.598  10.391 -0.2482 -0.2593  0.6198
 6610SOL    HW231290   2.531   0.519  10.272 -0.9360 -0.0699  0.8699
 6611SOL     OW31291   1.565   0.086   7.356 -0.5032 -0.4793  0.4767
 6611SOL    HW131292   1.554   0.124   7.269 -0.1337  0.5278  0.8798
 6611SOL    HW231293   1.641   0.028   7.351  0.6087  0.9948  0.1885
 6612SOL     OW31294   0.225   2.527  11.174 -0.1255 -0.9740  0.4660
 6612SOL    HW131295   0.229   2.492  11.263 -0.4021  0.8838  1.2098
 6612SOL    HW231296   0.205   2.620  11.186  3.7865 -0.1725  0.7588
 6613SOL     OW31297   3.676   1.451   1.875  0.1453 -0.2934 -0.2597
 6613SOL    HW131298   3.708   1.539   1.895 -1.4116  0.0440  0.7256
 6613SOL    HW231299   3.760   1.420   1.841  1.2201  1.7164  0.5616
 6614SOL     OW31300   4.368   0.143  12.379 -0.5006 -0.4462 -0.3579
 6614SOL    HW131301   4.277   0.173  12.372 -0.5619 -0.5915 -0.1962
 6614SOL    HW231302   4.361   0.068  12.439 -0.6594 -1.2158 -1.3425
 6615SOL     OW31303   2.469   2.266  15.041  0.0732  0.1186  0.3924
 6615SOL    HW131304   2.523   2.344  15.060  0.7709 -0.1336 -0.6048
 6615SOL    HW231305   2.450   2.283  14.949  0.5268  0.6879  0.3952
 6616SOL     OW31306   2.149   1.736   6.637 -0.5025  0.1023 -0.0074
 6616SOL    HW131307   2.109   1.651   6.621  0.8146 -0.7719  1.4038
 6616SOL    HW231308   2.072   1.789   6.658 -0.1198  1.4124 -1.8815
 6617SOL     OW31309   2.795   2.082   3.047 -0.1095 -0.5152  0.7384
 6617SOL    HW131310   2.812   2.127   3.129  1.7559 -0.0971  0.1108
 6617SOL    HW231311   2.807   2.157   2.989 -2.5140 -3.3910 -3.5170
 6618SOL     OW31312   1.117   3.088   4.817 -0.2693  0.0179  0.7976
 6618SOL    HW131313   1.110   2.993   4.822 -0.8677  0.0625  0.7494
 6618SOL    HW231314   1.196   3.097   4.763  0.0470  2.2379  1.6393
 6619SOL     OW31315   1.342   1.510   7.366  0.5650 -0.8205 -0.1433
 6619SOL    HW131316   1.247   1.521   7.369  0.7875  1.8926 -2.6027
 6619SOL    HW231317   1.365   1.587   7.314  0.8249  0.0267  1.2488
 6620SOL     OW31318   2.809   0.134  14.469  0.6458 -0.5482  0.1550
 6620SOL    HW131319   2.822   0.118  14.375 -2.2008  1.6067 -0.6092
 6620SOL    HW231320   2.813   0.230  14.475  1.1828 -0.4858 -1.2457
 6621SOL     OW31321   1.340   0.850   8.203  0.0370 -0.1236 -0.3155
 6621SOL    HW131322   1.427   0.835   8.239 -0.2188  0.1913  0.4280
 6621SOL    HW231323   1.334   0.946   8.198 -0.3281 -0.2274 -1.9765
 6622SOL     OW31324   1.637   2.944   7.740  0.2185  0.6433  0.3139
 6622SOL    HW131325   1.669   2.943   7.650  1.3911 -3.4884  0.7515
 6622SOL    HW231326   1.585   3.024   7.745  1.1205  1.0769  2.4009
 6623SOL     OW31327   2.516   0.645  14.162  0.2996 -0.5476 -0.0361
 6623SOL    HW131328   2.580   0.598  14.109  1.1961  2.0911 -1.2744
 6623SOL    HW231329   2.448   0.642  14.095  1.4196  2.5608 -1.3089
 6624SOL     OW31330   3.090   3.670   9.896 -0.6328  0.5205  0.2012
 6624SOL    HW131331   3.052   3.757   9.885 -1.3073  0.1339 -0.4625
 6624SOL    HW231332   3.012   3.623   9.924  0.2719  0.6796  3.0391
 6625SOL     OW31333   4.075   4.674   3.906  0.2314 -0.0125  0.3218
 6625SOL    HW131334   4.002   4.714   3.859  1.4832  2.7962  0.7479
 6625SOL    HW231335   4.094   0.007   3.983  1.7341  0.2807 -0.2572
 6626SOL     OW31336   3.229   3.603   2.133 -0.5542 -0.2504 -0.0648
 6626SOL    HW131337   3.210   3.626   2.043  3.0181  0.8816 -0.5368
 6626SOL    HW231338   3.142   3.586   2.169 -0.8431 -0.0574 -0.6885
 6627SOL     OW31339   2.951   1.934   4.674  0.1506  0.3470 -1.0110
 6627SOL    HW131340   2.913   1.943   4.762  2.7936 -0.7868  0.2595
 6627SOL    HW231341   2.870   1.940   4.624  0.5883  2.3314 -1.4955
 6628SOL     OW31342   3.980   4.141   5.570  0.0215  0.5891 -0.1254
 6628SOL    HW131343   4.028   4.120   5.490  0.9489  2.2790 -0.0159
 6628SOL    HW231344   4.054   4.173   5.622  0.0313  2.7080 -1.4464
 6629SOL     OW31345   0.890   1.657   2.989  0.3144 -0.4270  0.2998
 6629SOL    HW131346   0.876   1.592   2.920  3.5491  0.7661 -1.5139
 6629SOL    HW231347   0.855   1.609   3.064  1.7314  0.4421  1.5327
 6630SOL     OW31348   1.326   2.151  15.438 -0.6799 -0.6407  0.2639
 6630SOL    HW131349   1.406   2.158  15.490 -0.7598  0.1264  0.2758
 6630SOL    HW231350   1.352   2.069  15.395 -1.2332 -0.9153  0.4592
 6631SOL     OW31351   0.409   3.065  11.084 -0.3591  0.2878  0.2020
 6631SOL    HW131352   0.375   2.979  11.058  1.2877 -0.6739  1.3088
 6631SOL    HW231353   0.443   3.097  11.000 -2.2679 -3.0056 -1.8215
 6632SOL     OW31354   0.087   3.022   6.833  0.0799 -0.3282  0.6234
 6632SOL    HW131355   0.118   3.009   6.923 -2.4388 -0.2140  1.5006
 6632SOL    HW231356   0.169   3.016   6.784 -0.5425 -1.1444 -0.3291
 6633SOL     OW31357   1.823   0.693   0.951 -0.0374 -0.7188 -0.0033
 6633SOL    HW131358   1.732   0.724   0.953  0.4851  0.7537  0.6092
 6633SOL    HW231359   1.850   0.727   0.866  0.8730 -2.0919 -0.2547
 6634SOL     OW31360   3.523   0.518  13.614 -0.3919  0.2359  0.3733
 6634SOL    HW131361   3.580   0.517  13.691 -0.2586  0.6933  0.2827
 6634SOL    HW231362   3.447   0.571  13.639  0.8203  1.8578  0.5910
 6635SOL     OW31363   3.330   1.315   5.954 -0.3259  0.3025 -0.0959
 6635SOL    HW131364   3.291   1.273   6.030  0.0693 -1.0021 -0.6122
 6635SOL    HW231365   3.261   1.304   5.889  1.8664 -0.7581 -2.2808
 6636SOL     OW31366   3.304   1.928   3.863 -0.5170 -0.4109  0.6180
 6636SOL    HW131367   3.282   1.843   3.902  2.9725 -0.4058  2.5631
 6636SOL    HW231368   3.376   1.903   3.805 -0.4874 -0.6759  0.7655
 6637SOL     OW31369   2.811   2.059   2.158  0.0230  0.0701 -0.3549
 6637SOL    HW131370   2.818   2.015   2.242  2.0176 -1.5455 -1.3482
 6637SOL    HW231371   2.779   1.983   2.108 -0.0524 -1.8024  2.5159
 6638SOL     OW31372   0.044   0.736   6.281  0.1868 -0.8852  0.1097
 6638SOL    HW131373   0.047   0.696   6.194  1.3011 -0.2238 -0.1491
 6638SOL    HW231374   0.128   0.713   6.319  0.3761  0.4394  0.4776
 6639SOL     OW31375   2.283   0.646   3.846 -0.1008 -0.6539 -0.7597
 6639SOL    HW131376   2.300   0.594   3.924  0.9660 -0.9625 -1.1898
 6639SOL    HW231377   2.202   0.696   3.854 -0.1115 -1.1237  1.8695
 6640SOL     OW31378   3.362   2.616   0.932 -0.4655 -0.4077 -0.0941
 6640SOL    HW131379   3.298   2.632   1.001  0.2401 -0.7130  0.6249
 6640SOL    HW231380   3.377   2.705   0.900 -0.2214 -0.6319 -0.6040
 6641SOL     OW31381   4.082   2.107  12.961  0.6870 -0.1966 -0.3643
 6641SOL    HW131382   4.010   2.169  12.962  0.2565 -0.7043 -0.0638
 6641SOL    HW231383   4.153   2.157  12.921  0.2775 -0.5536 -1.5170
 6642SOL     OW31384   1.316   1.160   8.242  0.1238 -0.2351 -0.0930
 6642SOL    HW131385   1.398   1.177   8.196  0.0244 -1.1122 -0.6109
 6642SOL    HW231386   1.259   1.204   8.179 -1.4236 -0.8729  0.8659
 6643SOL     OW31387   3.650   2.916   8.570  0.0914  0.2693 -0.2197
 6643SOL    HW131388   3.571   2.955   8.608 -0.6472  0.8017 -2.2695
 6643SOL    HW231389   3.705   2.900   8.646  0.5909  0.3070 -0.5731
 6644SOL     OW31390   2.831   4.289   6.870 -0.5499 -0.0289  0.3970
 6644SOL    HW131391   2.876   4.367   6.903  0.9634 -0.7952  0.1572
 6644SOL    HW231392   2.741   4.312   6.894  0.2879  1.0968  2.4999
 6645SOL     OW31393   1.892   0.412   9.614 -1.0084  0.1667 -0.0131
 6645SOL    HW131394   1.869   0.388   9.704 -2.0521  1.5216  0.0974
 6645SOL    HW231395   1.939   0.334   9.584  0.2769  0.6678  0.7109
 6646SOL     OW31396   0.055   1.538   5.609 -0.0394  0.0530  0.6471
 6646SOL    HW131397   0.130   1.527   5.550  1.2621  1.5723  2.0371
 6646SOL    HW231398   0.037   1.449   5.639 -2.9405  0.7066  0.8145
 6647SOL     OW31399   2.319   4.116   1.153 -0.2975 -0.0691  0.4263
 6647SOL    HW131400   2.334   4.025   1.182  2.0085  0.9504  2.5094
 6647SOL    HW231401   2.239   4.122   1.204 -1.2559  1.1737 -1.2413
 6648SOL     OW31402   1.677   1.817   1.569 -0.1341  0.1710  0.5812
 6648SOL    HW131403   1.624   1.738   1.581 -1.8523  1.7234  3.1886
 6648SOL    HW231404   1.611   1.878   1.536 -0.5822  0.7710  2.5613
 6649SOL     OW31405   3.943   3.509   7.538  0.0301 -0.2314  0.5759
 6649SOL    HW131406   3.926   3.593   7.495 -2.0257 -1.0221 -0.1559
 6649SOL    HW231407   3.857   3.469   7.542 -0.7556  1.5726  1.7479
 6650SOL     OW31408   2.885   0.509   0.428 -0.7708  0.6282  1.0271
 6650SOL    HW131409   2.828   0.460   0.370  1.9979 -2.8820  1.2902
 6650SOL    HW231410   2.945   0.439   0.451 -1.2268  0.7205  2.5081
 6651SOL     OW31411   0.988   1.738  10.000  0.1556 -0.2678  0.0166
 6651SOL    HW131412   1.040   1.706  10.074 -2.0125 -1.0724  1.1730
 6651SOL    HW231413   0.965   1.655   9.957 -0.5608 -0.5459  0.9566
 6652SOL     OW31414   4.392   2.681   6.724 -0.1062 -0.4953 -0.3517
 6652SOL    HW131415   4.466   2.741   6.722  1.1773 -2.0736  0.2421
 6652SOL    HW231416   4.319   2.728   6.683  0.6899  0.1481 -1.0199
 6653SOL     OW31417   3.480   1.304   0.896 -0.3932  0.1054 -0.3656
 6653SOL    HW131418   3.454   1.377   0.952  1.2493 -0.0011  0.5370
 6653SOL    HW231419   3.564   1.276   0.932 -0.0764  1.3360 -0.1628
 6654SOL     OW31420   1.729   4.347  11.204 -0.5361  0.1789 -0.2679
 6654SOL    HW131421   1.692   4.361  11.117 -0.1085 -1.0721 -0.6424
 6654SOL    HW231422   1.653   4.308  11.247  0.4865  1.5208  2.7394
 6655SOL     OW31423   3.078   0.033   1.570  0.0006 -0.2858 -0.0713
 6655SOL    HW131424   3.170   0.052   1.587  0.4610 -1.5096 -1.1893
 6655SOL    HW231425   3.034   0.070   1.647  0.1039 -0.0252 -0.1374
 6656SOL     OW31426   3.262   2.842   3.813 -0.0087 -0.6453  0.6091
 6656SOL    HW131427   3.356   2.825   3.803  0.3109  0.7195  1.3298
 6656SOL    HW231428   3.278   2.932   3.840 -1.9433  0.0722 -0.6693
 6657SOL     OW31429   3.765   0.339  15.700 -0.5649 -0.4541 -0.4468
 6657SOL    HW131430   3.753   0.275  15.769  0.6900 -1.6119 -1.2951
 6657SOL    HW231431   3.717   0.414  15.735  1.2228  1.0676 -1.1940
 6658SOL     OW31432   0.243   1.227   8.013 -0.0191 -0.1176 -0.1293
 6658SOL    HW131433   0.221   1.159   7.949 -0.9373  0.1846 -0.1362
 6658SOL    HW231434   0.159   1.259   8.045 -0.9047 -1.5548 -0.9783
 6659SOL     OW31435   2.102   4.092  13.562 -0.1167  0.1810 -0.5994
 6659SOL    HW131436   2.024   4.059  13.516  0.0974  0.4900 -1.1862
 6659SOL    HW231437   2.056   4.148  13.624 -3.2115 -4.2419  1.1593
 6660SOL     OW31438   4.139   1.676   4.050  0.2177 -0.0953  0.0006
 6660SOL    HW131439   4.145   1.646   3.959 -1.6440  0.4007 -0.3036
 6660SOL    HW231440   4.048   1.646   4.059  0.3588 -0.8105 -0.9685
 6661SOL     OW31441   3.838   1.655   4.070  0.0931 -0.7158  0.2554
 6661SOL    HW131442   3.819   1.742   4.034 -0.0478 -1.4066 -1.3482
 6661SOL    HW231443   3.818   1.658   4.163  1.7083  1.2010  0.5402
 6662SOL     OW31444   4.498   0.477   3.421  0.4079 -0.3102 -1.0560
 6662SOL    HW131445   4.420   0.454   3.370 -1.2535  1.2077  0.8172
 6662SOL    HW231446   4.538   0.392   3.441  0.5331  0.1564  0.6977
 6663SOL     OW31447   3.139   4.376   7.948  0.1113  0.1008 -0.5956
 6663SOL    HW131448   3.188   4.421   8.017 -1.4395  1.8475 -0.6279
 6663SOL    HW231449   3.164   4.421   7.867 -1.5165  0.1507 -1.0676
 6664SOL     OW31450   4.643   2.241   4.795  0.2663 -0.0598 -0.4069
 6664SOL    HW131451   4.583   2.243   4.870  1.7548  0.8327  0.7534
 6664SOL    HW231452   0.009   2.264   4.828 -0.1960  0.1100  0.6832
 6665SOL     OW31453   0.145   1.837   2.328  0.6808 -0.3744  0.2776
 6665SOL    HW131454   0.088   1.841   2.405  0.8022 -1.0153  0.3991
 6665SOL    HW231455   0.091   1.897   2.276  1.3389 -0.6336 -0.7048
 6666SOL     OW31456   1.735   3.789  13.835 -0.0035  0.2102  0.3508
 6666SOL    HW131457   1.786   3.736  13.896 -0.9276 -0.8351  0.2166
 6666SOL    HW231458   1.714   3.858  13.898 -0.3178  1.7365 -1.4340
 6667SOL     OW31459   4.429   4.247   6.846  0.1193 -0.0783 -0.1023
 6667SOL    HW131460   4.489   4.182   6.884 -1.8018 -0.8971  1.5292
 6667SOL    HW231461   4.358   4.242   6.911 -0.3327  0.5278 -0.5511
 6668SOL     OW31462   0.065   2.486  13.773  0.6382  0.8927 -0.6683
 6668SOL    HW131463   0.155   2.504  13.798  0.8774  0.0101 -0.9036
 6668SOL    HW231464   0.068   2.507  13.680  2.2815 -0.5443 -0.9315
 6669SOL     OW31465   3.532   2.718   3.311 -0.5166  0.1506  0.0521
 6669SOL    HW131466   3.448   2.757   3.331  0.3815  1.9414  0.3513
 6669SOL    HW231467   3.513   2.624   3.302  2.6704 -0.8865  4.1325
 6670SOL     OW31468   3.969   3.864   1.670  0.4442 -0.1783  0.1834
 6670SOL    HW131469   3.884   3.858   1.625  0.3842  0.5829  0.1986
 6670SOL    HW231470   3.945   3.835   1.758  1.1517  1.9491  1.0700
 6671SOL     OW31471   4.242   0.678   2.100  0.1505  0.0626 -0.4221
 6671SOL    HW131472   4.147   0.664   2.094  0.1249  0.4439 -0.8711
 6671SOL    HW231473   4.259   0.715   2.014  0.9866 -0.7512 -0.5936
 6672SOL     OW31474   4.317   0.194   2.595 -0.4752 -0.3961  0.1741
 6672SOL    HW131475   4.359   0.248   2.529  3.0470  0.8157  3.4046
 6672SOL    HW231476   4.241   0.251   2.608  0.7714  1.2284  0.2952
 6673SOL     OW31477   1.350   1.664   3.827 -0.7309 -0.0262 -0.0028
 6673SOL    HW131478   1.367   1.598   3.895 -0.9892 -0.0922 -0.0029
 6673SOL    HW231479   1.432   1.713   3.824 -1.7914  1.5569 -3.0016
 6674SOL     OW31480   2.666   4.160   3.752 -0.5984  0.0904 -0.1889
 6674SOL    HW131481   2.715   4.214   3.813 -2.1808  0.4553  0.7549
 6674SOL    HW231482   2.654   4.077   3.799  1.9076 -0.0249  0.2263
 6675SOL     OW31483   3.366   1.325  12.873 -0.2037 -0.3299 -0.2858
 6675SOL    HW131484   3.277   1.297  12.894  0.4853 -1.1606  1.4918
 6675SOL    HW231485   3.403   1.237  12.880 -0.1926 -0.2655  0.4561
 6676SOL     OW31486   3.214   2.357   8.644 -0.4068  0.3455 -0.3095
 6676SOL    HW131487   3.213   2.394   8.732  2.5941 -2.4068  0.8486
 6676SOL    HW231488   3.260   2.274   8.656 -1.5366 -0.1709  0.4092
 6677SOL     OW31489   4.219   2.559   8.209  0.2420 -0.9125 -0.5599
 6677SOL    HW131490   4.154   2.590   8.272  0.6303 -1.6625  0.2116
 6677SOL    HW231491   4.286   2.627   8.211 -0.1565 -0.5652  0.5851
 6678SOL     OW31492   4.157   3.901   0.331 -0.3261  0.0436  0.1801
 6678SOL    HW131493   4.075   3.885   0.284 -0.3564  0.5646  0.0571
 6678SOL    HW231494   4.200   3.815   0.335  0.9208  0.7163  1.1628
 6679SOL     OW31495   3.811   3.897   8.697 -0.0586  0.6216  0.2250
 6679SOL    HW131496   3.902   3.904   8.727  0.1702 -0.5689 -0.2146
 6679SOL    HW231497   3.827   3.859   8.611  2.2942 -2.7676  2.1397
 6680SOL     OW31498   4.692   1.967  11.979 -0.1317  1.1944  0.0257
 6680SOL    HW131499   4.688   1.879  12.016 -0.1422  0.9534 -0.5392
 6680SOL    HW231500   4.603   1.992  11.955 -0.3243  0.8281  0.3816
 6681SOL     OW31501   0.774   1.806   5.003 -0.1141  0.2826  0.1027
 6681SOL    HW131502   0.866   1.789   4.984  0.0131  0.0681  0.9206
 6681SOL    HW231503   0.746   1.845   4.919 -1.3863  0.4629  0.6024
 6682SOL     OW31504   2.115   1.564  13.976  0.2937 -0.4987 -0.1880
 6682SOL    HW131505   2.189   1.556  14.036 -0.5081 -0.5240  0.8085
 6682SOL    HW231506   2.045   1.525  14.030 -1.1955  0.3484 -1.5017
 6683SOL     OW31507   3.048   4.593   6.434 -0.2972  0.0495 -0.0591
 6683SOL    HW131508   3.139   4.614   6.457 -0.2660 -1.3359  1.0079
 6683SOL    HW231509   2.996   4.608   6.512  0.6230  2.2113  0.1556
 6684SOL     OW31510   3.865   4.082   2.103 -0.7961  0.1194  0.4586
 6684SOL    HW131511   3.813   4.011   2.141  1.1294 -2.6077 -1.9932
 6684SOL    HW231512   3.868   4.142   2.177  2.4934 -0.1548  0.5093
 6685SOL     OW31513   2.861   3.362  15.870  0.4515 -0.3058 -0.3298
 6685SOL    HW131514   2.808   3.437  15.897  0.6199  0.2880 -1.6639
 6685SOL    HW231515   2.942   3.381  15.916  0.9250  0.3203 -1.4167
 6686SOL     OW31516   1.473   0.601   5.185 -0.2940 -0.4418  0.2174
 6686SOL    HW131517   1.470   0.508   5.161 -0.2318 -0.4691  0.3134
 6686SOL    HW231518   1.547   0.608   5.245 -1.1447  1.4996  1.0163
 6687SOL     OW31519   3.123   1.861  17.087 -0.3019  0.1910 -0.0962
 6687SOL    HW131520   3.123   1.775  17.129 -1.0195  0.7600  1.0707
 6687SOL    HW231521   3.067   1.904  17.151 -0.0141 -0.1370  0.3723
 6688SOL     OW31522   4.586   4.504   8.169  0.9033  0.2285 -0.0460
 6688SOL    HW131523   4.680   4.489   8.157  0.4295 -2.1581 -0.7521
 6688SOL    HW231524   4.564   4.438   8.234 -0.3885 -0.5483 -1.2483
 6689SOL     OW31525   0.050   3.936  14.030 -0.3373  0.9847 -0.1577
 6689SOL    HW131526   0.075   3.999  14.097 -0.2631  1.7755 -0.9220
 6689SOL    HW231527   0.110   3.865  14.051  1.4865  1.6947 -2.8911
 6690SOL     OW31528   2.690   0.043   1.377  0.3238  0.0304 -0.0674
 6690SOL    HW131529   2.779   0.060   1.348  0.0249  2.3051  0.3400
 6690SOL    HW231530   2.647   0.091   1.305 -0.1012  0.6175  0.5698
 6691SOL     OW31531   3.005   1.578   3.708  0.1409 -0.4104 -0.1617
 6691SOL    HW131532   2.978   1.542   3.624  1.8664 -1.3693 -0.3036
 6691SOL    HW231533   3.099   1.577   3.688  0.1139  3.4279 -0.3993
 6692SOL     OW31534   0.809   3.593   1.743 -0.1819  0.4132 -0.3440
 6692SOL    HW131535   0.868   3.540   1.796 -0.1670  0.1282 -0.6438
 6692SOL    HW231536   0.743   3.623   1.806 -0.4832  0.9835 -0.9219
 6693SOL     OW31537   4.137   4.428   6.968 -0.2399  0.3363 -0.0195
 6693SOL    HW131538   4.221   4.421   7.014  0.3567 -1.3639 -1.3488
 6693SOL    HW231539   4.096   4.344   6.986 -1.1760  0.7347 -0.2909
 6694SOL     OW31540   3.419   1.838  10.499  0.7465  0.3313 -0.0107
 6694SOL    HW131541   3.366   1.810  10.573  1.4743  0.0899  0.4228
 6694SOL    HW231542   3.376   1.784  10.433 -2.5771  0.8530  1.7455
 6695SOL     OW31543   1.447   1.791   5.802  0.1849  0.1272  0.2125
 6695SOL    HW131544   1.403   1.865   5.844  1.6535 -0.3158  2.5304
 6695SOL    HW231545   1.517   1.774   5.865  0.5577 -0.1762 -0.2721
 6696SOL     OW31546   3.677   0.178  17.407  0.5559  0.5371  0.3461
 6696SOL    HW131547   3.688   0.169  17.501  2.3615  0.1836  0.0974
 6696SOL    HW231548   3.589   0.213  17.391  0.1649 -0.4366  0.3404
 6697SOL     OW31549   3.648   4.656   2.480 -0.1357 -0.0740 -0.0133
 6697SOL    HW131550   3.691   4.677   2.397  1.5534 -2.5097  0.2658
 6697SOL    HW231551   3.692   4.572   2.493 -1.9742 -1.2778 -1.4957
 6698SOL     OW31552   3.972   3.861   6.942  0.4804  0.0082  0.6333
 6698SOL    HW131553   3.966   3.795   6.874  1.2882 -0.7129  1.2614
 6698SOL    HW231554   3.899   3.830   6.997  0.8700 -2.5945 -0.3338
 6699SOL     OW31555   0.002   1.524   1.552  0.0042 -0.0104 -0.5061
 6699SOL    HW131556   0.080   1.532   1.608  0.3503 -1.9385 -0.7180
 6699SOL    HW231557   4.716   1.613   1.518  0.0210 -0.4676 -1.6866
 6700SOL     OW31558   2.916   1.083   1.893 -0.1895 -1.0243  0.4002
 6700SOL    HW131559   2.942   1.163   1.847 -1.6018 -1.7112 -1.6006
 6700SOL    HW231560   2.823   1.102   1.901 -0.5463 -3.1278  1.3545
 6701SOL     OW31561   3.810   1.098   9.906 -0.1262 -0.2610 -0.4139
 6701SOL    HW131562   3.874   1.114   9.976 -0.9314  0.4409  0.1550
 6701SOL    HW231563   3.859   1.110   9.825 -0.8862  2.4079 -0.4789
 6702SOL     OW31564   1.659   3.981   0.038 -0.4772  0.7335  0.1537
 6702SOL    HW131565   1.684   4.033   0.114  1.7948 -1.5861  0.9813
 6702SOL    HW231566   1.606   4.048  17.679 -3.0247 -1.7056 -0.4362
 6703SOL     OW31567   2.792   2.461  14.789  0.6101  0.4872  0.1045
 6703SOL    HW131568   2.812   2.368  14.793  1.6644  0.6521 -1.1038
 6703SOL    HW231569   2.738   2.474  14.867  1.5021  1.8996  0.4897
 6704SOL     OW31570   1.300   4.205   3.140 -0.7074  0.4086  0.7041
 6704SOL    HW131571   1.340   4.285   3.174 -2.6940  1.2841  0.9593
 6704SOL    HW231572   1.303   4.141   3.212  0.9227 -0.3065  0.0075
 6705SOL     OW31573   3.518   2.086   4.736  0.1998  0.4362  0.2466
 6705SOL    HW131574   3.525   2.084   4.640  1.0765 -2.0693  0.3505
 6705SOL    HW231575   3.546   1.999   4.764 -1.5550 -0.1702  0.1010
 6706SOL     OW31576   3.159   0.684  14.803  0.3201 -0.2134 -0.4041
 6706SOL    HW131577   3.224   0.728  14.748  0.3961  1.2733  0.8618
 6706SOL    HW231578   3.207   0.607  14.834 -1.0729 -0.6898  0.5622
 6707SOL     OW31579   3.715   1.685   7.694  0.3675  0.1177 -0.7329
 6707SOL    HW131580   3.773   1.662   7.767 -0.7663  1.0528  0.4577
 6707SOL    HW231581   3.743   1.775   7.675 -0.2058  0.5502  0.5097
 6708SOL     OW31582   0.340   0.554  17.231 -0.3600 -0.9413  0.0114
 6708SOL    HW131583   0.366   0.511  17.313  2.3652  0.4729 -0.1170
 6708SOL    HW231584   0.289   0.632  17.255 -0.9786 -0.9459 -1.3147
 6709SOL     OW31585   2.147   2.647   3.213 -0.3032 -0.0176  0.0711
 6709SOL    HW131586   2.096   2.721   3.180 -1.7234 -1.0626 -0.0987
 6709SOL    HW231587   2.090   2.573   3.193 -0.2796 -0.2103  0.7197
 6710SOL     OW31588   2.393   0.182   9.097 -0.2256 -0.3644  0.0324
 6710SOL    HW131589   2.322   0.221   9.148  1.3016  0.3089  1.6517
 6710SOL    HW231590   2.453   0.256   9.088 -1.5262  0.6277 -0.3888
 6711SOL     OW31591   2.395   4.105   5.557 -0.0493 -0.1201  0.4081
 6711SOL    HW131592   2.357   4.139   5.475 -1.1829 -0.1869  0.9078
 6711SOL    HW231593   2.421   4.186   5.602  0.1310  0.2153 -0.2884
 6712SOL     OW31594   0.154   2.589  13.537 -0.2108 -0.1189  0.7092
 6712SOL    HW131595   0.246   2.565  13.526 -0.2550  0.4702 -0.9488
 6712SOL    HW231596   0.162   2.684  13.535 -1.4276 -0.0828 -2.4996
 6713SOL     OW31597   4.704   0.106   4.524 -0.1243 -0.3777 -0.1212
 6713SOL    HW131598   4.702   0.036   4.589  0.2771 -1.9137 -1.7424
 6713SOL    HW231599   4.690   0.047   4.449  1.6108 -0.7676 -0.1470
 6714SOL     OW31600   2.281   3.155   4.848  0.3461 -0.4289 -0.0751
 6714SOL    HW131601   2.253   3.240   4.815 -0.9402 -0.4183  1.0499
 6714SOL    HW231602   2.282   3.099   4.771  0.6119 -0.4258 -0.0769
 6715SOL     OW31603   3.309   0.459   8.036  0.1158  0.0422 -0.3326
 6715SOL    HW131604   3.348   0.542   8.010 -0.5163  0.4096 -0.1147
 6715SOL    HW231605   3.277   0.437   7.948 -0.1657 -0.7125 -0.0389
 6716SOL     OW31606   1.522   0.124   8.936  0.1236 -0.0746 -0.1931
 6716SOL    HW131607   1.500   0.180   9.011 -0.5439 -1.4573  0.6503
 6716SOL    HW231608   1.572   0.062   8.989 -2.3532 -1.3810  0.6146
 6717SOL     OW31609   2.898   2.980   2.125  0.2827  0.3028 -0.8823
 6717SOL    HW131610   2.964   2.925   2.167 -1.8824  0.4797  2.7608
 6717SOL    HW231611   2.828   2.971   2.189  1.1569  0.6689  0.1292
 6718SOL     OW31612   2.167   4.700   4.413 -0.2050 -0.3537  0.4514
 6718SOL    HW131613   2.151   4.621   4.361  0.1166 -1.6555  2.3282
 6718SOL    HW231614   2.092   0.031   4.385  0.6691  0.1396 -0.9903
 6719SOL     OW31615   0.103   4.696   5.677  0.2264 -0.5335 -0.6804
 6719SOL    HW131616   0.095   0.042   5.745  0.5061 -0.5066 -0.6776
 6719SOL    HW231617   0.010   4.673   5.680  0.2003 -0.1321  1.4558
 6720SOL     OW31618   1.150   2.271  10.749  0.1388 -0.0718  0.1522
 6720SOL    HW131619   1.072   2.219  10.765  0.5974 -0.5145  0.9461
 6720SOL    HW231620   1.163   2.263  10.654 -1.2570 -2.1233  0.1323
 6721SOL     OW31621   0.491   1.544   4.423  0.0114 -0.3766 -0.3093
 6721SOL    HW131622   0.528   1.632   4.413 -0.3965 -0.0640  0.9679
 6721SOL    HW231623   0.510   1.505   4.338 -1.9874  0.0909 -0.9652
 6722SOL     OW31624   2.870   1.529  16.446 -0.8853 -0.0082  0.0351
 6722SOL    HW131625   2.834   1.487  16.525  1.9871 -2.4059  0.1260
 6722SOL    HW231626   2.798   1.546  16.386 -0.3342 -0.4063 -0.7352
 6723SOL     OW31627   2.310   0.636   2.439 -0.4493  0.1432 -0.2855
 6723SOL    HW131628   2.350   0.685   2.367 -0.4543  0.8064  0.1619
 6723SOL    HW231629   2.263   0.572   2.386 -1.9855 -0.0308  1.2661
 6724SOL     OW31630   3.663   4.253  15.651  0.3780  0.8869 -0.1608
 6724SOL    HW131631   3.600   4.202  15.600  3.9149 -2.1254 -1.4577
 6724SOL    HW231632   3.687   4.319  15.587  1.4977  0.4739 -0.1640
 6725SOL     OW31633   1.105   3.109  12.889 -0.2325 -0.0266  0.5722
 6725SOL    HW131634   1.083   3.191  12.935  0.0988  0.8090 -0.7697
 6725SOL    HW231635   1.032   3.057  12.922 -1.1431  0.1623 -1.1482
 6726SOL     OW31636   1.267   3.676   6.849  0.4313 -0.2659  0.0630
 6726SOL    HW131637   1.309   3.655   6.766 -2.6884 -0.2600 -1.5414
 6726SOL    HW231638   1.299   3.766   6.861  0.6316 -0.1253 -1.5544
 6727SOL     OW31639   1.141   0.295   9.250 -0.1341  0.3756  0.2560
 6727SOL    HW131640   1.144   0.313   9.156 -0.9685 -0.2653  0.1076
 6727SOL    HW231641   1.193   0.215   9.250  1.1565  1.2160  0.1027
 6728SOL     OW31642   2.244   3.664  15.252  0.2040  0.0101 -0.1509
 6728SOL    HW131643   2.296   3.711  15.317  0.0454  0.3986 -0.3099
 6728SOL    HW231644   2.229   3.735  15.190  0.5193  0.1671 -0.0472
 6729SOL     OW31645   1.470   2.189   6.586 -0.8935 -0.1060  0.0265
 6729SOL    HW131646   1.504   2.214   6.672 -1.6189  0.6646  0.0920
 6729SOL    HW231647   1.382   2.156   6.603 -0.5840 -1.4733 -1.0494
 6730SOL     OW31648   0.794   1.082   8.713  0.2809  0.0128 -0.2740
 6730SOL    HW131649   0.810   1.123   8.799  1.8645 -2.5466  0.6408
 6730SOL    HW231650   0.860   1.013   8.714 -1.4580 -1.6286  1.4486
 6731SOL     OW31651   2.754   1.879   8.093 -0.1161  0.1398  0.6520
 6731SOL    HW131652   2.848   1.883   8.077 -0.0253 -2.8266  0.4120
 6731SOL    HW231653   2.747   1.904   8.185  2.2807  3.7505 -0.1915
 6732SOL     OW31654   2.357   1.992   8.634 -0.2882  0.4456  0.2332
 6732SOL    HW131655   2.341   2.009   8.726 -2.9373  0.0828 -0.1759
 6732SOL    HW231656   2.332   1.900   8.621  1.2012  0.0843 -0.1937
 6733SOL     OW31657   2.869   1.186   6.633  0.2540  1.0921 -0.1499
 6733SOL    HW131658   2.913   1.140   6.562  2.0977  2.1583  0.3086
 6733SOL    HW231659   2.842   1.272   6.599 -2.6686 -0.2744 -1.3291
 6734SOL     OW31660   4.022   3.096   8.035 -0.1421 -0.3946 -0.7378
 6734SOL    HW131661   3.976   3.164   7.986  2.4796  1.5494 -0.5217
 6734SOL    HW231662   4.086   3.148   8.085 -1.3681  0.3930  0.0068
 6735SOL     OW31663   3.920   1.790   2.726 -0.3378 -0.7377 -0.2912
 6735SOL    HW131664   3.971   1.872   2.722 -1.9712  0.3658  1.6978
 6735SOL    HW231665   3.836   1.827   2.752 -0.9277 -0.1404 -3.0671
 6736SOL     OW31666   4.037   4.493   4.240  0.0617  0.3829 -0.1126
 6736SOL    HW131667   3.971   4.563   4.248 -1.6717 -1.1612 -0.9657
 6736SOL    HW231668   4.003   4.447   4.163 -1.1643 -0.4095  0.9157
 6737SOL     OW31669   3.048   1.871   3.053  0.7632  0.2807 -0.6218
 6737SOL    HW131670   2.953   1.875   3.050  0.6232 -2.4409  0.4348
 6737SOL    HW231671   3.067   1.964   3.070 -2.1805  0.9779 -1.1149
 6738SOL     OW31672   3.122   0.917  14.977 -0.2449  0.1987  0.0729
 6738SOL    HW131673   3.118   0.840  14.921 -1.4715 -0.9030  1.6553
 6738SOL    HW231674   3.092   0.979  14.911 -0.5257 -1.0286 -0.9381
 6739SOL     OW31675   4.020   3.588   5.625  0.6422 -0.1823  0.2180
 6739SOL    HW131676   4.115   3.597   5.617  0.4809 -0.6249 -2.1981
 6739SOL    HW231677   3.983   3.674   5.646  0.1849 -0.5087  0.7636
 6740SOL     OW31678   3.361   0.098   0.028 -0.6377  0.3167 -0.0366
 6740SOL    HW131679   3.456   0.091   0.036 -0.6699 -0.3305 -0.1924
 6740SOL    HW231680   3.338   0.014  17.673  0.7495 -0.1975  0.2339
 6741SOL     OW31681   0.223   1.355  15.869  0.4567  0.4510 -0.2433
 6741SOL    HW131682   0.141   1.351  15.821  0.4525  2.1448 -0.3741
 6741SOL    HW231683   0.237   1.266  15.900 -0.5276  0.5747  0.5742
 6742SOL     OW31684   4.343   2.430   3.950 -0.7328  0.1926  0.2882
 6742SOL    HW131685   4.427   2.413   3.908 -0.4129  1.4866  0.4224
 6742SOL    HW231686   4.280   2.370   3.909 -0.5528  0.2881 -0.1285
 6743SOL     OW31687   0.001   2.943   3.604 -0.1006 -0.5882  0.1487
 6743SOL    HW131688   0.040   2.985   3.681  1.1233 -0.5962 -0.4649
 6743SOL    HW231689   0.034   2.853   3.601  0.3820 -0.4566  1.2068
 6744SOL     OW31690   0.093   1.425   7.653  0.2026 -0.3359  0.6063
 6744SOL    HW131691   0.011   1.475   7.649  0.4115  0.0440  1.0998
 6744SOL    HW231692   0.052   1.344   7.685  0.6269 -1.3867 -1.5224
 6745SOL     OW31693   1.221   3.786   5.004  0.2681  0.0117  0.0724
 6745SOL    HW131694   1.150   3.847   5.024 -0.1168 -0.9263  1.6190
 6745SOL    HW231695   1.223   3.735   5.086  0.8339  0.2358  0.1963
 6746SOL     OW31696   2.997   1.225   9.698 -0.9246  0.2905 -0.3788
 6746SOL    HW131697   3.075   1.220   9.753 -1.3005 -1.7286 -0.0401
 6746SOL    HW231698   3.025   1.297   9.641  1.4508 -0.1557  0.2332
 6747SOL     OW31699   0.887   0.762   5.069  0.4033 -0.1097 -0.6228
 6747SOL    HW131700   0.906   0.668   5.060  0.1275 -0.3267  1.0427
 6747SOL    HW231701   0.808   0.752   5.017 -1.7108 -1.6820  2.8970
 6748SOL     OW31702   3.291   4.134   8.383 -0.0632 -0.0020 -0.0692
 6748SOL    HW131703   3.199   4.123   8.406 -0.0005 -0.6103 -0.1014
 6748SOL    HW231704   3.324   4.045   8.397 -0.1631  0.1277  0.9232
 6749SOL     OW31705   4.325   1.593  16.663 -0.0930 -0.2894  0.0720
 6749SOL    HW131706   4.280   1.560  16.586  0.6543 -1.5598  0.1813
 6749SOL    HW231707   4.369   1.518  16.703  0.6864 -0.7159 -1.5856
 6750SOL     OW31708   0.495   2.568  14.044 -0.1102  0.3198  0.0750
 6750SOL    HW131709   0.457   2.586  14.130 -1.1693  0.6971 -0.4731
 6750SOL    HW231710   0.587   2.588  14.060 -0.1770 -0.9780  2.1751
 6751SOL     OW31711   0.624   3.005   4.840 -0.1897 -0.0537 -0.5408
 6751SOL    HW131712   0.711   2.996   4.880 -0.1958  1.8174 -0.1112
 6751SOL    HW231713   0.627   2.958   4.757  0.3254  0.0667 -0.5920
 6752SOL     OW31714   4.369   1.904   8.219  0.5049  0.3275 -0.3125
 6752SOL    HW131715   4.441   1.948   8.173  0.9588  0.4339  0.5183
 6752SOL    HW231716   4.418   1.857   8.286 -0.3859  0.5414  0.4779
 6753SOL     OW31717   0.119   2.158   3.969  0.4616 -0.0968 -0.1090
 6753SOL    HW131718   0.131   2.068   3.939  1.8040 -0.0914  0.4178
 6753SOL    HW231719   0.209   2.179   3.994 -0.3649  1.2528  1.7907
 6754SOL     OW31720   2.358   3.235   8.451 -0.1216 -0.3906  0.1743
 6754SOL    HW131721   2.308   3.204   8.376  1.0228  1.0126 -1.1717
 6754SOL    HW231722   2.349   3.158   8.508  1.0150 -0.2066  0.6037
 6755SOL     OW31723   4.196   3.517   6.954 -0.0553  0.2135 -0.4156
 6755SOL    HW131724   4.129   3.565   7.003  0.1463 -0.0426  0.1138
 6755SOL    HW231725   4.250   3.485   7.027 -1.9378 -0.6548  0.5787
 6756SOL     OW31726   1.833   4.025   5.030  0.4937  0.8381  0.1987
 6756SOL    HW131727   1.902   4.084   4.999 -0.0761  0.5188 -1.6372
 6756SOL    HW231728   1.868   3.943   4.994  0.6897  0.7377  0.6069
 6757SOL     OW31729   3.089   3.579   9.467 -0.4522 -0.4992  0.1648
 6757SOL    HW131730   3.076   3.674   9.462  1.0583 -0.2842  0.2110
 6757SOL    HW231731   3.170   3.581   9.519  0.3262  0.8906 -1.0952
 6758SOL     OW31732   1.467   3.379   9.850  0.0742  0.7400  0.3219
 6758SOL    HW131733   1.439   3.298   9.806  1.4840  0.6455 -0.4082
 6758SOL    HW231734   1.553   3.395   9.812 -0.1503  1.7374  0.2438
 6759SOL     OW31735   0.693   3.860   6.410  0.2112 -0.0910  0.2461
 6759SOL    HW131736   0.773   3.874   6.360 -0.1380  1.7827  0.1976
 6759SOL    HW231737   0.722   3.894   6.495  2.6534 -2.8272  0.4764
 6760SOL     OW31738   4.526   2.831   6.138 -0.1785  0.6304 -0.5923
 6760SOL    HW131739   4.540   2.897   6.070  0.0981  0.0145 -1.1354
 6760SOL    HW231740   4.431   2.817   6.137 -0.1912  0.8117 -2.4824
 6761SOL     OW31741   0.891   1.401   2.423 -0.0017  0.5284  0.1472
 6761SOL    HW131742   0.916   1.355   2.503 -3.4480 -1.6885 -0.0282
 6761SOL    HW231743   0.978   1.393   2.383  1.1074  2.0741  2.2684
 6762SOL     OW31744   1.059   1.564   7.357 -0.0478  0.3977  0.1336
 6762SOL    HW131745   1.010   1.484   7.376 -2.1351  1.6653  0.0348
 6762SOL    HW231746   1.038   1.613   7.437 -1.1378  1.2285 -0.6644
 6763SOL     OW31747   1.249   2.437   6.186 -0.8655  0.5323 -0.2303
 6763SOL    HW131748   1.331   2.426   6.235 -0.0792  2.9465 -1.0162
 6763SOL    HW231749   1.188   2.455   6.257  0.8435 -0.4479  1.4629
 6764SOL     OW31750   2.375   3.669  10.206  0.0996  0.2594 -0.0737
 6764SOL    HW131751   2.451   3.722  10.180 -0.4108  0.7990 -0.4607
 6764SOL    HW231752   2.334   3.731  10.266  0.6444  0.5716 -0.0207
 6765SOL     OW31753   0.514   0.823   3.848 -0.4988 -0.4372  0.2507
 6765SOL    HW131754   0.458   0.900   3.849  0.5556  0.3156  0.4782
 6765SOL    HW231755   0.484   0.785   3.931  1.2286 -1.0527  0.5841
 6766SOL     OW31756   0.717   0.047   5.292 -0.4258  0.0121 -0.2248
 6766SOL    HW131757   0.743   0.097   5.215 -2.4710  1.2302 -0.1388
 6766SOL    HW231758   0.774   4.691   5.298 -1.3320 -0.7332 -1.1092
 6767SOL     OW31759   4.314   0.858  14.542 -0.7054  0.4869  0.3464
 6767SOL    HW131760   4.258   0.927  14.577 -0.9521  0.8458 -0.7382
 6767SOL    HW231761   4.252   0.809  14.488  0.1397 -1.6485  1.3423
 6768SOL     OW31762   0.600   0.221   3.868  0.3139  0.0727 -0.1976
 6768SOL    HW131763   0.506   0.210   3.849  0.7027 -1.9651 -1.0241
 6768SOL    HW231764   0.629   0.130   3.875  0.2030  0.2310  2.5061
 6769SOL     OW31765   3.810   4.370   3.484  0.0463 -0.0720 -0.1147
 6769SOL    HW131766   3.720   4.337   3.482  0.3605 -0.9016 -0.7962
 6769SOL    HW231767   3.805   4.433   3.556 -3.3998  1.8420 -2.0180
 6770SOL     OW31768   3.687   1.532   7.118 -0.7135  0.3579  0.1003
 6770SOL    HW131769   3.668   1.478   7.042  0.6542 -0.5312  0.3683
 6770SOL    HW231770   3.604   1.531   7.166 -1.6736  0.5749 -1.5653
 6771SOL     OW31771   3.661   3.466   7.771 -0.1464  0.2062 -0.0712
 6771SOL    HW131772   3.658   3.399   7.839 -0.8665  0.5544  0.2353
 6771SOL    HW231773   3.576   3.461   7.727  0.3277  0.6962 -1.0362
 6772SOL     OW31774   1.880   3.624   0.488  0.8885 -0.1484  0.6062
 6772SOL    HW131775   1.879   3.701   0.431 -3.3844 -1.2072 -0.7217
 6772SOL    HW231776   1.817   3.651   0.554  0.8446 -0.0735  0.5338
 6773SOL     OW31777   3.082   0.517   3.635  0.2509 -0.2427  0.5334
 6773SOL    HW131778   3.040   0.563   3.562 -1.5781  0.1726  1.8497
 6773SOL    HW231779   3.174   0.515   3.610  0.1353  0.5161  0.0263
 6774SOL     OW31780   4.032   0.879  13.813  0.3658 -0.4179 -1.0761
 6774SOL    HW131781   4.001   0.858  13.725  1.1680 -1.2932 -1.1612
 6774SOL    HW231782   4.124   0.854  13.800  0.8539  1.1571 -0.5666
 6775SOL     OW31783   2.202   3.817   9.183 -0.1742 -0.0091  0.0810
 6775SOL    HW131784   2.221   3.738   9.132 -1.5990  1.4995 -2.7758
 6775SOL    HW231785   2.211   3.776   9.269  0.2758  0.1621  0.1170
 6776SOL     OW31786   1.672   4.381   3.067  0.6547  0.3729  0.1225
 6776SOL    HW131787   1.758   4.422   3.074  0.2344  1.4683 -1.2851
 6776SOL    HW231788   1.693   4.300   3.115  2.1430  0.5868 -0.1670
 6777SOL     OW31789   0.910   0.033   6.278 -0.0765  0.1820  0.5895
 6777SOL    HW131790   0.849   4.717   6.342  0.8078  1.5351  2.2078
 6777SOL    HW231791   0.990   4.705   6.298 -1.4527 -1.8112  1.2654
 6778SOL     OW31792   3.121   1.647  10.880  0.3004  0.9376 -0.3030
 6778SOL    HW131793   3.119   1.641  10.975 -0.5915  0.8638 -0.3281
 6778SOL    HW231794   3.041   1.697  10.862 -0.2515  0.3870  0.6519
 6779SOL     OW31795   3.101   0.680  10.470  0.2417 -0.0779  0.6987
 6779SOL    HW131796   3.145   0.739  10.409 -0.4196 -0.4215 -0.1137
 6779SOL    HW231797   3.022   0.654  10.423  0.8401  1.5351 -1.2267
 6780SOL     OW31798   0.212   2.691   6.918 -0.4520 -0.1193 -0.2401
 6780SOL    HW131799   0.193   2.755   6.986  0.9110 -1.9711  1.8719
 6780SOL    HW231800   0.240   2.749   6.847 -1.3541  0.7552  0.1098
 6781SOL     OW31801   3.767   1.974   8.715  0.4292 -0.2134 -0.1063
 6781SOL    HW131802   3.811   1.931   8.788 -1.7569  0.8032  1.7968
 6781SOL    HW231803   3.706   1.911   8.677  0.5319  0.3525 -1.2055
 6782SOL     OW31804   3.761   3.060   7.021  0.2552 -0.0734 -0.4938
 6782SOL    HW131805   3.778   3.047   6.927 -0.3003 -1.9228 -0.3362
 6782SOL    HW231806   3.839   3.108   7.048 -0.6745  0.1456  1.7750
 6783SOL     OW31807   1.786   1.331   5.647  0.3130  0.1625 -0.0051
 6783SOL    HW131808   1.782   1.425   5.666 -0.9816 -0.0026  0.5805
 6783SOL    HW231809   1.819   1.292   5.728  1.1140 -1.8518 -1.3253
 6784SOL     OW31810   0.315   0.128   3.124 -0.2359 -0.1733  0.3369
 6784SOL    HW131811   0.235   0.088   3.090  0.1016 -1.6131  1.2032
 6784SOL    HW231812   0.376   0.087   3.064 -1.1841 -1.9044  0.5317
 6785SOL     OW31813   1.443   4.105   3.515  0.4654  0.8042  0.4870
 6785SOL    HW131814   1.431   4.153   3.596  1.1945  1.6388  0.0992
 6785SOL    HW231815   1.358   4.105   3.472 -0.7989 -1.6885  3.0344
 6786SOL     OW31816   1.324   4.561   8.638 -0.2413  0.2314 -0.4886
 6786SOL    HW131817   1.304   4.617   8.712 -2.4658  0.1643 -1.0457
 6786SOL    HW231818   1.324   4.480   8.689 -0.5861 -0.2580 -1.2675
 6787SOL     OW31819   2.931   0.317   3.755  0.4486  0.0641 -0.0579
 6787SOL    HW131820   2.957   0.402   3.720  0.8943  0.6641  1.7114
 6787SOL    HW231821   2.973   0.314   3.841  0.7112  0.3895 -0.1750
 6788SOL     OW31822   3.605   3.048   7.580 -0.2444  0.6092  0.7256
 6788SOL    HW131823   3.567   2.999   7.653  1.1196  1.0469  1.7446
 6788SOL    HW231824   3.582   2.997   7.502  0.2747  0.6284  0.5604
 6789SOL     OW31825   1.670   4.284  14.464 -0.6581  0.2761 -0.3229
 6789SOL    HW131826   1.658   4.289  14.559 -0.7115 -2.5031 -0.1756
 6789SOL    HW231827   1.744   4.223  14.461 -1.3485 -0.7222  2.7588
 6790SOL     OW31828   2.921   1.470   4.160 -0.3888  0.2997  0.4126
 6790SOL    HW131829   2.831   1.439   4.157  0.1454 -1.0967 -2.1065
 6790SOL    HW231830   2.943   1.450   4.069  0.3511  2.5346  0.1034
 6791SOL     OW31831   0.964   0.702   9.146 -0.5207 -0.1099  0.2393
 6791SOL    HW131832   1.048   0.673   9.111 -1.3619 -0.1730 -1.7383
 6791SOL    HW231833   0.912   0.659   9.078 -2.3541  0.1894  1.4203
 6792SOL     OW31834   3.321   0.632   0.878  0.2588 -0.1382 -0.1841
 6792SOL    HW131835   3.311   0.545   0.839  0.7115  0.4279 -1.5641
 6792SOL    HW231836   3.236   0.650   0.919  0.4728 -1.0706  0.6690
 6793SOL     OW31837   1.178   0.049   8.478 -0.0100  0.4510 -0.2426
 6793SOL    HW131838   1.174   0.010   8.565 -1.4478  2.8068  0.7260
 6793SOL    HW231839   1.253   0.107   8.489 -0.3417  0.9477 -0.5531
 6794SOL     OW31840   3.573   2.192  12.624  0.1042  0.1237  0.0715
 6794SOL    HW131841   3.563   2.235  12.708  1.2573 -0.3513  0.4561
 6794SOL    HW231842   3.487   2.166  12.592 -0.4890  0.9758  1.0037
 6795SOL     OW31843   4.077   4.127   8.133 -0.2769  0.4965  0.1793
 6795SOL    HW131844   4.090   4.037   8.103 -1.8455  0.6655 -1.0020
 6795SOL    HW231845   4.106   4.123   8.224  0.1397 -0.3039  0.0101
 6796SOL     OW31846   3.926   1.121  13.895  0.0183 -0.2253  0.1028
 6796SOL    HW131847   3.856   1.127  13.829  1.2522 -2.1768 -1.3749
 6796SOL    HW231848   3.956   1.032  13.877 -4.9985 -2.1114  1.1137
 6797SOL     OW31849   1.200   0.288   7.254  0.1137  0.1910  0.0797
 6797SOL    HW131850   1.106   0.287   7.270  0.6695  0.7265  3.4655
 6797SOL    HW231851   1.209   0.379   7.227  1.4069 -0.3455 -1.2982
 6798SOL     OW31852   2.170   4.662   0.550 -0.1350 -0.6322 -0.5255
 6798SOL    HW131853   2.257   4.622   0.557  0.8324  1.4294 -0.7763
 6798SOL    HW231854   2.189   0.034   0.535 -0.1464 -0.6901 -0.8969
 6799SOL     OW31855   2.091   4.121  14.867  0.3010 -0.1178 -1.1489
 6799SOL    HW131856   2.075   4.210  14.835  0.8425 -0.0647 -1.2842
 6799SOL    HW231857   2.186   4.126  14.853  0.9047 -0.9228  2.5716
 6800SOL     OW31858   3.054   1.506   1.890 -0.5413  0.1622  0.0719
 6800SOL    HW131859   3.138   1.539   1.923  1.4474 -2.7282 -2.1815
 6800SOL    HW231860   3.005   1.588   1.889  0.5489  0.8112 -0.3594
 6801SOL     OW31861   2.793   1.123   9.245  0.0641  0.1269 -0.1155
 6801SOL    HW131862   2.712   1.087   9.209  0.6316 -1.4762  0.2113
 6801SOL    HW231863   2.840   1.040   9.250 -1.0696 -0.5420 -0.5193
 6802SOL     OW31864   4.574   3.671   7.012 -0.6053 -0.0776  0.1829
 6802SOL    HW131865   4.512   3.614   7.059 -0.7894 -0.0696 -0.0545
 6802SOL    HW231866   4.567   3.751   7.064  0.7759  0.7199 -0.8778
 6803SOL     OW31867   4.373   0.556   1.511 -0.1803  0.3923 -0.5579
 6803SOL    HW131868   4.286   0.593   1.499 -0.9648 -1.4959 -0.7100
 6803SOL    HW231869   4.415   0.560   1.425  1.8872  2.0109  0.5524
 6804SOL     OW31870   1.150   3.604   3.781 -0.0138  0.2820 -0.1843
 6804SOL    HW131871   1.189   3.638   3.862 -0.0047 -1.5936  0.6080
 6804SOL    HW231872   1.071   3.656   3.772 -0.2068  0.1936  1.0275
 6805SOL     OW31873   0.941   0.943   6.074  0.1346  0.4548  0.1864
 6805SOL    HW131874   1.026   0.939   6.118  0.5483 -0.9996 -0.7517
 6805SOL    HW231875   0.966   0.942   5.982 -0.4610 -2.4828  0.0356
 6806SOL     OW31876   3.891   4.214   5.957 -0.1790 -0.3469  0.1605
 6806SOL    HW131877   3.849   4.296   5.931 -1.4047 -0.9202  0.3215
 6806SOL    HW231878   3.819   4.151   5.956  0.6021 -1.2326 -0.5903
 6807SOL     OW31879   3.714   4.680   8.142 -0.0491  0.5012  0.3711
 6807SOL    HW131880   3.738   4.712   8.055 -0.5729  2.7308  1.0362
 6807SOL    HW231881   3.619   4.696   8.140  0.0236  0.7870 -0.8728
 6808SOL     OW31882   3.206   2.532  10.398 -0.5033 -0.3139 -0.4501
 6808SOL    HW131883   3.297   2.539  10.368 -0.8860  1.1197 -1.2790
 6808SOL    HW231884   3.207   2.450  10.447  0.2492  0.3000  0.5736
 6809SOL     OW31885   1.825   0.062   9.979  0.2351  0.3006 -0.1435
 6809SOL    HW131886   1.797   4.699   9.940 -0.5350 -0.3937  1.8747
 6809SOL    HW231887   1.789   0.127   9.920 -1.5645 -1.8843 -1.4528
 6810SOL     OW31888   4.104   2.783  12.830 -0.0257  0.0071  0.1280
 6810SOL    HW131889   4.146   2.741  12.906 -0.2438  0.5129  0.5289
 6810SOL    HW231890   4.044   2.715  12.801 -0.9404 -0.5429  3.2706
 6811SOL     OW31891   0.589   2.766   6.912 -0.4604 -0.3315  0.4149
 6811SOL    HW131892   0.600   2.802   7.000  0.1327  0.6640 -0.0658
 6811SOL    HW231893   0.563   2.848   6.870 -1.2796 -0.3848  0.8233
 6812SOL     OW31894   0.300   3.772   9.043  0.2455 -0.0262  0.2319
 6812SOL    HW131895   0.269   3.794   9.131  1.7777 -1.6338  1.1851
 6812SOL    HW231896   0.322   3.860   9.012  1.7296 -0.7265 -0.7298
 6813SOL     OW31897   2.698   2.081  11.574  0.0231 -0.3539  0.6344
 6813SOL    HW131898   2.742   2.052  11.654  0.2359 -1.7512  0.0086
 6813SOL    HW231899   2.662   2.006  11.529  0.0217  0.4020 -0.6183
 6814SOL     OW31900   1.034   4.466   7.874 -0.6793  0.1649 -0.2148
 6814SOL    HW131901   1.068   4.554   7.891 -1.7322  0.5594 -0.1447
 6814SOL    HW231902   1.068   4.454   7.785  2.1707  1.1492  0.7360
 6815SOL     OW31903   2.370   3.179  11.229  0.0298  0.2450  0.2694
 6815SOL    HW131904   2.334   3.234  11.160 -0.3366  0.8821  0.9743
 6815SOL    HW231905   2.447   3.230  11.256  0.0739  1.0522 -1.4071
 6816SOL     OW31906   4.132   2.699   3.846 -0.2613 -0.3133  0.4485
 6816SOL    HW131907   4.045   2.700   3.807  0.2150 -0.0247 -0.6129
 6816SOL    HW231908   4.123   2.639   3.920 -1.6366 -0.9841 -0.2609
 6817SOL     OW31909   3.865   3.282  15.679 -0.3334  0.1678 -0.3631
 6817SOL    HW131910   3.839   3.263  15.589 -3.0000 -0.9944  0.6454
 6817SOL    HW231911   3.920   3.204  15.677 -0.7973 -0.2423  2.6485
 6818SOL     OW31912   2.481   3.074   4.610  0.4757 -0.1629  0.1079
 6818SOL    HW131913   2.492   3.083   4.516 -0.7453  1.1515  0.0720
 6818SOL    HW231914   2.400   3.025   4.625  0.1359  1.1709  2.7022
 6819SOL     OW31915   1.699   3.178  10.924 -0.3408  0.6590 -0.0872
 6819SOL    HW131916   1.703   3.083  10.924  3.5077  0.8362 -3.0300
 6819SOL    HW231917   1.793   3.197  10.921 -0.4871  1.7132  1.6105
 6820SOL     OW31918   3.743   3.079   0.760  0.4490  0.2836 -0.1413
 6820SOL    HW131919   3.691   3.042   0.832  2.2159  0.4293  1.2025
 6820SOL    HW231920   3.825   3.030   0.761  1.5552  2.1246  0.5044
 6821SOL     OW31921   2.860   4.282   0.701  0.1483  0.0194  0.2314
 6821SOL    HW131922   2.771   4.297   0.668  0.6076  0.8068 -0.6635
 6821SOL    HW231923   2.854   4.334   0.781  0.2506 -1.2718  1.0834
 6822SOL     OW31924   2.520   3.776   5.217  0.3240 -0.0041  0.0021
 6822SOL    HW131925   2.611   3.746   5.216 -0.4610 -2.4398  1.5123
 6822SOL    HW231926   2.519   3.820   5.303  3.1228  0.4430 -0.1803
 6823SOL     OW31927   0.736   1.899   4.751 -0.0610  0.3124  0.2510
 6823SOL    HW131928   0.776   1.973   4.705  1.2472 -0.5449  0.0057
 6823SOL    HW231929   0.690   1.846   4.685 -0.0778  0.1670  0.3799
 6824SOL     OW31930   0.831   1.159   4.297 -0.4334 -0.6633 -0.7408
 6824SOL    HW131931   0.744   1.143   4.262 -0.7157 -0.7061 -0.0124
 6824SOL    HW231932   0.843   1.076   4.344  1.4637 -0.1607 -0.3196
 6825SOL     OW31933   2.129   4.130   2.028  0.8505  0.0461 -0.1427
 6825SOL    HW131934   2.182   4.176   1.963  0.1736 -2.2104 -2.3065
 6825SOL    HW231935   2.189   4.152   2.099  0.4154  2.0126 -0.4100
 6826SOL     OW31936   2.170   1.083   1.628 -0.0500 -0.0888 -0.1551
 6826SOL    HW131937   2.223   1.045   1.558  1.3440  0.7941  0.4351
 6826SOL    HW231938   2.220   1.164   1.639 -1.6411  1.0139 -1.1644
 6827SOL     OW31939   4.683   4.615   4.943 -0.3212 -0.3594  0.2262
 6827SOL    HW131940   4.603   4.645   4.900  1.0694  0.6472 -1.6436
 6827SOL    HW231941   4.646   4.563   5.014 -0.4020 -0.6400 -0.0184
 6828SOL     OW31942   3.986   0.253   7.802 -0.0911 -0.4161  0.0409
 6828SOL    HW131943   3.922   0.200   7.849  0.7419 -1.7896 -0.3690
 6828SOL    HW231944   3.962   0.337   7.841  2.5663 -0.5886  2.0611
 6829SOL     OW31945   0.526   3.870   4.981 -0.0753  0.0491 -0.1509
 6829SOL    HW131946   0.538   3.940   4.917 -0.8508 -0.3830 -0.7792
 6829SOL    HW231947   0.598   3.891   5.041 -0.9207  0.8070  0.6032
 6830SOL     OW31948   3.136   1.102   2.453  0.1848  0.0751  0.2525
 6830SOL    HW131949   3.231   1.091   2.452 -0.0681 -2.1213  0.8420
 6830SOL    HW231950   3.113   1.106   2.359 -0.2389 -0.6398  0.3226
 6831SOL     OW31951   3.557   3.180  10.983 -0.1258 -0.1947  0.0965
 6831SOL    HW131952   3.467   3.195  10.954  0.6069  0.0065 -2.0827
 6831SOL    HW231953   3.590   3.114  10.922 -0.7150  0.1452 -0.5796
 6832SOL     OW31954   0.017   0.826   9.279 -0.2753  0.0737  0.3200
 6832SOL    HW131955   0.085   0.760   9.289  0.0137  0.1914 -0.9786
 6832SOL    HW231956   4.663   0.776   9.312 -0.1432 -0.5479 -0.3361
 6833SOL     OW31957   0.002   2.845   7.928 -0.4275 -0.5450 -0.1587
 6833SOL    HW131958   4.687   2.926   7.893  0.9326  0.6107  1.1085
 6833SOL    HW231959   4.652   2.799   7.973  2.1087 -0.8642  3.5583
 6834SOL     OW31960   3.227   1.084   3.603 -0.0395 -0.2388  0.1625
 6834SOL    HW131961   3.249   1.169   3.564 -1.6152 -0.5683 -1.4649
 6834SOL    HW231962   3.270   1.018   3.548 -1.0112 -0.3266 -0.4895
 6835SOL     OW31963   2.765   4.049   8.579  0.1358  0.0936 -0.2084
 6835SOL    HW131964   2.687   4.042   8.634  0.7858 -0.4636  0.6487
 6835SOL    HW231965   2.775   4.141   8.601  0.0565  0.0985 -0.1914
 6836SOL     OW31966   4.698   2.355   0.846  0.2591  0.4372  0.0478
 6836SOL    HW131967   4.638   2.347   0.771 -0.1754 -2.5589  0.7160
 6836SOL    HW231968   4.647   2.384   0.921 -1.0765  0.7760 -0.9936
 6837SOL     OW31969   1.813   1.350   4.383 -0.1026  0.5396  0.4393
 6837SOL    HW131970   1.758   1.428   4.396 -1.7307 -0.3257 -1.2168
 6837SOL    HW231971   1.835   1.347   4.290  1.6706  3.6793  0.7504
 6838SOL     OW31972   2.661   2.351   9.641 -0.5888  0.3854  0.4798
 6838SOL    HW131973   2.718   2.358   9.718 -1.0795  0.6756  0.8146
 6838SOL    HW231974   2.579   2.341   9.690 -1.9498  0.2552 -1.8326
 6839SOL     OW31975   1.080   3.770  17.212  0.1293  0.0001 -0.1155
 6839SOL    HW131976   1.006   3.823  17.182  0.6535  1.5342  1.2540
 6839SOL    HW231977   1.038   3.704  17.266 -3.5248  0.7456 -2.1013
 6840SOL     OW31978   2.610   1.389   8.612  0.2205 -0.1129  0.2882
 6840SOL    HW131979   2.604   1.484   8.602 -0.7579 -0.2734 -0.6757
 6840SOL    HW231980   2.523   1.367   8.646 -0.1889  1.1217  0.0324
 6841SOL     OW31981   0.536   3.636   4.072  0.1334  0.1019 -0.4994
 6841SOL    HW131982   0.555   3.615   3.980 -0.6514 -2.4559 -0.0827
 6841SOL    HW231983   0.537   3.731   4.058 -4.7454  0.0362 -1.3338
 6842SOL     OW31984   4.229   0.456   3.937  0.1426 -0.3377  0.0431
 6842SOL    HW131985   4.287   0.432   3.865 -0.4809  0.0132 -0.5706
 6842SOL    HW231986   4.263   0.406   4.012  0.0197 -0.0952  0.2611
 6843SOL     OW31987   0.451   2.582  17.192 -0.0937  0.7864 -0.3762
 6843SOL    HW131988   0.396   2.542  17.125 -0.4120 -2.7095  1.9904
 6843SOL    HW231989   0.454   2.507  17.252  1.0332  1.2246  0.1149
 6844SOL     OW31990   0.026   1.767   4.453 -0.1550  0.2174  0.5812
 6844SOL    HW131991   0.100   1.734   4.402 -0.8535 -0.7756  0.2147
 6844SOL    HW231992   0.069   1.793   4.535 -0.2112 -1.1530  1.0495
 6845SOL     OW31993   2.806   0.863  15.975 -0.6168  0.1479 -0.1282
 6845SOL    HW131994   2.882   0.821  16.014 -1.6495 -0.9712  0.7003
 6845SOL    HW231995   2.755   0.783  15.964 -0.5033 -0.4226  3.3902
 6846SOL     OW31996   3.200   0.419   7.226 -1.3127  0.0439  1.0690
 6846SOL    HW131997   3.175   0.350   7.165  2.0203 -0.4541  0.2454
 6846SOL    HW231998   3.257   0.464   7.164 -2.2752 -2.1632 -1.4122
 6847SOL     OW31999   0.289   2.836  14.689 -0.4706  0.0261  0.4582
 6847SOL    HW132000   0.328   2.910  14.735 -0.6180 -0.4207  1.3037
 6847SOL    HW232001   0.214   2.878  14.648 -1.1602 -1.0431  0.6252
 6848SOL     OW32002   4.467   4.491  13.269  0.2286  0.4076 -0.3144
 6848SOL    HW132003   4.489   4.398  13.276  0.5271  0.5370  0.5408
 6848SOL    HW232004   4.468   4.514  13.176  3.1024 -0.0619 -0.4133
 6849SOL     OW32005   3.510   1.121   7.049  0.7815 -0.2704 -1.0346
 6849SOL    HW132006   3.577   1.079   7.104  0.6305  2.3642  1.1973
 6849SOL    HW232007   3.441   1.059   7.073 -0.3154  1.9670  1.7066
 6850SOL     OW32008   1.775   2.598   8.818  0.0669  0.1045  0.4617
 6850SOL    HW132009   1.711   2.603   8.889  0.3320 -1.1849  0.7870
 6850SOL    HW232010   1.744   2.527   8.762  0.3674  0.9351 -0.7602
 6851SOL     OW32011   1.615   1.372  14.495 -0.5348  0.5421  0.7235
 6851SOL    HW132012   1.557   1.447  14.506 -0.0968  1.0572 -0.5535
 6851SOL    HW232013   1.696   1.422  14.499  0.8011 -1.5343 -0.1246
 6852SOL     OW32014   1.657   0.090  13.819  0.0215  0.1497 -0.4857
 6852SOL    HW132015   1.595   0.140  13.766 -0.6897  0.5116  0.6836
 6852SOL    HW232016   1.706   0.047  13.749 -0.4416 -2.0861  0.5583
 6853SOL     OW32017   2.254   2.411   6.459 -0.3541  0.0535  0.3487
 6853SOL    HW132018   2.341   2.437   6.429 -1.0040  1.2209 -0.5066
 6853SOL    HW232019   2.216   2.374   6.379  0.9460 -1.5896  0.4700
 6854SOL     OW32020   4.236   3.270  13.054 -0.4612  0.4942  0.3371
 6854SOL    HW132021   4.174   3.288  13.124 -0.5266  2.2703 -0.1840
 6854SOL    HW232022   4.219   3.354  13.011  2.1583  1.6908  1.6583
 6855SOL     OW32023   4.509   0.836  10.172 -0.5611  0.0569  0.1869
 6855SOL    HW132024   4.496   0.849  10.078 -2.3812  1.2062  0.6196
 6855SOL    HW232025   4.450   0.895  10.218  2.0188  2.3999  0.5212
 6856SOL     OW32026   1.216   2.139  10.480 -0.6033  0.0636 -0.1792
 6856SOL    HW132027   1.214   2.077  10.408 -0.3995  1.4239 -1.3623
 6856SOL    HW232028   1.127   2.123  10.512 -1.4237  2.2940 -1.3124
 6857SOL     OW32029   2.459   3.252   8.727  0.2645  0.1307  0.1133
 6857SOL    HW132030   2.392   3.265   8.794  0.6293 -0.2020  0.5442
 6857SOL    HW232031   2.492   3.164   8.745  0.4599 -0.0076 -0.9279
 6858SOL     OW32032   2.724   4.383   1.881 -0.7711 -0.0630  0.3185
 6858SOL    HW132033   2.765   4.387   1.795 -1.2056 -4.3940 -0.1210
 6858SOL    HW232034   2.650   4.322   1.875 -1.4582  0.8651 -0.6919
 6859SOL     OW32035   2.165   4.050   6.769 -0.7637 -0.1389  0.9665
 6859SOL    HW132036   2.175   4.140   6.801 -0.7423  0.4749 -0.7887
 6859SOL    HW232037   2.220   4.004   6.833  0.8053 -0.7887 -0.8339
 6860SOL     OW32038   2.679   0.685   0.526 -0.3789  0.2505 -0.3749
 6860SOL    HW132039   2.748   0.624   0.553 -1.5924 -1.2176 -0.5811
 6860SOL    HW232040   2.625   0.637   0.463  1.0958  0.2224 -1.6291
 6861SOL     OW32041   2.415   3.684  15.996  0.0412 -0.4510  0.6655
 6861SOL    HW132042   2.426   3.771  16.034 -0.8723  0.0434 -0.2204
 6861SOL    HW232043   2.324   3.661  16.015 -0.0271 -1.4059 -0.7771
 6862SOL     OW32044   3.680   3.414  13.463 -0.1881  0.0817  0.4855
 6862SOL    HW132045   3.692   3.455  13.549 -0.9185  0.7611  0.2658
 6862SOL    HW232046   3.757   3.451  13.420 -1.1801  1.3024 -0.2425
 6863SOL     OW32047   3.665   0.866  13.712  0.2112 -0.1838  0.1137
 6863SOL    HW132048   3.608   0.898  13.781  0.3049  0.4065 -0.0771
 6863SOL    HW232049   3.696   0.949  13.675  1.5878 -1.4480 -1.6137
 6864SOL     OW32050   4.299   4.122   6.463  0.4812  0.8195  0.2222
 6864SOL    HW132051   4.374   4.065   6.482  0.2882  0.2487 -0.7555
 6864SOL    HW232052   4.336   4.202   6.502  0.8987  0.9767 -0.4904
 6865SOL     OW32053   1.187   4.444   5.440 -0.5527  0.3303  0.1729
 6865SOL    HW132054   1.271   4.471   5.401 -1.6386  0.8700 -1.7726
 6865SOL    HW232055   1.212   4.359   5.476 -1.3386 -0.7863 -1.9463
 6866SOL     OW32056   2.507   3.555  13.648 -0.1227 -0.3555  0.2587
 6866SOL    HW132057   2.554   3.491  13.700  0.5095  0.2347  0.4131
 6866SOL    HW232058   2.572   3.597  13.592  1.4610 -0.7635  1.7935
 6867SOL     OW32059   0.111   3.745  10.118 -0.0873  0.2528  0.1126
 6867SOL    HW132060   0.078   3.711  10.202 -0.8418  0.2756 -0.1790
 6867SOL    HW232061   0.030   3.769  10.074  0.4133  1.1370 -0.3285
 6868SOL     OW32062   1.535   0.469   0.897 -0.1077 -0.6977 -0.0858
 6868SOL    HW132063   1.493   0.454   0.981  1.7350 -1.5047  0.6826
 6868SOL    HW232064   1.534   0.565   0.899  0.5693 -0.6849 -0.1954
 6869SOL     OW32065   3.507   3.932   0.520 -0.8781 -0.0781  0.2118
 6869SOL    HW132066   3.584   3.985   0.540  0.0750 -0.5282 -2.2564
 6869SOL    HW232067   3.491   3.883   0.600  1.5470  0.7442  1.2129
 6870SOL     OW32068   1.638   2.154  10.424 -0.0614  0.1900 -0.4281
 6870SOL    HW132069   1.544   2.158  10.402  0.3125 -0.6587 -2.2113
 6870SOL    HW232070   1.668   2.162  10.334  0.9346 -1.3668 -0.2214
 6871SOL     OW32071   4.504   3.727   5.271  0.3291  0.3517 -0.3801
 6871SOL    HW132072   4.554   3.731   5.352 -1.0522 -1.7475  0.5766
 6871SOL    HW232073   4.564   3.750   5.200 -0.9605  2.4828 -0.7973
 6872SOL     OW32074   4.437   1.824  16.561  0.2419  0.2075  0.2302
 6872SOL    HW132075   4.515   1.769  16.551  0.7216  1.2586 -1.7395
 6872SOL    HW232076   4.368   1.764  16.591  1.4122 -1.0586  0.3825
 6873SOL     OW32077   0.468   0.597   8.597 -0.0887 -0.0917  0.5971
 6873SOL    HW132078   0.439   0.662   8.533  2.4972 -1.2671 -1.7771
 6873SOL    HW232079   0.413   0.609   8.675 -1.1125 -1.2675  0.0598
 6874SOL     OW32080   1.657   0.561  14.662  0.3180  0.7988 -0.1534
 6874SOL    HW132081   1.709   0.481  14.655 -1.6859 -0.3767 -1.4410
 6874SOL    HW232082   1.713   0.627  14.622  1.7817  1.0632  2.3538
 6875SOL     OW32083   2.271   1.691   2.859 -0.2085 -0.4921 -0.1901
 6875SOL    HW132084   2.300   1.617   2.807  0.7385 -0.4319  0.2381
 6875SOL    HW232085   2.236   1.745   2.789  0.4952  1.2314  0.7742
 6876SOL     OW32086   0.677   2.005   0.130 -0.7431  0.8289 -0.2175
 6876SOL    HW132087   0.727   2.085   0.145  2.1233 -1.4375  2.2155
 6876SOL    HW232088   0.586   2.036   0.124 -0.7432  0.6188 -1.2288
 6877SOL     OW32089   2.339   0.089   5.318  0.1276  0.1220 -0.2628
 6877SOL    HW132090   2.310   0.178   5.337 -1.4624 -0.2460 -0.9816
 6877SOL    HW232091   2.430   0.114   5.302 -0.5759  2.4603 -0.5397
 6878SOL     OW32092   2.266   4.626   3.641 -0.2588 -0.3648 -0.2217
 6878SOL    HW132093   2.352   4.585   3.651  0.0805  0.7734  1.5232
 6878SOL    HW232094   2.280   4.668   3.557 -1.2768 -0.9859 -0.7032
 6879SOL     OW32095   0.116   3.556  12.760 -0.1881 -0.3435 -0.2145
 6879SOL    HW132096   0.113   3.476  12.813  0.2309  1.2718  2.2430
 6879SOL    HW232097   0.044   3.541  12.699 -0.6061 -0.7947  0.3891
 6880SOL     OW32098   0.595   1.987   6.075  0.1744 -0.3339 -0.0245
 6880SOL    HW132099   0.592   2.047   6.000  0.9696  1.6135  1.5106
 6880SOL    HW232100   0.504   1.992   6.105  0.5846  0.7326  1.0640
 6881SOL     OW32101   2.665   3.189  11.982 -0.6151  0.2824 -0.2193
 6881SOL    HW132102   2.625   3.113  12.025 -0.1046 -0.6051 -1.2978
 6881SOL    HW232103   2.662   3.168  11.888  0.7365 -2.9424  0.4556
 6882SOL     OW32104   4.429   2.963   3.671  0.0919  0.1630 -0.5156
 6882SOL    HW132105   4.520   2.936   3.666 -0.2742 -1.4936  1.3599
 6882SOL    HW232106   4.420   2.946   3.765 -3.4166 -1.5157 -1.1490
 6883SOL     OW32107   4.323   0.212   4.684 -0.4641  0.0933  0.0867
 6883SOL    HW132108   4.329   0.270   4.607  0.3083 -0.1781 -0.0607
 6883SOL    HW232109   4.230   0.191   4.679 -0.0930 -1.1958 -1.5928
 6884SOL     OW32110   0.342   4.348   4.750 -0.4477  0.4980  0.3623
 6884SOL    HW132111   0.260   4.384   4.784 -0.8886 -0.0314 -0.1290
 6884SOL    HW232112   0.364   4.286   4.820 -2.5659  1.3204  1.7462
 6885SOL     OW32113   4.338   1.046   9.245  0.2127 -0.1030 -0.1654
 6885SOL    HW132114   4.384   1.104   9.184  1.0590 -1.8233 -1.1650
 6885SOL    HW232115   4.388   1.049   9.326 -2.1254  0.0377  1.2845
 6886SOL     OW32116   3.947   0.402   3.048  0.1273  0.5721 -0.4052
 6886SOL    HW132117   3.871   0.351   3.076 -0.1191  0.7776 -0.6938
 6886SOL    HW232118   4.020   0.347   3.077 -1.1318 -0.7661  0.2303
 6887SOL     OW32119   0.202   0.755   6.706  0.2316 -0.1037 -0.1449
 6887SOL    HW132120   0.183   0.839   6.665 -0.1263  0.0965  0.4487
 6887SOL    HW232121   0.282   0.739   6.655  0.6002  3.2092 -0.5469
 6888SOL     OW32122   2.097   1.996   4.698 -0.2670 -0.3972  0.1022
 6888SOL    HW132123   2.024   2.003   4.637 -1.4302  2.3346  1.8416
 6888SOL    HW232124   2.080   2.066   4.760 -0.8947 -1.8558  1.5503
 6889SOL     OW32125   3.375   1.774  12.612  0.1476  0.6886 -0.7133
 6889SOL    HW132126   3.448   1.771  12.674 -1.1158  1.0780  0.7974
 6889SOL    HW232127   3.309   1.815  12.668 -0.7378  1.3004 -2.1791
 6890SOL     OW32128   2.628   1.054   2.983 -0.2621  0.2742  0.2505
 6890SOL    HW132129   2.676   0.971   2.988 -1.4503 -0.4236  0.1640
 6890SOL    HW232130   2.612   1.061   2.889  1.2646 -1.5643 -0.1567
 6891SOL     OW32131   0.654   1.204   3.934  0.0117 -0.0830  0.3255
 6891SOL    HW132132   0.703   1.206   3.852  1.5830  0.4641  1.2731
 6891SOL    HW232133   0.725   1.162   3.982  2.4772  3.6543  0.0057
 6892SOL     OW32134   3.437   2.755  17.187 -0.7923  0.3355 -0.2732
 6892SOL    HW132135   3.522   2.800  17.192 -0.5861 -0.1853  0.9312
 6892SOL    HW232136   3.441   2.722  17.097  0.8285  1.6810 -0.7164
 6893SOL     OW32137   1.525   3.594   0.480 -0.5672 -0.1989  0.0956
 6893SOL    HW132138   1.578   3.566   0.555 -1.4048 -0.7788  0.4823
 6893SOL    HW232139   1.475   3.512   0.474  0.9153 -1.0691 -0.3235
 6894SOL     OW32140   1.706   0.523   4.441  0.2477  0.3156 -0.0501
 6894SOL    HW132141   1.792   0.508   4.480  0.5165 -1.5530 -1.3690
 6894SOL    HW232142   1.658   0.568   4.511 -0.5946 -1.8658  0.7812
 6895SOL     OW32143   3.404   1.540   1.632 -0.2573 -0.7324  0.2806
 6895SOL    HW132144   3.322   1.514   1.590 -0.5392  0.3110  0.1924
 6895SOL    HW232145   3.428   1.464   1.686 -1.2865  0.1368  1.9845
 6896SOL     OW32146   2.453   2.891   0.933  0.3147 -0.5213 -0.4548
 6896SOL    HW132147   2.415   2.818   0.982 -1.1043  2.5424  2.9646
 6896SOL    HW232148   2.386   2.953   0.961  1.1049  0.0577  0.1370
 6897SOL     OW32149   1.493   4.135   4.689  0.6273 -0.4264  0.2211
 6897SOL    HW132150   1.481   4.041   4.706  1.8971 -0.8542 -1.2528
 6897SOL    HW232151   1.531   4.148   4.776 -0.5838 -2.5667  1.0769
 6898SOL     OW32152   2.204   2.869  10.796  0.0715  0.2672  0.3472
 6898SOL    HW132153   2.234   2.959  10.779  0.5069  0.5602  2.5798
 6898SOL    HW232154   2.138   2.876  10.865 -0.7919  0.6861 -0.5319
 6899SOL     OW32155   3.053   1.656   7.748 -0.3286  0.4912 -0.1380
 6899SOL    HW132156   3.086   1.716   7.681 -0.0529 -1.7283 -2.0030
 6899SOL    HW232157   3.110   1.668   7.824 -1.5797 -2.8299  1.3226
 6900SOL     OW32158   0.046   1.420   4.917 -0.0308  0.1590  0.3115
 6900SOL    HW132159   0.116   1.443   4.978 -0.2607 -1.0090  1.0144
 6900SOL    HW232160   4.707   1.494   4.926  0.4456  0.6025 -0.2113
 6901SOL     OW32161   2.173   2.159   2.683 -0.1483  0.4156  0.3420
 6901SOL    HW132162   2.172   2.181   2.589  2.0302 -1.8151 -0.2062
 6901SOL    HW232163   2.232   2.231   2.708  0.8463 -0.0989 -0.5218
 6902SOL     OW32164   1.912   2.233  12.638  0.1409  0.4902 -0.7440
 6902SOL    HW132165   1.943   2.160  12.585  0.6559  1.3228 -1.5732
 6902SOL    HW232166   1.945   2.202  12.723 -2.2884 -2.7230 -0.9514
 6903SOL     OW32167   2.981   2.980   3.956  1.0378  0.7437 -0.0904
 6903SOL    HW132168   2.973   2.937   3.871 -0.3989  1.1531 -0.1691
 6903SOL    HW232169   2.925   2.925   4.011  0.0249  2.4707  0.6038
 6904SOL     OW32170   3.094   4.046   9.052 -0.1231 -0.2872  0.4507
 6904SOL    HW132171   3.164   4.002   9.100  0.5352 -0.4942 -0.7056
 6904SOL    HW232172   3.020   4.009   9.101 -0.2579  0.1573  0.5770
 6905SOL     OW32173   0.358   1.647   6.641 -0.2921  0.3116  0.2379
 6905SOL    HW132174   0.293   1.604   6.585 -0.6828 -0.2055  1.1052
 6905SOL    HW232175   0.362   1.583   6.711  0.0898 -2.1091 -1.9847
 6906SOL     OW32176   0.821   3.679   1.465  0.2903  0.1085  0.1948
 6906SOL    HW132177   0.733   3.653   1.438  0.5684  0.9297 -1.5017
 6906SOL    HW232178   0.816   3.652   1.557  0.4973  0.2454  0.2474
 6907SOL     OW32179   1.550   0.409   2.734  0.0268 -0.5106  0.4309
 6907SOL    HW132180   1.621   0.444   2.788  0.0006  2.7314 -1.5862
 6907SOL    HW232181   1.473   0.442   2.780  0.4064  2.4028 -0.9726
 6908SOL     OW32182   2.795   3.249   2.754  0.1206  0.3412  0.6628
 6908SOL    HW132183   2.770   3.340   2.771  2.4078  1.0685  0.1907
 6908SOL    HW232184   2.877   3.239   2.803  1.1152  0.2772 -1.0001
 6909SOL     OW32185   1.513   3.769   2.297  0.4441  0.2790  0.5410
 6909SOL    HW132186   1.567   3.846   2.315 -1.2874  1.4830  0.6446
 6909SOL    HW232187   1.426   3.795   2.329 -0.6035 -1.9012 -0.5520
 6910SOL     OW32188   3.398   2.606   7.937  1.0439 -0.7322  0.1269
 6910SOL    HW132189   3.460   2.618   7.865  0.8879 -2.3559 -0.2758
 6910SOL    HW232190   3.464   2.612   8.006  0.1564 -2.7548  1.1418
 6911SOL     OW32191   1.194   1.729   0.625 -0.2832 -0.0793  0.3774
 6911SOL    HW132192   1.138   1.675   0.568 -0.0186 -0.4850  0.5051
 6911SOL    HW232193   1.221   1.799   0.565 -0.0831 -0.9088 -0.4996
 6912SOL     OW32194   3.637   4.432   8.421 -0.1547 -0.6013 -0.2340
 6912SOL    HW132195   3.730   4.435   8.443 -0.0179 -2.1219 -0.5908
 6912SOL    HW232196   3.611   4.350   8.462 -2.1872  0.1092 -0.0960
 6913SOL     OW32197   3.191   1.348  16.668 -0.1047 -0.3077 -0.7564
 6913SOL    HW132198   3.162   1.281  16.605  0.7613 -0.4877 -0.9656
 6913SOL    HW232199   3.264   1.394  16.628 -0.0095 -0.5631 -0.8791
 6914SOL     OW32200   2.706   0.009   6.948 -0.1896 -0.6914 -0.0798
 6914SOL    HW132201   2.744   0.096   6.956  2.5248 -1.8828  0.1567
 6914SOL    HW232202   2.632   0.016   7.009 -0.8605 -1.3286 -0.8261
 6915SOL     OW32203   3.771   3.418  13.728  0.5566  0.0306 -0.2495
 6915SOL    HW132204   3.814   3.496  13.763 -0.0958 -0.0957  0.8217
 6915SOL    HW232205   3.755   3.379  13.814 -0.1989  1.1266  0.1214
 6916SOL     OW32206   1.628   1.211   3.617 -0.2774  0.3893  0.2290
 6916SOL    HW132207   1.654   1.274   3.550  3.8934 -2.2793 -0.6381
 6916SOL    HW232208   1.537   1.186   3.598 -0.0664 -1.3936  1.4927
 6917SOL     OW32209   1.045   4.131   4.118 -0.1845  0.8463  0.2107
 6917SOL    HW132210   0.983   4.196   4.152  0.2335  0.1042  2.3420
 6917SOL    HW232211   0.986   4.059   4.096  1.5577 -0.1405 -1.1908
 6918SOL     OW32212   3.136   3.939   7.237  0.4924 -0.0597  0.1589
 6918SOL    HW132213   3.197   3.875   7.201  1.8475  0.3980  1.6671
 6918SOL    HW232214   3.080   3.886   7.294  0.8927  0.9746  1.4950
 6919SOL     OW32215   1.659   4.071   1.949  0.1921  0.1900  0.4433
 6919SOL    HW132216   1.634   4.121   2.027 -0.2957 -0.4585  0.7071
 6919SOL    HW232217   1.739   4.035   1.990  0.0552  1.3270  1.7127
 6920SOL     OW32218   4.511   0.712   2.845  0.0623  0.2862 -0.4953
 6920SOL    HW132219   4.577   0.653   2.808 -0.0055  0.0006 -0.1627
 6920SOL    HW232220   4.461   0.651   2.899  1.3594 -0.4996 -0.1852
 6921SOL     OW32221   0.064   1.059  16.600  0.2321  0.1837  0.1584
 6921SOL    HW132222   0.089   1.107  16.521  2.1439  0.0669  0.6897
 6921SOL    HW232223   0.064   1.128  16.666  1.1417 -0.3563  0.7210
 6922SOL     OW32224   3.727   2.258  14.694  0.7356  0.1660  0.8132
 6922SOL    HW132225   3.669   2.314  14.745 -1.3577 -0.9584 -0.3632
 6922SOL    HW232226   3.699   2.270  14.604 -2.0328 -0.8126  1.5560
 6923SOL     OW32227   3.448   3.445   4.498 -0.2064  0.3804 -0.4179
 6923SOL    HW132228   3.416   3.415   4.583  1.3731 -0.4727 -0.1225
 6923SOL    HW232229   3.372   3.414   4.449  0.2467 -0.6202 -0.4866
 6924SOL     OW32230   1.662   0.997   9.318 -0.7430  0.2654  0.2491
 6924SOL    HW132231   1.721   0.922   9.309 -1.1238  0.0922 -0.7318
 6924SOL    HW232232   1.706   1.039   9.393 -0.7494 -0.9748  0.9497
 6925SOL     OW32233   0.463   1.051  11.885 -0.2255 -1.0663  0.6081
 6925SOL    HW132234   0.397   1.054  11.954 -1.1406  0.8096 -0.3366
 6925SOL    HW232235   0.514   0.971  11.899 -0.8946 -1.4468  0.8420
 6926SOL     OW32236   2.181   1.370  12.680  0.2338  0.1886  0.2636
 6926SOL    HW132237   2.133   1.450  12.661  0.3891  0.2012 -0.0902
 6926SOL    HW232238   2.123   1.305  12.640 -0.9231  1.1774  0.3434
 6927SOL     OW32239   1.851   3.279  17.228  0.1023 -0.5777 -0.3312
 6927SOL    HW132240   1.882   3.297  17.139  1.4169 -2.9394 -0.3521
 6927SOL    HW232241   1.758   3.301  17.219 -0.1036 -1.6099 -0.6720
 6928SOL     OW32242   2.554   2.727   6.348 -0.4030  0.5441  0.0045
 6928SOL    HW132243   2.462   2.752   6.338 -0.6584 -1.3945 -2.4468
 6928SOL    HW232244   2.583   2.703   6.260  4.6636 -1.1931  2.1391
 6929SOL     OW32245   2.438   1.533   7.651 -0.2806  0.1356  0.3946
 6929SOL    HW132246   2.457   1.439   7.658  2.0930  0.7630  1.9953
 6929SOL    HW232247   2.450   1.563   7.740 -2.0951 -0.8942  1.0055
 6930SOL     OW32248   1.878   0.565  15.194 -0.5790  0.0876 -0.1850
 6930SOL    HW132249   1.821   0.559  15.272 -3.3885  2.0584 -2.0721
 6930SOL    HW232250   1.914   0.653  15.202  0.3378 -0.2571 -0.6191
 6931SOL     OW32251   4.603   0.240   6.768  0.0244  0.6522  0.7347
 6931SOL    HW132252   4.541   0.168   6.775 -0.4578  1.1317  1.4786
 6931SOL    HW232253   4.543   0.306   6.805 -0.9574  0.0810  0.1574
 6932SOL     OW32254   2.225   3.384   9.871 -0.1062  0.2600 -0.3921
 6932SOL    HW132255   2.313   3.347   9.860  0.0171 -0.2720  2.4670
 6932SOL    HW232256   2.183   3.322   9.931 -0.2574 -0.5004 -1.2832
 6933SOL     OW32257   3.721   0.407   5.289  0.2800 -0.1536  0.0634
 6933SOL    HW132258   3.629   0.379   5.286 -0.2046  1.6385 -1.5542
 6933SOL    HW232259   3.703   0.501   5.288 -0.4702 -0.2970 -0.0232
 6934SOL     OW32260   0.371   0.672   5.872 -0.2552 -0.2094 -0.6313
 6934SOL    HW132261   0.380   0.709   5.960 -0.9517 -1.8511  0.1350
 6934SOL    HW232262   0.413   0.587   5.887  1.2671  0.6534 -0.1091
 6935SOL     OW32263   4.579   1.106   8.305  0.8525  0.0400 -0.1956
 6935SOL    HW132264   4.488   1.134   8.313  1.3289  0.9548  1.9389
 6935SOL    HW232265   4.571   1.025   8.256 -0.4771 -0.5860  1.0822
 6936SOL     OW32266   0.615   0.336   6.552  0.0967 -0.1023 -0.1310
 6936SOL    HW132267   0.689   0.279   6.535 -1.0450 -0.9495 -2.2798
 6936SOL    HW232268   0.568   0.292   6.622  0.1712  1.1813  0.7345
 6937SOL     OW32269   3.348   2.155   2.083  0.2669 -0.1453  0.3036
 6937SOL    HW132270   3.261   2.158   2.121  0.6928 -1.7397  1.4011
 6937SOL    HW232271   3.394   2.207   2.148 -2.1389  0.9839  1.1050
 6938SOL     OW32272   0.897   1.708   4.424 -0.0450  0.7125 -0.2000
 6938SOL    HW132273   0.877   1.676   4.512  2.3211  0.1229  0.1135
 6938SOL    HW232274   0.890   1.633   4.366  0.2788  0.5381 -0.0166
 6939SOL     OW32275   0.207   1.022   4.473  0.2863  0.1897  0.0455
 6939SOL    HW132276   0.129   1.048   4.523  0.2791  0.9176 -0.3460
 6939SOL    HW232277   0.205   0.932   4.504  0.9993  0.6011  1.3070
 6940SOL     OW32278   1.689   2.277   3.426 -0.1212 -0.4354 -0.2565
 6940SOL    HW132279   1.616   2.233   3.382 -1.2777 -0.1721  1.3714
 6940SOL    HW232280   1.756   2.212   3.407 -0.3320 -0.6543 -0.2539
 6941SOL     OW32281   1.644   0.803  14.089  0.1712  0.4133  0.1212
 6941SOL    HW132282   1.728   0.818  14.045 -0.3778  1.6154 -0.5249
 6941SOL    HW232283   1.657   0.715  14.123  1.5741  0.7476  0.4702
 6942SOL     OW32284   3.458   1.543   2.922 -0.6058 -0.2419  0.0018
 6942SOL    HW132285   3.416   1.608   2.867  0.6613  2.1308  1.8675
 6942SOL    HW232286   3.408   1.558   3.002  1.1246  0.0717  1.0203
 6943SOL     OW32287   0.331   2.943   2.420 -0.1445  0.0387  0.3565
 6943SOL    HW132288   0.244   2.944   2.379  0.1188 -2.4412 -0.3129
 6943SOL    HW232289   0.310   2.996   2.496 -1.7194 -0.3039  0.1644
 6944SOL     OW32290   1.040   4.247   6.003 -0.0487 -0.3933  0.7244
 6944SOL    HW132291   1.110   4.260   6.067  1.8881  0.2791 -1.5089
 6944SOL    HW232292   1.026   4.153   6.005 -0.6603 -0.3506 -1.3818
 6945SOL     OW32293   1.297   0.137   0.637 -0.2107  0.1783  0.4621
 6945SOL    HW132294   1.351   0.131   0.558 -3.7904  0.0461 -1.9837
 6945SOL    HW232295   1.296   0.046   0.666 -1.8412  0.0450  0.0088
 6946SOL     OW32296   2.144   3.084  10.505  0.4305 -0.4274 -0.1169
 6946SOL    HW132297   2.236   3.100  10.484  0.4457 -1.6819 -1.0174
 6946SOL    HW232298   2.113   3.175  10.500  0.8938 -0.3351 -1.3525
 6947SOL     OW32299   1.663   2.327   5.968 -0.0617  0.1064 -0.0887
 6947SOL    HW132300   1.636   2.414   5.999 -4.2518 -0.4954 -2.0797
 6947SOL    HW232301   1.707   2.351   5.886  0.8593  0.8637  0.6225
 6948SOL     OW32302   2.360   4.598   1.106  0.2562 -0.1558 -0.5799
 6948SOL    HW132303   2.361   4.694   1.105  3.3109 -0.1694 -0.7066
 6948SOL    HW232304   2.284   4.579   1.161  0.2089  0.6980 -0.3526
 6949SOL     OW32305   0.097   3.538   6.447 -0.1430  0.4062  0.4734
 6949SOL    HW132306   0.088   3.467   6.511 -1.8281 -1.9133 -2.3203
 6949SOL    HW232307   0.068   3.615   6.496  0.8501 -0.0634  1.7949
 6950SOL     OW32308   3.123   0.339  13.688 -0.2352 -0.5292  0.6785
 6950SOL    HW132309   3.178   0.317  13.614 -0.0157 -0.9032  0.9511
 6950SOL    HW232310   3.085   0.424  13.667 -1.2941 -1.8271 -2.6263
 6951SOL     OW32311   2.493   1.303   8.047 -0.0681  0.4109 -0.4806
 6951SOL    HW132312   2.569   1.287   8.102 -0.5122  1.4619  0.4315
 6951SOL    HW232313   2.516   1.390   8.013 -1.2187  1.8799  2.4749
 6952SOL     OW32314   0.631   4.429  15.492  0.0241  0.4459 -0.5588
 6952SOL    HW132315   0.677   4.419  15.575 -2.4458 -1.3819  0.5700
 6952SOL    HW232316   0.669   4.505  15.448  1.7456  0.5087  1.0976
 6953SOL     OW32317   2.712   0.611  15.890 -0.3527 -0.5831 -0.4512
 6953SOL    HW132318   2.709   0.655  15.804  2.0010  0.4816  0.0052
 6953SOL    HW232319   2.619   0.619  15.909 -0.4534 -3.1166  0.0633
 6954SOL     OW32320   1.613   0.717   5.407  0.6220 -0.1417  0.2230
 6954SOL    HW132321   1.554   0.751   5.475  1.0903  0.3772  0.3674
 6954SOL    HW232322   1.688   0.773   5.422 -0.0707  0.7591  0.2986
 6955SOL     OW32323   2.428   2.448   6.211 -0.1677  0.2734  0.9575
 6955SOL    HW132324   2.370   2.521   6.232 -1.3892 -0.6118  0.6718
 6955SOL    HW232325   2.384   2.402   6.139  1.1202 -0.9317  0.9600
 6956SOL     OW32326   4.139   1.101   2.560 -0.3039 -0.5714 -0.1543
 6956SOL    HW132327   4.205   1.101   2.629 -0.5041  0.6816  0.0367
 6956SOL    HW232328   4.064   1.103   2.619 -0.3447 -0.4255 -0.2106
 6957SOL     OW32329   1.551   3.212   2.611 -0.1008 -0.4539  0.3782
 6957SOL    HW132330   1.501   3.289   2.584 -0.5320 -0.3034  1.6163
 6957SOL    HW232331   1.625   3.253   2.656  0.0552  0.1138 -0.4021
 6958SOL     OW32332   3.138   0.736   6.280  0.4886 -0.0798  0.3230
 6958SOL    HW132333   3.070   0.721   6.346 -0.3444 -1.2292 -0.8109
 6958SOL    HW232334   3.215   0.739   6.338  1.2373 -0.0250 -0.6829
 6959SOL     OW32335   4.117   2.760   4.280  0.2439  0.4434 -0.0889
 6959SOL    HW132336   4.096   2.726   4.193 -0.9147  0.6509  0.1176
 6959SOL    HW232337   4.212   2.747   4.277 -0.1038 -2.3918  0.9966
 6960SOL     OW32338   4.256   2.238   5.247  0.0919  0.6452 -0.3027
 6960SOL    HW132339   4.323   2.189   5.294  0.4835 -0.7169 -2.2951
 6960SOL    HW232340   4.217   2.181   5.181  0.0138  1.2125 -0.7464
 6961SOL     OW32341   2.725   2.481   4.412 -0.3385  0.5389 -0.2785
 6961SOL    HW132342   2.763   2.535   4.482 -2.2807  1.2375  0.2553
 6961SOL    HW232343   2.795   2.426   4.377  1.1812  1.4373  1.3348
 6962SOL     OW32344   1.707   3.364   9.375 -0.3703 -0.2077  0.3906
 6962SOL    HW132345   1.613   3.381   9.380 -0.4662 -0.8703  0.8964
 6962SOL    HW232346   1.712   3.328   9.287  0.2237 -1.2048  0.8295
 6963SOL     OW32347   1.751   2.708  10.769 -0.0631  0.2996  0.1947
 6963SOL    HW132348   1.697   2.629  10.769 -0.5668  0.6432 -0.0788
 6963SOL    HW232349   1.840   2.679  10.752 -0.3702 -0.2476 -0.5037
 6964SOL     OW32350   4.048   1.830  14.254 -0.4703  0.3220  0.0147
 6964SOL    HW132351   4.106   1.807  14.327  1.1317  2.5483 -0.5654
 6964SOL    HW232352   3.983   1.884  14.298  0.2199  0.6468  0.6334
 6965SOL     OW32353   3.422   2.392   6.549 -0.1970 -0.1771 -0.2611
 6965SOL    HW132354   3.475   2.459   6.507 -2.1582  2.2099  1.1265
 6965SOL    HW232355   3.336   2.408   6.512  0.4802  1.3928 -1.1300
 6966SOL     OW32356   4.542   3.910   2.410 -0.6426 -0.0317 -0.1069
 6966SOL    HW132357   4.522   3.837   2.468 -0.3345 -0.2298 -0.2478
 6966SOL    HW232358   4.635   3.889   2.397 -0.1225  1.3305  1.4222
 6967SOL     OW32359   4.705   0.645   8.704  0.3149  0.0807  0.3471
 6967SOL    HW132360   4.652   0.585   8.652 -1.5155  0.0961  2.2157
 6967SOL    HW232361   4.648   0.721   8.719 -0.3232 -0.0978 -1.1970
 6968SOL     OW32362   1.117   1.954  13.847  0.0488 -0.2200 -0.3565
 6968SOL    HW132363   1.105   1.899  13.769  0.9644 -2.3893  1.0317
 6968SOL    HW232364   1.025   1.975  13.863  0.2393  0.1303  0.2653
 6969SOL     OW32365   4.611   3.145   4.736 -0.2300  0.0903 -0.2838
 6969SOL    HW132366   4.617   3.177   4.826  0.4441  0.4187 -0.4428
 6969SOL    HW232367   4.601   3.217   4.674  1.1400  0.2958 -0.2644
 6970SOL     OW32368   0.901   0.506   7.011  0.2320 -0.4278 -0.5912
 6970SOL    HW132369   0.831   0.446   6.988 -1.7296  1.8183 -0.5280
 6970SOL    HW232370   0.861   0.584   7.050  1.7197  0.2089 -0.2997
 6971SOL     OW32371   0.166   3.830   6.315 -0.2439 -0.4172  0.3924
 6971SOL    HW132372   0.129   3.829   6.403 -0.1449  0.3317  0.4478
 6971SOL    HW232373   0.258   3.849   6.332  0.0171 -1.3779  0.0368
 6972SOL     OW32374   2.198   4.366  16.578 -0.3103  0.9705  0.0108
 6972SOL    HW132375   2.148   4.358  16.496  3.0235  1.1664 -2.0361
 6972SOL    HW232376   2.284   4.332  16.552 -1.8884 -0.5535 -3.1582
 6973SOL     OW32377   2.643   3.097  16.786  0.0110  0.3947 -0.7196
 6973SOL    HW132378   2.613   3.029  16.847 -0.1666  0.5326 -0.6515
 6973SOL    HW232379   2.564   3.120  16.736 -0.5477 -2.7185 -1.2358
 6974SOL     OW32380   2.892   0.757  12.806  0.7724 -0.1468  0.4942
 6974SOL    HW132381   2.929   0.696  12.742  0.5075 -1.5931  1.7028
 6974SOL    HW232382   2.891   0.703  12.885 -4.4027 -0.6949  0.0512
 6975SOL     OW32383   3.104   0.570   1.512 -0.4414 -0.4813  0.1185
 6975SOL    HW132384   3.059   0.609   1.587 -2.2299 -1.0211 -0.6631
 6975SOL    HW232385   3.154   0.498   1.550  0.3448 -0.1093 -0.2158
 6976SOL     OW32386   0.667   0.826   3.546  0.1125  0.0077 -0.0459
 6976SOL    HW132387   0.597   0.891   3.536  0.7087  0.4676 -1.1405
 6976SOL    HW232388   0.633   0.797   3.631  0.0078 -0.7534 -0.3490
 6977SOL     OW32389   1.061   3.467  10.850 -0.1143 -0.4682  0.1858
 6977SOL    HW132390   0.965   3.460  10.852 -0.2718  0.8653 -2.5431
 6977SOL    HW232391   1.080   3.511  10.933 -0.3954 -1.0583  0.5679
 6978SOL     OW32392   2.001   2.346   1.969 -0.3877  0.2878 -0.0493
 6978SOL    HW132393   1.989   2.413   1.902 -2.7191  0.6404  0.7398
 6978SOL    HW232394   1.977   2.271   1.915  0.0243  0.2209 -0.1401
 6979SOL     OW32395   0.684   0.247  10.666  0.3313 -0.3753  0.2823
 6979SOL    HW132396   0.591   0.267  10.673  0.2252 -0.7811  0.0522
 6979SOL    HW232397   0.689   0.236  10.571 -0.8576 -3.2799  0.5430
 6980SOL     OW32398   0.523   3.916   3.678 -0.1977 -0.7183  0.3204
 6980SOL    HW132399   0.598   3.935   3.733 -0.0363  0.3669 -0.2747
 6980SOL    HW232400   0.471   3.982   3.724 -0.6098 -0.8067 -0.0202
 6981SOL     OW32401   1.637   3.136   9.515  0.2166 -0.5283 -0.3090
 6981SOL    HW132402   1.662   3.216   9.468  0.8938 -0.1930  0.6262
 6981SOL    HW232403   1.542   3.131   9.512  0.2487 -0.7014 -1.0541
 6982SOL     OW32404   2.805   4.157   3.093  0.0568 -0.3380  0.5059
 6982SOL    HW132405   2.832   4.161   3.002  1.2776  0.2498  0.8902
 6982SOL    HW232406   2.880   4.109   3.129 -1.6271 -3.7903 -0.6184
 6983SOL     OW32407   4.534   0.685  13.711  0.2165  0.2942 -0.4649
 6983SOL    HW132408   4.524   0.617  13.644  0.6220 -0.0340 -0.1968
 6983SOL    HW232409   4.588   0.635  13.772 -1.2290  2.0199  2.2317
 6984SOL     OW32410   3.080   2.110   9.143 -0.2368  0.0145  0.4390
 6984SOL    HW132411   3.028   2.055   9.201 -0.4604 -1.1329 -0.8473
 6984SOL    HW232412   3.012   2.139   9.083  1.3959 -1.0109 -1.9252
 6985SOL     OW32413   3.317   4.702   6.503  0.5727  0.0478 -0.1266
 6985SOL    HW132414   3.402   4.659   6.509 -1.1196 -2.9262  2.8993
 6985SOL    HW232415   3.322   0.034   6.583 -2.5742  0.7965 -0.4036
 6986SOL     OW32416   1.100   0.815  13.242  0.4438 -0.0072  0.1415
 6986SOL    HW132417   1.106   0.906  13.270 -0.0513 -0.2733  1.1127
 6986SOL    HW232418   1.143   0.777  13.319 -1.4713  1.4394  1.9165
 6987SOL     OW32419   4.157   1.426  12.138 -0.6252 -0.0228  0.4180
 6987SOL    HW132420   4.161   1.333  12.159 -1.3808 -0.0722  0.3347
 6987SOL    HW232421   4.223   1.463  12.197  0.7879 -0.2905 -1.0048
 6988SOL     OW32422   2.342   1.195   3.443 -0.2824 -0.4422 -0.3560
 6988SOL    HW132423   2.365   1.175   3.353 -0.0717 -0.0967 -0.3797
 6988SOL    HW232424   2.413   1.257   3.460 -1.2436  0.7643 -0.7665
 6989SOL     OW32425   0.056   1.365  10.030  0.4981 -0.4982 -0.2619
 6989SOL    HW132426   0.132   1.366   9.972 -0.7481 -1.7455 -1.9578
 6989SOL    HW232427   0.048   1.271  10.047 -1.2252 -0.3513 -0.2344
 6990SOL     OW32428   2.829   0.811   6.687  0.4649 -0.4569 -0.4192
 6990SOL    HW132429   2.886   0.793   6.762  0.0471  1.3724  0.3174
 6990SOL    HW232430   2.776   0.884   6.719  1.9734 -0.9062  3.1302
 6991SOL     OW32431   1.204   4.454  12.965  0.3581  0.2787 -0.1283
 6991SOL    HW132432   1.230   4.364  12.982  1.0657  0.3041 -1.0731
 6991SOL    HW232433   1.290   4.492  12.984  0.5527 -0.4174  0.3769
 6992SOL     OW32434   4.535   4.422   9.818 -0.0770 -0.0794  0.1108
 6992SOL    HW132435   4.441   4.436   9.822  0.1763  1.5552  0.1000
 6992SOL    HW232436   4.571   4.440   9.905  3.4886 -1.8383 -0.9800
 6993SOL     OW32437   0.276   1.855  13.110  0.4486 -0.4126 -0.3833
 6993SOL    HW132438   0.342   1.921  13.131 -0.3316  0.0170  0.7369
 6993SOL    HW232439   0.267   1.843  13.016 -1.2034 -2.2384  0.0073
 6994SOL     OW32440   4.449   0.687   4.701 -0.5124  0.2903 -0.1527
 6994SOL    HW132441   4.447   0.688   4.606  0.8294 -1.8444 -0.1845
 6994SOL    HW232442   4.415   0.773   4.727  0.8097  0.8799 -0.3305
 6995SOL     OW32443   0.384   1.395  14.844  0.1099 -0.3576  0.7421
 6995SOL    HW132444   0.303   1.352  14.870 -0.8144 -0.1165 -1.7609
 6995SOL    HW232445   0.450   1.329  14.866  3.4318  1.7325 -2.9031
 6996SOL     OW32446   1.597   1.201   7.243  0.1988 -0.4565  0.1424
 6996SOL    HW132447   1.574   1.108   7.241  1.3887 -0.7954  2.5274
 6996SOL    HW232448   1.599   1.230   7.334 -0.1878  0.4562 -0.1369
 6997SOL     OW32449   1.170   3.730   8.818 -0.1388  0.4790  0.0857
 6997SOL    HW132450   1.095   3.682   8.854 -0.7159  0.3927 -1.2356
 6997SOL    HW232451   1.213   3.750   8.901  0.0266  0.1088  0.0890
 6998SOL     OW32452   3.614   4.486  11.673  0.1180 -0.4142 -0.6338
 6998SOL    HW132453   3.701   4.526  11.663  0.4196 -0.7655  0.6122
 6998SOL    HW232454   3.611   4.475  11.768 -1.1766  0.5442 -0.5696
 6999SOL     OW32455   3.468   3.068   8.731 -0.6961 -0.3938  0.0348
 6999SOL    HW132456   3.413   3.068   8.809 -0.8821 -0.3663 -0.0960
 6999SOL    HW232457   3.538   3.123   8.766 -0.6059 -0.8180  0.5253
 7000SOL     OW32458   3.710   3.182   6.555  0.2155  0.2162  0.3228
 7000SOL    HW132459   3.702   3.165   6.461  0.4514  0.1249  0.3180
 7000SOL    HW232460   3.749   3.269   6.554 -1.4477  0.9742  1.5746
 7001SOL     OW32461   2.205   3.317  14.027 -1.2264  0.1768 -0.0885
 7001SOL    HW132462   2.252   3.383  13.977  0.2340  0.1418  1.2198
 7001SOL    HW232463   2.147   3.278  13.962 -0.2118  2.2421 -2.2050
 7002SOL     OW32464   4.677   0.833   0.802  0.1661 -1.1909 -1.0087
 7002SOL    HW132465   4.679   0.747   0.844  0.6607 -0.7520 -0.1151
 7002SOL    HW232466   4.657   0.802   0.714  1.2429 -3.3016 -0.5324
 7003SOL     OW32467   2.724   2.457   5.979 -0.0745  0.6876  0.0588
 7003SOL    HW132468   2.764   2.406   5.909  3.9081  0.4042  2.5809
 7003SOL    HW232469   2.631   2.443   5.963 -0.3176  1.3354  0.8850
 7004SOL     OW32470   2.028   2.713   8.801  0.3021  0.1321 -0.3097
 7004SOL    HW132471   1.935   2.698   8.818  0.6547 -0.7901  0.7868
 7004SOL    HW232472   2.057   2.647   8.864 -0.4547 -1.1093 -1.2504
 7005SOL     OW32473   0.124   0.537   7.705 -0.4694  0.0179 -0.0815
 7005SOL    HW132474   0.142   0.495   7.621  0.8860  1.0646 -0.3165
 7005SOL    HW232475   0.128   0.459   7.762  1.6788 -1.8830 -2.8325
 7006SOL     OW32476   2.544   4.141   1.356  0.0138  0.1471 -0.3207
 7006SOL    HW132477   2.594   4.064   1.380 -0.4164 -0.0680 -0.1064
 7006SOL    HW232478   2.507   4.107   1.275 -0.4397  0.7096 -0.3585
 7007SOL     OW32479   0.701   4.720   7.247  0.0240 -0.6244  0.0447
 7007SOL    HW132480   0.681   4.659   7.317  0.7413 -0.6062  0.2649
 7007SOL    HW232481   0.771   0.053   7.284  0.6987 -0.4144 -1.4918
 7008SOL     OW32482   2.803   1.651   7.860  0.5051  0.2942 -0.0338
 7008SOL    HW132483   2.808   1.736   7.904 -0.1350  0.8234 -1.0007
 7008SOL    HW232484   2.892   1.646   7.825 -0.3302 -2.0171 -1.8270
 7009SOL     OW32485   2.905   3.259   8.249 -0.0316 -0.0699  0.2356
 7009SOL    HW132486   2.978   3.287   8.305 -0.1477 -0.5411  0.6269
 7009SOL    HW232487   2.957   3.216   8.181 -1.8160  0.5379 -1.5020
 7010SOL     OW32488   1.786   1.528   4.731 -0.5536  0.2167  0.5689
 7010SOL    HW132489   1.852   1.525   4.799 -0.0404  0.2659  0.0737
 7010SOL    HW232490   1.711   1.483   4.770  0.2520 -2.8511 -1.3841
 7011SOL     OW32491   3.823   4.665  17.014 -0.4199  0.4478  0.0530
 7011SOL    HW132492   3.790   4.660  17.104 -0.6198  0.4964 -0.0177
 7011SOL    HW232493   3.816   0.038  16.995 -0.4991  0.8006  1.8282
 7012SOL     OW32494   3.088   1.795   3.301  0.3109  0.0135  0.1454
 7012SOL    HW132495   3.089   1.801   3.206 -1.7582 -1.0592  0.0584
 7012SOL    HW232496   3.014   1.851   3.324 -1.4280 -1.4550 -1.9329
 7013SOL     OW32497   2.692   2.539  11.455  0.3527 -0.4231 -0.0964
 7013SOL    HW132498   2.766   2.579  11.409  0.4219 -0.7305 -0.2541
 7013SOL    HW232499   2.624   2.569  11.394 -0.0907  2.1459  1.7012
 7014SOL     OW32500   2.190   2.175   9.184 -0.5863  0.1794  0.1795
 7014SOL    HW132501   2.195   2.209   9.094 -1.3569  0.9185  0.4125
 7014SOL    HW232502   2.150   2.091   9.159 -0.7325  0.5300 -0.7842
 7015SOL     OW32503   0.188   0.621   4.534 -0.0932 -0.4480  0.7460
 7015SOL    HW132504   0.137   0.626   4.453  0.8096  0.9545  0.2645
 7015SOL    HW232505   0.195   0.527   4.549  1.8022 -0.9038 -3.0043
 7016SOL     OW32506   1.064   4.513   6.913  0.1839  0.1940  0.0767
 7016SOL    HW132507   0.977   4.553   6.917 -0.9800 -2.4641  1.3722
 7016SOL    HW232508   1.074   4.471   6.999  0.2215  0.2276  0.0887
 7017SOL     OW32509   2.455   0.737  13.139 -0.6650 -0.0507  0.1280
 7017SOL    HW132510   2.443   0.825  13.174 -1.3387  0.0921 -0.4650
 7017SOL    HW232511   2.543   0.752  13.104  0.3097  0.8872  2.9779
 7018SOL     OW32512   3.002   0.146   2.418  0.3260  0.2529 -0.2007
 7018SOL    HW132513   2.917   0.175   2.452  0.7139  1.1664 -0.0073
 7018SOL    HW232514   2.984   0.081   2.351 -2.3783 -0.8993  1.6421
 7019SOL     OW32515   4.257   1.280  15.715 -0.3408 -0.3343  0.0177
 7019SOL    HW132516   4.230   1.254  15.804 -1.8424 -1.9911 -0.9159
 7019SOL    HW232517   4.344   1.241  15.718  1.2343  3.1615 -1.4927
 7020SOL     OW32518   0.003   3.135  12.043 -0.2048 -0.2449  0.1578
 7020SOL    HW132519   0.087   3.143  12.089 -0.5649  0.3686  0.7005
 7020SOL    HW232520   0.035   3.155  11.954 -1.2212 -0.1115 -0.1764
 7021SOL     OW32521   1.120   3.838   4.747  0.4482 -0.7352 -0.4840
 7021SOL    HW132522   1.160   3.807   4.828 -0.6071 -2.2279 -0.5365
 7021SOL    HW232523   1.184   3.805   4.685  1.9790 -1.2246  1.3527
 7022SOL     OW32524   1.876   0.197   8.567 -0.0542 -0.1706 -0.3685
 7022SOL    HW132525   1.803   0.210   8.628 -0.4082  0.1458 -0.8603
 7022SOL    HW232526   1.882   0.278   8.516 -1.4878 -0.4821 -1.0300
 7023SOL     OW32527   3.382   0.705   8.285  0.6325  0.2297  0.3957
 7023SOL    HW132528   3.460   0.649   8.288 -0.0805 -0.8351 -0.9208
 7023SOL    HW232529   3.377   0.731   8.377  0.1123 -1.4453  0.8353
 7024SOL     OW32530   3.493   3.521   9.294  0.7906 -0.2305 -0.2414
 7024SOL    HW132531   3.427   3.586   9.317  0.8142  0.1019 -1.1021
 7024SOL    HW232532   3.518   3.479   9.376 -0.7295  2.1286  1.4215
 7025SOL     OW32533   3.879   4.104   3.448 -0.7633  0.2963 -0.1783
 7025SOL    HW132534   3.873   4.196   3.474  0.8397 -0.0947  1.6108
 7025SOL    HW232535   3.951   4.112   3.386  0.6983 -2.9752  1.1159
 7026SOL     OW32536   0.192   4.002   4.295 -0.3802  0.2464  0.4391
 7026SOL    HW132537   0.281   3.984   4.326 -0.1251  1.4774  0.4242
 7026SOL    HW232538   0.169   4.072   4.355 -1.1779 -0.9390  1.5261
 7027SOL     OW32539   2.680   4.710  14.660  0.0507  0.4572  0.3023
 7027SOL    HW132540   2.686   4.636  14.600 -0.3226 -0.8944  1.9275
 7027SOL    HW232541   2.719   0.057  14.604  0.7747  0.8506  1.2680
 7028SOL     OW32542   3.613   0.736  13.241  0.7403 -0.2683 -0.6986
 7028SOL    HW132543   3.588   0.645  13.257 -0.3794  0.4856  1.8726
 7028SOL    HW232544   3.708   0.737  13.243  0.6650  0.4551  2.2529
 7029SOL     OW32545   0.767   2.696  12.750  0.2974 -0.0840  0.7559
 7029SOL    HW132546   0.740   2.610  12.782 -0.4195  0.4302  1.5490
 7029SOL    HW232547   0.850   2.669  12.712 -1.2693 -1.9160 -1.3556
 7030SOL     OW32548   1.345   4.331   1.145 -0.6157  0.8433 -0.6287
 7030SOL    HW132549   1.262   4.295   1.115 -0.4417  1.4665 -1.8899
 7030SOL    HW232550   1.328   4.423   1.163 -1.3761  0.2536  1.6319
 7031SOL     OW32551   3.637   3.900   2.058 -0.1731  0.0098 -0.0883
 7031SOL    HW132552   3.609   3.969   1.997 -0.6279 -2.1459 -2.3254
 7031SOL    HW232553   3.606   3.941   2.138 -0.7119 -1.5182  0.4719
 7032SOL     OW32554   2.425   0.551   1.954 -0.8756 -0.7541 -0.8216
 7032SOL    HW132555   2.397   0.627   1.902  0.0933 -0.2189 -0.5621
 7032SOL    HW232556   2.514   0.526   1.929 -0.9419 -1.5989 -0.1916
 7033SOL     OW32557   2.536   0.492   0.989 -0.0019  0.6589 -0.4340
 7033SOL    HW132558   2.543   0.462   0.898 -2.3905  2.3172 -1.1856
 7033SOL    HW232559   2.627   0.511   1.012  0.3433 -0.0500 -1.2078
 7034SOL     OW32560   2.098   0.111   9.810  0.0866 -0.1214  0.1208
 7034SOL    HW132561   2.146   0.188   9.840 -1.0151  0.6693 -0.1600
 7034SOL    HW232562   2.070   0.137   9.722 -2.3446  0.4149  1.0588
 7035SOL     OW32563   0.895   0.641   5.734  0.0223 -0.2006 -0.2607
 7035SOL    HW132564   0.917   0.728   5.698 -0.6606 -0.8250 -2.1623
 7035SOL    HW232565   0.981   0.601   5.719 -0.1772 -0.7526  0.0989
 7036SOL     OW32566   4.662   4.055   5.326  0.6175  0.1599  0.3230
 7036SOL    HW132567   0.023   4.097   5.300  0.6248  0.5225  0.9530
 7036SOL    HW232568   4.685   3.966   5.353 -0.8435  0.2087  1.7168
 7037SOL     OW32569   1.767   1.348  10.695  0.8044  0.8328 -0.5794
 7037SOL    HW132570   1.767   1.305  10.609 -1.7169  2.2696 -1.2868
 7037SOL    HW232571   1.680   1.387  10.692  0.5460  0.3149  0.2677
 7038SOL     OW32572   0.221   3.670   3.488  0.1078 -0.1810 -0.3163
 7038SOL    HW132573   0.129   3.648   3.479  0.0444  1.3027 -3.3911
 7038SOL    HW232574   0.267   3.647   3.407 -0.3740  1.1406 -0.9689
 7039SOL     OW32575   2.188   4.516   2.511 -0.0581 -0.2615  0.2057
 7039SOL    HW132576   2.169   4.582   2.578  0.3658  0.6923 -0.6149
 7039SOL    HW232577   2.282   4.513   2.525 -0.4227 -2.7102  2.1015
 7040SOL     OW32578   4.604   0.871  10.793 -0.0955  0.5112  0.1028
 7040SOL    HW132579   4.550   0.904  10.865 -1.4956  1.9490 -1.6068
 7040SOL    HW232580   4.537   0.829  10.739 -0.6651  0.0717  1.1387
 7041SOL     OW32581   4.168   1.481   7.284 -0.0273 -0.0573  0.1605
 7041SOL    HW132582   4.078   1.470   7.254  0.8381  0.7608 -2.7640
 7041SOL    HW232583   4.180   1.576   7.276 -1.2248  0.0911  0.1686
 7042SOL     OW32584   2.327   3.504   6.738 -0.1006  0.1067  0.3672
 7042SOL    HW132585   2.334   3.417   6.777 -2.2206 -1.6626 -3.2090
 7042SOL    HW232586   2.343   3.483   6.645 -0.4356 -1.3904  0.6434
 7043SOL     OW32587   2.016   0.584   7.675 -0.2985 -0.1547 -0.5674
 7043SOL    HW132588   2.107   0.612   7.669 -0.0717 -0.6015  0.6520
 7043SOL    HW232589   1.997   0.585   7.769  1.8787 -1.8777 -0.1139
 7044SOL     OW32590   2.790   4.556   4.431 -0.6819  0.3359 -0.2967
 7044SOL    HW132591   2.821   4.587   4.516 -0.0279 -2.4967  0.5014
 7044SOL    HW232592   2.860   4.573   4.369  0.1374  1.1488  0.8424
 7045SOL     OW32593   0.484   2.041   2.325  0.6032  0.0521 -0.2994
 7045SOL    HW132594   0.466   1.953   2.358  1.4187 -0.2064 -0.5422
 7045SOL    HW232595   0.419   2.060   2.257 -2.3577  0.5932  2.6660
 7046SOL     OW32596   4.551   2.145   5.253 -0.1636  0.1298 -0.0578
 7046SOL    HW132597   4.625   2.142   5.314 -0.9842  2.0802  1.0413
 7046SOL    HW232598   4.564   2.224   5.199  0.7460 -0.5946 -0.8984
 7047SOL     OW32599   4.585   3.676   1.317 -0.8240 -0.0471  0.5164
 7047SOL    HW132600   4.495   3.653   1.341 -0.5788 -2.4333 -0.8998
 7047SOL    HW232601   4.621   3.588   1.324  1.4999  0.9578  1.1754
 7048SOL     OW32602   0.209   1.823   2.927 -0.8373  0.1271 -1.0375
 7048SOL    HW132603   0.194   1.906   2.882  0.3665  0.7455 -0.2914
 7048SOL    HW232604   0.127   1.775   2.914 -0.4002 -0.6697 -0.8444
 7049SOL     OW32605   2.286   1.659   7.454  0.2888 -0.0128  0.3750
 7049SOL    HW132606   2.358   1.631   7.510  0.6959 -0.5182 -0.3953
 7049SOL    HW232607   2.268   1.571   7.423 -0.7888  0.2633  0.2183
 7050SOL     OW32608   0.335   1.922   6.665  0.0496 -0.0373  0.2112
 7050SOL    HW132609   0.324   1.828   6.658 -0.6453 -0.2172  4.0422
 7050SOL    HW232610   0.277   1.941   6.739 -0.3546  0.5839 -0.2622
 7051SOL     OW32611   2.549   2.016   5.094 -0.2352  0.5931 -0.3493
 7051SOL    HW132612   2.570   1.924   5.079 -2.1622  0.0132  0.4415
 7051SOL    HW232613   2.528   2.055   5.009  0.4175 -1.5774 -1.5025
 7052SOL     OW32614   3.053   1.562   5.955  0.4174 -0.1062  0.3121
 7052SOL    HW132615   3.078   1.548   6.047  1.0544  0.1264  0.1721
 7052SOL    HW232616   3.116   1.508   5.909  0.2855 -0.5973  0.7053
 7053SOL     OW32617   3.717   4.222   4.207  0.2929  0.0876  0.1539
 7053SOL    HW132618   3.643   4.189   4.156  0.3358 -0.7544  0.6426
 7053SOL    HW232619   3.754   4.137   4.229  3.6454  1.5308  0.2139
 7054SOL     OW32620   0.360   0.774  15.753  0.6627  0.4979 -0.2614
 7054SOL    HW132621   0.279   0.823  15.769  0.4470 -1.0905  3.6363
 7054SOL    HW232622   0.339   0.723  15.675  0.3162  1.4307 -0.7923
 7055SOL     OW32623   3.525   3.287   2.995  0.4158 -0.1773 -0.5840
 7055SOL    HW132624   3.601   3.287   3.054  0.7439 -0.3660 -1.0140
 7055SOL    HW232625   3.470   3.361   3.023  1.4624 -0.1216  1.3446
 7056SOL     OW32626   1.411   4.426   0.779 -0.1321  0.1382 -0.2940
 7056SOL    HW132627   1.452   4.375   0.849 -0.8881 -1.6143 -1.1214
 7056SOL    HW232628   1.332   4.373   0.767  0.0781 -0.4446  0.9257
 7057SOL     OW32629   3.256   2.675   4.929  0.1631 -0.4156 -0.6133
 7057SOL    HW132630   3.314   2.608   4.893 -0.7765 -1.3119 -0.4664
 7057SOL    HW232631   3.303   2.707   5.007  1.1597 -0.2119 -1.2998
 7058SOL     OW32632   4.183   4.717  13.604 -0.0378 -0.3057  0.0333
 7058SOL    HW132633   4.135   4.700  13.685  0.5125 -0.5573  0.3069
 7058SOL    HW232634   4.204   4.635  13.560 -2.8918 -0.8566 -0.3073
 7059SOL     OW32635   4.051   2.295   8.958 -0.0332 -0.3808 -0.4267
 7059SOL    HW132636   4.074   2.208   8.991  0.4823  0.0151  0.2521
 7059SOL    HW232637   4.068   2.346   9.037 -1.8415 -1.2204  0.5179
 7060SOL     OW32638   4.031   4.309  13.917 -0.2038  0.0716 -0.0106
 7060SOL    HW132639   3.998   4.316  14.007  0.8588  2.5041  0.1685
 7060SOL    HW232640   4.114   4.262  13.928 -0.4721  0.3909  3.5236
 7061SOL     OW32641   3.769   3.051   0.271  0.2814 -0.0148  0.3018
 7061SOL    HW132642   3.858   3.078   0.294  0.9183  0.1770 -2.3475
 7061SOL    HW232643   3.721   3.132   0.253 -2.2211 -1.2959  1.2652
 7062SOL     OW32644   0.037   4.300  11.708 -0.2847  0.5904 -0.1750
 7062SOL    HW132645   0.065   4.291  11.799  0.3738 -2.7842 -0.7370
 7062SOL    HW232646   0.036   4.396  11.707 -0.9207  0.5617 -1.7695
 7063SOL     OW32647   1.399   4.585   6.430  0.2104  0.1013  0.0829
 7063SOL    HW132648   1.347   4.542   6.498 -0.6696  0.3361 -0.4289
 7063SOL    HW232649   1.434   4.509   6.386 -1.4957 -0.6128 -0.0566
 7064SOL     OW32650   2.004   2.494   5.367  0.3573  0.1722 -0.3584
 7064SOL    HW132651   2.024   2.587   5.354  0.5525  0.5945  2.8769
 7064SOL    HW232652   1.914   2.500   5.400  0.6058  0.8961  0.1944
 7065SOL     OW32653   4.219   0.148   7.907 -0.2406  0.4561 -0.3181
 7065SOL    HW132654   4.224   0.063   7.863 -1.0813  0.6046 -0.6978
 7065SOL    HW232655   4.148   0.186   7.856 -0.5819  2.4462  1.6094
 7066SOL     OW32656   0.520   4.435   8.238  0.4130  0.4951  0.0511
 7066SOL    HW132657   0.444   4.415   8.291  1.9935 -0.9501  1.7653
 7066SOL    HW232658   0.500   4.399   8.152  1.7976  0.0235 -0.0772
 7067SOL     OW32659   3.228   0.878  10.320  0.1174  0.3249 -0.0422
 7067SOL    HW132660   3.163   0.909  10.257 -0.5504  2.8268  1.9019
 7067SOL    HW232661   3.305   0.846  10.273 -1.4388 -2.2534 -0.8291
 7068SOL     OW32662   2.058   3.108   0.289 -0.3042  0.1449  0.0770
 7068SOL    HW132663   2.016   3.126   0.373 -0.5316 -1.8174  0.3775
 7068SOL    HW232664   2.083   3.199   0.272 -0.2022  0.1822  0.4359
 7069SOL     OW32665   4.464   0.076  14.879 -0.6092  0.4281 -0.1300
 7069SOL    HW132666   4.554   0.045  14.870 -0.1165  0.9367  3.0749
 7069SOL    HW232667   4.410   0.006  14.917 -0.9268  0.1696 -1.0548
 7070SOL     OW32668   0.924   0.678   7.413  0.7165 -0.4811 -0.7453
 7070SOL    HW132669   0.934   0.767   7.447  1.7720 -1.2831  1.0415
 7070SOL    HW232670   0.856   0.690   7.347 -0.6330 -0.0658  0.7340
 7071SOL     OW32671   2.193   3.419  16.850 -0.0677 -0.2020  0.1771
 7071SOL    HW132672   2.159   3.496  16.896 -0.5103 -2.3155  3.3751
 7071SOL    HW232673   2.127   3.406  16.781  0.4016  1.6861 -0.6220
 7072SOL     OW32674   3.647   3.195   9.699  0.3512 -0.0332  0.2833
 7072SOL    HW132675   3.577   3.260   9.696  0.0134 -0.4471 -0.8319
 7072SOL    HW232676   3.690   3.236   9.774  0.7741  2.1667 -1.1754
 7073SOL     OW32677   0.992   0.396   8.371  0.0372  0.0324 -0.0956
 7073SOL    HW132678   0.973   0.488   8.390 -0.2685  0.2909 -1.6459
 7073SOL    HW232679   1.084   0.399   8.342 -0.0387 -2.3724 -0.6114
 7074SOL     OW32680   1.576   1.600   2.769  0.1622  0.0025  0.2204
 7074SOL    HW132681   1.670   1.603   2.787  0.5449  2.2082 -2.1713
 7074SOL    HW232682   1.572   1.649   2.686 -0.2140 -0.0035  0.2326
 7075SOL     OW32683   0.643   3.747  15.150 -0.2829 -0.1683  0.3424
 7075SOL    HW132684   0.606   3.818  15.204  0.1328  0.1279  0.2397
 7075SOL    HW232685   0.729   3.784  15.129  0.0510 -0.8144  0.5712
 7076SOL     OW32686   2.283   4.454   7.841  0.1270  0.2451 -0.2993
 7076SOL    HW132687   2.237   4.416   7.917  3.0815 -0.0079  1.3517
 7076SOL    HW232688   2.356   4.489   7.893  0.6058 -0.3392 -0.5773
 7077SOL     OW32689   0.395   0.000   1.193 -0.4185 -0.6243  0.2166
 7077SOL    HW132690   0.466   0.034   1.247 -0.2846 -0.5789  0.0090
 7077SOL    HW232691   0.410   0.043   1.109  1.5693 -1.3692  0.2067
 7078SOL     OW32692   0.398   4.005   8.951 -0.8148 -0.0804  0.9136
 7078SOL    HW132693   0.467   3.974   9.010 -0.4213 -1.4116 -0.2548
 7078SOL    HW232694   0.454   4.068   8.905 -0.3360  0.2081  1.9027
 7079SOL     OW32695   1.667   0.992   4.703  0.4533 -0.0594 -0.0203
 7079SOL    HW132696   1.729   1.005   4.775  0.9489 -0.4385 -0.3761
 7079SOL    HW232697   1.597   0.968   4.763  0.2925 -0.4632 -0.3678
 7080SOL     OW32698   0.513   1.409   4.658  0.3271  0.3999 -0.0782
 7080SOL    HW132699   0.572   1.461   4.711  0.3454 -0.1441  0.4321
 7080SOL    HW232700   0.527   1.455   4.575 -2.4692 -2.1323 -1.9613
 7081SOL     OW32701   2.522   2.458   1.586 -0.5260 -0.6655  0.2221
 7081SOL    HW132702   2.610   2.482   1.614 -0.3003 -1.0969 -0.1218
 7081SOL    HW232703   2.461   2.527   1.611 -2.3218 -2.9718  2.2700
 7082SOL     OW32704   3.408   0.633   7.088 -0.5666 -0.4086 -0.0391
 7082SOL    HW132705   3.477   0.593   7.141 -0.0201  0.5931  0.0005
 7082SOL    HW232706   3.446   0.645   7.001 -1.2683 -1.2830 -0.4728
 7083SOL     OW32707   4.281   2.331   6.628  0.8044  0.5838 -0.2071
 7083SOL    HW132708   4.356   2.380   6.662  0.7203  0.3751  0.2643
 7083SOL    HW232709   4.211   2.395   6.638 -1.2160 -1.7596  0.4440
 7084SOL     OW32710   3.635   4.482  15.150  0.4939  0.2542 -0.2897
 7084SOL    HW132711   3.630   4.453  15.059 -2.3454  2.5552 -0.8566
 7084SOL    HW232712   3.661   4.395  15.180 -2.8055  0.0854  2.0948
 7085SOL     OW32713   2.297   1.153  17.063 -0.5629 -0.5771 -0.3654
 7085SOL    HW132714   2.291   1.059  17.081  2.5143 -0.9599 -1.3493
 7085SOL    HW232715   2.320   1.160  16.971  0.1608  1.3327 -0.0497
 7086SOL     OW32716   2.863   1.604   5.109  0.6336  0.2960 -0.2982
 7086SOL    HW132717   2.807   1.533   5.139 -0.4068  1.7689  1.2650
 7086SOL    HW232718   2.850   1.580   5.017 -0.2486 -1.9569  0.4260
 7087SOL     OW32719   2.495   1.530   4.874 -0.1077  0.1217  0.7983
 7087SOL    HW132720   2.485   1.546   4.781  0.4217 -0.6850  0.5976
 7087SOL    HW232721   2.574   1.475   4.878  1.8371  2.9927  1.3961
 7088SOL     OW32722   2.981   0.348  11.617 -0.5692 -0.3633 -0.1913
 7088SOL    HW132723   2.960   0.299  11.697  4.0764 -1.9655  0.0895
 7088SOL    HW232724   2.928   0.427  11.627 -1.1681 -0.8630  0.5588
 7089SOL     OW32725   1.775   0.475   3.461 -0.0168  0.4745  0.2965
 7089SOL    HW132726   1.760   0.384   3.436  0.0273  1.3134 -2.7440
 7089SOL    HW232727   1.710   0.522   3.409 -1.8728 -0.1757  2.0203
 7090SOL     OW32728   1.811   1.306   5.000  0.4990  0.6147 -0.1290
 7090SOL    HW132729   1.741   1.241   5.003  0.4203  0.7115  0.1805
 7090SOL    HW232730   1.779   1.367   5.066 -0.8583 -0.6646  0.4076
 7091SOL     OW32731   1.920   2.701   2.551 -0.4705 -0.2274  0.4614
 7091SOL    HW132732   1.942   2.783   2.595 -0.1003  0.2267 -0.5618
 7091SOL    HW232733   2.011   2.689   2.523 -0.4272  0.0899  0.4660
 7092SOL     OW32734   3.630   0.606  14.793  0.0444 -0.4248  0.6072
 7092SOL    HW132735   3.621   0.672  14.862 -1.8702  0.0618 -0.1106
 7092SOL    HW232736   3.582   0.652  14.723  1.4321 -1.4239 -1.0144
 7093SOL     OW32737   3.537   2.662   8.171 -0.1040 -1.0922  0.1108
 7093SOL    HW132738   3.488   2.737   8.205 -0.0402 -0.8860 -0.2401
 7093SOL    HW232739   3.518   2.596   8.237  0.6595 -1.4537 -0.0340
 7094SOL     OW32740   4.583   2.396   6.659  0.2408 -0.6270 -0.3595
 7094SOL    HW132741   4.654   2.364   6.714  0.4558  0.1183 -0.2066
 7094SOL    HW232742   4.574   2.489   6.678 -0.3198 -0.9711  1.1209
 7095SOL     OW32743   3.735   1.298   4.241 -0.4223 -0.2014  0.9983
 7095SOL    HW132744   3.769   1.209   4.254 -1.8810 -0.9106 -0.0550
 7095SOL    HW232745   3.804   1.322   4.179 -0.8695  2.7582  1.6448
 7096SOL     OW32746   0.363   1.402  11.569 -0.0933  0.6601 -0.0393
 7096SOL    HW132747   0.330   1.400  11.659 -0.3547 -3.5125 -0.2195
 7096SOL    HW232748   0.277   1.410  11.526  0.5392  1.8712 -1.0654
 7097SOL     OW32749   3.253   3.722   0.653 -0.2752  0.1891 -0.1699
 7097SOL    HW132750   3.309   3.770   0.714 -2.0243 -0.3099  1.8319
 7097SOL    HW232751   3.292   3.635   0.669  1.1037  0.5404 -1.6488
 7098SOL     OW32752   4.151   2.978   6.559  1.2264  0.1137  0.0362
 7098SOL    HW132753   4.077   3.017   6.604  1.1934  2.3031 -1.9356
 7098SOL    HW232754   4.226   3.021   6.600  0.8645  1.0764 -0.3120
 7099SOL     OW32755   3.881   2.773   0.468  0.0489  0.1711 -0.4831
 7099SOL    HW132756   3.806   2.830   0.487 -1.4639 -0.5693 -4.2089
 7099SOL    HW232757   3.959   2.826   0.452  0.4797 -0.6328 -1.0055
 7100SOL     OW32758   3.821   4.173   8.031  0.3205  0.6906 -0.0471
 7100SOL    HW132759   3.879   4.166   8.107 -0.5346 -1.2444  0.4349
 7100SOL    HW232760   3.843   4.264   8.013 -0.8351  0.9823  0.0339
 7101SOL     OW32761   0.594   0.841   2.693 -0.1759  0.2917  0.2662
 7101SOL    HW132762   0.507   0.868   2.666  0.1471  1.1514  0.1052
 7101SOL    HW232763   0.654   0.867   2.623  0.8130 -2.1353  0.2228
 7102SOL     OW32764   2.762   3.822  10.755 -0.2126 -0.8403  0.3247
 7102SOL    HW132765   2.827   3.891  10.742  1.3605 -2.6676 -1.5296
 7102SOL    HW232766   2.757   3.791  10.665  0.9857  1.9361 -0.6822
 7103SOL     OW32767   3.602   0.720   7.302  0.4150  0.8253  0.0892
 7103SOL    HW132768   3.513   0.716   7.336  1.1359  1.2422  2.0947
 7103SOL    HW232769   3.640   0.798   7.344  1.9132 -0.2742  0.7886
 7104SOL     OW32770   0.581   1.780   7.547  0.3081 -0.5158  0.1314
 7104SOL    HW132771   0.575   1.819   7.635  1.0181  0.5105 -0.2673
 7104SOL    HW232772   0.562   1.860   7.498  0.1325 -1.3618 -1.1915
 7105SOL     OW32773   4.216   2.506  17.035  0.1578 -0.4337 -0.2247
 7105SOL    HW132774   4.307   2.476  17.043  0.5889  0.6346 -1.2975
 7105SOL    HW232775   4.168   2.424  17.044 -1.0824  0.4666  1.3747
 7106SOL     OW32776   1.080   3.471   8.987 -0.1426  0.4218  0.4051
 7106SOL    HW132777   1.080   3.449   9.081 -0.1449  1.0948  0.5609
 7106SOL    HW232778   1.167   3.445   8.959  0.2986  1.3079  0.9512
 7107SOL     OW32779   0.016   0.620  10.036  0.1271 -0.8929 -0.8978
 7107SOL    HW132780   4.653   0.658  10.061  0.1505 -0.2296 -1.8439
 7107SOL    HW232781   0.001   0.528  10.012 -2.5971 -0.6883  0.0002
 7108SOL     OW32782   2.521   3.698  10.729 -0.2820  0.0605 -0.0103
 7108SOL    HW132783   2.558   3.661  10.649 -0.0618 -0.0215  0.1284
 7108SOL    HW232784   2.580   3.772  10.740 -1.2032  1.0285 -1.7025
 7109SOL     OW32785   2.236   3.441   7.474 -0.3082 -0.3258 -0.1135
 7109SOL    HW132786   2.185   3.460   7.553  0.8596  0.8305  0.3569
 7109SOL    HW232787   2.196   3.505   7.415  0.7705 -0.7971 -1.3562
 7110SOL     OW32788   2.237   1.057   6.227  0.0320 -0.6812 -0.2158
 7110SOL    HW132789   2.146   1.082   6.241  0.4826  0.4591  0.7692
 7110SOL    HW232790   2.278   1.048   6.314 -3.8004  1.6708  1.8208
 7111SOL     OW32791   2.502   0.722   8.186 -0.0937  0.5468 -0.2487
 7111SOL    HW132792   2.494   0.638   8.232  1.3888  0.7810  0.4478
 7111SOL    HW232793   2.449   0.775   8.245  0.1848 -0.8761  1.3012
 7112SOL     OW32794   3.295   1.618   8.409 -0.2338 -0.2298 -0.0991
 7112SOL    HW132795   3.339   1.559   8.471 -0.2274  1.9992  1.9889
 7112SOL    HW232796   3.279   1.696   8.462  0.4510 -0.1555 -0.0066
 7113SOL     OW32797   1.010   3.508   3.456 -0.3348  0.6649  0.8712
 7113SOL    HW132798   1.087   3.564   3.461  0.8978 -0.7947 -2.0729
 7113SOL    HW232799   0.987   3.524   3.365  0.2823  1.6689  0.8918
 7114SOL     OW32800   4.224   4.648  14.510  0.0727 -0.0331  0.0755
 7114SOL    HW132801   4.148   4.690  14.469  0.0146  1.0894  1.3598
 7114SOL    HW232802   4.204   4.556  14.492  0.3256  0.0194 -0.4597
 7115SOL     OW32803   0.081   0.917   8.893  0.0189  0.0986 -0.3843
 7115SOL    HW132804   0.019   0.948   8.958 -0.7290 -1.8003 -0.1820
 7115SOL    HW232805   0.135   0.996   8.893  0.9067 -0.5015  0.5986
 7116SOL     OW32806   1.101   2.855   5.962 -0.3235 -0.6882  0.0360
 7116SOL    HW132807   1.063   2.886   6.044 -1.4754 -1.0952 -0.3426
 7116SOL    HW232808   1.117   2.932   5.906 -0.0966 -0.1999  0.7802
 7117SOL     OW32809   4.324   2.221   7.690  0.1747  0.3217 -0.2156
 7117SOL    HW132810   4.241   2.251   7.727  0.1821  0.4803 -0.3261
 7117SOL    HW232811   4.360   2.305   7.662 -0.5087  0.5804 -0.3410
 7118SOL     OW32812   1.739   1.858  15.792  0.2790  0.0566 -0.1749
 7118SOL    HW132813   1.829   1.830  15.779 -0.0575 -0.0098 -2.2431
 7118SOL    HW232814   1.727   1.928  15.728  0.8928  0.4182  0.1094
 7119SOL     OW32815   1.559   4.490   4.893 -0.0388 -0.0385  0.2704
 7119SOL    HW132816   1.522   4.491   4.805 -1.5487 -1.2395  0.8905
 7119SOL    HW232817   1.650   4.486   4.865  0.0930  2.6535  0.3140
 7120SOL     OW32818   0.443   2.595   7.739  0.3664  0.0852  0.3837
 7120SOL    HW132819   0.462   2.688   7.737  1.0512  0.0066  2.7946
 7120SOL    HW232820   0.361   2.588   7.789 -0.2069  1.7978 -0.3154
 7121SOL     OW32821   0.889   1.468   4.034  0.4904  0.6404  0.8271
 7121SOL    HW132822   0.929   1.436   3.953  0.0611 -0.6839  1.1381
 7121SOL    HW232823   0.834   1.529   3.985 -2.0326  0.0272  2.9082
 7122SOL     OW32824   3.130   2.141   2.282  0.3978  0.2051  0.1090
 7122SOL    HW132825   3.109   2.051   2.304 -0.6143 -0.1244 -2.2677
 7122SOL    HW232826   3.115   2.184   2.367 -0.9263  0.0151 -0.0408
 7123SOL     OW32827   2.478   2.125   4.834 -0.0794  0.0292 -0.6515
 7123SOL    HW132828   2.448   2.215   4.843 -0.1463 -0.0155 -0.4382
 7123SOL    HW232829   2.513   2.130   4.744  1.4340  2.2221  0.0560
 7124SOL     OW32830   1.260   1.409   6.268 -0.4113 -0.1393 -0.0836
 7124SOL    HW132831   1.276   1.400   6.174  1.7763  0.7183  0.2183
 7124SOL    HW232832   1.193   1.341   6.282  0.4200 -0.6522  1.3661
 7125SOL     OW32833   2.558   2.429   6.538  0.4534 -0.2397  0.5142
 7125SOL    HW132834   2.510   2.346   6.528  2.8982 -1.6360  0.4213
 7125SOL    HW232835   2.582   2.443   6.446  0.8847 -4.0315  0.0409
 7126SOL     OW32836   4.379   3.015  11.340 -0.0130 -0.4535 -0.7364
 7126SOL    HW132837   4.414   3.103  11.331  2.2803 -1.1198  1.8753
 7126SOL    HW232838   4.448   2.962  11.380  0.6874  0.7793 -0.3235
 7127SOL     OW32839   2.149   1.431  12.956  0.1540 -0.2216  0.3851
 7127SOL    HW132840   2.165   1.430  12.862  2.5232  0.6506  0.7726
 7127SOL    HW232841   2.202   1.504  12.989  0.9428 -1.1730  1.2220
 7128SOL     OW32842   4.377   4.611   2.813  0.0248  0.0358  0.4345
 7128SOL    HW132843   4.441   4.541   2.825 -1.7944 -1.2256  2.8033
 7128SOL    HW232844   4.291   4.570   2.827  0.5339 -0.4101  2.2203
 7129SOL     OW32845   3.217   2.382   7.984  0.1024 -0.1098  0.0079
 7129SOL    HW132846   3.205   2.455   8.045  2.1004 -0.1755  0.4767
 7129SOL    HW232847   3.311   2.363   7.981 -0.1360 -1.0292 -1.3624
 7130SOL     OW32848   3.676   1.625   4.731 -0.4410  0.1929 -0.7271
 7130SOL    HW132849   3.595   1.644   4.777  0.2118  1.9958 -0.3144
 7130SOL    HW232850   3.677   1.689   4.660 -2.1963  0.5428 -0.4269
 7131SOL     OW32851   1.930   1.798  16.778 -0.3784  0.2435 -0.0090
 7131SOL    HW132852   1.973   1.815  16.861 -0.2329 -2.0754  0.4037
 7131SOL    HW232853   1.978   1.861  16.724  2.1142 -1.7055 -0.0536
 7132SOL     OW32854   4.386   4.649   0.149  0.2601  0.2225  0.3523
 7132SOL    HW132855   4.456   4.705   0.181  1.1491  0.1555 -1.4716
 7132SOL    HW232856   4.403   4.573   0.205 -0.0335 -1.2358 -1.5032
 7133SOL     OW32857   3.903   0.229   6.952  0.2293  0.2431 -0.6956
 7133SOL    HW132858   3.929   0.257   6.864  3.0053 -0.0630  0.0273
 7133SOL    HW232859   3.912   0.136   6.936 -0.2544 -0.2054  1.5894
 7134SOL     OW32860   2.502   4.247   1.950  0.1841  0.0080  0.4954
 7134SOL    HW132861   2.539   4.224   2.035  2.0573  0.9506 -0.0658
 7134SOL    HW232862   2.436   4.312   1.975 -1.6642 -1.7463  0.1724
 7135SOL     OW32863   3.224   2.994   7.114 -0.0914 -0.0055 -0.2985
 7135SOL    HW132864   3.204   3.003   7.207 -0.8382  0.2465 -0.4778
 7135SOL    HW232865   3.307   3.040   7.105 -0.5654  1.1471  1.1105
 7136SOL     OW32866   0.437   1.023   4.656  0.2904  0.2703  0.4116
 7136SOL    HW132867   0.433   0.933   4.625  0.1940  0.0719  1.0191
 7136SOL    HW232868   0.358   1.036   4.707 -0.0981  0.3410 -0.2073
 7137SOL     OW32869   4.563   3.134   7.757 -0.1278  0.2754  0.5322
 7137SOL    HW132870   4.625   3.123   7.684  0.6236 -0.8453  1.3331
 7137SOL    HW232871   4.481   3.130   7.707  1.5469  0.2426 -2.2107
 7138SOL     OW32872   1.770   3.276   0.600 -0.3698 -0.5100 -0.1600
 7138SOL    HW132873   1.790   3.351   0.656 -2.4926 -0.3234  0.3422
 7138SOL    HW232874   1.857   3.247   0.572 -0.9254 -1.8569 -0.5075
 7139SOL     OW32875   1.642   4.485   1.684 -0.1722 -0.0646 -0.0895
 7139SOL    HW132876   1.604   4.553   1.627  0.8704  1.3099  0.8446
 7139SOL    HW232877   1.560   4.442   1.708 -0.0331 -0.7580 -0.8671
 7140SOL     OW32878   3.433   3.768   8.353  0.0160  0.1344  0.7799
 7140SOL    HW132879   3.502   3.730   8.408  0.0709  1.4714  1.6297
 7140SOL    HW232880   3.364   3.743   8.415 -0.3105 -1.7897 -0.3557
 7141SOL     OW32881   1.393   0.507   1.130  0.1211 -0.3207 -0.3911
 7141SOL    HW132882   1.361   0.585   1.087 -0.4621  1.0005  2.4293
 7141SOL    HW232883   1.448   0.553   1.194  0.3902  1.2454 -1.7718
 7142SOL     OW32884   3.167   3.200   2.630 -0.0221 -0.6369  0.1351
 7142SOL    HW132885   3.237   3.255   2.594  0.8115 -1.1502  0.9512
 7142SOL    HW232886   3.122   3.175   2.550  1.5209 -0.7755 -0.6927
 7143SOL     OW32887   3.071   2.897   4.945 -0.5018  0.0708 -0.2169
 7143SOL    HW132888   3.113   2.953   4.879 -0.1720  0.2452  0.1420
 7143SOL    HW232889   3.128   2.820   4.946 -1.4222 -0.5927  0.8662
 7144SOL     OW32890   0.942   3.612   4.793  0.5663 -0.4957 -0.4129
 7144SOL    HW132891   0.899   3.697   4.785 -1.5889 -1.4990  0.3492
 7144SOL    HW232892   1.010   3.623   4.727  0.6716 -0.8945 -0.3673
 7145SOL     OW32893   2.256   1.051   7.384  0.4693  0.4010  0.2786
 7145SOL    HW132894   2.318   1.113   7.424  0.2153  1.4362 -0.9052
 7145SOL    HW232895   2.201   1.107   7.329  1.7470 -0.1952 -1.6160
 7146SOL     OW32896   3.597   3.797   4.709 -0.1300 -0.2499  0.5075
 7146SOL    HW132897   3.649   3.835   4.779  1.0521 -0.8410 -0.0421
 7146SOL    HW232898   3.575   3.876   4.659 -1.8531 -0.9312  0.1850
 7147SOL     OW32899   3.845   3.112   3.478 -0.0557  0.0667 -0.9745
 7147SOL    HW132900   3.931   3.088   3.443 -0.0787  0.7744 -1.5028
 7147SOL    HW232901   3.813   3.158   3.401 -1.0365  0.9117 -0.0524
 7148SOL     OW32902   3.902   1.275   4.018 -0.2013 -0.0884 -0.1696
 7148SOL    HW132903   3.975   1.321   4.059 -1.1326  0.6460  0.6851
 7148SOL    HW232904   3.957   1.211   3.975 -1.4134 -1.6571  0.6093
 7149SOL     OW32905   2.478   0.976   9.501 -0.1472  0.0027 -0.0638
 7149SOL    HW132906   2.416   0.905   9.487  0.8277 -0.6045 -1.2508
 7149SOL    HW232907   2.425   1.033   9.557  0.0311 -1.7784  1.8864
 7150SOL     OW32908   1.753   2.923   7.079 -0.3365 -0.5389 -0.1967
 7150SOL    HW132909   1.840   2.890   7.104 -0.0556  0.4566  0.1362
 7150SOL    HW232910   1.736   2.879   6.996  0.5087 -0.5822 -0.3460
 7151SOL     OW32911   0.389   1.803   3.834 -0.0250  0.8776 -0.3861
 7151SOL    HW132912   0.436   1.784   3.916 -0.5315  0.0565 -0.2885
 7151SOL    HW232913   0.388   1.715   3.796 -0.4475  0.2293  1.1387
 7152SOL     OW32914   1.173   4.059   0.708 -0.1436 -0.3532  0.2668
 7152SOL    HW132915   1.167   4.058   0.613  0.0469 -1.2984  0.2669
 7152SOL    HW232916   1.114   4.127   0.740 -0.8748 -0.5266 -0.7300
 7153SOL     OW32917   1.942   2.042  16.140  0.0765 -0.3540  0.2536
 7153SOL    HW132918   1.855   2.070  16.111 -0.4226  0.7815  2.7984
 7153SOL    HW232919   1.971   2.117  16.191 -1.6385  1.0653 -0.8530
 7154SOL     OW32920   0.210   3.648  16.452 -0.1060 -0.3815 -0.3343
 7154SOL    HW132921   0.185   3.640  16.544 -0.1507 -1.7725 -0.4679
 7154SOL    HW232922   0.299   3.684  16.457  0.2701 -1.5325  1.2850
 7155SOL     OW32923   1.477   4.342   8.362  0.4589 -0.0398 -0.3347
 7155SOL    HW132924   1.556   4.381   8.401 -0.2511  1.0918 -0.0402
 7155SOL    HW232925   1.407   4.400   8.392  0.3072 -0.2167 -0.3495
 7156SOL     OW32926   0.634   3.282   5.072  0.5122 -0.0986 -0.0382
 7156SOL    HW132927   0.662   3.258   5.161 -0.4203  1.3543  0.6582
 7156SOL    HW232928   0.679   3.365   5.059 -1.4545  1.2391  1.7654
 7157SOL     OW32929   3.025   1.887   8.039  0.1386  0.2312 -0.4323
 7157SOL    HW132930   3.111   1.851   8.016 -0.3401 -1.7151  0.8732
 7157SOL    HW232931   3.033   1.971   7.993 -1.7445  0.2864 -0.6310
 7158SOL     OW32932   0.230   2.865   4.601 -0.1353  0.2818  0.8188
 7158SOL    HW132933   0.275   2.884   4.683 -0.2131  2.8168  0.2846
 7158SOL    HW232934   0.194   2.951   4.580 -1.4757 -0.3294  0.5833
 7159SOL     OW32935   0.320   1.624   0.243 -0.4502  0.0573  0.4065
 7159SOL    HW132936   0.355   1.593   0.327 -0.5162  0.0321  0.4247
 7159SOL    HW232937   0.388   1.690   0.228 -0.6470 -0.1797 -1.5187
 7160SOL     OW32938   1.781   0.743   9.336  0.1313 -0.2232 -0.2399
 7160SOL    HW132939   1.692   0.710   9.338  0.3023 -0.7179 -0.9196
 7160SOL    HW232940   1.826   0.659   9.323  1.7557  0.5117  0.5935
 7161SOL     OW32941   4.196   1.713  14.748 -0.3708  0.5750  0.0426
 7161SOL    HW132942   4.113   1.700  14.793  0.5211 -1.2283  1.1610
 7161SOL    HW232943   4.173   1.769  14.674 -1.1355  0.5538  0.2686
 7162SOL     OW32944   4.418   3.582   7.205  0.2513 -0.7830  0.0068
 7162SOL    HW132945   4.343   3.605   7.260 -0.2096 -1.4581 -0.3396
 7162SOL    HW232946   4.404   3.490   7.227  0.3199 -0.4317  1.5678
 7163SOL     OW32947   4.364   1.976  13.865 -0.4471  0.4390 -0.7052
 7163SOL    HW132948   4.330   1.906  13.922 -0.0131 -0.2954 -1.3392
 7163SOL    HW232949   4.370   1.932  13.780 -0.4354  1.7346 -1.3692
 7164SOL     OW32950   3.798   3.620   4.980  0.4488 -0.5203 -0.1632
 7164SOL    HW132951   3.784   3.642   5.073  1.8435 -2.9549  0.6165
 7164SOL    HW232952   3.893   3.614   4.974  0.6077  0.1071  1.5482
 7165SOL     OW32953   3.435   2.514   8.394 -0.1513 -0.4564  0.7240
 7165SOL    HW132954   3.463   2.423   8.382  0.9523 -0.0061 -0.0603
 7165SOL    HW232955   3.465   2.523   8.484  0.6663 -0.8713  0.4906
 7166SOL     OW32956   2.390   1.728  17.233 -0.3026  0.0284 -0.1408
 7166SOL    HW132957   2.347   1.805  17.197  0.5744 -0.0783 -1.4367
 7166SOL    HW232958   2.395   1.744  17.328 -3.0921 -1.7419  0.2796
 7167SOL     OW32959   3.159   0.148   3.014 -0.9979 -0.8604 -0.3675
 7167SOL    HW132960   3.112   0.204   3.076 -0.0288  0.6656 -1.0043
 7167SOL    HW232961   3.208   0.092   3.075  0.4566  1.3338  0.4630
 7168SOL     OW32962   4.547   1.132   4.002  0.8199  0.7717  0.3104
 7168SOL    HW132963   4.522   1.223   4.016  0.1224  0.4618  1.0739
 7168SOL    HW232964   4.460   1.092   3.992  0.6255  0.8635  1.6542
 7169SOL     OW32965   1.703   4.279   4.548 -0.2917  0.5461  0.0472
 7169SOL    HW132966   1.664   4.211   4.603  0.3729 -1.9716 -2.6263
 7169SOL    HW232967   1.731   4.213   4.485  1.0041  1.3722 -0.2455
 7170SOL     OW32968   4.666   2.457  11.491  0.2701 -0.0071  0.8511
 7170SOL    HW132969   4.581   2.460  11.449  1.5174  0.1034 -1.6220
 7170SOL    HW232970   4.652   2.532  11.550 -2.1150 -1.1256  1.7027
 7171SOL     OW32971   2.918   1.356  12.001  0.0591 -0.1493 -0.0313
 7171SOL    HW132972   2.946   1.319  12.085 -1.3940  1.0871  1.0200
 7171SOL    HW232973   2.957   1.287  11.948 -0.7531  0.1595 -1.0445
 7172SOL     OW32974   0.931   1.234   4.618 -0.6629 -0.2613  0.4286
 7172SOL    HW132975   0.848   1.186   4.623 -1.8219  1.6375 -0.4267
 7172SOL    HW232976   0.992   1.170   4.655 -2.8011 -3.5897 -1.7838
 7173SOL     OW32977   0.129   2.159   0.785  0.0749 -0.6099  0.1183
 7173SOL    HW132978   0.055   2.140   0.727 -0.3905 -0.5918  0.7089
 7173SOL    HW232979   0.107   2.246   0.817 -0.8919 -1.0992  0.7754
 7174SOL     OW32980   0.989   2.689   4.480  0.6769 -1.6375  0.0633
 7174SOL    HW132981   0.988   2.655   4.570 -1.6815 -0.1510  0.5931
 7174SOL    HW232982   0.922   2.756   4.489 -0.6827 -2.9513 -0.2771
 7175SOL     OW32983   2.372   1.776   1.783  0.5060  0.1622 -0.1226
 7175SOL    HW132984   2.454   1.765   1.735  0.6205  1.1641 -0.1722
 7175SOL    HW232985   2.385   1.855   1.836  0.5763  0.0296  0.0578
 7176SOL     OW32986   2.086   2.552   9.015  0.2254  0.4045 -0.4801
 7176SOL    HW132987   2.034   2.472   9.013 -0.1628  0.6307  1.0191
 7176SOL    HW232988   2.033   2.605   9.075  0.5962  0.5607 -0.2874
 7177SOL     OW32989   3.202   0.383   6.074 -0.1965  0.1531  0.5342
 7177SOL    HW132990   3.263   0.355   6.142  2.1002  0.9835 -1.1778
 7177SOL    HW232991   3.213   0.476   6.096 -0.0703  0.2446  0.0976
 7178SOL     OW32992   3.310   2.745   8.546  0.4116  0.4406 -0.1795
 7178SOL    HW132993   3.254   2.771   8.619  0.0341 -0.4972 -0.1391
 7178SOL    HW232994   3.266   2.668   8.512  1.0234  0.4646 -1.0167
 7179SOL     OW32995   3.406   3.137   3.695 -0.3993  0.1162  0.0977
 7179SOL    HW132996   3.440   3.109   3.780 -1.4285 -0.5147  0.3024
 7179SOL    HW232997   3.324   3.178   3.722 -0.1341 -0.7445  2.2137
 7180SOL     OW32998   4.164   4.203   2.775 -0.2582 -0.2221 -0.4883
 7180SOL    HW132999   4.239   4.209   2.715  0.5720  0.1122  0.5935
 7180SOL    HW233000   4.153   4.294   2.802  0.7453 -0.1162 -0.4525
 7181SOL     OW33001   0.996   4.211   9.796  0.3283 -0.0586  0.3909
 7181SOL    HW133002   1.059   4.172   9.736 -0.1556 -0.2014 -0.0201
 7181SOL    HW233003   1.005   4.307   9.796 -1.2693  0.0972  1.7150
 7182SOL     OW33004   1.947   0.049   3.224  0.3286 -0.3216  0.1933
 7182SOL    HW133005   1.990   0.134   3.231  0.8277 -0.2226 -3.9034
 7182SOL    HW233006   1.949   0.042   3.128  0.8694  0.8440  0.1190
 7183SOL     OW33007   3.062   0.519   8.913 -0.2060  0.2642 -0.6135
 7183SOL    HW133008   2.992   0.464   8.879 -0.5014 -0.9181  1.9476
 7183SOL    HW233009   3.144   0.470   8.907  1.2427  2.0712  4.0273
 7184SOL     OW33010   0.487   2.241   1.690  0.0410 -0.0393  0.3451
 7184SOL    HW133011   0.431   2.256   1.766  2.4827 -0.8679  2.3140
 7184SOL    HW233012   0.517   2.330   1.671  0.1719  0.0653  1.0306
 7185SOL     OW33013   3.013   1.405   7.961  0.1822 -0.0750  0.1280
 7185SOL    HW133014   3.071   1.369   8.029 -0.1971 -1.2758 -0.1818
 7185SOL    HW233015   2.945   1.458   8.002 -0.5360  1.5117 -3.1194
 7186SOL     OW33016   1.073   4.397   7.152 -0.5417 -0.7431  0.5026
 7186SOL    HW133017   1.155   4.380   7.199  0.8530  0.2038 -1.6198
 7186SOL    HW233018   1.004   4.405   7.219 -1.9571 -0.7144 -0.9727
 7187SOL     OW33019   2.015   3.673   5.802  0.1709 -0.2605  0.2349
 7187SOL    HW133020   1.922   3.661   5.819  0.0260  0.7484  0.1452
 7187SOL    HW233021   2.029   3.748   5.861  0.8138  0.5607 -0.9499
 7188SOL     OW33022   4.155   0.158   2.222  0.2285  0.5073  0.0992
 7188SOL    HW133023   4.223   0.093   2.204  0.7292  0.8090  0.8873
 7188SOL    HW233024   4.175   0.224   2.156  0.1231 -0.1959 -0.6305
 7189SOL     OW33025   0.674   2.289   6.876  0.0360  0.4754 -0.4191
 7189SOL    HW133026   0.660   2.380   6.903  0.4136  0.2176  0.6203
 7189SOL    HW233027   0.584   2.260   6.858  0.1466  0.0291 -0.2444
 7190SOL     OW33028   0.836   4.285   9.374  0.3009 -0.1367  0.0782
 7190SOL    HW133029   0.751   4.250   9.348 -1.3711  2.5586  1.9466
 7190SOL    HW233030   0.895   4.263   9.302 -1.0177 -0.6742 -0.8443
 7191SOL     OW33031   4.050   0.517  10.277 -0.3428  0.1242  0.2711
 7191SOL    HW133032   4.024   0.484  10.363  1.9003  1.7538  1.5771
 7191SOL    HW233033   4.141   0.487  10.269 -0.9907 -1.5918 -0.6362
 7192SOL     OW33034   4.555   1.594   4.938 -0.4346  0.0896 -0.0105
 7192SOL    HW133035   4.497   1.559   4.871  1.4927  2.3555 -2.8949
 7192SOL    HW233036   4.516   1.590   5.025 -0.3675  1.1498  0.0785
 7193SOL     OW33037   1.885   0.217   4.729 -0.4747  0.2359  0.2070
 7193SOL    HW133038   1.967   0.263   4.710 -1.4411  1.0114 -2.0108
 7193SOL    HW233039   1.895   0.132   4.686 -2.5351  0.0393  0.1386
 7194SOL     OW33040   3.596   2.516   7.291 -0.4521 -0.3451 -0.1542
 7194SOL    HW133041   3.669   2.564   7.252 -0.9597  0.2075 -0.4171
 7194SOL    HW233042   3.589   2.444   7.228 -1.7299  0.2283 -0.6741
 7195SOL     OW33043   3.357   0.315   3.974  0.6477  0.7034  0.4045
 7195SOL    HW133044   3.418   0.322   4.048  0.8690  1.1613  0.1820
 7195SOL    HW233045   3.408   0.264   3.911 -0.2267  1.4117 -0.8659
 7196SOL     OW33046   2.010   4.039   3.674 -0.6302 -0.2812 -0.3618
 7196SOL    HW133047   2.052   4.103   3.731 -2.4153  1.3802 -0.9076
 7196SOL    HW233048   1.999   4.089   3.593  0.8438  1.5287  0.5436
 7197SOL     OW33049   1.157   2.124   3.683  0.0488 -0.7039 -0.6665
 7197SOL    HW133050   1.063   2.126   3.663 -0.7084 -1.7814  2.8096
 7197SOL    HW233051   1.183   2.210   3.649 -0.3508 -0.0918  0.5792
 7198SOL     OW33052   0.657   2.764   4.393  0.0482 -0.3239 -0.3056
 7198SOL    HW133053   0.702   2.728   4.317  1.0971 -2.2914  1.2386
 7198SOL    HW233054   0.567   2.779   4.364  0.7662  1.7821 -1.4316
 7199SOL     OW33055   0.490   0.184   6.766  0.5378 -0.1046 -0.7041
 7199SOL    HW133056   0.575   0.141   6.757  0.1664 -0.8987 -0.3636
 7199SOL    HW233057   0.458   0.145   6.847 -3.1402  0.1691 -2.0265
 7200SOL     OW33058   0.748   1.568   1.868  0.2417 -0.0204 -0.3530
 7200SOL    HW133059   0.838   1.576   1.835  0.7152 -2.9090  0.2331
 7200SOL    HW233060   0.760   1.532   1.956 -0.3359  1.4671  0.3284
 7201SOL     OW33061   2.405   4.596   6.869 -0.8624  0.2855  0.8328
 7201SOL    HW133062   2.424   4.686   6.845  1.0564 -0.6158 -0.9671
 7201SOL    HW233063   2.382   4.563   6.782  1.0936 -1.6740  1.0376
 7202SOL     OW33064   3.446   3.294  15.176  0.0658 -0.5665  0.2160
 7202SOL    HW133065   3.382   3.249  15.121  0.4656  0.4092 -1.0348
 7202SOL    HW233066   3.391   3.353  15.228  1.6199 -1.0305  2.3453
 7203SOL     OW33067   1.941   0.697   1.639 -0.3950 -0.5911  0.2927
 7203SOL    HW133068   1.862   0.682   1.587 -0.1365 -0.8814 -0.0216
 7203SOL    HW233069   1.954   0.606   1.664 -0.2758 -0.4352  0.7845
 7204SOL     OW33070   0.124   0.453   2.553  0.0058  0.2100 -0.4266
 7204SOL    HW133071   0.172   0.371   2.548  2.0645  1.3364  1.0346
 7204SOL    HW233072   0.056   0.418   2.610 -0.8723 -0.0340 -1.6141
 7205SOL     OW33073   2.736   3.719   5.760 -0.1669  0.0867  0.2404
 7205SOL    HW133074   2.687   3.683   5.833  0.6290 -3.2701 -0.9088
 7205SOL    HW233075   2.822   3.725   5.800 -0.3007  1.8722  0.2815
 7206SOL     OW33076   3.039   2.724   2.594 -0.3019  0.1907 -0.0864
 7206SOL    HW133077   3.109   2.785   2.616  1.3191 -2.0194  0.7732
 7206SOL    HW233078   2.962   2.755   2.642 -0.8109 -0.3542 -0.5516
 7207SOL     OW33079   1.129   4.221   6.564 -0.1528 -0.3303 -0.5164
 7207SOL    HW133080   1.133   4.132   6.600 -0.7335 -0.5471 -0.9870
 7207SOL    HW233081   1.034   4.226   6.572 -0.0162  0.7435  0.5251
 7208SOL     OW33082   0.260   0.705   9.068  0.2783 -0.1352  0.1827
 7208SOL    HW133083   0.250   0.794   9.036 -1.4428 -0.5939 -0.5659
 7208SOL    HW233084   0.175   0.665   9.050  0.2945 -0.4009  0.7073
 7209SOL     OW33085   4.338   0.957   4.612 -0.3655  0.0167  0.0407
 7209SOL    HW133086   4.271   1.017   4.645  1.0409  1.1328  0.8624
 7209SOL    HW233087   4.295   0.919   4.536  0.5858 -0.8514 -0.0626
 7210SOL     OW33088   3.220   0.854   3.436 -0.0968  0.3076 -0.3667
 7210SOL    HW133089   3.204   0.899   3.353 -0.8219  2.9074  1.1799
 7210SOL    HW233090   3.151   0.787   3.440  0.1952 -0.0248 -0.8440
 7211SOL     OW33091   0.773   3.936   1.495 -0.0080  0.0041  0.8254
 7211SOL    HW133092   0.794   3.842   1.497  1.9103  0.3804 -0.7535
 7211SOL    HW233093   0.849   3.975   1.539 -0.3065  1.0553  0.3888
 7212SOL     OW33094   1.307   4.455   5.867  0.4827  0.0303 -0.3925
 7212SOL    HW133095   1.288   4.466   5.960  0.4141 -1.2633 -0.2608
 7212SOL    HW233096   1.247   4.524   5.840 -0.1275  0.8095  2.9787
 7213SOL     OW33097   2.408   2.949   5.450  0.4573  0.4462 -0.0526
 7213SOL    HW133098   2.317   2.955   5.480 -0.0932  0.4837 -1.7013
 7213SOL    HW233099   2.448   2.904   5.523 -1.2613 -0.2834  0.4422
 7214SOL     OW33100   4.270   4.511   6.351 -0.1479 -0.0910 -0.0751
 7214SOL    HW133101   4.287   4.466   6.268  1.9433  0.0566  0.2779
 7214SOL    HW233102   4.327   4.471   6.417  0.1066 -1.3033 -1.0303
 7215SOL     OW33103   2.026   1.915   5.324  0.2188 -0.2597 -0.3566
 7215SOL    HW133104   2.005   2.007   5.336 -0.0567 -0.3856  0.1244
 7215SOL    HW233105   2.120   1.917   5.344  0.3505  0.0788 -1.0166
 7216SOL     OW33106   1.890   4.309   9.113  0.5145  0.2692 -0.1889
 7216SOL    HW133107   1.904   4.285   9.204  1.1882  0.8577 -0.1358
 7216SOL    HW233108   1.946   4.385   9.097  1.3289 -0.6663 -1.8217
 7217SOL     OW33109   3.025   4.494  10.223  0.0758  0.4614 -0.8923
 7217SOL    HW133110   3.017   4.584  10.192  1.1537  1.3177  1.3276
 7217SOL    HW233111   2.992   4.445  10.148  0.9760 -1.5606  0.0403
 7218SOL     OW33112   0.866   1.786  10.826 -0.2699 -0.0662 -0.2496
 7218SOL    HW133113   0.957   1.813  10.836  0.0020 -0.3619 -1.8794
 7218SOL    HW233114   0.874   1.691  10.828  1.4093  0.0868  0.5493
 7219SOL     OW33115   3.313   0.066   7.816  0.4235 -0.1144  0.2389
 7219SOL    HW133116   3.346   0.059   7.726 -1.1324  3.4156 -0.5659
 7219SOL    HW233117   3.389   0.112   7.852 -0.0423  0.3739  0.5870
 7220SOL     OW33118   2.896   3.191  16.792  0.0630  0.2082 -0.4082
 7220SOL    HW133119   2.934   3.116  16.745  1.1370  1.2677 -1.2366
 7220SOL    HW233120   2.806   3.160  16.802 -0.3098  1.2824 -0.4856
 7221SOL     OW33121   1.814   3.415   0.273  0.1926 -0.0560 -0.0841
 7221SOL    HW133122   1.724   3.448   0.272 -0.1307 -0.9663 -1.2315
 7221SOL    HW233123   1.794   3.322   0.257 -0.2124  0.1477 -0.7705
 7222SOL     OW33124   1.917   3.516   0.034  0.0805  0.0640  0.2603
 7222SOL    HW133125   1.877   3.481   0.114  0.4019 -0.2237  0.2940
 7222SOL    HW233126   1.875   3.602   0.024 -0.1844 -0.2489 -1.3246
 7223SOL     OW33127   1.789   3.688   1.152  0.4023  0.8340 -0.0009
 7223SOL    HW133128   1.784   3.654   1.062  1.0678 -2.7175  1.3136
 7223SOL    HW233129   1.772   3.781   1.133  1.8530  1.3989  1.5032
 7224SOL     OW33130   4.100   3.690   2.745 -0.2025  0.1007  0.1143
 7224SOL    HW133131   4.117   3.746   2.669  2.5630 -1.0841 -0.1381
 7224SOL    HW233132   4.087   3.604   2.706 -2.4840  1.6096 -2.4282
 7225SOL     OW33133   0.599   0.619  16.258 -0.1985  0.2713  0.1610
 7225SOL    HW133134   0.527   0.562  16.283 -0.2892  0.5707  0.5750
 7225SOL    HW233135   0.584   0.651  16.169  2.2500  0.3051 -0.2496
 7226SOL     OW33136   3.978   0.123  13.798  0.2974 -0.0394  0.5845
 7226SOL    HW133137   3.991   0.182  13.872  0.4698 -0.1314  0.6285
 7226SOL    HW233138   3.998   0.037  13.835 -0.8322 -0.0026  1.2808
 7227SOL     OW33139   1.663   1.722  16.790  0.3381  0.2932 -0.7162
 7227SOL    HW133140   1.655   1.817  16.783  0.7919  0.3786 -0.0380
 7227SOL    HW233141   1.753   1.718  16.758  0.0403 -0.0525 -1.5100
 7228SOL     OW33142   1.292   1.110   4.233  0.1991 -0.2721 -0.4679
 7228SOL    HW133143   1.350   1.158   4.292  2.5543 -1.3660 -1.9119
 7228SOL    HW233144   1.259   1.186   4.185  0.0531 -0.7124 -1.0628
 7229SOL     OW33145   0.594   0.592  13.808  0.3267 -0.0121  0.3208
 7229SOL    HW133146   0.568   0.584  13.716  0.9653  1.6596  0.0043
 7229SOL    HW233147   0.515   0.578  13.860 -0.4234  0.4490 -0.6858
 7230SOL     OW33148   2.173   1.754   9.722 -0.2435 -0.4371  0.3098
 7230SOL    HW133149   2.119   1.813   9.775  1.3680 -0.2981  1.8037
 7230SOL    HW233150   2.258   1.762   9.765  0.2491  0.9542 -0.9146
 7231SOL     OW33151   3.263   4.366   3.754 -0.7283  0.0694 -0.6473
 7231SOL    HW133152   3.278   4.296   3.690 -0.0311 -2.2354  2.0262
 7231SOL    HW233153   3.297   4.447   3.717 -2.3805  2.3553  2.8420
 7232SOL     OW33154   3.637   2.650   5.253 -0.5645 -0.6722  0.1662
 7232SOL    HW133155   3.662   2.568   5.211 -0.2665 -0.4059 -0.1703
 7232SOL    HW233156   3.575   2.608   5.313 -1.3539 -0.2113 -0.3164
 7233SOL     OW33157   3.821   1.824   6.342 -0.0213  0.1533  0.1281
 7233SOL    HW133158   3.894   1.835   6.403  0.1329 -1.4797  0.2438
 7233SOL    HW233159   3.770   1.754   6.383  0.2654 -0.6473 -0.8902
 7234SOL     OW33160   4.365   1.569   8.375  0.2129  0.2971 -0.1033
 7234SOL    HW133161   4.338   1.627   8.446 -2.5791  0.4734 -1.3181
 7234SOL    HW233162   4.278   1.535   8.353  1.1334 -0.4966 -2.4905
 7235SOL     OW33163   4.716   1.394   8.884  0.4483  0.0306 -0.1564
 7235SOL    HW133164   0.013   1.475   8.835 -1.5368  0.1652 -0.6494
 7235SOL    HW233165   0.051   1.403   8.962 -1.4513 -2.2071  1.4413
 7236SOL     OW33166   3.196   3.049  13.247 -0.4185  0.2775 -0.4508
 7236SOL    HW133167   3.112   3.048  13.200 -0.0002  0.3057 -1.2039
 7236SOL    HW233168   3.232   2.967  13.214 -0.6828  0.7822 -1.9928
 7237SOL     OW33169   4.400   1.723   6.310  0.5132 -0.0248  0.8889
 7237SOL    HW133170   4.359   1.666   6.245  3.0931  0.6283 -1.2927
 7237SOL    HW233171   4.450   1.783   6.255 -2.4185  0.6457 -1.0382
 7238SOL     OW33172   4.708   1.931   2.586  0.5258 -0.1831 -0.1770
 7238SOL    HW133173   4.640   1.998   2.591 -0.6553 -1.3599 -0.7125
 7238SOL    HW233174   0.049   1.971   2.647  0.4471 -2.3460  1.2996
 7239SOL     OW33175   0.788   0.334   4.496 -0.2277  0.0415 -0.1951
 7239SOL    HW133176   0.754   0.246   4.512  0.6110  0.1681  2.2652
 7239SOL    HW233177   0.871   0.338   4.542 -0.1975 -1.8193 -0.0962
 7240SOL     OW33178   1.641   3.934   7.034 -0.5246 -0.3026  1.2166
 7240SOL    HW133179   1.624   3.997   7.104  1.4180  1.6303 -0.0673
 7240SOL    HW233180   1.715   3.976   6.991 -0.7558 -0.8016  0.3466
 7241SOL     OW33181   3.986   0.157  13.510 -0.9187 -0.1171 -0.2247
 7241SOL    HW133182   3.964   0.128  13.598 -0.0111  0.2147  0.1087
 7241SOL    HW233183   4.074   0.121  13.498 -0.9157 -0.1512 -0.0942
 7242SOL     OW33184   2.283   0.177  11.494  0.4379  0.3730 -0.2376
 7242SOL    HW133185   2.245   0.212  11.575  0.7360  0.3010 -0.0694
 7242SOL    HW233186   2.356   0.128  11.532  2.1043  1.4967 -2.0058
 7243SOL     OW33187   0.745   2.573   0.261 -0.2979  0.2336 -0.2828
 7243SOL    HW133188   0.795   2.654   0.251 -0.4721  0.3942  0.1499
 7243SOL    HW233189   0.685   2.598   0.331 -0.2489  0.3434 -0.2804
 7244SOL     OW33190   2.412   2.280   3.197  0.2029 -0.2927 -0.2354
 7244SOL    HW133191   2.338   2.221   3.217 -0.5560  0.8332  0.2916
 7244SOL    HW233192   2.369   2.358   3.161  1.2242  0.1610 -0.4719
 7245SOL     OW33193   4.117   4.392  14.504  0.0638 -0.7400  0.1515
 7245SOL    HW133194   4.097   4.350  14.587  0.2829 -1.4713 -0.1700
 7245SOL    HW233195   4.130   4.314  14.451  1.1606 -1.9536  2.2326
 7246SOL     OW33196   0.631   3.679   8.165  0.6612 -0.0911 -0.3585
 7246SOL    HW133197   0.726   3.672   8.172  0.4866 -0.5175  1.4280
 7246SOL    HW233198   0.621   3.774   8.169  1.6454  0.0004 -0.0484
 7247SOL     OW33199   3.252   2.638  11.617 -0.1781 -1.1975  0.2207
 7247SOL    HW133200   3.270   2.686  11.537 -3.4706 -2.0024 -1.0147
 7247SOL    HW233201   3.228   2.549  11.588  0.9462 -0.6702 -2.2755
 7248SOL     OW33202   4.375   2.367   5.961 -0.0078 -0.0260 -0.5431
 7248SOL    HW133203   4.348   2.357   6.052  0.4861  1.2319 -0.2462
 7248SOL    HW233204   4.409   2.457   5.963 -0.1584  0.0294 -0.4813
 7249SOL     OW33205   2.809   4.640  12.033 -0.5889 -1.0102  0.2705
 7249SOL    HW133206   2.721   4.646  12.069 -1.0654 -0.4249 -1.0232
 7249SOL    HW233207   2.791   4.671  11.945  0.8073  1.2486  0.7747
 7250SOL     OW33208   3.427   1.728  15.431  0.2199  0.0893 -0.6552
 7250SOL    HW133209   3.341   1.686  15.436 -0.2254  1.0081 -0.5613
 7250SOL    HW233210   3.484   1.656  15.457  2.1279  1.3913 -1.2704
 7251SOL     OW33211   0.763   1.075   7.904 -0.3339  0.2238  0.3209
 7251SOL    HW133212   0.753   1.119   7.989  0.6295  1.2576 -0.1048
 7251SOL    HW233213   0.736   1.151   7.852  0.8904  0.1809 -0.3761
 7252SOL     OW33214   0.895   2.126   3.339 -0.4144 -0.0023  0.1409
 7252SOL    HW133215   0.909   2.137   3.245  5.1110  0.5552  1.0637
 7252SOL    HW233216   0.914   2.034   3.356  2.2947  0.5152 -0.0929
 7253SOL     OW33217   3.849   3.079  11.331 -0.5219  0.4051 -1.0354
 7253SOL    HW133218   3.890   3.054  11.414 -0.4895 -0.6923 -1.3799
 7253SOL    HW233219   3.910   3.041  11.268 -0.2709  0.1304 -0.6291
 7254SOL     OW33220   1.120   4.551   6.079 -0.3432  0.2215  0.0867
 7254SOL    HW133221   1.150   4.482   6.137  2.4165  2.6156  1.4706
 7254SOL    HW233222   1.028   4.530   6.062  0.6068 -3.2769 -0.7990
 7255SOL     OW33223   1.040   4.140   7.637 -0.1625 -0.1786  0.2781
 7255SOL    HW133224   1.116   4.083   7.626  0.4165  0.7279 -0.4053
 7255SOL    HW233225   0.975   4.117   7.571  1.2455 -2.1184 -0.4339
 7256SOL     OW33226   0.624   1.028  12.898 -0.5227 -0.1655  0.1112
 7256SOL    HW133227   0.701   1.015  12.842 -0.2657 -1.6497  0.8065
 7256SOL    HW233228   0.621   1.120  12.873  1.7791  0.4671  2.1064
 7257SOL     OW33229   3.033   0.399   7.963 -0.1808  0.1437 -0.1582
 7257SOL    HW133230   3.057   0.432   7.877  1.9506 -0.6015  0.1371
 7257SOL    HW233231   3.094   0.438   8.026 -0.6633  2.0672 -0.9013
 7258SOL     OW33232   3.526   2.905  13.312 -0.9544 -0.0062  0.2398
 7258SOL    HW133233   3.439   2.879  13.280 -0.7545 -0.6657  0.2439
 7258SOL    HW233234   3.549   2.861  13.393  0.6385  0.2930 -0.0537
 7259SOL     OW33235   2.295   2.957   6.373 -0.2858 -1.1343 -0.2927
 7259SOL    HW133236   2.259   3.035   6.330 -0.5295 -0.4993  1.0562
 7259SOL    HW233237   2.277   2.885   6.312 -1.0033  0.3065 -1.7813
 7260SOL     OW33238   3.178   1.552   3.161  0.0316 -0.2462  0.0528
 7260SOL    HW133239   3.094   1.518   3.192  0.0599 -0.9844 -0.6735
 7260SOL    HW233240   3.174   1.633   3.212  1.3918 -0.3299  0.2903
 7261SOL     OW33241   4.435   3.489   3.383  0.0846 -0.4617 -0.7465
 7261SOL    HW133242   4.519   3.526   3.407 -1.4866  2.1766  0.7319
 7261SOL    HW233243   4.427   3.421   3.450 -1.6480  1.5484  1.1091
 7262SOL     OW33244   1.879   0.122   6.793 -0.5283 -0.1208 -0.0668
 7262SOL    HW133245   1.903   0.041   6.838 -0.7733  0.6818  1.4869
 7262SOL    HW233246   1.793   0.131   6.834 -0.9980 -1.8404 -0.6473
 7263SOL     OW33247   4.484   3.374   8.874  0.0257  0.0665 -0.9248
 7263SOL    HW133248   4.455   3.325   8.796 -0.5074 -1.1135  0.0107
 7263SOL    HW233249   4.578   3.368   8.858  0.1309 -0.1331 -0.2532
 7264SOL     OW33250   0.837   2.759  13.004 -0.0464 -0.3480  0.2097
 7264SOL    HW133251   0.796   2.741  12.919  1.1497 -2.2337  0.0360
 7264SOL    HW233252   0.785   2.709  13.067  2.0556 -0.8969  1.4691
 7265SOL     OW33253   1.735   3.405   2.714  0.0732  0.1873 -0.0381
 7265SOL    HW133254   1.725   3.492   2.674  0.2576  0.7869  1.2025
 7265SOL    HW233255   1.655   3.413   2.767  1.3350 -1.1780  2.0720
 7266SOL     OW33256   0.663   0.629   4.947 -0.6109  0.3645 -0.5881
 7266SOL    HW133257   0.657   0.543   4.988 -0.0719  0.0188 -1.2336
 7266SOL    HW233258   0.586   0.633   4.889 -2.9700  0.5922  2.5705
 7267SOL     OW33259   3.937   0.786   4.368 -0.2617  1.2531  0.0467
 7267SOL    HW133260   3.875   0.747   4.307 -1.0296  3.6671 -0.7134
 7267SOL    HW233261   3.876   0.823   4.432 -1.0258 -0.1210  0.1304
 7268SOL     OW33262   3.331   1.959  14.830 -0.1944 -0.2918  0.5883
 7268SOL    HW133263   3.424   1.959  14.854 -0.1564  0.4207  0.4231
 7268SOL    HW233264   3.324   2.044  14.787 -1.1026 -0.6174  0.1038
 7269SOL     OW33265   0.696   1.954   3.654  0.7253  0.1583 -0.0916
 7269SOL    HW133266   0.680   1.895   3.580  0.7919 -0.0777  0.0803
 7269SOL    HW233267   0.653   1.917   3.731 -1.8167  1.1680 -1.0020
 7270SOL     OW33268   1.258   3.185   9.206 -0.6714  0.1704 -0.0677
 7270SOL    HW133269   1.266   3.108   9.149 -1.5121  0.0046  0.0393
 7270SOL    HW233270   1.165   3.173   9.223 -0.2075 -0.3717  1.9994
 7271SOL     OW33271   4.035   4.193   8.466 -0.2733  0.5180 -0.6248
 7271SOL    HW133272   3.959   4.160   8.418 -1.0592 -0.7216  1.4812
 7271SOL    HW233273   4.035   4.148   8.550  1.0377  1.0637 -0.3222
 7272SOL     OW33274   3.339   3.969   3.093  0.3231 -0.3957 -0.2212
 7272SOL    HW133275   3.390   3.993   3.016 -0.2798 -1.1625 -0.8528
 7272SOL    HW233276   3.362   3.876   3.092 -2.1303 -0.9814 -1.7837
 7273SOL     OW33277   0.316   3.238   7.846 -0.2015  0.7615 -0.4817
 7273SOL    HW133278   0.335   3.307   7.909  1.0834 -0.1553  0.1273
 7273SOL    HW233279   0.264   3.290   7.784 -1.3422  2.5237  1.9696
 7274SOL     OW33280   1.684   2.292  11.165  0.1715 -0.2288 -0.2202
 7274SOL    HW133281   1.638   2.300  11.081  2.4228  0.0164 -1.4409
 7274SOL    HW233282   1.622   2.243  11.217  1.4046 -1.3919  0.1632
 7275SOL     OW33283   1.993   3.802   4.667  0.4633  0.0973  0.3972
 7275SOL    HW133284   2.083   3.773   4.656  0.8504  0.9739  1.1746
 7275SOL    HW233285   1.988   3.809   4.763 -1.7345  2.9937  0.0647
 7276SOL     OW33286   4.369   1.483   3.657  0.2627 -0.0672  0.9809
 7276SOL    HW133287   4.388   1.519   3.571 -1.5365 -0.1202  0.5414
 7276SOL    HW233288   4.425   1.406   3.662  0.7379  0.0392 -2.9249
 7277SOL     OW33289   4.358   0.872   9.557  0.1365  0.1537 -0.1911
 7277SOL    HW133290   4.265   0.875   9.531  0.1801 -0.7565 -0.4693
 7277SOL    HW233291   4.381   0.963   9.538 -3.9677  0.7340 -2.4213
 7278SOL     OW33292   0.101   3.885   3.624 -0.4853  0.1762  0.3718
 7278SOL    HW133293   0.126   3.921   3.539 -1.1358  0.3145  0.2327
 7278SOL    HW233294   0.146   3.801   3.620 -1.9506 -0.5582 -0.6234
 7279SOL     OW33295   3.799   3.669   5.259  0.2589  0.0684 -0.6996
 7279SOL    HW133296   3.893   3.651   5.265  0.2997  0.3485 -0.5100
 7279SOL    HW233297   3.750   3.597   5.299 -0.1739  0.9225  0.3006
 7280SOL     OW33298   0.389   0.091   9.086 -0.2103  0.4307 -0.1108
 7280SOL    HW133299   0.314   0.032   9.074 -0.6008  0.8878  0.0852
 7280SOL    HW233300   0.361   0.172   9.045 -1.3074  0.6004  0.9680
 7281SOL     OW33301   3.154   0.469   8.607  0.2655 -0.1634 -0.1514
 7281SOL    HW133302   3.164   0.548   8.553 -1.7729  2.1667  2.9244
 7281SOL    HW233303   3.201   0.498   8.685  0.4879 -1.6555  0.2499
 7282SOL     OW33304   1.972   0.853   7.888  0.4451  0.3163  0.4174
 7282SOL    HW133305   1.920   0.827   7.813 -0.3068 -0.1886  1.1196
 7282SOL    HW233306   2.056   0.863   7.843  0.2667 -0.4198 -0.0723
 7283SOL     OW33307   3.072   4.404   9.048 -0.1707  0.0345  0.1653
 7283SOL    HW133308   3.151   4.425   8.997 -0.9360  0.7833 -0.7282
 7283SOL    HW233309   3.114   4.383   9.131  1.5422  0.5830 -0.5561
 7284SOL     OW33310   1.568   0.741   7.307  0.3549  0.7387  0.1762
 7284SOL    HW133311   1.515   0.813   7.339  1.0223  0.9218  0.8732
 7284SOL    HW233312   1.593   0.702   7.390 -1.3032 -3.4023 -1.2793
 7285SOL     OW33313   2.300   2.739   1.964  0.9087 -0.4934  0.2361
 7285SOL    HW133314   2.294   2.829   1.994  0.0443 -0.3021 -0.5017
 7285SOL    HW233315   2.390   2.745   1.932  0.6484  0.8769 -0.2314
 7286SOL     OW33316   1.701   0.450  11.006  0.1274  0.7826  0.3392
 7286SOL    HW133317   1.772   0.491  11.055 -0.2037 -1.1532  2.4302
 7286SOL    HW233318   1.654   0.404  11.075  1.8030  1.1142  1.6720
 7287SOL     OW33319   3.170   1.024   7.685  0.1852  0.2640  0.2320
 7287SOL    HW133320   3.106   1.074   7.736  1.7328  1.4498  0.9940
 7287SOL    HW233321   3.232   1.087   7.649 -0.0453 -0.5397 -1.5396
 7288SOL     OW33322   4.596   4.438   9.152  0.0942  0.5765 -0.3148
 7288SOL    HW133323   4.677   4.411   9.196  0.3324 -1.1537 -1.7883
 7288SOL    HW233324   4.624   4.504   9.089 -1.5809  3.3486  1.8226
 7289SOL     OW33325   2.736   2.447   4.966 -0.6136  0.3605 -0.4606
 7289SOL    HW133326   2.742   2.542   4.978 -0.3217  0.5592 -2.1697
 7289SOL    HW233327   2.787   2.441   4.885 -1.3960 -0.2077 -0.9192
 7290SOL     OW33328   1.521   0.420   8.342  0.0546 -0.5118  0.6928
 7290SOL    HW133329   1.588   0.480   8.375 -2.4669  2.3745  0.5565
 7290SOL    HW233330   1.557   0.408   8.254  1.0355  0.2856  0.9826
 7291SOL     OW33331   0.605   2.158   5.853 -0.5186  0.0702  0.0450
 7291SOL    HW133332   0.528   2.147   5.797  1.4542 -0.8243 -2.4687
 7291SOL    HW233333   0.607   2.253   5.860  0.0242  0.0787 -0.2319
 7292SOL     OW33334   4.246   0.831  11.020  0.9127  0.3660  0.8217
 7292SOL    HW133335   4.247   0.736  11.019 -3.3287  0.2849  2.0665
 7292SOL    HW233336   4.153   0.851  11.031  0.5688 -1.8393  1.7789
 7293SOL     OW33337   1.946   3.473   1.367 -0.0840 -0.2100  0.2884
 7293SOL    HW133338   1.875   3.441   1.422 -0.4849 -0.8626 -0.6112
 7293SOL    HW233339   1.944   3.557   1.413  1.2668 -0.5097  0.9009
 7294SOL     OW33340   3.380   1.521   2.545 -0.7207 -0.3913 -0.2523
 7294SOL    HW133341   3.459   1.555   2.588  0.2210  0.8829 -2.9844
 7294SOL    HW233342   3.415   1.487   2.462  0.0890 -2.5530  0.9809
 7295SOL     OW33343   4.342   0.891   2.958 -0.1255  0.4006  0.0142
 7295SOL    HW133344   4.409   0.903   3.025  1.0683  1.1267 -1.3144
 7295SOL    HW233345   4.379   0.817   2.910  0.1757  1.1853 -0.9591
 7296SOL     OW33346   2.109   0.528   5.023 -0.2254 -0.1839 -0.1160
 7296SOL    HW133347   2.136   0.586   5.094  0.7375 -1.8574  0.8659
 7296SOL    HW233348   2.024   0.496   5.051 -0.8345  1.3221 -0.2552
 7297SOL     OW33349   3.738   2.322  11.083  0.1375  0.0424 -0.0911
 7297SOL    HW133350   3.705   2.381  11.151  3.5786 -0.4111  2.0095
 7297SOL    HW233351   3.722   2.383  11.012  0.5798  0.3159  0.0430
 7298SOL     OW33352   3.422   4.622   7.319 -0.0640  0.3392 -0.5698
 7298SOL    HW133353   3.361   4.583   7.256 -1.4395  1.1133  0.2818
 7298SOL    HW233354   3.443   4.548   7.377 -3.2029  0.8286  1.1995
 7299SOL     OW33355   0.683   4.587   0.179 -0.3922 -0.2072  0.8479
 7299SOL    HW133356   0.636   4.549   0.106  1.2010  0.2070 -0.3779
 7299SOL    HW233357   0.749   4.636   0.130 -1.3499  0.3512  0.1230
 7300SOL     OW33358   3.236   3.680   8.511  0.0972 -0.1295  0.0397
 7300SOL    HW133359   3.211   3.632   8.589  0.2537  2.8190  1.9285
 7300SOL    HW233360   3.166   3.649   8.454 -0.9745  0.7342  0.9106
 7301SOL     OW33361   0.297   3.578  16.167 -0.2647  0.6525 -0.4226
 7301SOL    HW133362   0.312   3.530  16.086 -2.3857  1.2297 -1.1654
 7301SOL    HW233363   0.381   3.624  16.173  0.0629  0.1615 -1.2287
 7302SOL     OW33364   1.371   1.476  10.494 -0.1644  0.2646  0.4079
 7302SOL    HW133365   1.344   1.422  10.420 -1.8272 -0.1635  1.3317
 7302SOL    HW233366   1.397   1.559  10.453 -0.2762 -0.2352 -0.6671
 7303SOL     OW33367   2.872   0.415   0.877 -0.8284 -0.3591  0.4325
 7303SOL    HW133368   2.940   0.402   0.812  0.0409 -0.0970  1.2970
 7303SOL    HW233369   2.801   0.369   0.831 -0.9810  0.9375 -0.6354
 7304SOL     OW33370   0.744   4.377   7.154  0.2915 -0.3236 -0.3746
 7304SOL    HW133371   0.748   4.444   7.087 -3.8633 -1.0753 -1.3416
 7304SOL    HW233372   0.726   4.306   7.093 -1.7385  1.0610 -1.3767
 7305SOL     OW33373   3.315   1.881   0.020 -0.3193  0.1694 -0.3163
 7305SOL    HW133374   3.345   1.916  17.622 -0.7963  1.4955  0.0741
 7305SOL    HW233375   3.243   1.820   0.004 -1.6737  1.4453  0.8932
 7306SOL     OW33376   0.477   1.765   5.825 -1.2501  0.4671  0.3343
 7306SOL    HW133377   0.435   1.700   5.881  1.0043 -1.0758  0.2605
 7306SOL    HW233378   0.567   1.768   5.859 -1.3601 -2.1548  0.8382
 7307SOL     OW33379   4.115   3.105  15.338 -0.0690  0.4744 -0.0071
 7307SOL    HW133380   4.039   3.154  15.368  0.5214  0.4892  1.4395
 7307SOL    HW233381   4.139   3.152  15.258 -0.4670 -0.5423 -0.7330
 7308SOL     OW33382   4.146   4.171   6.252 -0.2490 -0.3099  0.2176
 7308SOL    HW133383   4.179   4.235   6.188 -0.0290 -0.0693  0.5734
 7308SOL    HW233384   4.219   4.148   6.309 -0.9006  1.0639  1.6133
 7309SOL     OW33385   1.133   4.401   7.624 -0.4236  0.4518  0.0630
 7309SOL    HW133386   1.127   4.306   7.627 -0.7435  0.4644 -0.1204
 7309SOL    HW233387   1.069   4.428   7.557 -0.7805 -0.6977 -0.0481
 7310SOL     OW33388   2.084   2.391   5.071  0.0756  0.1075 -0.6479
 7310SOL    HW133389   2.005   2.443   5.076 -0.5957 -1.1601  1.9000
 7310SOL    HW233390   2.077   2.336   5.149  0.9218 -2.2027 -2.1760
 7311SOL     OW33391   2.295   1.648   5.571  0.3235 -0.0987 -0.7198
 7311SOL    HW133392   2.384   1.681   5.586 -0.0640 -0.2467  1.9035
 7311SOL    HW233393   2.324   1.577   5.514 -0.9141 -0.6953 -0.5858
 7312SOL     OW33394   4.576   1.549  17.606 -0.9489 -0.9526 -0.4888
 7312SOL    HW133395   4.656   1.585  17.568 -1.2915  0.2727 -0.0691
 7312SOL    HW233396   4.533   1.553  17.521  1.3101  0.9809 -1.5249
 7313SOL     OW33397   2.630   3.720  10.992  0.4217  0.2378 -0.2765
 7313SOL    HW133398   2.684   3.711  10.913 -0.4319  0.0033 -0.8378
 7313SOL    HW233399   2.655   3.806  11.025  1.7769  0.9144 -3.0533
 7314SOL     OW33400   2.176   4.199   6.142  0.1657  0.0395  0.8544
 7314SOL    HW133401   2.232   4.267   6.105 -0.2206  0.3845  0.8952
 7314SOL    HW233402   2.231   4.150   6.203  0.1068 -0.1646  0.7444
 7315SOL     OW33403   0.105   1.874   0.475 -0.1663  0.0818 -0.1164
 7315SOL    HW133404   0.071   1.804   0.421 -0.6671 -0.4698  0.9122
 7315SOL    HW233405   0.166   1.829   0.533  1.0439  1.5024 -0.2793
 7316SOL     OW33406   3.051   4.333   5.057  0.2624 -0.4497 -0.1471
 7316SOL    HW133407   3.067   4.294   5.143  1.2299 -0.9520 -0.5432
 7316SOL    HW233408   3.097   4.261   5.013 -1.2592 -1.6764  0.2724
 7317SOL     OW33409   2.219   1.430   7.883  0.2014  0.4100  0.3415
 7317SOL    HW133410   2.131   1.467   7.884  0.0035 -0.0762  1.0081
 7317SOL    HW233411   2.240   1.450   7.975  2.4806  0.5047 -0.2152
 7318SOL     OW33412   4.305   3.030   9.489 -0.3361 -0.0693 -0.0004
 7318SOL    HW133413   4.221   3.008   9.449  0.4112 -0.2936 -1.4641
 7318SOL    HW233414   4.322   3.113   9.445  0.1585  1.1290  2.4332
 7319SOL     OW33415   2.008   2.189   6.719  0.0109 -0.2919 -0.0254
 7319SOL    HW133416   1.979   2.256   6.657 -0.3830 -0.2893  0.1622
 7319SOL    HW233417   2.065   2.136   6.663  0.4057 -0.3480  0.4240
 7320SOL     OW33418   1.223   4.442  16.398 -0.1503  0.3024  0.4266
 7320SOL    HW133419   1.228   4.523  16.448  0.1416  0.4026  0.2331
 7320SOL    HW233420   1.298   4.447  16.339 -0.7515  2.6343 -0.1451
 7321SOL     OW33421   4.282   2.715  10.470 -0.3681  0.0296  0.2073
 7321SOL    HW133422   4.188   2.724  10.485 -0.5656 -2.2206  0.4121
 7321SOL    HW233423   4.293   2.726  10.375  1.7775  0.3238  0.4921
 7322SOL     OW33424   0.418   3.809  12.802 -0.1213  0.0289  0.0739
 7322SOL    HW133425   0.478   3.840  12.870  1.0081  1.1168 -1.4109
 7322SOL    HW233426   0.379   3.895  12.786  1.9600  0.7703 -1.0127
 7323SOL     OW33427   2.868   3.199   6.938 -0.0084 -0.1573 -0.3095
 7323SOL    HW133428   2.851   3.270   7.000 -1.4056 -0.4910 -0.3087
 7323SOL    HW233429   2.777   3.182   6.916 -0.3475 -0.6610  1.4506
 7324SOL     OW33430   3.251   2.059  14.442 -0.0379  0.1304 -0.6452
 7324SOL    HW133431   3.207   2.141  14.466 -0.5615  0.0592 -1.3702
 7324SOL    HW233432   3.241   2.068  14.348  2.1225  0.7972 -0.8093
 7325SOL     OW33433   3.562   4.031  13.151  0.8725 -0.1584  0.2966
 7325SOL    HW133434   3.631   4.037  13.217 -1.7771  0.0512  3.0437
 7325SOL    HW233435   3.499   3.971  13.190  0.1483 -0.7534 -1.7958
 7326SOL     OW33436   0.806   0.875  10.893  0.7699 -0.0228  0.4173
 7326SOL    HW133437   0.831   0.881  10.801  0.6702  0.2881  0.4102
 7326SOL    HW233438   0.884   0.840  10.937  0.6009  0.9961  1.5654
 7327SOL     OW33439   0.780   1.711   5.470  0.3304 -0.0416  0.3716
 7327SOL    HW133440   0.871   1.739   5.460 -0.0165  0.6922 -0.7244
 7327SOL    HW233441   0.744   1.779   5.413  0.1344 -1.6177 -1.3871
 7328SOL     OW33442   2.349   1.265   0.979  0.1155  0.7462 -0.3001
 7328SOL    HW133443   2.355   1.193   0.916  0.5690  0.0076  0.5779
 7328SOL    HW233444   2.431   1.262   1.030 -1.3375 -2.0478  1.9498
 7329SOL     OW33445   2.475   2.701   7.047  0.3251  0.0427  0.0404
 7329SOL    HW133446   2.405   2.721   7.109  0.0211 -3.0171  0.6653
 7329SOL    HW233447   2.532   2.774   7.072  0.3077  0.0023  0.1977
 7330SOL     OW33448   0.986   4.410   5.778 -0.1630 -0.1766  0.1774
 7330SOL    HW133449   0.961   4.499   5.803  2.7567 -0.1445  2.9680
 7330SOL    HW233450   1.008   4.372   5.863 -0.7599  1.1294  0.9236
 7331SOL     OW33451   4.486   1.395   1.391 -0.2850  0.3940 -0.5918
 7331SOL    HW133452   4.453   1.320   1.441  2.1800  0.5140  1.1962
 7331SOL    HW233453   4.521   1.450   1.462  1.2478  1.5652 -2.2456
 7332SOL     OW33454   3.281   1.387   7.843 -0.2302  0.1351 -0.3979
 7332SOL    HW133455   3.295   1.395   7.748 -0.6164  2.9590 -0.2380
 7332SOL    HW233456   3.197   1.433   7.845 -0.6946 -0.7424  0.0478
 7333SOL     OW33457   4.096   1.881  14.549  0.3592 -0.3273  1.3192
 7333SOL    HW133458   4.072   1.931  14.628  0.1018  2.4269 -0.4835
 7333SOL    HW233459   4.137   1.948  14.494  0.1827 -1.2749  0.0377
 7334SOL     OW33460   1.435   1.570   8.585  0.1962 -0.5805 -0.1277
 7334SOL    HW133461   1.522   1.605   8.606 -0.1938 -1.0033  2.1679
 7334SOL    HW233462   1.472   1.504   8.527  0.4582 -0.8591  0.3552
 7335SOL     OW33463   0.554   3.782   7.622 -0.0463  0.0976 -0.2472
 7335SOL    HW133464   0.643   3.778   7.657  0.3154 -0.2718 -1.2010
 7335SOL    HW233465   0.507   3.783   7.705  0.9899  0.9097  0.3171
 7336SOL     OW33466   3.290   2.970   6.691 -0.1761  0.2659 -0.2439
 7336SOL    HW133467   3.215   2.961   6.631 -0.4980 -0.4742  0.2619
 7336SOL    HW233468   3.250   2.935   6.771 -1.8197 -0.6561 -1.4553
 7337SOL     OW33469   1.476   4.530   4.598 -0.5035 -0.5965 -0.0057
 7337SOL    HW133470   1.551   4.535   4.539  0.0346 -1.9525  0.5893
 7337SOL    HW233471   1.441   4.443   4.578  3.4699 -2.7129  2.3180
 7338SOL     OW33472   3.141   1.325   5.747 -0.2498 -0.2555  0.5072
 7338SOL    HW133473   3.049   1.341   5.724  0.2098 -0.1471 -1.2506
 7338SOL    HW233474   3.171   1.414   5.728  1.8726 -0.8315  1.2295
 7339SOL     OW33475   0.467   3.753  10.335 -0.8287 -0.1729 -0.9156
 7339SOL    HW133476   0.495   3.844  10.330 -1.2706 -0.1225 -2.5647
 7339SOL    HW233477   0.432   3.745  10.246 -0.1718  0.3543 -1.2170
 7340SOL     OW33478   2.683   2.370  11.154  0.0810 -0.1823  0.0175
 7340SOL    HW133479   2.694   2.308  11.227 -0.5205 -0.1151  0.1648
 7340SOL    HW233480   2.777   2.375  11.134  0.3085 -1.4853  0.7356
 7341SOL     OW33481   1.561   2.577   6.075 -0.2162  0.6439  0.4576
 7341SOL    HW133482   1.476   2.620   6.070 -1.9092 -2.8755 -0.9028
 7341SOL    HW233483   1.610   2.626   6.008 -0.4604  1.1075  0.6224
 7342SOL     OW33484   3.428   3.583   6.485 -0.1406  0.0562 -0.3726
 7342SOL    HW133485   3.423   3.623   6.571  1.5950  0.1844 -0.3295
 7342SOL    HW233486   3.420   3.664   6.435 -0.7505  2.4362  3.5967
 7343SOL     OW33487   2.768   2.836   1.384  0.6304  0.0860 -0.2416
 7343SOL    HW133488   2.857   2.869   1.375  0.0332  0.7984 -3.5091
 7343SOL    HW233489   2.761   2.781   1.306  1.3764 -0.0037 -0.2454
 7344SOL     OW33490   3.447   3.632   6.134  0.1865 -0.1566  0.0654
 7344SOL    HW133491   3.497   3.590   6.205  1.1504 -1.2947 -1.2885
 7344SOL    HW233492   3.382   3.687   6.176  0.9011 -0.4045  1.5047
 7345SOL     OW33493   3.081   3.668  10.720 -0.5268 -0.6616 -0.0979
 7345SOL    HW133494   3.000   3.716  10.699 -0.9244 -1.8497 -1.2721
 7345SOL    HW233495   3.134   3.740  10.755  0.9551 -0.9469 -1.7545
 7346SOL     OW33496   1.491   1.938   2.256  0.1201 -0.6219  0.1961
 7346SOL    HW133497   1.585   1.951   2.241  0.5074 -3.4277  0.2424
 7346SOL    HW233498   1.487   1.932   2.352 -0.2806  1.7722  0.3338
 7347SOL     OW33499   2.446   1.127   3.192 -0.6754 -0.5900  0.0791
 7347SOL    HW133500   2.498   1.092   3.119  1.3540  3.5839 -0.4870
 7347SOL    HW233501   2.519   1.179   3.226 -0.4018 -1.0162  0.1438
 7348SOL     OW33502   2.917   0.651   1.892  0.0218 -0.3738 -0.0587
 7348SOL    HW133503   2.942   0.714   1.825  2.1668 -0.1070  0.9852
 7348SOL    HW233504   2.837   0.690   1.928 -0.9194 -1.4315 -1.0362
 7349SOL     OW33505   4.623   4.447   5.169  0.8102 -1.0206  0.2176
 7349SOL    HW133506   4.560   4.404   5.225  0.1850 -4.1162 -2.8850
 7349SOL    HW233507   4.694   4.450   5.233  1.2411 -1.5736 -0.2359
 7350SOL     OW33508   1.171   2.025  16.673 -0.5491  0.0769  0.3245
 7350SOL    HW133509   1.242   2.076  16.712 -1.2422 -0.4006  2.2185
 7350SOL    HW233510   1.092   2.069  16.705 -0.4927 -0.5896  1.3561
 7351SOL     OW33511   3.520   2.198  13.327 -0.4137 -0.6582 -0.2422
 7351SOL    HW133512   3.526   2.183  13.422  0.4490  1.6171  0.0648
 7351SOL    HW233513   3.441   2.252  13.324  0.6212  0.9851  1.6675
 7352SOL     OW33514   2.555   2.727   7.991  0.7284 -0.1954  0.6163
 7352SOL    HW133515   2.614   2.682   7.931  0.1499  0.5959 -0.5565
 7352SOL    HW233516   2.560   2.819   7.967  2.3658 -0.3514  0.3943
 7353SOL     OW33517   2.809   3.691   3.598  0.3409 -0.2427 -0.3507
 7353SOL    HW133518   2.840   3.779   3.575 -2.5162  0.8478 -0.1179
 7353SOL    HW233519   2.843   3.683   3.687 -0.3979  2.3427  0.1886
 7354SOL     OW33520   3.508   3.547   8.124  0.4021 -0.3965 -0.4198
 7354SOL    HW133521   3.469   3.526   8.208  0.9485  0.1543 -0.0313
 7354SOL    HW233522   3.478   3.637   8.112  0.1681 -0.5623 -1.0831
 7355SOL     OW33523   3.245   2.544   6.968  0.0367 -0.2176 -0.8042
 7355SOL    HW133524   3.263   2.539   7.062  0.6436  0.2736 -0.9001
 7355SOL    HW233525   3.302   2.472   6.940  1.3934 -0.1048  1.7320
 7356SOL     OW33526   0.720   3.619   9.372 -0.0060  0.3357 -0.1729
 7356SOL    HW133527   0.764   3.555   9.428  2.0828  1.5238 -0.4290
 7356SOL    HW233528   0.768   3.699   9.391  1.5491 -0.5215 -0.4261
 7357SOL     OW33529   3.689   3.420   4.341 -0.2565  0.8427 -0.4671
 7357SOL    HW133530   3.768   3.455   4.383  0.7136 -0.7038 -1.0094
 7357SOL    HW233531   3.623   3.445   4.406  0.0981 -1.1456  0.6552
 7358SOL     OW33532   3.253   4.175   6.951  0.3160  0.1291 -0.1604
 7358SOL    HW133533   3.215   4.223   6.877 -2.3058 -1.4588  0.1719
 7358SOL    HW233534   3.220   4.086   6.942  2.3100 -0.6662  0.5084
 7359SOL     OW33535   0.026   1.017   4.135 -0.5230  0.0214  0.3726
 7359SOL    HW133536   4.671   1.068   4.106 -0.9992 -1.0725 -0.2842
 7359SOL    HW233537   4.715   0.929   4.116  1.6644 -0.1446 -2.5279
 7360SOL     OW33538   0.272   1.365   3.175  0.0695 -0.1493  0.5423
 7360SOL    HW133539   0.274   1.271   3.190 -1.7601 -0.3712 -0.5775
 7360SOL    HW233540   0.181   1.385   3.198  0.0487  0.6305 -0.2073
 7361SOL     OW33541   0.837   4.326   8.241  0.8223  0.5068 -0.3666
 7361SOL    HW133542   0.791   4.284   8.313  0.1767 -0.5907 -1.4130
 7361SOL    HW233543   0.874   4.402   8.285  0.3612  1.5319 -1.7364
 7362SOL     OW33544   0.919   2.925  16.883  0.6486 -0.3476  0.4569
 7362SOL    HW133545   0.906   2.852  16.944 -0.0539 -0.0304  0.6876
 7362SOL    HW233546   0.886   2.886  16.802 -0.0438 -1.0834  1.0857
 7363SOL     OW33547   2.161   0.290  11.717 -0.5244  0.5692 -0.0730
 7363SOL    HW133548   2.068   0.288  11.743 -1.1199  2.7747 -2.0561
 7363SOL    HW233549   2.196   0.365  11.765 -0.3563  1.2072 -1.1967
 7364SOL     OW33550   2.840   2.331   7.271  0.1111  0.0668 -0.3989
 7364SOL    HW133551   2.781   2.287   7.332 -2.3688  2.7862 -0.8193
 7364SOL    HW233552   2.774   2.383   7.226  0.9510  0.3209 -1.3380
 7365SOL     OW33553   2.271   3.849   4.778  0.2486 -0.2752 -0.3718
 7365SOL    HW133554   2.289   3.795   4.854  1.3332  1.6285  0.7098
 7365SOL    HW233555   2.306   3.935   4.799  0.5415 -0.3012 -0.7456
 7366SOL     OW33556   3.180   0.538   4.874 -0.9444  0.2605 -0.0911
 7366SOL    HW133557   3.195   0.632   4.863 -1.7580  0.3433 -0.4725
 7366SOL    HW233558   3.154   0.510   4.786  2.0770  0.9014 -1.2053
 7367SOL     OW33559   0.924   1.882   6.536  0.3085 -0.2625 -0.1988
 7367SOL    HW133560   0.860   1.911   6.602 -1.9722 -0.7137 -2.2000
 7367SOL    HW233561   0.861   1.866   6.466  1.2864 -1.0739 -0.8971
 7368SOL     OW33562   2.935   2.138   3.294  0.2693  0.2280  0.4026
 7368SOL    HW133563   2.933   2.216   3.348  3.0149  1.9036 -1.9243
 7368SOL    HW233564   3.017   2.146   3.245 -0.3309  1.3131 -0.4275
 7369SOL     OW33565   0.064   0.338  15.903 -0.1491  0.2788  0.0131
 7369SOL    HW133566   0.056   0.243  15.897 -0.1172  0.3074 -0.4944
 7369SOL    HW233567   0.099   0.329  15.991  0.4084  0.8727 -0.1484
 7370SOL     OW33568   3.857   1.551   8.812 -0.3538  0.1776  0.3069
 7370SOL    HW133569   3.840   1.515   8.899  0.7101 -1.1431 -0.0300
 7370SOL    HW233570   3.890   1.640   8.825  2.2922 -1.0928  1.9841
 7371SOL     OW33571   0.459   2.566   8.238 -0.5374 -0.0248  0.0775
 7371SOL    HW133572   0.532   2.621   8.209  0.6867 -1.0195  1.2501
 7371SOL    HW233573   0.404   2.632   8.280 -0.3919  1.4731 -2.0785
 7372SOL     OW33574   2.327   3.199   3.268  0.6982 -0.7311 -0.1373
 7372SOL    HW133575   2.239   3.216   3.235  1.5269  2.6072 -0.6719
 7372SOL    HW233576   2.312   3.152   3.350  0.0505  0.4508  0.4177
 7373SOL     OW33577   0.175   0.858  15.945 -0.4882  0.2081  0.4598
 7373SOL    HW133578   0.086   0.863  15.909 -0.5565  1.0220  0.7532
 7373SOL    HW233579   0.157   0.832  16.036  1.2256  1.1929  1.0675
 7374SOL     OW33580   2.870   4.497  12.795  0.0704  0.3069  0.4692
 7374SOL    HW133581   2.929   4.489  12.720  0.8255 -2.0632  1.3250
 7374SOL    HW233582   2.909   4.558  12.858 -0.1837  1.7945 -0.8232
 7375SOL     OW33583   0.051   1.268  13.687  0.4750 -0.6051 -0.0473
 7375SOL    HW133584   0.057   1.308  13.774  1.3986 -2.5674  0.7996
 7375SOL    HW233585   0.040   1.341  13.627  0.1625 -2.5435 -2.3621
 7376SOL     OW33586   0.564   4.495   5.679 -0.6031 -0.2009  0.7626
 7376SOL    HW133587   0.595   4.583   5.656  1.7349 -1.0333  0.7557
 7376SOL    HW233588   0.644   4.444   5.666  0.5733  1.5829  0.9059
 7377SOL     OW33589   3.633   4.417  13.772 -0.0620 -0.2781  0.1321
 7377SOL    HW133590   3.556   4.377  13.731  1.6418 -1.2659 -2.0771
 7377SOL    HW233591   3.685   4.446  13.697  1.3382 -2.8100  0.1236
 7378SOL     OW33592   0.440   2.090  13.095 -0.3543 -0.2479 -0.1500
 7378SOL    HW133593   0.490   2.171  13.086 -2.1270  1.1131  2.4082
 7378SOL    HW233594   0.515   2.039  13.063 -1.5326 -1.2688 -1.3010
 7379SOL     OW33595   4.338   0.988  10.425  0.2368 -0.3067 -0.1681
 7379SOL    HW133596   4.270   0.996  10.493 -0.1135  0.4465 -0.6029
 7379SOL    HW233597   4.370   1.078  10.433  0.7229 -0.4702 -0.3186
 7380SOL     OW33598   0.441   3.539  13.916  0.0816  0.0157  0.0886
 7380SOL    HW133599   0.381   3.498  13.979  0.4971  0.8740  1.0334
 7380SOL    HW233600   0.490   3.591  13.980  0.1147  1.1311 -0.8422
 7381SOL     OW33601   2.152   2.554  15.270  0.7432  0.3496  0.4769
 7381SOL    HW133602   2.198   2.638  15.278  0.0916  0.8326 -0.9089
 7381SOL    HW233603   2.086   2.567  15.202  2.2389  1.7211 -0.7277
 7382SOL     OW33604   2.951   1.147   5.063 -0.2065 -0.2699 -0.1725
 7382SOL    HW133605   2.962   1.143   5.158  1.0008  0.1531 -0.3051
 7382SOL    HW233606   3.036   1.181   5.037 -0.3442  1.0851  1.1187
 7383SOL     OW33607   4.389   2.463   6.928  0.1660  0.0641 -0.1665
 7383SOL    HW133608   4.372   2.531   6.863 -0.0884  0.1230 -0.0386
 7383SOL    HW233609   4.475   2.494   6.954 -0.0530  2.1393 -1.9358
 7384SOL     OW33610   2.607   1.721  12.182 -0.1008 -0.4219  0.5844
 7384SOL    HW133611   2.692   1.682  12.161  1.6129  2.4787  2.1042
 7384SOL    HW233612   2.574   1.719  12.093 -2.2838 -3.8641  1.4645
 7385SOL     OW33613   1.463   4.355   2.893 -0.5994 -0.7707 -0.0238
 7385SOL    HW133614   1.540   4.382   2.942 -0.8846 -1.0304  0.5644
 7385SOL    HW233615   1.401   4.427   2.898 -2.3543 -2.2377 -0.6737
 7386SOL     OW33616   4.655   4.241  15.292 -0.2300  0.0149 -0.0654
 7386SOL    HW133617   4.684   4.299  15.221 -0.3146  0.7444  0.4893
 7386SOL    HW233618   4.597   4.190  15.236  0.3288 -0.3291 -0.3258
 7387SOL     OW33619   1.533   0.708   4.563  0.0452 -0.2247  0.5215
 7387SOL    HW133620   1.460   0.699   4.502  0.8948  0.4474 -0.5994
 7387SOL    HW233621   1.479   0.729   4.639 -1.9280 -1.0068 -0.6516
 7388SOL     OW33622   3.120   0.715  15.325  0.8549 -0.9164 -0.2382
 7388SOL    HW133623   3.122   0.649  15.255  0.0823  1.3521 -2.4011
 7388SOL    HW233624   3.213   0.726  15.345  0.8563 -1.6018  0.1466
 7389SOL     OW33625   3.669   2.882  17.154  1.2083 -0.1637  0.1536
 7389SOL    HW133626   3.604   2.951  17.139 -0.2557 -1.8080 -1.1221
 7389SOL    HW233627   3.718   2.914  17.230  0.5364  0.1857  0.4454
 7390SOL     OW33628   4.569   1.549   5.885 -0.1692  0.4649  0.2484
 7390SOL    HW133629   4.644   1.600   5.915 -0.3771  1.5899 -1.2031
 7390SOL    HW233630   4.571   1.586   5.797  1.3922  1.1062  0.5587
 7391SOL     OW33631   3.043   2.364   2.902  0.1180 -0.5485  0.1339
 7391SOL    HW133632   2.949   2.354   2.887  0.4123 -0.5776 -1.6348
 7391SOL    HW233633   3.071   2.397   2.817 -2.4389  0.9125 -0.1477
 7392SOL     OW33634   1.375   0.515   2.922  0.4624 -0.0231  0.2591
 7392SOL    HW133635   1.312   0.502   2.993 -1.4330  0.7816 -1.2786
 7392SOL    HW233636   1.434   0.571   2.973 -0.6777  0.9500  0.5075
 7393SOL     OW33637   0.124   3.031   3.377  0.3229 -0.0672  0.1200
 7393SOL    HW133638   0.189   3.075   3.433  1.2222  0.7665 -1.5793
 7393SOL    HW233639   0.067   2.991   3.442  1.4550  1.5426  2.1189
 7394SOL     OW33640   4.266   2.709   9.196  0.3754  0.0755 -0.2666
 7394SOL    HW133641   4.255   2.649   9.122  1.6425 -0.6551  0.1546
 7394SOL    HW233642   4.183   2.757   9.199  0.6105  0.4163  0.5954
 7395SOL     OW33643   3.126   3.600   9.064  0.6952  0.0119 -0.0551
 7395SOL    HW133644   3.135   3.515   9.108  0.1331  0.0672  0.1697
 7395SOL    HW233645   3.174   3.644   9.133 -0.7876  0.2461  0.8246
 7396SOL     OW33646   1.153   3.451   2.912  0.3748 -0.2255 -0.2224
 7396SOL    HW133647   1.107   3.367   2.909 -0.0183  0.0535 -1.6230
 7396SOL    HW233648   1.215   3.435   2.841 -0.6902 -1.1488 -0.9301
 7397SOL     OW33649   2.452   4.424   2.339 -0.5497 -0.3169  0.5681
 7397SOL    HW133650   2.514   4.485   2.299 -0.1257 -0.1891  1.4108
 7397SOL    HW233651   2.444   4.449   2.431 -0.4427  0.6674  0.3084
 7398SOL     OW33652   2.283   0.974   1.406 -0.0170 -0.1406 -0.1234
 7398SOL    HW133653   2.288   0.957   1.311 -1.5291  1.9269 -0.5848
 7398SOL    HW233654   2.375   0.963   1.429  0.8681  3.1673 -2.1159
 7399SOL     OW33655   2.662   4.656   1.939  0.6026 -0.1161  0.4054
 7399SOL    HW133656   2.665   4.656   1.844  0.4392  0.7508  0.4041
 7399SOL    HW233657   2.710   4.575   1.956 -0.1261 -0.5776  0.2891
 7400SOL     OW33658   2.875   4.147   4.707 -0.2701 -0.6244 -0.5048
 7400SOL    HW133659   2.953   4.202   4.701 -0.4136 -0.3023  0.6208
 7400SOL    HW233660   2.811   4.206   4.667  1.0260  0.5550 -0.8583
 7401SOL     OW33661   0.826   1.490   2.792  0.0320  0.0987  0.2310
 7401SOL    HW133662   0.814   1.411   2.740  0.6616 -0.1069  0.4064
 7401SOL    HW233663   0.886   1.543   2.741 -1.1269 -1.5086 -2.7752
 7402SOL     OW33664   1.704   3.967   8.029  0.2476 -0.1521  0.9324
 7402SOL    HW133665   1.739   3.975   8.118  1.3276 -0.5430  0.5324
 7402SOL    HW233666   1.769   3.908   7.992  0.5405  0.6075  0.2359
 7403SOL     OW33667   0.612   2.406  12.420  0.6577  0.0149 -0.0949
 7403SOL    HW133668   0.601   2.410  12.325 -0.5778 -0.1347  0.0400
 7403SOL    HW233669   0.612   2.499  12.441  1.5971  0.2413 -1.1072
 7404SOL     OW33670   4.118   0.911  11.442  0.2543 -0.1402 -0.7404
 7404SOL    HW133671   4.164   0.918  11.526  0.6910  1.5173 -1.1189
 7404SOL    HW233672   4.116   1.003  11.415  1.3971 -0.4198 -1.7920
 7405SOL     OW33673   4.059   2.885   9.873 -0.0262 -0.3710 -0.2812
 7405SOL    HW133674   4.149   2.902   9.846 -0.1015 -2.9396 -2.1561
 7405SOL    HW233675   4.029   2.811   9.821 -0.8936 -0.0571 -0.2283
 7406SOL     OW33676   1.604   2.179  11.571  0.0857 -0.4008 -0.3694
 7406SOL    HW133677   1.677   2.121  11.591  0.1954 -0.4132 -0.8089
 7406SOL    HW233678   1.595   2.175  11.476  2.9759  0.5511 -0.6709
 7407SOL     OW33679   4.343   3.198  17.331 -0.0684 -0.4042  0.4593
 7407SOL    HW133680   4.320   3.107  17.314  0.9559 -0.6387  0.2993
 7407SOL    HW233681   4.294   3.238  17.259 -1.2588 -0.4225  1.2742
 7408SOL     OW33682   3.868   4.353   4.741  0.0032 -0.6644  0.1971
 7408SOL    HW133683   3.882   4.403   4.821 -0.6372  0.7278 -0.5587
 7408SOL    HW233684   3.931   4.281   4.743  0.4163 -0.2665  1.3953
 7409SOL     OW33685   2.026   4.116   5.294 -0.0667 -0.0628 -0.9433
 7409SOL    HW133686   2.069   4.087   5.214  0.2656 -0.4175 -0.6363
 7409SOL    HW233687   2.015   4.033   5.341  0.2290  1.0482  1.0772
 7410SOL     OW33688   2.762   4.706   6.050 -0.6213  0.0052 -0.2417
 7410SOL    HW133689   2.701   4.664   5.989  0.3001  0.4336 -1.4617
 7410SOL    HW233690   2.742   4.674   6.138  0.5709 -0.0903 -0.0140
 7411SOL     OW33691   0.919   2.155   6.825  0.0368  0.2238  0.4646
 7411SOL    HW133692   0.944   2.130   6.736 -0.6995  0.4633  0.1889
 7411SOL    HW233693   0.836   2.202   6.817 -1.7258 -3.3754 -2.4057
 7412SOL     OW33694   2.440   3.152   5.683 -0.4496 -0.6099  0.3165
 7412SOL    HW133695   2.390   3.202   5.618 -0.9148 -2.3791 -0.6729
 7412SOL    HW233696   2.399   3.066   5.674  0.5659 -0.9982 -0.6529
 7413SOL     OW33697   4.635   4.454  10.078 -0.4397  0.1917 -0.5602
 7413SOL    HW133698   4.589   4.499  10.149 -0.6095  0.0937 -0.6071
 7413SOL    HW233699   4.635   4.366  10.114  0.1201  0.6467  0.5267
 7414SOL     OW33700   2.758   0.686  12.228 -0.2802 -0.2570 -0.1091
 7414SOL    HW133701   2.764   0.745  12.303  3.9227 -0.1934 -0.4582
 7414SOL    HW233702   2.752   0.755  12.161  0.1196 -0.3080 -0.2002
 7415SOL     OW33703   1.913   1.886   6.703  0.5032 -0.1353  0.1968
 7415SOL    HW133704   1.837   1.862   6.650  0.6310  0.0415 -0.0664
 7415SOL    HW233705   1.892   1.979   6.703 -2.4819 -0.8212 -2.2329
 7416SOL     OW33706   1.764   2.297   7.300  0.6459 -0.3562 -0.0845
 7416SOL    HW133707   1.670   2.309   7.314  0.7190 -0.3852  0.4107
 7416SOL    HW233708   1.764   2.226   7.236 -0.0678 -1.0926  0.7495
 7417SOL     OW33709   3.592   1.830  13.445 -0.7775 -0.1852  0.1893
 7417SOL    HW133710   3.499   1.826  13.425 -1.0276  3.6784  0.4985
 7417SOL    HW233711   3.584   1.842  13.539  1.1536 -0.5510  0.4116
 7418SOL     OW33712   4.154   0.187   6.286 -0.0362 -0.5619  0.1731
 7418SOL    HW133713   4.080   0.158   6.233  1.0181  1.8447 -2.6195
 7418SOL    HW233714   4.109   0.227   6.360 -2.0027 -2.8450  0.2000
 7419SOL     OW33715   1.208   3.678   3.049 -0.0746  0.1755 -0.5125
 7419SOL    HW133716   1.197   3.610   2.983 -1.0793  1.0077 -1.1979
 7419SOL    HW233717   1.118   3.699   3.072  0.2674 -0.3953  1.3406
 7420SOL     OW33718   2.470   0.546   0.346 -0.7099 -0.1568 -0.5803
 7420SOL    HW133719   2.399   0.488   0.374  0.0344 -1.1913 -0.8175
 7420SOL    HW233720   2.437   0.564   0.258  0.5661  1.3321 -0.7671
 7421SOL     OW33721   3.446   2.059  10.708 -0.3677 -0.0831  0.1963
 7421SOL    HW133722   3.399   2.000  10.650  0.0506 -0.9048  0.6900
 7421SOL    HW233723   3.535   2.053  10.673 -0.0215 -2.6105  1.5227
 7422SOL     OW33724   0.759   1.605  15.480 -0.3704 -0.5386 -0.1217
 7422SOL    HW133725   0.844   1.581  15.443 -0.6362 -0.9679 -0.4555
 7422SOL    HW233726   0.790   1.656  15.555  1.7843 -1.4605 -0.3950
 7423SOL     OW33727   0.868   4.030   6.052 -0.1204 -0.2299  0.0914
 7423SOL    HW133728   0.813   4.047   5.975  1.2103 -1.1105 -1.0699
 7423SOL    HW233729   0.818   4.086   6.111 -1.7694  0.3353 -1.8074
 7424SOL     OW33730   0.088   3.606   1.142  0.0362 -0.1072  0.0151
 7424SOL    HW133731   0.039   3.524   1.149  1.0493 -0.8040 -1.0833
 7424SOL    HW233732   0.030   3.681   1.158 -0.7101 -0.8144  0.6036
 7425SOL     OW33733   1.692   1.339  11.355 -0.2904  0.6942  0.1880
 7425SOL    HW133734   1.600   1.354  11.334 -0.2039  0.3086 -0.4770
 7425SOL    HW233735   1.681   1.358  11.448 -0.0896 -3.5411  1.0868
 7426SOL     OW33736   4.530   1.222   9.164  0.0089 -0.8332  0.0813
 7426SOL    HW133737   4.568   1.284   9.226  0.1035  0.2333 -1.0395
 7426SOL    HW233738   4.514   1.290   9.099  0.7185  0.0366  0.8204
 7427SOL     OW33739   3.100   1.112   2.173  0.6211 -0.1369 -0.0701
 7427SOL    HW133740   3.147   1.112   2.090 -0.1398 -1.6414 -0.4878
 7427SOL    HW233741   3.064   1.024   2.186  1.8686 -0.7838 -1.0346
 7428SOL     OW33742   0.435   3.276   5.755 -0.2926  0.0711 -0.7346
 7428SOL    HW133743   0.516   3.242   5.718 -0.7787 -0.9994 -0.8126
 7428SOL    HW233744   0.377   3.201   5.741  1.5645 -1.5537  0.3600
 7429SOL     OW33745   3.003   2.258  11.332  0.4467  0.4843 -0.2908
 7429SOL    HW133746   2.919   2.295  11.360  0.2339  0.4408 -0.8760
 7429SOL    HW233747   3.036   2.303  11.254 -0.7772 -0.6186 -1.4513
 7430SOL     OW33748   2.487   4.311  10.952 -0.4699 -0.1935  0.4255
 7430SOL    HW133749   2.457   4.246  11.015  0.0791 -0.0204  0.8686
 7430SOL    HW233750   2.549   4.269  10.892 -0.8742 -2.0729  1.3397
 7431SOL     OW33751   1.132   2.188  17.048 -0.1725 -0.5547 -0.5542
 7431SOL    HW133752   1.079   2.115  17.015 -0.0451 -0.5756 -0.7133
 7431SOL    HW233753   1.114   2.189  17.142 -3.6511  1.0249 -1.2390
 7432SOL     OW33754   3.653   1.078   6.444 -0.1367 -0.0219 -0.6598
 7432SOL    HW133755   3.652   1.155   6.502  1.0910  0.1817 -0.9230
 7432SOL    HW233756   3.727   1.028   6.478  0.2030 -0.4514 -2.0723
 7433SOL     OW33757   2.929   1.776   5.858 -0.2085  0.6603 -0.2696
 7433SOL    HW133758   2.949   1.688   5.891 -2.7196  0.3712  0.4839
 7433SOL    HW233759   2.951   1.828   5.935 -1.9744 -0.5744  1.0860
 7434SOL     OW33760   1.857   2.469   4.897  0.1856 -0.0150 -0.1221
 7434SOL    HW133761   1.840   2.493   4.805  0.8252  1.5175  0.1503
 7434SOL    HW233762   1.866   2.554   4.940  1.5709  0.4085 -1.2502
 7435SOL     OW33763   0.024   4.195   8.170  0.0863 -0.2342 -0.0149
 7435SOL    HW133764   0.026   4.250   8.248  0.6452 -0.2297 -0.0377
 7435SOL    HW233765   4.671   4.135   8.186 -0.9744  1.3753  1.2007
 7436SOL     OW33766   3.259   4.068   6.532  0.4120 -0.3139  0.0074
 7436SOL    HW133767   3.286   4.142   6.477 -1.7710  1.7553  1.6755
 7436SOL    HW233768   3.336   4.058   6.587  0.4267 -0.7232 -0.0933
 7437SOL     OW33769   1.235   2.485   9.445 -0.5574  0.5234  0.4028
 7437SOL    HW133770   1.254   2.405   9.396  1.3091  1.9740 -1.2639
 7437SOL    HW233771   1.147   2.506   9.415 -0.0933  0.1983 -1.2270
 7438SOL     OW33772   1.082   1.827   3.936  0.2590 -0.1262  0.1387
 7438SOL    HW133773   1.174   1.799   3.931  0.6544  1.1332  0.2952
 7438SOL    HW233774   1.056   1.782   3.856  1.1320 -1.0871  0.3911
 7439SOL     OW33775   1.931   2.506  12.672 -0.3699 -0.1747  0.3870
 7439SOL    HW133776   1.925   2.411  12.665  1.3137 -0.3174  1.0355
 7439SOL    HW233777   2.025   2.519  12.675 -0.5160  1.7756 -2.9161
 7440SOL     OW33778   3.369   2.215  14.714 -0.1180  0.0587  0.0812
 7440SOL    HW133779   3.422   2.225  14.635 -2.2982 -0.7064 -1.4747
 7440SOL    HW233780   3.299   2.277  14.696  2.0661  2.2008 -1.0214
 7441SOL     OW33781   1.655   3.332   7.732  0.4303 -0.1644 -0.3288
 7441SOL    HW133782   1.700   3.389   7.669  0.7072 -0.3541 -0.3016
 7441SOL    HW233783   1.712   3.348   7.808  0.2687 -0.3557 -0.1682
 7442SOL     OW33784   3.097   3.488  12.100 -0.1159 -0.5928 -0.2426
 7442SOL    HW133785   3.072   3.544  12.028  2.3792 -0.6500 -1.1510
 7442SOL    HW233786   3.177   3.532  12.127  0.0558 -1.1014  0.0888
 7443SOL     OW33787   3.683   2.512   2.073  0.5082 -0.0200 -0.1362
 7443SOL    HW133788   3.725   2.536   1.991 -1.0490 -2.8983 -1.7787
 7443SOL    HW233789   3.597   2.492   2.037  0.5308 -1.2598  0.4728
 7444SOL     OW33790   3.730   0.361  13.008  0.1326 -0.0421  0.2239
 7444SOL    HW133791   3.758   0.397  13.092 -0.2414  1.0061 -0.1065
 7444SOL    HW233792   3.763   0.420  12.940 -2.7542 -0.6838 -1.7285
 7445SOL     OW33793   4.390   1.980   6.426  0.2981 -0.2355 -0.2938
 7445SOL    HW133794   4.384   1.889   6.398  0.3292 -0.1754 -0.4990
 7445SOL    HW233795   4.300   2.010   6.415  0.1308 -0.5469  0.2231
 7446SOL     OW33796   4.594   3.725   4.867  0.0618  0.3923  0.3894
 7446SOL    HW133797   4.656   3.718   4.795 -0.3123  0.6191  0.0437
 7446SOL    HW233798   4.564   3.634   4.871 -0.1145  0.3877 -0.9249
 7447SOL     OW33799   1.467   0.560   0.156  0.1096  0.6486  0.5695
 7447SOL    HW133800   1.490   0.529   0.244 -1.9426  0.0815  0.8864
 7447SOL    HW233801   1.439   0.648   0.179  0.1956  0.4319  1.5237
 7448SOL     OW33802   2.933   0.198   1.410 -0.0652  0.0214 -0.0862
 7448SOL    HW133803   2.993   0.155   1.472  0.3505  0.0136 -0.5018
 7448SOL    HW233804   2.969   0.169   1.327  1.2567  0.2597  0.4053
 7449SOL     OW33805   0.227   2.571   1.856 -0.1242 -0.4927 -0.4561
 7449SOL    HW133806   0.135   2.553   1.835 -0.2668 -0.2052 -0.0666
 7449SOL    HW233807   0.239   2.521   1.937 -2.6684  1.0851  0.8913
 7450SOL     OW33808   4.337   1.684   1.984  0.0382 -0.0275 -0.3892
 7450SOL    HW133809   4.395   1.674   1.909  0.1145 -1.7221 -0.1060
 7450SOL    HW233810   4.283   1.759   1.956  1.4781  0.7889 -0.9912
 7451SOL     OW33811   0.909   1.980  11.075 -0.1773 -0.1835  0.3340
 7451SOL    HW133812   0.995   1.972  11.032  0.0744  0.6013  0.7012
 7451SOL    HW233813   0.925   1.941  11.160 -0.9098  1.6992  1.3313
 7452SOL     OW33814   1.881   3.175   2.766  0.1359  0.1210  0.4040
 7452SOL    HW133815   1.865   3.264   2.735  1.4420 -0.1663 -1.0670
 7452SOL    HW233816   1.813   3.120   2.730 -1.3222  0.9608  1.8525
 7453SOL     OW33817   0.448   2.523  16.427 -0.4552  0.2121 -0.1084
 7453SOL    HW133818   0.538   2.506  16.400 -0.6483 -0.8279 -0.1010
 7453SOL    HW233819   0.415   2.589  16.366 -0.8349 -0.1967 -0.3387
 7454SOL     OW33820   1.393   3.945   3.296  0.8905  0.1886  0.1508
 7454SOL    HW133821   1.409   3.974   3.386 -0.6912 -0.6416  0.6986
 7454SOL    HW233822   1.478   3.911   3.268  0.8288 -0.2986  0.5510
 7455SOL     OW33823   2.681   1.791  14.773  0.1360 -0.7424 -0.7536
 7455SOL    HW133824   2.670   1.743  14.691 -0.2546 -1.2288 -0.4198
 7455SOL    HW233825   2.648   1.880  14.760 -0.2971 -0.8272 -0.2492
 7456SOL     OW33826   1.920   3.967   8.719 -0.0070 -0.1406  0.0123
 7456SOL    HW133827   1.979   3.942   8.790  0.7470  0.6794 -0.3200
 7456SOL    HW233828   1.856   4.012   8.774 -0.0509 -0.5102  0.2620
 7457SOL     OW33829   2.499   0.471   8.794  0.1719  0.4348  0.1455
 7457SOL    HW133830   2.473   0.468   8.886  0.1463  0.3997  0.1369
 7457SOL    HW233831   2.580   0.524   8.793  0.6902 -0.3692 -1.2271
 7458SOL     OW33832   1.534   4.685   1.547  0.1706 -0.0056  0.7302
 7458SOL    HW133833   1.527   0.029   1.617  1.1693 -1.6376  2.3290
 7458SOL    HW233834   1.447   4.696   1.508 -0.8113 -1.7663  2.4157
 7459SOL     OW33835   2.826   0.737   7.439 -0.2749 -0.4989  0.3584
 7459SOL    HW133836   2.908   0.783   7.458 -1.2232  0.8383  1.2414
 7459SOL    HW233837   2.798   0.708   7.526  1.4998  0.0376  1.1091
 7460SOL     OW33838   4.459   1.627   5.194  0.3793  0.1790 -0.1533
 7460SOL    HW133839   4.492   1.699   5.248 -1.4402  1.9153 -1.3670
 7460SOL    HW233840   4.371   1.658   5.172  0.4801  0.8589  0.4249
 7461SOL     OW33841   4.169   2.510   3.121  0.1286 -0.1063 -0.2235
 7461SOL    HW133842   4.253   2.479   3.088  0.2572  2.7796 -2.6403
 7461SOL    HW233843   4.144   2.573   3.054  2.9078  1.7841  0.5220
 7462SOL     OW33844   0.048   0.157   8.590  0.0942 -0.1600 -0.0742
 7462SOL    HW133845   0.054   0.113   8.675 -0.1263 -1.2659 -0.6429
 7462SOL    HW233846   0.116   0.223   8.608 -0.1369 -0.1874  0.9298
 7463SOL     OW33847   1.161   4.194   3.457 -0.0691 -0.6043  0.1231
 7463SOL    HW133848   1.163   4.281   3.419 -1.9495 -0.1614  1.0480
 7463SOL    HW233849   1.073   4.163   3.437 -0.1337 -1.1219  1.1782
 7464SOL     OW33850   2.313   0.245   2.137  0.0932  0.0968 -0.0994
 7464SOL    HW133851   2.320   0.181   2.208 -0.2943  0.5109  0.3102
 7464SOL    HW233852   2.363   0.202   2.068  1.4361  1.7125 -0.1258
 7465SOL     OW33853   0.827   2.948   9.920 -0.0435  0.0401 -0.1721
 7465SOL    HW133854   0.873   2.914   9.844 -0.7182 -0.6739 -0.2646
 7465SOL    HW233855   0.827   3.038   9.889  0.7176  0.9119  2.3173
 7466SOL     OW33856   2.183   0.443   1.980 -0.1329 -0.4596 -0.0132
 7466SOL    HW133857   2.215   0.362   2.019 -2.0217 -1.1289  0.1051
 7466SOL    HW233858   2.253   0.507   1.997 -0.3168 -0.0175 -0.9367
 7467SOL     OW33859   0.811   4.029   4.666 -0.6556  0.6470 -0.1305
 7467SOL    HW133860   0.903   4.023   4.693 -0.2365  1.7942 -1.2682
 7467SOL    HW233861   0.778   3.970   4.733  0.3150  0.0154 -0.2069
 7468SOL     OW33862   3.003   4.167  13.763  0.2154  0.1489 -0.3970
 7468SOL    HW133863   2.951   4.246  13.778 -0.6590 -0.1104 -1.9804
 7468SOL    HW233864   3.020   4.132  13.850  0.0357  0.1838 -0.3471
 7469SOL     OW33865   4.656   3.758   9.236  0.6097  0.3512  0.4438
 7469SOL    HW133866   4.714   3.708   9.293 -0.5547 -0.6117  0.7769
 7469SOL    HW233867   4.642   3.696   9.164 -0.7104 -0.1855  1.1645
 7470SOL     OW33868   2.870   4.328   5.580 -0.5542  0.3149 -0.0018
 7470SOL    HW133869   2.867   4.296   5.671 -1.1031 -1.0832 -0.5124
 7470SOL    HW233870   2.875   4.423   5.587 -1.1423  0.2991  0.6068
 7471SOL     OW33871   3.648   4.471   7.845  0.6908  0.5243 -0.8324
 7471SOL    HW133872   3.630   4.547   7.789 -2.2634  0.6016  0.2711
 7471SOL    HW233873   3.714   4.434   7.786  1.4985 -1.3366  1.2627
 7472SOL     OW33874   1.531   1.584   9.295 -0.1542  0.1694  0.4083
 7472SOL    HW133875   1.443   1.598   9.329 -1.6536 -1.4598 -2.8202
 7472SOL    HW233876   1.557   1.676   9.292  0.2953 -0.0495 -2.9061
 7473SOL     OW33877   3.347   1.598  14.128 -0.1572  0.2360 -1.3470
 7473SOL    HW133878   3.272   1.619  14.073 -1.3381 -1.8209 -0.5196
 7473SOL    HW233879   3.373   1.684  14.160 -0.9693 -0.2714  0.6729
 7474SOL     OW33880   0.779   4.137   7.046 -0.3666  0.2212  0.5734
 7474SOL    HW133881   0.748   4.053   7.014 -0.8311 -1.1544  4.6473
 7474SOL    HW233882   0.792   4.134   7.141  1.3952 -0.2605  0.3084
 7475SOL     OW33883   1.724   1.452   7.751 -0.1894  0.1132  0.0973
 7475SOL    HW133884   1.790   1.426   7.816  1.0258  1.9543 -0.3960
 7475SOL    HW233885   1.785   1.483   7.684  0.2333 -1.6607 -0.3201
 7476SOL     OW33886   4.303   3.627   6.747  0.3377 -0.1634  0.1323
 7476SOL    HW133887   4.279   3.594   6.833 -2.0532 -0.9645 -0.8364
 7476SOL    HW233888   4.277   3.555   6.689  2.1643 -0.6215 -0.1110
 7477SOL     OW33889   1.383   3.060   2.793 -0.6315 -0.2205  0.3730
 7477SOL    HW133890   1.429   3.104   2.721 -2.5321 -1.3708 -1.5332
 7477SOL    HW233891   1.297   3.098   2.779 -0.3828 -0.0646 -0.7061
 7478SOL     OW33892   3.880   1.230   5.262 -0.1339  0.2638  0.1024
 7478SOL    HW133893   3.797   1.197   5.297 -0.5498  0.0419 -1.1070
 7478SOL    HW233894   3.849   1.290   5.195 -1.5118  1.2043  1.5890
 7479SOL     OW33895   2.661   1.589   3.461 -0.2264  0.3723 -0.2096
 7479SOL    HW133896   2.641   1.683   3.454  0.1866  0.6775  2.6022
 7479SOL    HW233897   2.756   1.586   3.472 -0.0733 -0.2162 -1.6833
 7480SOL     OW33898   2.525   3.064   3.114  0.1497 -0.3651  0.2448
 7480SOL    HW133899   2.468   3.133   3.146  0.7425 -1.0024  2.6253
 7480SOL    HW233900   2.597   3.049   3.176  1.6104  0.6386 -1.1867
 7481SOL     OW33901   0.856   1.810   3.221  0.0715  0.1379  0.0561
 7481SOL    HW133902   0.913   1.833   3.148 -0.5873  0.6080 -0.3106
 7481SOL    HW233903   0.791   1.759   3.172  1.2402  0.7605 -2.1153
 7482SOL     OW33904   0.379   0.378   5.319  0.1276 -0.0203 -0.3259
 7482SOL    HW133905   0.396   0.427   5.239 -0.7537  1.6999  0.5416
 7482SOL    HW233906   0.326   0.311   5.276  0.7516 -0.0175 -1.0985
 7483SOL     OW33907   0.858   1.260   5.951  0.1077 -0.0362  0.1603
 7483SOL    HW133908   0.937   1.229   5.906 -0.7819  0.7615 -1.9811
 7483SOL    HW233909   0.788   1.236   5.890 -0.5303  2.2979 -0.0360
 7484SOL     OW33910   0.950   0.256  15.661 -0.4775 -0.1162  0.2334
 7484SOL    HW133911   0.919   0.310  15.588 -2.0927 -0.2303  0.8322
 7484SOL    HW233912   0.882   0.278  15.724 -0.6042  1.0687 -0.3138
 7485SOL     OW33913   1.811   2.948   3.579  0.1171 -0.1294 -0.5920
 7485SOL    HW133914   1.889   2.919   3.626 -0.4891  0.1177  0.5415
 7485SOL    HW233915   1.742   2.958   3.644  0.4679 -2.1132  0.0945
 7486SOL     OW33916   2.501   1.861   3.545  0.4386  0.0125  0.2201
 7486SOL    HW133917   2.438   1.867   3.473 -0.0835  2.9369  0.9157
 7486SOL    HW233918   2.442   1.893   3.614  2.3302 -2.9092  3.1730
 7487SOL     OW33919   0.148   0.826   2.372 -0.5565  0.4007 -0.0207
 7487SOL    HW133920   0.096   0.786   2.442 -0.3567  0.0263 -0.0860
 7487SOL    HW233921   0.084   0.888   2.336 -1.2828 -1.3480 -1.7538
 7488SOL     OW33922   3.996   0.124   2.974 -0.2481  0.4110 -0.2423
 7488SOL    HW133923   3.912   0.131   2.928 -0.6294 -1.6501  0.1480
 7488SOL    HW233924   3.990   0.038   3.014 -2.9874  0.9761  0.6045
 7489SOL     OW33925   2.178   1.207  16.658  0.5046 -0.0331 -0.6445
 7489SOL    HW133926   2.204   1.180  16.570  0.5407  0.4220 -0.7725
 7489SOL    HW233927   2.254   1.208  16.716  0.9945  1.6359 -1.3205
 7490SOL     OW33928   0.233   3.621   4.102 -0.3352 -0.1980  0.0777
 7490SOL    HW133929   0.322   3.598   4.125 -0.3506 -0.1795  0.1569
 7490SOL    HW233930   0.201   3.657   4.184 -0.5389 -1.2034  0.4414
 7491SOL     OW33931   3.980   3.898   6.043 -0.2259  0.0268 -0.5954
 7491SOL    HW133932   3.958   3.929   6.131 -2.9401 -0.7047 -1.0317
 7491SOL    HW233933   3.893   3.866   6.020 -0.4882  0.1443  0.2522
 7492SOL     OW33934   4.279   1.681   4.454  0.3896  0.4892  0.0440
 7492SOL    HW133935   4.354   1.623   4.469 -0.7220 -0.4832  1.8260
 7492SOL    HW233936   4.288   1.726   4.538 -0.4298  1.0231 -0.1504
 7493SOL     OW33937   2.598   4.714   0.201  0.0558 -0.3056 -0.4036
 7493SOL    HW133938   2.513   0.035   0.191  0.5460  1.0765  1.1491
 7493SOL    HW233939   2.638   0.027   0.121  0.2499 -1.6782 -0.8898
 7494SOL     OW33940   0.683   2.474   1.655 -0.7233 -0.5283  0.2620
 7494SOL    HW133941   0.600   2.521   1.659 -0.4098  0.2665 -2.7681
 7494SOL    HW233942   0.736   2.543   1.615 -0.7895 -0.0043  1.0691
 7495SOL     OW33943   2.488   2.158  10.214  0.1082  0.4778 -0.1947
 7495SOL    HW133944   2.441   2.113  10.285 -1.1644 -2.2867 -2.7939
 7495SOL    HW233945   2.572   2.115  10.228  0.5141  1.1171 -0.7018
 7496SOL     OW33946   3.774   3.323   9.889  1.1524  0.0477  0.3796
 7496SOL    HW133947   3.729   3.316   9.973 -1.5781 -1.7123 -1.2269
 7496SOL    HW233948   3.849   3.263   9.897  0.8894 -0.4501 -0.8146
 7497SOL     OW33949   3.592   0.952   4.126 -0.1081  0.4473  0.1735
 7497SOL    HW133950   3.629   0.915   4.046  1.3938 -0.8794  1.5058
 7497SOL    HW233951   3.543   0.877   4.159 -1.0745 -0.3563 -3.0666
 7498SOL     OW33952   3.565   2.185   6.420 -0.1376 -0.4345 -0.1279
 7498SOL    HW133953   3.632   2.190   6.488 -0.0597  0.2890 -0.2652
 7498SOL    HW233954   3.492   2.222   6.470 -2.1810 -0.0785 -3.3641
 7499SOL     OW33955   3.006   3.717   4.775 -0.6201 -0.3470  0.2175
 7499SOL    HW133956   2.987   3.729   4.868  0.9900 -0.3469  0.5363
 7499SOL    HW233957   3.101   3.708   4.776 -0.2251  3.9303  0.6585
 7500SOL     OW33958   3.205   2.764   8.033  0.5848 -0.0368  0.3345
 7500SOL    HW133959   3.197   2.711   8.113 -0.9693  0.8124  0.7441
 7500SOL    HW233960   3.261   2.697   7.994  1.1728 -0.3133  1.6606
 7501SOL     OW33961   1.106   2.563   8.178  0.7078  0.5584  0.4612
 7501SOL    HW133962   1.147   2.616   8.109  2.1944  1.4774  2.0484
 7501SOL    HW233963   1.110   2.625   8.251  3.1486  1.1790 -0.1924
 7502SOL     OW33964   1.479   4.313   6.404 -0.1390 -0.1657 -0.2860
 7502SOL    HW133965   1.499   4.229   6.363  0.3373  0.5957 -1.6087
 7502SOL    HW233966   1.559   4.320   6.457  0.4112 -0.4037 -1.0811
 7503SOL     OW33967   2.944   0.040   4.922  0.3753 -0.9784  0.4043
 7503SOL    HW133968   2.858   0.073   4.949  0.6592 -0.7932  1.0840
 7503SOL    HW233969   2.943   4.667   4.940  1.0990 -0.7816  1.4888
 7504SOL     OW33970   2.049   2.177   8.806  0.3846  0.5062 -0.3373
 7504SOL    HW133971   2.051   2.214   8.718 -0.7953 -0.2736 -0.6776
 7504SOL    HW233972   2.032   2.256   8.858 -1.8830  0.0536 -0.4285
 7505SOL     OW33973   2.886   3.922   6.401 -0.3718  0.7274  0.3052
 7505SOL    HW133974   2.837   4.004   6.405 -1.1439  0.2304  0.9972
 7505SOL    HW233975   2.948   3.950   6.334 -2.1163  1.2016 -1.0967
 7506SOL     OW33976   2.470   0.859  11.884 -0.0990 -0.6107 -0.7097
 7506SOL    HW133977   2.452   0.929  11.822 -1.7991  1.5306  2.2163
 7506SOL    HW233978   2.439   0.781  11.837 -0.3643 -0.0780 -1.4277
 7507SOL     OW33979   1.124   3.618  11.079 -0.4238  0.1073 -0.2065
 7507SOL    HW133980   1.151   3.590  11.167  1.8251 -0.4291 -1.0717
 7507SOL    HW233981   1.193   3.683  11.068  1.4002 -1.9103 -0.7934
 7508SOL     OW33982   0.716   3.390   3.312  0.0317  0.1324  0.1507
 7508SOL    HW133983   0.653   3.372   3.242  1.7198  0.3454 -1.4172
 7508SOL    HW233984   0.717   3.317   3.375 -1.6669 -1.4932 -1.7026
 7509SOL     OW33985   3.878   2.048  14.825 -0.0368 -0.5251  0.0011
 7509SOL    HW133986   3.840   2.111  14.763  1.2757  1.1246  0.8753
 7509SOL    HW233987   3.961   2.094  14.835 -0.9959  0.9646  1.0741
 7510SOL     OW33988   1.814   0.052   5.783  0.4172  0.0067  0.0116
 7510SOL    HW133989   1.909   0.039   5.787  0.3009 -0.4668  1.0387
 7510SOL    HW233990   1.802   0.139   5.746  1.9778  0.1836 -0.0656
 7511SOL     OW33991   0.456   1.152   3.023 -0.0528  0.5586  0.0316
 7511SOL    HW133992   0.540   1.112   3.001 -0.2379 -0.3354  0.9362
 7511SOL    HW233993   0.480   1.194   3.106  3.3216 -1.0556 -0.1314
 7512SOL     OW33994   3.917   0.608  16.239  0.1602 -0.7667  0.3484
 7512SOL    HW133995   3.963   0.527  16.259 -0.9901 -1.4771  0.0998
 7512SOL    HW233996   3.852   0.593  16.308 -1.2938 -0.3999 -0.9216
 7513SOL     OW33997   3.473   1.956   4.191 -0.3589  0.2048 -0.4172
 7513SOL    HW133998   3.432   1.907   4.120 -0.3215 -1.0940  0.4620
 7513SOL    HW233999   3.563   1.926   4.185  0.0456  1.2232  0.5119
 7514SOL     OW34000   0.865   3.258  13.186 -0.1737 -0.4862  0.3642
 7514SOL    HW134001   0.923   3.270  13.111 -1.3075  1.9120 -0.1224
 7514SOL    HW234002   0.893   3.173  13.219  0.4285 -0.6103 -0.4571
 7515SOL     OW34003   4.175   2.344   7.399 -0.2809  0.1136  0.2703
 7515SOL    HW134004   4.106   2.287   7.363  0.1087 -1.4237  1.9694
 7515SOL    HW234005   4.147   2.362   7.489 -2.2005 -2.0331  0.1075
 7516SOL     OW34006   1.187   1.129   8.964  0.2287 -0.2945 -0.2243
 7516SOL    HW134007   1.192   1.049   9.016  1.6502 -1.4941 -2.1957
 7516SOL    HW234008   1.208   1.087   8.880 -1.5202  0.0975 -0.8697
 7517SOL     OW34009   1.631   3.668  16.933  0.0935 -0.2519  0.0868
 7517SOL    HW134010   1.699   3.722  16.893  0.2793 -0.1589  0.5298
 7517SOL    HW234011   1.670   3.581  16.943 -0.0206 -0.5140 -1.6576
 7518SOL     OW34012   1.095   4.108   1.332  1.2025 -0.0031 -0.1963
 7518SOL    HW134013   1.085   4.077   1.422 -0.9857 -0.3982 -0.5843
 7518SOL    HW234014   1.080   4.201   1.347 -0.3891 -0.4416  0.9144
 7519SOL     OW34015   3.095   0.521   9.710  0.0309  0.1406 -0.1909
 7519SOL    HW134016   3.188   0.513   9.691  0.0790 -0.1178  0.1503
 7519SOL    HW234017   3.096   0.615   9.694 -0.9511  0.2031  0.0814
 7520SOL     OW34018   0.976   0.481   7.594  0.1952  0.4126  0.4874
 7520SOL    HW134019   0.955   0.543   7.524 -1.1411 -1.1716 -0.5105
 7520SOL    HW234020   1.071   0.488   7.598  0.1477  0.7765  0.9435
 7521SOL     OW34021   3.961   3.208  15.012  0.0351  0.6557 -0.6201
 7521SOL    HW134022   3.981   3.130  14.959 -0.8792  0.2924 -0.4338
 7521SOL    HW234023   4.033   3.219  15.074 -0.4307 -2.1875  0.4582
 7522SOL     OW34024   1.280   1.569   5.735 -0.0936 -0.3569 -0.3420
 7522SOL    HW134025   1.348   1.636   5.746 -0.2455 -0.5585  1.7821
 7522SOL    HW234026   1.238   1.604   5.657 -2.1593 -1.6280  0.2154
 7523SOL     OW34027   3.080   2.261  11.705  0.0215  0.0426 -0.6565
 7523SOL    HW134028   3.049   2.173  11.686  1.7121 -0.3553 -1.5608
 7523SOL    HW234029   3.003   2.310  11.678  0.4637 -0.5622 -3.0393
 7524SOL     OW34030   2.004   3.959   4.066 -0.0764  0.2442 -0.2520
 7524SOL    HW134031   1.919   3.976   4.106 -0.2721  3.1844 -1.9195
 7524SOL    HW234032   1.977   3.885   4.012  0.3994 -0.3960  0.4012
 7525SOL     OW34033   0.789   3.574   5.576 -0.0385 -0.5115 -0.1227
 7525SOL    HW134034   0.813   3.566   5.668  0.7161 -1.7448 -0.4279
 7525SOL    HW234035   0.868   3.618   5.543 -1.2110  3.1731  1.9309
 7526SOL     OW34036   1.000   0.485   5.127  0.3651  0.1204  0.5999
 7526SOL    HW134037   1.044   0.428   5.063  3.6345  2.7717  0.4943
 7526SOL    HW234038   0.932   0.433   5.171  1.2817 -1.4801  0.1484
 7527SOL     OW34039   1.066   0.891   3.527  0.1115 -0.8268  0.1900
 7527SOL    HW134040   1.157   0.860   3.530  0.6214  1.1136  4.1716
 7527SOL    HW234041   1.034   0.837   3.598  2.3512 -2.4003  0.0128
 7528SOL     OW34042   2.349   1.624  13.017  0.2219 -0.0906 -0.0932
 7528SOL    HW134043   2.385   1.707  12.986 -1.6138  0.5730 -0.4972
 7528SOL    HW234044   2.348   1.647  13.110 -2.0120 -1.0356  0.1289
 7529SOL     OW34045   3.332   2.088   5.332 -0.4977  0.0422 -0.0392
 7529SOL    HW134046   3.258   2.148   5.332 -1.3517 -0.9957  1.4251
 7529SOL    HW234047   3.381   2.121   5.407 -1.3304  1.3372 -0.0789
 7530SOL     OW34048   3.295   0.263   8.519  0.0114  0.2956 -0.7314
 7530SOL    HW134049   3.365   0.234   8.578 -1.3351 -0.9724  0.2344
 7530SOL    HW234050   3.256   0.333   8.572 -0.6795 -0.7199  0.1127
 7531SOL     OW34051   0.681   1.006   3.132  0.0606  0.0725 -0.3407
 7531SOL    HW134052   0.746   0.976   3.196 -1.2736 -1.2700  0.3899
 7531SOL    HW234053   0.695   0.938   3.066  0.3135  0.9004 -1.1277
 7532SOL     OW34054   1.338   1.604   2.893  0.1582  0.3271 -0.0809
 7532SOL    HW134055   1.426   1.595   2.856  0.7144  1.5281  0.9325
 7532SOL    HW234056   1.307   1.671   2.833 -0.2010  2.8126  2.8684
 7533SOL     OW34057   3.366   2.043  12.506  0.5482 -0.6717 -0.5292
 7533SOL    HW134058   3.279   2.017  12.473 -0.6198 -0.5060  2.4711
 7533SOL    HW234059   3.380   1.949  12.514 -0.4389 -0.8836 -1.2487
 7534SOL     OW34060   3.107   0.081   5.472 -0.2022  0.4129 -0.1898
 7534SOL    HW134061   3.059   0.064   5.390 -1.2181 -0.3309  0.5552
 7534SOL    HW234062   3.046   0.126   5.530 -0.3933  0.2931 -0.2954
 7535SOL     OW34063   1.450   1.717   5.129  0.3097  0.5449 -0.0293
 7535SOL    HW134064   1.414   1.751   5.047 -3.3239 -1.8638  0.5843
 7535SOL    HW234065   1.481   1.789   5.184  1.7891  1.6605 -2.2924
 7536SOL     OW34066   4.035   4.013   6.523 -0.1731  0.0255 -0.2606
 7536SOL    HW134067   4.125   4.041   6.507 -0.3251  0.6273 -0.0355
 7536SOL    HW234068   4.049   3.947   6.591 -1.9871  0.7575  0.8191
 7537SOL     OW34069   2.489   4.004   2.835 -0.3940 -0.0720  0.5888
 7537SOL    HW134070   2.481   3.910   2.817  0.0393 -0.3160  1.7175
 7537SOL    HW234071   2.433   4.012   2.912 -2.1506  1.7144 -0.8379
 7538SOL     OW34072   4.296   2.058   8.405  0.4282 -0.4602 -0.3886
 7538SOL    HW134073   4.387   2.081   8.385  0.4432 -1.2033 -1.1704
 7538SOL    HW234074   4.275   2.014   8.323 -0.8123 -0.5567 -0.0208
 7539SOL     OW34075   3.994   2.000   5.391 -0.8427  0.3202 -0.2539
 7539SOL    HW134076   3.939   2.071   5.425  1.0748  0.7837  1.9251
 7539SOL    HW234077   4.011   2.022   5.300  2.5657  1.2269  0.5970
 7540SOL     OW34078   3.878   0.699   2.449 -0.3367  0.3065 -0.1815
 7540SOL    HW134079   3.963   0.741   2.437 -0.8763  0.1391 -4.4426
 7540SOL    HW234080   3.872   0.703   2.545 -2.3767 -0.9195 -0.2536
 7541SOL     OW34081   3.250   3.237  16.681 -0.0694 -0.5757  0.5659
 7541SOL    HW134082   3.271   3.166  16.741  2.1706  0.2650  0.7708
 7541SOL    HW234083   3.194   3.293  16.734  0.1956 -1.9417  2.2649
 7542SOL     OW34084   1.216   2.850   7.289  0.5749 -0.2877 -0.3818
 7542SOL    HW134085   1.261   2.896   7.360 -1.0298  1.6267 -0.6044
 7542SOL    HW234086   1.133   2.827   7.330  1.3301 -0.4537  1.0780
 7543SOL     OW34087   3.559   1.683  15.733 -0.5976  0.0774 -0.0740
 7543SOL    HW134088   3.563   1.626  15.656  0.6248 -0.7155  0.5655
 7543SOL    HW234089   3.640   1.734  15.723  0.2211 -1.5400 -1.6632
 7544SOL     OW34090   3.211   0.584   6.798  0.6313 -0.0201 -0.0489
 7544SOL    HW134091   3.274   0.513   6.798  2.2175  1.3842  0.3791
 7544SOL    HW234092   3.270   0.658   6.811  0.2888  0.0419  1.1097
 7545SOL     OW34093   1.548   2.368  16.198  0.1640 -0.0844 -0.0808
 7545SOL    HW134094   1.529   2.275  16.208 -0.4341 -0.0498 -0.9207
 7545SOL    HW234095   1.464   2.399  16.230 -0.6264  0.1461 -2.3465
 7546SOL     OW34096   0.171   0.852   8.138  0.0083  0.0014 -0.2820
 7546SOL    HW134097   0.128   0.901   8.207 -0.3771  0.7066 -1.0168
 7546SOL    HW234098   0.104   0.783   8.130  0.6888 -0.5542 -1.2869
 7547SOL     OW34099   1.483   2.749   0.648 -0.6857  0.3550 -0.0262
 7547SOL    HW134100   1.504   2.704   0.730 -0.5778  1.8036  0.7432
 7547SOL    HW234101   1.407   2.704   0.612 -0.1931 -0.9665  0.5770
 7548SOL     OW34102   4.442   0.129  14.474  0.0685 -0.5064 -0.2058
 7548SOL    HW134103   4.364   0.093  14.516  0.6729 -1.4027  0.1520
 7548SOL    HW234104   4.473   0.190  14.542 -2.1889 -1.9740  2.1553
 7549SOL     OW34105   0.576   4.640   0.572  0.2485 -0.1803 -0.2081
 7549SOL    HW134106   0.564   4.547   0.592  1.4427 -0.5987 -1.4463
 7549SOL    HW234107   0.671   4.649   0.563  0.2820 -0.5611 -0.2284
 7550SOL     OW34108   2.192   1.714  11.835 -0.1302 -0.2749 -0.6474
 7550SOL    HW134109   2.159   1.631  11.871  1.1666 -0.2341  0.6729
 7550SOL    HW234110   2.122   1.751  11.782  1.0834 -0.9667 -2.7429
 7551SOL     OW34111   2.796   3.649   5.520 -0.0617  0.3855  0.6564
 7551SOL    HW134112   2.779   3.676   5.610  0.3581 -1.7562  1.3740
 7551SOL    HW234113   2.787   3.555   5.530 -1.6217  0.6431  1.7476
 7552SOL     OW34114   4.532   3.462   5.956 -0.0476 -0.4313 -0.4002
 7552SOL    HW134115   4.554   3.482   6.047 -0.8159 -2.0175  0.1109
 7552SOL    HW234116   4.604   3.500   5.904 -0.4091 -0.2968 -0.8068
 7553SOL     OW34117   1.231   0.749   6.901 -0.0514 -0.6051  0.2171
 7553SOL    HW134118   1.156   0.797   6.866  0.2175 -1.2602 -1.2653
 7553SOL    HW234119   1.185   0.707   6.973 -1.3301  1.3629  0.5283
 7554SOL     OW34120   2.013   4.522   2.805  0.5333  0.4753  0.9113
 7554SOL    HW134121   2.086   4.578   2.777  0.9949  0.1891  1.5523
 7554SOL    HW234122   1.941   4.565   2.758  1.1291 -0.3732 -0.7596
 7555SOL     OW34123   1.528   2.937   4.054 -0.0087 -0.0910 -0.2270
 7555SOL    HW134124   1.598   2.973   4.108 -2.4470  1.3503  1.9726
 7555SOL    HW234125   1.453   2.992   4.074  0.4654  1.0219 -1.5294
 7556SOL     OW34126   3.094   2.698   4.719  0.0550 -0.4950  0.0013
 7556SOL    HW134127   3.144   2.691   4.801 -2.7073  0.4621  1.7492
 7556SOL    HW234128   3.166   2.708   4.655 -0.0037 -1.6522 -0.2368
 7557SOL     OW34129   4.696   1.822   1.058  0.3836 -0.6273  0.1828
 7557SOL    HW134130   0.060   1.862   1.039  0.0270 -0.2970 -0.7415
 7557SOL    HW234131   4.698   1.731   1.029 -0.4203 -0.8336  0.7880
 7558SOL     OW34132   1.104   2.140   8.099  0.0838 -0.0868 -0.3657
 7558SOL    HW134133   1.068   2.184   8.022 -1.2429  0.3698  0.5133
 7558SOL    HW234134   1.173   2.204   8.118 -0.0148 -0.4413  1.1635
 7559SOL     OW34135   1.132   1.220   6.955  0.4841 -0.1268  0.0118
 7559SOL    HW134136   1.094   1.306   6.937 -1.6012 -1.1845 -0.6105
 7559SOL    HW234137   1.124   1.202   7.049  0.2715  2.8553  0.5825
 7560SOL     OW34138   3.790   0.199  10.326 -0.1858  0.4214  0.0033
 7560SOL    HW134139   3.778   0.148  10.405  0.5533 -0.2129 -0.3008
 7560SOL    HW234140   3.709   0.180  10.278 -0.8268 -0.3580  1.3893
 7561SOL     OW34141   4.409   1.237   5.402  0.1184 -0.6303 -0.2179
 7561SOL    HW134142   4.319   1.271   5.402  0.1467 -0.5604 -2.0220
 7561SOL    HW234143   4.427   1.249   5.308 -4.2682 -1.9482 -1.2670
 7562SOL     OW34144   3.669   1.054   7.243  0.3123 -1.0014  0.1503
 7562SOL    HW134145   3.674   1.003   7.324  1.3601 -1.0119  0.0802
 7562SOL    HW234146   3.757   1.054   7.205  0.4182  0.5261  0.4120
 7563SOL     OW34147   3.434   1.371   3.606  0.5181 -1.0189  0.0494
 7563SOL    HW134148   3.357   1.427   3.616  1.5984  0.3831  0.5781
 7563SOL    HW234149   3.431   1.359   3.511  1.8236 -0.4577 -0.0691
 7564SOL     OW34150   3.006   2.518   6.000 -0.2208 -0.4513 -0.3610
 7564SOL    HW134151   2.930   2.473   6.037 -0.8547 -0.7413 -2.0318
 7564SOL    HW234152   3.040   2.567   6.076  0.9672 -2.8105  0.6474
 7565SOL     OW34153   4.210   1.486  11.720  0.3648  0.3939  0.0968
 7565SOL    HW134154   4.304   1.492  11.735  0.7712  0.1207 -2.3769
 7565SOL    HW234155   4.186   1.537  11.642  1.6881  0.2361 -0.4063
 7566SOL     OW34156   0.085   3.885   2.298  0.4500 -0.5083 -0.0291
 7566SOL    HW134157   0.129   3.809   2.336 -0.9296 -0.7308  1.1342
 7566SOL    HW234158   0.128   3.890   2.213 -0.8614  0.3645 -0.6501
 7567SOL     OW34159   4.678   1.269   5.553  0.1358  0.1317  0.2883
 7567SOL    HW134160   4.627   1.241   5.630  3.2391 -3.9444  0.8580
 7567SOL    HW234161   4.612   1.271   5.484 -1.5305 -0.7890  1.8426
 7568SOL     OW34162   0.346   4.058  12.774 -0.3736 -0.5654  0.4629
 7568SOL    HW134163   0.364   4.149  12.799 -0.2006 -0.3247 -0.5422
 7568SOL    HW234164   0.265   4.063  12.723  0.1489 -0.7007 -0.3843
 7569SOL     OW34165   2.848   1.163  11.808  0.7530  0.3405  0.4908
 7569SOL    HW134166   2.899   1.167  11.727  0.5129  0.9892  0.3736
 7569SOL    HW234167   2.871   1.074  11.837 -0.0918 -0.1638 -0.4050
 7570SOL     OW34168   2.359   2.719   3.357 -0.2457 -0.2236  0.5022
 7570SOL    HW134169   2.291   2.708   3.290  1.1623 -0.7746 -0.8397
 7570SOL    HW234170   2.311   2.777   3.416 -0.8864 -3.1042  2.8190
 7571SOL     OW34171   2.173   3.016  11.415  0.2462  0.2382  0.2303
 7571SOL    HW134172   2.209   3.094  11.373  0.2752  1.4837  2.5424
 7571SOL    HW234173   2.156   2.953  11.345 -1.4092  0.7343  0.1830
 7572SOL     OW34174   2.350   3.917   1.600 -0.4346  0.6670  0.2068
 7572SOL    HW134175   2.280   3.978   1.577 -1.0035  0.9778  2.8383
 7572SOL    HW234176   2.411   3.969   1.653  0.8737  0.3531 -0.9801
 7573SOL     OW34177   4.402   4.609  10.893 -0.8081 -0.4956  0.7424
 7573SOL    HW134178   4.494   4.628  10.909 -1.3096  0.0147  3.0040
 7573SOL    HW234179   4.356   4.645  10.969 -0.3660  2.1003 -0.2216
 7574SOL     OW34180   3.811   2.773   6.776 -0.1886 -0.4724 -0.0457
 7574SOL    HW134181   3.717   2.764   6.760  0.1752  0.2808 -2.5871
 7574SOL    HW234182   3.806   2.867   6.796  1.0835 -0.3755 -0.1391
 7575SOL     OW34183   3.199   1.641   8.774  0.5480 -0.0046 -0.1911
 7575SOL    HW134184   3.274   1.595   8.737 -0.0687 -0.2639 -1.1238
 7575SOL    HW234185   3.215   1.731   8.743  0.0428  0.3005  0.4373
 7576SOL     OW34186   3.881   3.745   7.422 -0.1586  0.1618 -0.0301
 7576SOL    HW134187   3.834   3.753   7.340  0.0461  2.6799  0.0957
 7576SOL    HW234188   3.877   3.837   7.448 -0.2331  0.7292 -2.0875
 7577SOL     OW34189   4.079   1.725   2.509  0.4512  0.1163  0.1048
 7577SOL    HW134190   4.003   1.738   2.565  0.0866  1.2355 -0.6569
 7577SOL    HW234191   4.054   1.705   2.419 -1.6140 -1.2872  0.9969
 7578SOL     OW34192   0.212   0.074   2.155 -0.2771 -0.3549 -0.5290
 7578SOL    HW134193   0.198   0.030   2.071  0.2116 -0.1787 -0.7024
 7578SOL    HW234194   0.205   0.167   2.133 -1.3804 -0.3137 -0.0096
 7579SOL     OW34195   3.860   2.102  10.895 -0.2646  0.5275 -0.0752
 7579SOL    HW134196   3.909   2.094  10.977 -0.6251  2.1012  0.2943
 7579SOL    HW234197   3.830   2.011  10.889  0.0869  0.3151  1.3931
 7580SOL     OW34198   2.369   2.963   9.007 -0.5718  0.4446  0.2338
 7580SOL    HW134199   2.346   2.998   9.093 -0.4465  0.4926  0.2476
 7580SOL    HW234200   2.291   2.989   8.957 -0.9472 -0.3249  0.4173
 7581SOL     OW34201   0.051   4.688   7.554 -0.3142 -0.0182 -0.2015
 7581SOL    HW134202   0.015   4.614   7.604  0.0051  1.0357  1.5964
 7581SOL    HW234203   0.136   4.701   7.596 -0.1115 -0.9744 -0.3047
 7582SOL     OW34204   2.075   1.696   8.322  0.1675  0.4270 -0.1646
 7582SOL    HW134205   1.995   1.697   8.269  0.7347  0.9408 -1.0046
 7582SOL    HW234206   2.114   1.768   8.273  0.1050 -0.9452 -2.2029
 7583SOL     OW34207   1.603   2.178  15.538 -0.1110 -0.3532  0.1732
 7583SOL    HW134208   1.643   2.091  15.543  0.6064 -0.0642 -0.4952
 7583SOL    HW234209   1.620   2.211  15.626 -2.0336  1.5782 -0.1755
 7584SOL     OW34210   2.599   3.859  14.237 -0.2285  0.1661  0.2701
 7584SOL    HW134211   2.620   3.821  14.323  0.6065  0.4845  0.2025
 7584SOL    HW234212   2.592   3.949  14.269 -2.1564  0.5778 -1.3260
 7585SOL     OW34213   2.773   4.485  13.133  0.1006 -0.0705 -0.0646
 7585SOL    HW134214   2.698   4.528  13.174  0.3975 -0.6396  1.0789
 7585SOL    HW234215   2.820   4.559  13.095 -0.7827  0.5670  0.0907
 7586SOL     OW34216   1.339   1.142   2.920 -0.2789 -0.2196 -0.4585
 7586SOL    HW134217   1.370   1.091   2.845 -0.7251  0.2990 -0.9959
 7586SOL    HW234218   1.284   1.209   2.878 -1.5602 -0.5142  0.7360
 7587SOL     OW34219   4.542   0.961   4.388  0.3677 -0.2228  0.0329
 7587SOL    HW134220   4.511   0.909   4.313 -0.1488  0.9735 -0.5837
 7587SOL    HW234221   4.486   1.038   4.376  1.1068  0.7364  2.7659
 7588SOL     OW34222   4.582   2.061   8.348 -0.4569  0.1907  0.6132
 7588SOL    HW134223   4.589   2.156   8.349 -3.5209  0.4032  0.0185
 7588SOL    HW234224   4.673   2.032   8.358 -0.9872 -0.8727  2.3984
 7589SOL     OW34225   1.499   3.679  10.521  0.3864 -0.0386 -0.0581
 7589SOL    HW134226   1.444   3.605  10.496 -1.2585  0.1637  2.9053
 7589SOL    HW234227   1.469   3.684  10.612  1.0122  0.9939  0.0954
 7590SOL     OW34228   3.031   4.292   6.122 -0.3682  0.2271 -0.0862
 7590SOL    HW134229   2.951   4.313   6.170 -1.5583  1.4021 -2.5650
 7590SOL    HW234230   3.002   4.301   6.031  1.7518 -1.1442 -0.8871
 7591SOL     OW34231   0.998   1.713  14.618  0.0082 -0.2348 -0.0592
 7591SOL    HW134232   0.911   1.686  14.645 -0.2721 -1.3864 -2.0625
 7591SOL    HW234233   1.039   1.742  14.699 -0.7955  0.7796 -0.0142
 7592SOL     OW34234   3.516   4.594  17.220 -0.0905 -0.4832  0.2006
 7592SOL    HW134235   3.450   4.662  17.234  2.0101  1.3840  0.9995
 7592SOL    HW234236   3.499   4.577  17.127  0.7017 -1.0795  0.1730
 7593SOL     OW34237   4.413   4.205  10.307  0.6907  0.3898  0.1169
 7593SOL    HW134238   4.356   4.210  10.230  0.7388  0.8198  0.1114
 7593SOL    HW234239   4.357   4.248  10.372  0.2736 -1.3622  0.9093
 7594SOL     OW34240   0.749   0.909   2.476 -0.0135  0.3892 -0.6079
 7594SOL    HW134241   0.829   0.909   2.529 -0.2764  0.1051 -0.2110
 7594SOL    HW234242   0.780   0.954   2.397  2.3839  1.5169  0.9705
 7595SOL     OW34243   0.711   2.649   5.405  0.3503 -0.0353  0.0012
 7595SOL    HW134244   0.660   2.697   5.338  0.5075 -1.6232 -1.2488
 7595SOL    HW234245   0.649   2.616   5.470  1.8444 -0.7718  1.0542
 7596SOL     OW34246   0.211   0.689   3.902  0.5088  0.3504 -0.0078
 7596SOL    HW134247   0.237   0.597   3.897 -0.1377  0.2302 -1.1436
 7596SOL    HW234248   0.267   0.714   3.976 -2.2394  2.1717  1.4362
 7597SOL     OW34249   1.906   3.768  11.664  0.6420 -0.2318 -0.4033
 7597SOL    HW134250   1.877   3.681  11.637 -1.3774  1.1197 -2.5829
 7597SOL    HW234251   1.968   3.742  11.733  0.6210  2.3164  0.5718
 7598SOL     OW34252   2.632   2.056  14.714  0.4673 -0.5205  0.2131
 7598SOL    HW134253   2.711   2.077  14.764  0.5586  1.2551 -0.6658
 7598SOL    HW234254   2.592   2.142  14.705  0.8134 -0.6535 -2.3915
 7599SOL     OW34255   1.870   2.225   1.733 -0.1655  0.2714  0.2320
 7599SOL    HW134256   1.781   2.248   1.707  1.1738  3.3527 -1.7087
 7599SOL    HW234257   1.913   2.169   1.669 -1.6810 -0.6663  0.0337
 7600SOL     OW34258   3.882   2.949   4.401  0.2542  0.8219 -0.0267
 7600SOL    HW134259   3.805   2.901   4.432  1.2033 -0.8148 -0.1822
 7600SOL    HW234260   3.846   3.001   4.330 -3.1893  0.0517  1.1097
 7601SOL     OW34261   0.495   1.241  13.988  0.4520 -0.3042  0.4347
 7601SOL    HW134262   0.524   1.298  14.060  0.5093  1.2830 -0.8601
 7601SOL    HW234263   0.406   1.274  13.978  1.1634  1.7660  0.9529
 7602SOL     OW34264   0.549   2.527   5.603  0.3059 -0.5586 -0.0548
 7602SOL    HW134265   0.510   2.552   5.687 -0.7177 -1.4718 -0.2662
 7602SOL    HW234266   0.486   2.471   5.558 -1.2842 -2.0706  4.0403
 7603SOL     OW34267   2.111   3.349  10.518  0.3028  0.0116 -0.4755
 7603SOL    HW134268   2.078   3.401  10.591 -1.3904 -0.1867 -1.0851
 7603SOL    HW234269   2.172   3.414  10.482 -0.7119  0.6995 -0.9796
 7604SOL     OW34270   4.092   3.295   7.563  0.0004  0.8127  0.3085
 7604SOL    HW134271   4.022   3.273   7.625  0.6435  0.6427  0.9663
 7604SOL    HW234272   4.058   3.379   7.532 -0.5547  0.0313 -1.2006
 7605SOL     OW34273   1.512   2.959   1.907  0.0759 -0.3359  0.6366
 7605SOL    HW134274   1.423   2.960   1.942 -0.8462 -0.7390 -1.6912
 7605SOL    HW234275   1.559   2.926   1.983  0.6365  0.3686  0.5982
 7606SOL     OW34276   2.567   0.779   4.032 -0.2115  0.1467 -0.1898
 7606SOL    HW134277   2.533   0.848   3.975  1.7834  0.1523 -1.3652
 7606SOL    HW234278   2.591   0.711   3.970 -2.4767  0.8289 -1.8359
 7607SOL     OW34279   3.203   3.581   7.391  0.2806 -0.4798 -0.1552
 7607SOL    HW134280   3.120   3.613   7.357 -0.2408 -1.1312  0.5103
 7607SOL    HW234281   3.220   3.634   7.469  2.0569 -0.6411 -0.4252
 7608SOL     OW34282   0.666   2.565   6.294 -0.2702 -0.2884 -0.1744
 7608SOL    HW134283   0.757   2.576   6.323 -0.4192  0.9058 -0.1809
 7608SOL    HW234284   0.674   2.628   6.223  0.0991  0.1265  0.2342
 7609SOL     OW34285   3.009   4.150   5.236  0.0616 -0.9942 -0.0603
 7609SOL    HW134286   2.922   4.173   5.205 -0.6357 -2.9150  0.5013
 7609SOL    HW234287   3.027   4.063   5.200  0.5188 -0.1767 -1.7962
 7610SOL     OW34288   3.075   4.082   8.760 -0.1082 -0.6888  0.0363
 7610SOL    HW134289   2.980   4.070   8.767 -0.2084 -0.3275 -0.7604
 7610SOL    HW234290   3.093   4.092   8.854  2.8493 -0.2772 -0.5995
 7611SOL     OW34291   0.418   3.930   5.878 -0.1432  0.0848  0.3244
 7611SOL    HW134292   0.431   3.864   5.946  0.0549  0.1443  0.3450
 7611SOL    HW234293   0.323   3.928   5.885 -0.2182  0.8178 -0.3738
 7612SOL     OW34294   3.076   4.030   3.104 -0.0075  0.3323 -0.6978
 7612SOL    HW134295   3.167   4.024   3.133 -0.4500  0.3468  0.7000
 7612SOL    HW234296   3.070   3.943   3.064  1.5049  0.1463 -0.5055
 7613SOL     OW34297   0.854   4.613  15.522  0.3893  0.0585  0.9995
 7613SOL    HW134298   0.923   4.559  15.483 -1.2824 -1.1194 -0.3005
 7613SOL    HW234299   0.857   4.689  15.464 -1.8110  0.2130  1.0806
 7614SOL     OW34300   1.605   1.003   5.915  0.5004  0.4857 -0.2067
 7614SOL    HW134301   1.663   1.039   5.982  0.7211 -1.8511  0.8540
 7614SOL    HW234302   1.666   0.946   5.869  2.0819 -0.3131  2.8856
 7615SOL     OW34303   2.330   1.929   0.121  0.0376  0.3365  0.3760
 7615SOL    HW134304   2.387   1.853   0.113  0.5939  0.8010 -0.0533
 7615SOL    HW234305   2.239   1.898   0.126  0.0139  0.2561 -0.4940
 7616SOL     OW34306   0.737   1.797   2.221  0.9763 -0.2079  0.9354
 7616SOL    HW134307   0.809   1.842   2.177  1.7125 -0.9090  1.4356
 7616SOL    HW234308   0.741   1.835   2.309 -0.3807  1.8405  0.1020
 7617SOL     OW34309   3.108   3.749   8.052 -1.1291 -0.0033  0.2730
 7617SOL    HW134310   3.059   3.826   8.078  2.0501  1.2737  2.4422
 7617SOL    HW234311   3.199   3.778   8.049 -1.2307  0.2147 -0.7337
 7618SOL     OW34312   0.806   0.688   9.444  0.4334 -0.2678  0.3104
 7618SOL    HW134313   0.892   0.704   9.483  1.0214 -1.7136 -0.4188
 7618SOL    HW234314   0.838   0.646   9.365  1.0009  1.9832 -0.6495
 7619SOL     OW34315   2.772   0.244   2.596  0.2005  0.0726 -1.0832
 7619SOL    HW134316   2.703   0.177   2.604 -0.6813  1.1087  0.1190
 7619SOL    HW234317   2.735   0.281   2.516  1.2529 -0.4022 -1.7857
 7620SOL     OW34318   3.088   3.671   6.728 -0.0583 -0.4957 -0.6233
 7620SOL    HW134319   3.030   3.645   6.800  1.6543 -1.7080  0.3109
 7620SOL    HW234320   3.041   3.741   6.682  0.2220 -0.7599 -1.3000
 7621SOL     OW34321   1.741   1.172   3.853  0.1788  0.1222 -0.9157
 7621SOL    HW134322   1.700   1.183   3.767 -0.5932 -2.3926 -0.8799
 7621SOL    HW234323   1.831   1.187   3.823  0.3861  0.4153 -0.1581
 7622SOL     OW34324   2.694   0.618   4.416 -0.4291 -0.4214 -0.3525
 7622SOL    HW134325   2.738   0.658   4.342 -1.2341 -1.3230 -1.3254
 7622SOL    HW234326   2.732   0.530   4.413  2.5261  0.8982 -1.3669
 7623SOL     OW34327   2.927   0.324   7.591 -0.2452 -0.3834 -0.4303
 7623SOL    HW134328   2.912   0.282   7.506 -0.1627 -0.7074 -0.2823
 7623SOL    HW234329   2.991   0.391   7.569 -1.7292  1.6056  1.3281
 7624SOL     OW34330   1.017   1.459   3.328  0.4170  0.1513 -0.2775
 7624SOL    HW134331   0.968   1.386   3.366 -1.3044  0.0038 -2.7446
 7624SOL    HW234332   1.101   1.413   3.338  0.2392 -0.3175 -0.9050
 7625SOL     OW34333   1.407   4.439   7.471  0.6567  0.1556 -0.1541
 7625SOL    HW134334   1.323   4.426   7.516  1.4564 -0.3600  1.1837
 7625SOL    HW234335   1.456   4.501   7.525 -0.2873  1.3964 -0.7275
 7626SOL     OW34336   4.411   0.587   1.251  0.3509 -0.9941 -0.2597
 7626SOL    HW134337   4.358   0.664   1.273  0.1468 -1.2248  0.0560
 7626SOL    HW234338   4.419   0.606   1.158  0.9470  0.5051  0.0909
 7627SOL     OW34339   4.425   4.567   5.470  0.4548 -0.4237 -0.1752
 7627SOL    HW134340   4.420   4.642   5.410  0.4372 -1.1157 -1.0438
 7627SOL    HW234341   4.469   4.503   5.414 -3.2742 -2.0953 -1.2287
 7628SOL     OW34342   1.305   4.009  10.431 -0.1416  0.0500  0.0640
 7628SOL    HW134343   1.313   3.940  10.497  1.6127 -0.6977 -0.9261
 7628SOL    HW234344   1.290   4.086  10.486 -1.4889  0.9509 -1.5471
 7629SOL     OW34345   0.143   4.433   5.619 -0.0728 -0.4438  0.0741
 7629SOL    HW134346   0.143   4.522   5.656 -0.3749 -0.1375 -0.6631
 7629SOL    HW234347   0.078   4.400   5.681 -0.5571 -1.3918 -0.9454
 7630SOL     OW34348   1.562   3.221   8.198  0.3557  0.2838 -0.7020
 7630SOL    HW134349   1.642   3.176   8.170  2.3303  3.5814 -0.3291
 7630SOL    HW234350   1.589   3.311   8.219  0.2650  0.0300  0.4803
 7631SOL     OW34351   3.499   0.117   5.818  0.0037  0.1106  0.4167
 7631SOL    HW134352   3.410   0.147   5.835  0.5181  1.4973  0.6505
 7631SOL    HW234353   3.528   0.178   5.750 -0.3790  1.7267  1.7024
 7632SOL     OW34354   3.236   3.695   9.678 -0.4347 -0.1551 -0.4127
 7632SOL    HW134355   3.316   3.683   9.729 -0.4038 -0.4189 -0.5230
 7632SOL    HW234356   3.173   3.683   9.749  0.3597 -0.2628  0.2717
 7633SOL     OW34357   2.881   2.650  12.389 -0.6578 -0.3198  0.2720
 7633SOL    HW134358   2.876   2.687  12.301  0.1270 -3.5396 -1.1187
 7633SOL    HW234359   2.974   2.664  12.410 -0.4219  0.1212 -1.0720
 7634SOL     OW34360   0.607   2.885  10.075  0.5207 -0.2081 -0.2135
 7634SOL    HW134361   0.570   2.811  10.026  1.2647 -0.7262  0.0002
 7634SOL    HW234362   0.692   2.888  10.031  0.4514  2.0808 -0.1683
 7635SOL     OW34363   1.330   2.625   2.488 -0.2572 -0.2565 -0.7312
 7635SOL    HW134364   1.300   2.569   2.559 -1.0689  0.8669 -0.2034
 7635SOL    HW234365   1.249   2.632   2.438 -0.5235  2.2526  0.0693
 7636SOL     OW34366   2.579   4.313  12.053 -0.2156 -0.1973  0.1589
 7636SOL    HW134367   2.538   4.399  12.041  1.2249  0.7245  1.7466
 7636SOL    HW234368   2.622   4.333  12.137  1.3476 -1.2206 -0.3979
 7637SOL     OW34369   1.513   3.337   5.635 -0.1555 -0.1919 -0.1008
 7637SOL    HW134370   1.549   3.417   5.673 -0.3186  1.0653 -2.6310
 7637SOL    HW234371   1.486   3.373   5.551  0.0327 -0.7704 -0.4108
 7638SOL     OW34372   2.178   1.381   2.130 -0.1390 -0.2632 -0.0754
 7638SOL    HW134373   2.206   1.423   2.048  0.6816 -0.8238 -0.0850
 7638SOL    HW234374   2.174   1.454   2.192 -3.8151 -0.8885  0.3761
 7639SOL     OW34375   4.126   2.198   8.014  0.7357 -0.5674  0.1712
 7639SOL    HW134376   4.064   2.270   8.022 -0.7622 -2.1433  2.5708
 7639SOL    HW234377   4.157   2.192   8.105 -1.8657  0.7024  1.1427
 7640SOL     OW34378   1.020   0.617  15.619  0.2963  0.4580  0.1105
 7640SOL    HW134379   1.098   0.582  15.661  1.3491 -0.6962 -2.7795
 7640SOL    HW234380   0.997   0.550  15.555 -1.2257  0.7220  0.3891
 7641SOL     OW34381   1.426   2.797   1.513  0.0669  0.4655 -0.0014
 7641SOL    HW134382   1.514   2.828   1.489 -0.1683  1.0639 -0.0900
 7641SOL    HW234383   1.382   2.823   1.432  0.8790  0.9833 -0.2794
 7642SOL     OW34384   3.535   4.018   4.601 -0.4825 -0.0792 -0.2239
 7642SOL    HW134385   3.574   4.101   4.631  0.1366 -0.6166  0.4455
 7642SOL    HW234386   3.500   4.049   4.517 -0.2676  0.6736 -0.0438
 7643SOL     OW34387   0.658   2.700   8.114  0.1620 -0.9743 -0.2314
 7643SOL    HW134388   0.709   2.658   8.045 -0.3613  1.6015 -2.2139
 7643SOL    HW234389   0.728   2.748   8.158 -1.6162 -0.3468  1.9274
 7644SOL     OW34390   4.104   2.098   9.304 -0.0852  0.5928  0.3045
 7644SOL    HW134391   4.154   2.020   9.330 -0.7598 -0.5023 -1.6830
 7644SOL    HW234392   4.131   2.167   9.364  0.0158 -1.1798  2.3180
 7645SOL     OW34393   0.906   0.851   1.059  0.0173  1.0935 -0.1886
 7645SOL    HW134394   0.815   0.874   1.076 -0.3997 -0.7207 -0.0637
 7645SOL    HW234395   0.955   0.879   1.137 -0.8885  0.7069  0.5186
 7646SOL     OW34396   2.978   1.902   0.160  0.0549  0.4467 -0.1447
 7646SOL    HW134397   3.067   1.887   0.191 -0.6421  0.6093  1.9868
 7646SOL    HW234398   2.988   1.963   0.088  0.7782 -0.5784 -0.9001
 7647SOL     OW34399   3.659   2.912   0.534 -0.0381 -0.7564  0.3897
 7647SOL    HW134400   3.659   2.974   0.607 -0.2860  1.3394 -1.4236
 7647SOL    HW234401   3.594   2.959   0.483  0.4810 -0.5012 -0.0410
 7648SOL     OW34402   4.314   2.931   5.461  0.9921  0.3198 -0.2316
 7648SOL    HW134403   4.348   3.020   5.447  4.7847 -0.8976  1.1781
 7648SOL    HW234404   4.239   2.955   5.515  0.4216 -1.1105 -0.3959
 7649SOL     OW34405   1.315   3.946   3.041  0.0218 -0.4036  0.1054
 7649SOL    HW134406   1.332   3.969   3.133  1.0804 -0.8432  0.0152
 7649SOL    HW234407   1.285   3.855   3.047 -1.4849  0.0970  0.1814
 7650SOL     OW34408   3.953   4.217   2.572  0.0165 -0.1345  0.4924
 7650SOL    HW134409   4.022   4.281   2.554 -0.4708  0.0273 -0.7667
 7650SOL    HW234410   3.969   4.197   2.664  2.6549  0.5301  0.1606
 7651SOL     OW34411   2.543   1.376   3.823  0.3237  0.2223 -0.4188
 7651SOL    HW134412   2.528   1.288   3.860  0.8020 -0.0925 -0.9826
 7651SOL    HW234413   2.582   1.423   3.896  3.2434  0.2827 -2.0468
 7652SOL     OW34414   1.233   2.982   1.990 -0.0693 -0.4408  0.6625
 7652SOL    HW134415   1.173   3.050   1.961 -1.9235 -3.4663 -2.6668
 7652SOL    HW234416   1.181   2.902   1.979 -0.6647  0.1409 -0.8170
 7653SOL     OW34417   1.045   4.187  10.104 -0.3253 -0.1313  0.1122
 7653SOL    HW134418   0.973   4.250  10.107 -0.6964 -0.5059 -1.3224
 7653SOL    HW234419   1.034   4.142  10.021  1.9303 -1.1324  0.3404
 7654SOL     OW34420   0.291   0.930  17.462 -0.8033 -0.6223  0.2411
 7654SOL    HW134421   0.378   0.941  17.500  0.2312 -1.1198 -1.9458
 7654SOL    HW234422   0.295   0.990  17.387  1.4952  2.7736  3.0751
 7655SOL     OW34423   0.641   0.844   8.991 -0.4052  0.0252  0.2021
 7655SOL    HW134424   0.547   0.830   8.998  0.0836 -2.3898  2.0563
 7655SOL    HW234425   0.652   0.835   9.085 -1.4448  1.4910  0.4489
 7656SOL     OW34426   3.407   2.012   8.328  0.1971 -0.5505 -0.3152
 7656SOL    HW134427   3.410   2.053   8.415 -3.2132 -0.5872 -0.1543
 7656SOL    HW234428   3.313   1.993   8.329  0.0121  0.3490 -0.0329
 7657SOL     OW34429   2.424   0.263   7.383  0.4108  0.2771 -0.7781
 7657SOL    HW134430   2.475   0.344   7.384 -1.2110  1.2447  2.9057
 7657SOL    HW234431   2.428   0.226   7.471 -0.6845 -0.4833 -1.0586
 7658SOL     OW34432   0.075   4.334  11.968  0.2998 -0.3910  0.5484
 7658SOL    HW134433   0.053   4.302  12.055  0.7213 -1.7058  0.1752
 7658SOL    HW234434   0.073   4.429  11.980 -0.6413 -0.3507  0.1120
 7659SOL     OW34435   0.862   4.073   7.288  0.1003  0.3868 -0.1677
 7659SOL    HW134436   0.905   4.002   7.336  0.2212 -1.3959 -2.9149
 7659SOL    HW234437   0.844   4.129   7.363 -0.5716  0.2970 -0.2592
 7660SOL     OW34438   2.482   3.055  13.033  0.6259  0.5684  0.0882
 7660SOL    HW134439   2.391   3.063  13.060  0.5781 -0.9622  0.3635
 7660SOL    HW234440   2.479   2.979  12.975  0.3828  1.1510 -0.6595
 7661SOL     OW34441   1.031   0.692   3.720  0.1199 -0.3918  0.3913
 7661SOL    HW134442   0.984   0.642   3.787  1.6378 -1.6722  0.5089
 7661SOL    HW234443   1.076   0.621   3.674 -2.2781 -1.6350 -0.0295
 7662SOL     OW34444   1.732   4.351   6.529  0.0711 -0.3850  0.3373
 7662SOL    HW134445   1.812   4.404   6.540 -0.3584  0.1110  1.0990
 7662SOL    HW234446   1.767   4.266   6.557  0.4772  0.2002  1.6202
 7663SOL     OW34447   2.270   2.609   1.707 -0.6267  0.3602  0.7051
 7663SOL    HW134448   2.231   2.696   1.696 -2.1180 -0.3322  0.6448
 7663SOL    HW234449   2.262   2.605   1.802  0.0059 -1.8811  0.6601
 7664SOL     OW34450   4.291   2.557   7.927  0.3811  0.2935 -0.3577
 7664SOL    HW134451   4.207   2.574   7.883 -0.1320 -0.9946  0.1124
 7664SOL    HW234452   4.259   2.539   8.016  0.2285 -1.7834 -0.8338
 7665SOL     OW34453   4.443   0.292   5.188 -0.3661 -0.4687  0.1295
 7665SOL    HW134454   4.399   0.309   5.104  0.5836 -1.3667 -0.5431
 7665SOL    HW234455   4.525   0.259   5.154  0.8030  2.7157 -0.1650
 7666SOL     OW34456   4.719   0.151   4.828  0.7993  0.3532  0.1963
 7666SOL    HW134457   4.661   0.199   4.886  1.5747  0.9377  0.4795
 7666SOL    HW234458   4.706   0.060   4.854  1.7835  0.5467  1.3468
 7667SOL     OW34459   0.662   1.841   3.420 -0.0517 -0.0826 -0.2393
 7667SOL    HW134460   0.608   1.904   3.373 -0.5608  0.0554  0.5251
 7667SOL    HW234461   0.706   1.794   3.350 -0.8186 -0.7426 -0.2838
 7668SOL     OW34462   1.726   0.124   2.220 -0.0399  0.0977 -0.7832
 7668SOL    HW134463   1.681   0.047   2.256 -1.6273  1.1730 -0.4874
 7668SOL    HW234464   1.803   0.078   2.188 -1.1856 -1.1633 -1.7618
 7669SOL     OW34465   1.431   1.452   6.486 -0.1066  1.1545  0.5963
 7669SOL    HW134466   1.397   1.443   6.397 -1.2285 -1.1574  1.2514
 7669SOL    HW234467   1.521   1.427   6.464 -0.5579 -0.1633  0.1987
 7670SOL     OW34468   3.639   4.671  15.435 -0.2290  0.1014 -0.1664
 7670SOL    HW134469   3.679   4.588  15.409 -1.2611 -0.5715  0.4211
 7670SOL    HW234470   3.668   4.682  15.525 -1.4705 -2.0956  0.4978
 7671SOL     OW34471   0.937   3.738   4.499 -0.3870 -0.3709  0.2235
 7671SOL    HW134472   0.862   3.693   4.539 -0.9208  0.4517  0.1464
 7671SOL    HW234473   0.912   3.829   4.512  0.1500 -0.0013 -1.3295
 7672SOL     OW34474   1.807   2.648   7.646  0.0779  0.0534  0.2391
 7672SOL    HW134475   1.874   2.584   7.670 -0.0555 -0.1559  0.0507
 7672SOL    HW234476   1.795   2.695   7.728 -1.9650  1.3057 -0.7738
 7673SOL     OW34477   1.030   3.812   2.755 -0.0335  0.3734 -0.4369
 7673SOL    HW134478   1.008   3.743   2.817 -1.2714  1.3084  0.1477
 7673SOL    HW234479   1.011   3.896   2.796 -0.4568 -1.0718  2.3374
 7674SOL     OW34480   2.983   4.216   6.572  0.0787 -0.2773  0.1856
 7674SOL    HW134481   3.065   4.235   6.526  0.3644 -0.5989  0.5549
 7674SOL    HW234482   3.009   4.245   6.660  0.5357 -1.1752  0.3455
 7675SOL     OW34483   4.441   3.931  16.212 -0.0574  0.4725  0.1882
 7675SOL    HW134484   4.349   3.904  16.206  0.6974 -1.9747 -0.2533
 7675SOL    HW234485   4.469   3.925  16.121  1.4651 -3.1699  0.8725
 7676SOL     OW34486   2.183   2.103   2.026  0.0785 -0.2505  0.4249
 7676SOL    HW134487   2.207   2.152   1.948  1.0270 -0.2172  0.7407
 7676SOL    HW234488   2.168   2.179   2.083 -0.1437  1.2337 -1.6145
 7677SOL     OW34489   3.585   3.854   6.719  0.3499  0.2897  0.3149
 7677SOL    HW134490   3.553   3.894   6.638  0.5174 -0.5441 -0.1643
 7677SOL    HW234491   3.517   3.790   6.739  0.0040  0.0633 -1.5702
 7678SOL     OW34492   2.683   3.822   4.306  0.2200 -0.3676 -0.1892
 7678SOL    HW134493   2.682   3.902   4.253 -2.2922 -0.3952 -0.1815
 7678SOL    HW234494   2.707   3.859   4.390 -0.0582  1.8972 -1.1057
 7679SOL     OW34495   3.466   1.440   3.248  0.0519  0.1212  0.5788
 7679SOL    HW134496   3.379   1.472   3.225  1.0800  2.6133  0.0923
 7679SOL    HW234497   3.494   1.513   3.303 -2.9608  2.0275 -0.3994
 7680SOL     OW34498   3.413   3.054   4.360 -0.0070  0.0461  0.1197
 7680SOL    HW134499   3.410   3.075   4.453  0.6865  0.4471  0.0479
 7680SOL    HW234500   3.343   2.990   4.359 -0.1042  0.2243 -2.9667
 7681SOL     OW34501   4.638   1.467   7.352 -0.5583  0.9939 -0.8061
 7681SOL    HW134502   4.582   1.445   7.426 -1.3035  1.5068 -1.2081
 7681SOL    HW234503   4.674   1.381   7.331 -1.3880  0.9749 -2.1668
 7682SOL     OW34504   3.864   1.136   8.053 -0.0116  0.4359  0.2563
 7682SOL    HW134505   3.887   1.095   7.969 -3.1580 -0.7677 -0.0309
 7682SOL    HW234506   3.794   1.079   8.084 -0.3097  1.6564  1.7749
 7683SOL     OW34507   4.127   1.445   8.253  0.6704  0.0426  0.1871
 7683SOL    HW134508   4.044   1.442   8.206  0.8331  0.4104 -0.1289
 7683SOL    HW234509   4.094   1.480   8.336  3.8212  0.9447  1.0670
 7684SOL     OW34510   2.795   0.830   7.012 -0.4167 -0.9863  0.1543
 7684SOL    HW134511   2.779   0.779   7.092 -2.4901 -1.6736 -0.6996
 7684SOL    HW234512   2.872   0.785   6.977  1.2110  1.4251  0.6777
 7685SOL     OW34513   1.931   3.676   7.634 -0.2158  0.4119 -0.1141
 7685SOL    HW134514   2.004   3.620   7.659  0.4786  1.1405 -0.4914
 7685SOL    HW234515   1.968   3.749   7.584  1.6499  0.1179  0.8071
 7686SOL     OW34516   1.880   4.486   6.227  0.6299  0.1293  0.1381
 7686SOL    HW134517   1.798   4.529   6.202  0.4058 -0.1898  0.3288
 7686SOL    HW234518   1.897   4.427   6.153 -2.3769 -0.9867  0.3246
 7687SOL     OW34519   2.617   3.693  14.038  0.2150 -0.6036 -1.0735
 7687SOL    HW134520   2.704   3.656  14.050  0.8068  1.9348  2.3218
 7687SOL    HW234521   2.620   3.752  14.113 -0.8653 -0.3414 -1.2368
 7688SOL     OW34522   4.046   3.001   0.500  0.1129 -0.2922  0.2983
 7688SOL    HW134523   4.035   3.088   0.461  0.0705 -0.1932  0.5287
 7688SOL    HW234524   4.028   3.016   0.593 -0.3525 -0.5123  0.2393
 7689SOL     OW34525   4.396   3.859   9.095  0.4025 -0.0717 -0.1304
 7689SOL    HW134526   4.419   3.882   9.005 -0.2946  1.4962  0.0978
 7689SOL    HW234527   4.477   3.820   9.130 -0.5028 -1.8028  0.0260
 7690SOL     OW34528   4.555   3.005  16.331  0.2995 -0.0103 -0.4431
 7690SOL    HW134529   4.557   3.058  16.251 -2.0922  1.9326  0.7767
 7690SOL    HW234530   4.599   3.055  16.400 -1.1950 -0.4272  0.7956
 7691SOL     OW34531   3.016   0.433   4.623 -0.2736 -0.1789 -0.1005
 7691SOL    HW134532   2.925   0.448   4.649 -0.1003  0.5537  0.0899
 7691SOL    HW234533   3.005   0.409   4.531 -1.8780 -2.5562  0.7173
 7692SOL     OW34534   0.074   3.797   7.394  0.3278 -0.1819 -0.2044
 7692SOL    HW134535   0.016   3.870   7.418  2.4060  1.9141 -1.5756
 7692SOL    HW234536   0.158   3.842   7.397 -0.6432  1.5873  0.5751
 7693SOL     OW34537   3.694   2.024  10.586 -0.2014  0.4272  0.4437
 7693SOL    HW134538   3.661   2.004  10.498  2.2093 -0.2519 -0.3139
 7693SOL    HW234539   3.756   1.951  10.590  0.1533  0.6521 -0.7641
 7694SOL     OW34540   2.784   4.347   1.630 -0.2629  0.6465  0.6359
 7694SOL    HW134541   2.777   4.383   1.542  1.1060 -1.2277 -0.2360
 7694SOL    HW234542   2.831   4.269   1.601  0.0568  1.0379  0.0918
 7695SOL     OW34543   4.056   1.613   6.217 -0.3653  0.3713 -0.0436
 7695SOL    HW134544   4.022   1.528   6.245  3.6567 -0.6446  1.8074
 7695SOL    HW234545   4.048   1.602   6.122  1.1737 -1.0751  0.0027
 7696SOL     OW34546   0.278   1.673   8.798  0.6947  0.0716 -0.7409
 7696SOL    HW134547   0.284   1.584   8.764 -1.4088 -0.0513 -0.7554
 7696SOL    HW234548   0.184   1.683   8.788  0.3434 -1.7710  0.6627
 7697SOL     OW34549   3.364   3.851  17.314 -0.8104 -0.3746 -0.7458
 7697SOL    HW134550   3.328   3.938  17.298 -0.6961 -0.1852  0.0143
 7697SOL    HW234551   3.296   3.801  17.358  0.6297 -0.8024  0.9906
 7698SOL     OW34552   3.337   1.871   0.904  0.2150 -0.3565 -0.2162
 7698SOL    HW134553   3.362   1.852   0.995  0.9304  1.0678 -0.1140
 7698SOL    HW234554   3.423   1.897   0.871  0.1777 -0.8777 -0.7259
 7699SOL     OW34555   1.065   2.360   2.764 -0.9318  0.0418  0.2085
 7699SOL    HW134556   1.040   2.368   2.857  1.5988 -0.7497  0.9433
 7699SOL    HW234557   0.984   2.389   2.722  1.6581  3.6820 -2.2798
 7700SOL     OW34558   2.329   4.720   6.188 -0.0672  0.0666 -0.0301
 7700SOL    HW134559   2.330   4.675   6.273 -1.9598 -0.6822 -0.3924
 7700SOL    HW234560   2.238   0.030   6.189 -1.1328 -2.9604 -0.8031
 7701SOL     OW34561   4.087   3.320  11.177  0.0278 -0.9780 -0.4586
 7701SOL    HW134562   4.066   3.413  11.164  3.6198  0.1750  2.0981
 7701SOL    HW234563   4.097   3.313  11.271 -2.2230  2.9619  0.0873
 7702SOL     OW34564   4.001   3.314  13.547 -0.2553  0.6254 -0.0676
 7702SOL    HW134565   4.023   3.341  13.637 -0.0264 -1.5877  0.5433
 7702SOL    HW234566   3.906   3.302  13.555 -0.3691  3.4656  3.1798
 7703SOL     OW34567   0.277   4.655   4.595  0.3273 -0.0878  0.0519
 7703SOL    HW134568   0.286   0.013   4.542 -2.8068  1.2558  1.5193
 7703SOL    HW234569   0.349   4.650   4.657 -1.0797 -1.0006  1.6092
 7704SOL     OW34570   1.230   3.001   8.998 -0.2897 -0.7962  0.3387
 7704SOL    HW134571   1.264   2.951   8.924 -3.9554 -1.2923 -0.9704
 7704SOL    HW234572   1.270   2.952   9.070 -1.9764 -2.9485 -0.1872
 7705SOL     OW34573   1.144   1.671   5.211 -0.1046  0.1131  0.0365
 7705SOL    HW134574   1.079   1.691   5.278  0.0580  0.4197  0.1008
 7705SOL    HW234575   1.196   1.752   5.211 -2.1490  1.4408 -0.7235
 7706SOL     OW34576   1.571   0.933   6.445 -0.3795  0.5385 -0.2110
 7706SOL    HW134577   1.622   1.008   6.475 -0.5489 -0.5924  2.8332
 7706SOL    HW234578   1.553   0.961   6.355  1.6878  2.8434  0.0880
 7707SOL     OW34579   4.573   3.822   7.645  0.7173 -0.0017  0.0163
 7707SOL    HW134580   4.508   3.818   7.575  2.9250 -0.0180 -2.0067
 7707SOL    HW234581   4.517   3.860   7.713  2.5894 -0.4700  1.8522
 7708SOL     OW34582   1.719   1.798   4.701 -0.0752  0.1243 -0.5995
 7708SOL    HW134583   1.748   1.707   4.706 -0.2283  0.0606 -0.8855
 7708SOL    HW234584   1.668   1.817   4.780 -0.3717  0.3581 -0.8450
 7709SOL     OW34585   3.160   0.761   4.441  0.6944  0.1200  0.2703
 7709SOL    HW134586   3.241   0.811   4.452  0.7603  0.1897 -0.4940
 7709SOL    HW234587   3.120   0.818   4.375 -0.5375 -0.4086  0.5636
 7710SOL     OW34588   0.219   4.325  10.802 -0.2981  0.1489  0.0308
 7710SOL    HW134589   0.263   4.336  10.886  1.0097  0.8923 -0.7476
 7710SOL    HW234590   0.138   4.369  10.827  1.0990  1.2796  2.5740
 7711SOL     OW34591   0.781   4.443   5.234  0.0134 -0.5041  0.4461
 7711SOL    HW134592   0.817   4.474   5.151 -0.3121 -0.4508  0.3253
 7711SOL    HW234593   0.840   4.491   5.292 -0.5174  0.8270 -0.0874
 7712SOL     OW34594   3.751   0.309   2.743 -0.3029  0.4799 -0.2622
 7712SOL    HW134595   3.838   0.302   2.781 -1.0327  1.0433  1.5016
 7712SOL    HW234596   3.769   0.275   2.655 -0.9961 -0.1435 -0.1599
 7713SOL     OW34597   3.941   1.772  13.989 -0.3993  0.8926 -0.0937
 7713SOL    HW134598   3.993   1.780  14.069 -0.6202 -0.4669  0.1847
 7713SOL    HW234599   3.870   1.716  14.022  0.9608 -1.0125 -0.4331
 7714SOL     OW34600   1.632   1.619   6.827 -0.1560 -0.0151  0.4352
 7714SOL    HW134601   1.603   1.701   6.787 -1.0810 -0.5045  0.1244
 7714SOL    HW234602   1.640   1.654   6.916 -1.9105 -2.4911  1.5680
 7715SOL     OW34603   0.616   4.144   4.502  0.0605  0.0747 -0.1565
 7715SOL    HW134604   0.644   4.236   4.508 -0.8663  0.3167  0.4420
 7715SOL    HW234605   0.655   4.097   4.576 -0.0706 -2.1806 -1.5203
 7716SOL     OW34606   4.189   3.814  16.712  0.6920 -0.1131  0.1946
 7716SOL    HW134607   4.204   3.886  16.651 -3.2355  0.6780  0.1907
 7716SOL    HW234608   4.101   3.829  16.745  1.2102 -0.5632  1.7817
 7717SOL     OW34609   1.515   1.977   4.611  0.2236  0.1433 -0.0887
 7717SOL    HW134610   1.569   1.902   4.636 -0.3283 -0.2798 -0.1536
 7717SOL    HW234611   1.471   1.940   4.535  1.5087  0.3577 -0.9283
 7718SOL     OW34612   2.849   2.800   2.777 -0.1574 -0.0222 -0.0745
 7718SOL    HW134613   2.776   2.860   2.788  0.6675  0.9074  0.2601
 7718SOL    HW234614   2.895   2.817   2.859  0.2175 -2.1815  0.1812
 7719SOL     OW34615   0.912   3.514   6.161  0.0997 -0.5410  0.1648
 7719SOL    HW134616   0.836   3.572   6.153  0.6017  0.0424 -0.3251
 7719SOL    HW234617   0.956   3.546   6.240  1.6783 -1.5814 -0.2916
 7720SOL     OW34618   4.500   3.647   0.425 -0.3642 -0.5388 -0.2344
 7720SOL    HW134619   4.475   3.646   0.517 -0.1539 -0.4658 -0.1771
 7720SOL    HW234620   4.412   3.662   0.389 -0.8043 -1.1078  0.6029
 7721SOL     OW34621   2.994   2.024   4.365  0.0538 -0.1359 -0.5204
 7721SOL    HW134622   2.959   1.990   4.447  0.2896 -1.2001 -0.8571
 7721SOL    HW234623   3.085   2.037   4.388 -0.1400  0.4827 -0.1133
 7722SOL     OW34624   0.674   1.231  16.405  0.2034  0.3206  0.1479
 7722SOL    HW134625   0.712   1.203  16.321 -1.5043 -2.1129  0.1940
 7722SOL    HW234626   0.686   1.154  16.460  0.6605 -2.8616 -4.4273
 7723SOL     OW34627   4.147   3.344   3.235 -0.4014 -0.0054  0.2524
 7723SOL    HW134628   4.221   3.289   3.211  0.7015  0.9506  1.4951
 7723SOL    HW234629   4.184   3.432   3.234 -0.4796  0.0233 -0.7776
 7724SOL     OW34630   1.913   2.396   7.656 -0.7662 -0.1110  0.0097
 7724SOL    HW134631   1.950   2.357   7.735  0.1376 -0.1465 -0.4205
 7724SOL    HW234632   1.901   2.320   7.599  0.4610 -0.9951  0.9312
 7725SOL     OW34633   2.383   2.489   1.260  0.5233 -0.1111 -0.1884
 7725SOL    HW134634   2.473   2.501   1.289  0.4966 -2.3135  0.8382
 7725SOL    HW234635   2.342   2.489   1.346 -0.9703 -1.0839 -0.8874
 7726SOL     OW34636   0.730   0.987  13.132  0.0415  0.0046 -0.4346
 7726SOL    HW134637   0.764   0.898  13.126 -1.0730 -0.2884 -2.2188
 7726SOL    HW234638   0.700   1.004  13.043 -0.3299  1.8541  0.0318
 7727SOL     OW34639   4.204   3.251  12.157 -0.6848  0.0858 -0.1045
 7727SOL    HW134640   4.172   3.219  12.241 -1.3007  0.8758 -0.0351
 7727SOL    HW234641   4.161   3.182  12.107 -2.5517 -0.2208  1.9253
 7728SOL     OW34642   2.578   1.461   9.035  0.5634  0.7467 -0.1626
 7728SOL    HW134643   2.511   1.478   8.969  0.3760  0.7247  0.0239
 7728SOL    HW234644   2.607   1.552   9.041 -0.1459  0.9133  0.6491
 7729SOL     OW34645   3.321   0.394   3.042 -0.0715  0.4461  0.0183
 7729SOL    HW134646   3.233   0.381   3.007 -0.4959  1.1726  0.8133
 7729SOL    HW234647   3.371   0.405   2.961  0.2095 -0.0467  0.1275
 7730SOL     OW34648   4.154   0.271   2.820 -0.0017 -0.0197 -0.1463
 7730SOL    HW134649   4.245   0.242   2.826 -0.0342 -0.0358  0.2587
 7730SOL    HW234650   4.112   0.209   2.880  1.0232  0.6246  1.2368
 7731SOL     OW34651   2.260   2.768   7.245  0.4015 -0.2050  0.7254
 7731SOL    HW134652   2.303   2.724   7.318  1.4191 -2.2332 -1.1171
 7731SOL    HW234653   2.177   2.798   7.283  0.7174  2.0787 -0.3724
 7732SOL     OW34654   4.458   0.746   4.188  0.4074  0.3551  0.3453
 7732SOL    HW134655   4.384   0.736   4.128 -0.5731 -0.7665  1.7291
 7732SOL    HW234656   4.534   0.732   4.132  0.9037 -1.4147  1.4561
 7733SOL     OW34657   4.488   3.968   0.836 -0.2318  0.9703  0.2341
 7733SOL    HW134658   4.546   3.899   0.868 -0.6800 -0.0197 -1.1011
 7733SOL    HW234659   4.470   4.013   0.919 -1.0916 -1.6099  1.4323
 7734SOL     OW34660   0.331   1.227   7.243  0.4476  0.3072  0.0821
 7734SOL    HW134661   0.382   1.170   7.185  1.0474 -0.9612  1.8535
 7734SOL    HW234662   0.391   1.254   7.311  0.9118 -0.1193 -0.1606
 7735SOL     OW34663   1.175   3.043   5.798 -0.3697 -0.2102  0.5677
 7735SOL    HW134664   1.127   3.093   5.732 -0.1773  0.5169  0.9853
 7735SOL    HW234665   1.262   3.053   5.761  1.5650 -3.2890  4.2953
 7736SOL     OW34666   1.852   2.056  11.634 -0.1102  0.2395 -0.4925
 7736SOL    HW134667   1.918   1.988  11.651  0.2808  0.7346 -0.0200
 7736SOL    HW234668   1.869   2.069  11.541  2.8364 -0.7677 -0.1002
 7737SOL     OW34669   0.887   3.894   3.748  0.0993  0.1658  0.1644
 7737SOL    HW134670   0.901   3.989   3.754  2.4778 -0.0241 -2.0285
 7737SOL    HW234671   0.915   3.895   3.656  0.6127 -2.4896  0.3031
 7738SOL     OW34672   1.051   0.147  10.186  0.0592 -0.0343 -0.2864
 7738SOL    HW134673   1.085   0.222  10.137 -0.0398 -0.0329 -0.3527
 7738SOL    HW234674   0.977   0.191  10.228  0.8175 -0.6011  1.6760
 7739SOL     OW34675   3.370   2.739   9.056  0.0560 -0.3316 -0.2630
 7739SOL    HW134676   3.365   2.787   9.138 -0.2133 -0.7615 -0.0298
 7739SOL    HW234677   3.298   2.675   9.057  0.2432 -0.6012 -3.9179
 7740SOL     OW34678   0.255   0.676   8.754 -0.1895 -0.5366 -0.4772
 7740SOL    HW134679   0.259   0.600   8.812  0.3317  0.8464  1.2946
 7740SOL    HW234680   0.161   0.689   8.744 -0.5977 -0.9830  2.8497
 7741SOL     OW34681   1.685   4.165   5.526 -0.0035  0.0860 -0.1670
 7741SOL    HW134682   1.675   4.113   5.446  1.4917  1.0702 -1.0061
 7741SOL    HW234683   1.724   4.239   5.480 -1.6779  1.9534  1.4404
 7742SOL     OW34684   3.420   3.812   6.352 -0.1854  0.2587  0.1628
 7742SOL    HW134685   3.495   3.872   6.353 -0.3044  0.3467  4.0554
 7742SOL    HW234686   3.350   3.876   6.336  1.2118  1.4990 -1.0287
 7743SOL     OW34687   0.698   4.561  13.465 -0.0557  0.0447  0.0972
 7743SOL    HW134688   0.708   4.466  13.471  1.1148  0.0946 -0.9096
 7743SOL    HW234689   0.761   4.587  13.532  1.3578 -1.7609 -0.5353
 7744SOL     OW34690   1.026   1.271   6.307  0.6276  0.0343  0.0841
 7744SOL    HW134691   0.954   1.208   6.304  1.2885 -0.7677  1.1202
 7744SOL    HW234692   0.982   1.347   6.345 -1.4192 -0.7188 -0.8041
 7745SOL     OW34693   2.555   1.317  10.000  0.2537 -0.5932 -1.4441
 7745SOL    HW134694   2.489   1.382  10.022  0.1538 -1.6823  1.4224
 7745SOL    HW234695   2.500   1.239   9.989 -0.0514 -0.7777  1.5147
 7746SOL     OW34696   0.026   2.394  11.031  0.4577  0.7806 -0.6376
 7746SOL    HW134697   4.702   2.448  10.966  0.8211  2.1585  0.2496
 7746SOL    HW234698   0.087   2.461  11.062  2.5759  0.2441 -3.6813
 7747SOL     OW34699   1.148   3.542   7.795 -0.3911  0.0132 -0.0455
 7747SOL    HW134700   1.243   3.553   7.803 -0.4070 -0.7307  1.3562
 7747SOL    HW234701   1.143   3.453   7.761 -2.0083  0.0127  0.1892
 7748SOL     OW34702   3.231   0.807   4.821 -0.5969  0.1506  0.1868
 7748SOL    HW134703   3.163   0.843   4.764 -1.2976 -1.7040 -0.1462
 7748SOL    HW234704   3.259   0.876   4.881  0.0664 -1.1838  1.4151
 7749SOL     OW34705   4.458   3.958   3.775 -0.7420 -0.8123 -0.2547
 7749SOL    HW134706   4.532   3.916   3.820  0.7687  2.2838  0.1952
 7749SOL    HW234707   4.488   3.953   3.684 -1.7211 -0.9370 -0.5647
 7750SOL     OW34708   1.656   0.911   4.446 -0.5744 -0.0018  0.2124
 7750SOL    HW134709   1.669   0.945   4.534  0.4336 -2.0364  0.8582
 7750SOL    HW234710   1.638   0.819   4.467 -1.1158  0.2135  0.7137
 7751SOL     OW34711   4.343   3.753   3.392 -0.6432 -0.2061  0.7567
 7751SOL    HW134712   4.253   3.734   3.366 -0.3754 -1.1771  0.5418
 7751SOL    HW234713   4.383   3.667   3.407  1.4316  0.4193 -1.3769
 7752SOL     OW34714   0.201   1.187   8.826  0.3420 -0.0049  0.2404
 7752SOL    HW134715   0.244   1.207   8.743 -0.0550  3.7262  0.9577
 7752SOL    HW234716   0.159   1.271   8.843  0.5285  0.3364 -0.9471
 7753SOL     OW34717   3.309   0.772   1.275 -0.0508 -0.1992 -0.2510
 7753SOL    HW134718   3.351   0.686   1.272  2.2531  0.9270  0.1549
 7753SOL    HW234719   3.244   0.760   1.205  0.5128  1.0021 -0.9849
 7754SOL     OW34720   3.961   1.802  14.901  0.7969 -0.8641 -0.9333
 7754SOL    HW134721   3.926   1.886  14.873 -0.3353 -0.2468  2.3787
 7754SOL    HW234722   3.905   1.797  14.978  0.9077 -1.8854 -0.9080
 7755SOL     OW34723   0.811   2.345  15.931 -0.0321  0.1415 -0.9432
 7755SOL    HW134724   0.806   2.437  15.958  2.6164  0.0368 -0.1093
 7755SOL    HW234725   0.885   2.307  15.978  1.2293  3.1469 -0.4796
 7756SOL     OW34726   3.091   3.964   0.214  0.0517 -0.1312  0.2386
 7756SOL    HW134727   3.055   3.944   0.300  1.4469  0.9594  1.0857
 7756SOL    HW234728   3.097   4.060   0.219 -1.9527  0.0382 -0.5507
 7757SOL     OW34729   2.416   3.256   4.068 -0.1716  0.4764 -0.2142
 7757SOL    HW134730   2.336   3.308   4.080 -0.5639 -0.4794  1.3158
 7757SOL    HW234731   2.477   3.291   4.133  2.3394 -0.1989 -2.2462
 7758SOL     OW34732   0.420   4.655   8.061 -0.0414 -0.0346 -0.5008
 7758SOL    HW134733   0.445   4.615   7.978 -0.2147  1.6072 -1.3227
 7758SOL    HW234734   0.470   4.602   8.124 -1.6422  0.8343  1.4928
 7759SOL     OW34735   4.109   4.690   8.558 -0.0788  0.3319 -0.5314
 7759SOL    HW134736   4.088   0.052   8.516 -1.3952 -0.1725 -0.8662
 7759SOL    HW234737   4.192   4.663   8.518 -2.0352 -1.3213 -3.4949
 7760SOL     OW34738   1.457   1.190   3.877  0.5693 -0.3858  0.4351
 7760SOL    HW134739   1.545   1.178   3.841 -0.5259 -2.9627 -1.4581
 7760SOL    HW234740   1.452   1.115   3.936  0.0859 -0.4217  0.3492
 7761SOL     OW34741   4.020   0.028   2.410  0.3032 -0.1533 -0.8320
 7761SOL    HW134742   4.050   0.087   2.340  1.5557  2.6866  2.0774
 7761SOL    HW234743   4.094   0.015   2.469 -0.6063 -1.3952  0.0154
 7762SOL     OW34744   3.964   4.560  16.141  0.3285  0.1352 -0.0812
 7762SOL    HW134745   4.054   4.582  16.162  1.0444 -1.6234 -1.2527
 7762SOL    HW234746   3.913   4.593  16.215  1.6997  4.9103 -1.3051
 7763SOL     OW34747   4.576   1.762  14.782 -0.1501 -0.2082 -0.5835
 7763SOL    HW134748   4.526   1.843  14.775  2.7925  1.5637 -1.0498
 7763SOL    HW234749   4.598   1.743  14.691  1.0156  0.2708 -0.3903
 7764SOL     OW34750   0.463   1.084   5.614 -0.1130  0.2036 -0.2477
 7764SOL    HW134751   0.399   1.113   5.549  1.2969  2.0235 -0.8099
 7764SOL    HW234752   0.531   1.046   5.558 -1.4839 -0.5598 -1.4024
 7765SOL     OW34753   4.368   3.397   6.345  0.4361 -0.5060 -0.2654
 7765SOL    HW134754   4.309   3.465   6.315 -1.0819 -1.1307  1.3548
 7765SOL    HW234755   4.384   3.421   6.436 -0.5958 -1.6851  0.2245
 7766SOL     OW34756   4.144   4.706  15.797 -0.0112 -0.2014 -0.2594
 7766SOL    HW134757   4.058   0.028  15.805  0.2764  0.0281  1.6761
 7766SOL    HW234758   4.204   0.045  15.843 -2.1467  0.1485  2.0326
 7767SOL     OW34759   4.204   2.514   9.597 -0.6057 -0.2216 -0.5151
 7767SOL    HW134760   4.151   2.569   9.540 -0.0999  0.9723  0.1728
 7767SOL    HW234761   4.245   2.582   9.650 -1.0229 -0.1334 -0.3093
 7768SOL     OW34762   1.655   1.444  16.875 -0.1991 -0.1334 -0.6356
 7768SOL    HW134763   1.673   1.434  16.969 -0.9495 -0.3233 -0.5149
 7768SOL    HW234764   1.623   1.534  16.868  0.4010  0.2347  1.1085
 7769SOL     OW34765   1.143   0.481   3.104 -0.2760 -0.0262 -0.1962
 7769SOL    HW134766   1.048   0.472   3.109 -0.3386  0.4622 -0.5132
 7769SOL    HW234767   1.148   0.554   3.166  0.2384  0.5187 -0.8874
 7770SOL     OW34768   1.338   0.789   6.390 -0.0265 -0.0170  0.5064
 7770SOL    HW134769   1.307   0.742   6.468  1.5141 -1.3018  0.3410
 7770SOL    HW234770   1.429   0.798   6.421  0.2938 -1.7255  0.0292
 7771SOL     OW34771   3.340   0.348   0.775 -0.2573 -0.3750 -0.2789
 7771SOL    HW134772   3.402   0.394   0.718 -0.6671 -0.5164 -0.8498
 7771SOL    HW234773   3.310   0.267   0.733  0.1534 -0.6152 -0.1030
 7772SOL     OW34774   0.794   1.267   2.663  0.3037  0.4156  0.6332
 7772SOL    HW134775   0.800   1.192   2.723  1.6751  0.6173  0.7325
 7772SOL    HW234776   0.707   1.260   2.622  0.1531 -1.0420  1.1971
 7773SOL     OW34777   4.505   0.699   2.440  0.2095  0.2182 -0.0199
 7773SOL    HW134778   4.484   0.783   2.399  1.1662 -0.4173 -1.8118
 7773SOL    HW234779   4.568   0.728   2.507  0.4289 -0.5946  0.1214
 7774SOL     OW34780   1.136   0.857   2.372 -0.1044 -0.7797 -0.1918
 7774SOL    HW134781   1.090   0.773   2.361 -1.0934  0.0071 -2.1189
 7774SOL    HW234782   1.097   0.888   2.453 -1.4972 -0.1641 -1.0861
 7775SOL     OW34783   4.412   2.726   5.328  0.0953  0.5162 -0.0720
 7775SOL    HW134784   4.376   2.740   5.240  0.1199  2.0648  0.1674
 7775SOL    HW234785   4.358   2.787   5.378 -0.4033 -0.0620  0.0962
 7776SOL     OW34786   4.521   1.764   6.753 -0.3341  0.2741 -0.0027
 7776SOL    HW134787   4.589   1.705   6.784  0.0926 -0.1921 -1.8057
 7776SOL    HW234788   4.531   1.844   6.804  1.8938  1.6512 -2.6148
 7777SOL     OW34789   0.313   1.781   0.652  0.3041  0.1578 -0.0053
 7777SOL    HW134790   0.355   1.704   0.612  0.5382  0.6991 -0.7960
 7777SOL    HW234791   0.348   1.782   0.741  3.1990  4.9791 -1.2207
 7778SOL     OW34792   3.287   2.496   2.083 -0.0113 -0.3264 -0.2054
 7778SOL    HW134793   3.360   2.455   2.035 -0.3291 -1.3805  0.2122
 7778SOL    HW234794   3.211   2.444   2.058  0.0990 -1.3519  1.5637
 7779SOL     OW34795   1.954   0.216   2.038  0.0548 -0.3933  0.0094
 7779SOL    HW134796   1.958   0.120   2.039 -1.9698 -0.4470  2.4392
 7779SOL    HW234797   1.932   0.242   1.948 -0.6921  1.6448  0.8079
 7780SOL     OW34798   0.631   3.585   3.827  0.1519  0.2821 -0.1434
 7780SOL    HW134799   0.710   3.558   3.780 -1.3270  1.9374 -3.5997
 7780SOL    HW234800   0.583   3.597   3.746 -0.8002 -0.4021  0.3224
 7781SOL     OW34801   1.500   0.550  10.375  0.2137  0.0749  0.8117
 7781SOL    HW134802   1.589   0.551  10.409  1.1573 -1.6302 -1.6292
 7781SOL    HW234803   1.509   0.467  10.328  1.6345 -0.4900  2.0996
 7782SOL     OW34804   1.031   1.691   3.698  0.1740  0.2918  0.4258
 7782SOL    HW134805   1.012   1.703   3.605  1.7998  1.0576  0.1965
 7782SOL    HW234806   1.101   1.630   3.676 -1.1000 -1.5208  1.3539
 7783SOL     OW34807   1.138   0.149   1.795  0.0225 -0.1005 -1.2875
 7783SOL    HW134808   1.102   0.062   1.778 -2.0872  0.8780 -1.7625
 7783SOL    HW234809   1.052   0.188   1.781 -0.2215 -0.4154 -0.6623
 7784SOL     OW34810   3.915   3.521  11.341  0.2837 -0.0993  0.2269
 7784SOL    HW134811   3.916   3.498  11.434 -5.9131  0.2516  0.4073
 7784SOL    HW234812   3.857   3.598  11.338 -0.7534 -0.6795  4.2177
 7785SOL     OW34813   0.703   2.732   1.050 -0.5971 -0.1365  0.0897
 7785SOL    HW134814   0.791   2.712   1.018 -0.4883  2.8418 -1.5133
 7785SOL    HW234815   0.650   2.734   0.970  0.8499  2.2409 -0.8115
 7786SOL     OW34816   2.723   2.771   5.082 -0.0579  0.4000 -0.0041
 7786SOL    HW134817   2.655   2.826   5.121 -1.2182 -0.7614 -0.3775
 7786SOL    HW234818   2.768   2.745   5.162  1.6261 -0.8504 -1.3395
 7787SOL     OW34819   3.505   3.213   5.012  0.1998 -0.0109  0.5323
 7787SOL    HW134820   3.512   3.285   4.950 -1.6775 -0.0944  0.2329
 7787SOL    HW234821   3.597   3.209   5.037  0.6567  0.8943 -1.0235
 7788SOL     OW34822   0.139   0.036   7.942  0.3482 -0.1191 -0.6116
 7788SOL    HW134823   0.088   0.102   7.991 -1.0635 -0.4796 -1.5904
 7788SOL    HW234824   0.076   4.713   7.885  0.9689  0.1048 -1.4667
 7789SOL     OW34825   1.866   3.981   2.738 -0.2393  0.3878  0.3771
 7789SOL    HW134826   1.955   4.000   2.768  0.3536 -2.4437  0.4456
 7789SOL    HW234827   1.845   4.067   2.703  1.2645  0.0972 -1.2610
 7790SOL     OW34828   0.716   2.225   9.128 -0.5887  0.6508 -0.5379
 7790SOL    HW134829   0.673   2.270   9.056 -2.6832  0.8081  0.8069
 7790SOL    HW234830   0.645   2.201   9.187  0.1220 -1.3277 -0.4904
 7791SOL     OW34831   0.394   1.835   8.602 -0.3614 -0.5327  0.0460
 7791SOL    HW134832   0.349   1.797   8.678  1.8131 -0.2939  1.4598
 7791SOL    HW234833   0.478   1.791   8.615 -0.4037 -1.3878 -2.7008
 7792SOL     OW34834   1.988   3.286   6.341  0.5548  1.0908  0.3065
 7792SOL    HW134835   1.942   3.356   6.295 -1.1524 -0.9802 -1.1477
 7792SOL    HW234836   2.002   3.326   6.426 -1.2483 -0.8087  1.4894
 7793SOL     OW34837   3.394   3.798   9.016  0.0530 -0.2571 -0.2195
 7793SOL    HW134838   3.358   3.826   8.932 -0.1436 -0.4018 -0.1837
 7793SOL    HW234839   3.325   3.817   9.080  0.9325 -2.2380  1.3437
 7794SOL     OW34840   0.536   0.434   6.199 -0.6586 -0.1136 -0.0759
 7794SOL    HW134841   0.612   0.493   6.206 -0.8956  0.0998  0.6801
 7794SOL    HW234842   0.591   0.355   6.194 -0.2952  0.2029 -1.1049
 7795SOL     OW34843   3.440   0.215   3.491  0.3446 -0.7996 -0.7850
 7795SOL    HW134844   3.423   0.230   3.398 -1.4973 -1.0280 -0.4817
 7795SOL    HW234845   3.357   0.189   3.530  0.1237 -2.2005 -2.2195
 7796SOL     OW34846   2.563   4.571  11.644  0.0428  0.1444 -0.4987
 7796SOL    HW134847   2.497   4.637  11.667 -1.6603 -0.8086 -2.7006
 7796SOL    HW234848   2.534   4.568  11.553  0.5129  4.7367 -0.8212
 7797SOL     OW34849   2.407   0.069   4.139  0.1346  0.2670  0.0113
 7797SOL    HW134850   2.372   0.153   4.170 -1.4957 -0.7078  0.7860
 7797SOL    HW234851   2.448   0.028   4.215 -1.8862 -0.4560  0.6942
 7798SOL     OW34852   0.216   4.154   5.250  0.2170  0.3083 -0.3700
 7798SOL    HW134853   0.274   4.216   5.294 -0.3136  1.0452 -0.7070
 7798SOL    HW234854   0.235   4.079   5.307  0.2311 -0.5994 -1.5730
 7799SOL     OW34855   3.659   2.706   9.194  0.1546 -0.3761  0.2542
 7799SOL    HW134856   3.646   2.621   9.151 -0.1402 -1.3357  2.1975
 7799SOL    HW234857   3.589   2.762   9.161  1.9456  1.6349 -0.0826
 7800SOL     OW34858   0.876   3.525   5.844 -0.7562 -0.2111  0.5963
 7800SOL    HW134859   0.926   3.489   5.918  1.2302 -0.5699 -0.9224
 7800SOL    HW234860   0.876   3.618   5.867  1.4030 -0.6310  2.2935
 7801SOL     OW34861   1.856   2.325   8.564 -0.0796 -0.0483 -0.0576
 7801SOL    HW134862   1.943   2.357   8.588 -1.1535  1.2839  2.0631
 7801SOL    HW234863   1.815   2.308   8.649 -0.1175  0.7638  0.0929
 7802SOL     OW34864   3.903   2.673   4.746  0.0314 -0.6635  0.3097
 7802SOL    HW134865   3.957   2.699   4.821  1.7418 -0.2753 -1.0540
 7802SOL    HW234866   3.953   2.678   4.665 -1.3805 -0.6355 -0.5634
 7803SOL     OW34867   4.693   4.424   2.466  0.0853  0.8425  0.5970
 7803SOL    HW134868   4.607   4.444   2.429 -0.3226  1.2552  1.7635
 7803SOL    HW234869   0.021   4.389   2.391 -0.4425  0.9093  0.2258
 7804SOL     OW34870   2.745   0.356   6.628 -0.1238 -0.0475  0.0687
 7804SOL    HW134871   2.711   0.404   6.704 -0.6945  0.2885 -0.3972
 7804SOL    HW234872   2.831   0.397   6.619  0.9059 -2.4823 -0.9322
 7805SOL     OW34873   1.171   2.404   8.972  0.1482 -0.3932 -0.0474
 7805SOL    HW134874   1.082   2.372   8.960 -0.3332  0.2590  1.8187
 7805SOL    HW234875   1.203   2.344   9.039  0.3488  0.1367  0.3316
 7806SOL     OW34876   0.902   1.241   1.827 -0.2162  0.2833 -0.1980
 7806SOL    HW134877   0.987   1.282   1.808  0.9663 -1.9997  0.1409
 7806SOL    HW234878   0.882   1.205   1.741 -1.5003  2.6082 -0.8720
 7807SOL     OW34879   0.130   4.417   8.830  0.2798  0.0523  0.3048
 7807SOL    HW134880   0.216   4.420   8.872 -0.3503  2.1111  1.4367
 7807SOL    HW234881   0.095   4.495   8.875 -1.0908 -0.7518  0.6281
 7808SOL     OW34882   4.425   4.053   5.205 -0.2080 -0.6470 -0.2360
 7808SOL    HW134883   4.507   4.038   5.252 -0.1925  1.1350  0.3378
 7808SOL    HW234884   4.465   4.107   5.136  0.8050  1.8732  2.3378
 7809SOL     OW34885   2.466   1.864   4.475 -0.5259 -0.4165 -0.1131
 7809SOL    HW134886   2.402   1.804   4.513 -1.9078  0.3178 -1.2644
 7809SOL    HW234887   2.408   1.939   4.461 -1.7918 -0.9634  2.2602
 7810SOL     OW34888   1.845   3.122   8.909 -0.6587 -0.0316 -0.0366
 7810SOL    HW134889   1.811   3.139   8.821  0.2168 -0.8045 -0.5258
 7810SOL    HW234890   1.929   3.169   8.908 -1.2294  1.1105  4.3133
 7811SOL     OW34891   3.783   4.410   7.477 -0.0864  0.2176 -0.3002
 7811SOL    HW134892   3.741   4.495   7.490  1.6198  0.5770  2.8716
 7811SOL    HW234893   3.712   4.352   7.504 -0.1832  1.3779  1.9002
 7812SOL     OW34894   0.726   1.895   6.318  0.0336  0.2531 -0.0399
 7812SOL    HW134895   0.698   1.898   6.226  1.2058  0.6497 -0.3864
 7812SOL    HW234896   0.651   1.845   6.350  0.3900  1.1650  2.2309
 7813SOL     OW34897   2.069   4.571   7.113 -0.6109 -0.2638 -0.1008
 7813SOL    HW134898   2.156   4.535   7.128 -1.4871 -2.1973  0.2850
 7813SOL    HW234899   2.075   4.651   7.166 -0.2056  0.1865 -0.8343
 7814SOL     OW34900   1.549   4.375   5.735  0.5094  0.7834 -0.5005
 7814SOL    HW134901   1.536   4.306   5.669 -4.3513  1.2848 -0.1044
 7814SOL    HW234902   1.457   4.399   5.747  0.4950  0.9338 -0.9003
 7815SOL     OW34903   2.677   3.277  17.019 -0.0476  0.7621 -0.5682
 7815SOL    HW134904   2.665   3.370  16.997 -1.0197  1.5653  3.3334
 7815SOL    HW234905   2.594   3.251  16.977 -0.2389  0.9768 -0.3225
 7816SOL     OW34906   4.176   2.323  16.364  0.4798 -0.1946  0.3322
 7816SOL    HW134907   4.197   2.414  16.385  0.2957 -0.5875  2.2408
 7816SOL    HW234908   4.255   2.297  16.317  2.0516 -0.8708  3.3962
 7817SOL     OW34909   0.378   3.363   3.369 -0.3383  0.5294 -0.2234
 7817SOL    HW134910   0.385   3.336   3.278 -0.2906 -0.6092  0.1125
 7817SOL    HW234911   0.408   3.454   3.364 -0.6904  0.4977 -2.6051
 7818SOL     OW34912   2.334   1.546   1.957  0.2056  0.5018 -0.2621
 7818SOL    HW134913   2.412   1.511   1.999  1.0821 -0.1055 -2.3774
 7818SOL    HW234914   2.375   1.614   1.903 -0.9182  0.3963 -1.2516
 7819SOL     OW34915   3.260   0.005   3.826 -0.1024 -0.2640 -0.3721
 7819SOL    HW134916   3.183   4.670   3.835 -0.9240  0.9491  0.2012
 7819SOL    HW234917   3.287   4.713   3.917 -0.6216  2.1099  0.1108
 7820SOL     OW34918   3.782   4.630   5.496  0.2512 -0.0194  0.1267
 7820SOL    HW134919   3.788   4.700   5.561  2.1603  0.3956 -0.4832
 7820SOL    HW234920   3.853   4.663   5.441 -0.6793  3.6784  1.1182
 7821SOL     OW34921   1.340   1.089   0.121  0.0930 -0.2479  0.4148
 7821SOL    HW134922   1.301   1.175   0.111  0.7943  0.1141  0.8264
 7821SOL    HW234923   1.259   1.039   0.135  1.1595 -2.1127  0.0251
 7822SOL     OW34924   0.845   1.867   8.406  0.0354  0.0757 -0.2516
 7822SOL    HW134925   0.852   1.930   8.333 -2.3894  0.9341  0.2342
 7822SOL    HW234926   0.835   1.927   8.480  1.3556 -0.9193  0.7132
 7823SOL     OW34927   3.210   0.601   3.276  0.2243 -0.4585  0.3152
 7823SOL    HW134928   3.249   0.555   3.202 -0.7336 -0.1160 -0.4090
 7823SOL    HW234929   3.282   0.623   3.335  1.5694  1.8308 -2.2050
 7824SOL     OW34930   0.310   2.363  14.272  0.0159  0.1878  0.3305
 7824SOL    HW134931   0.230   2.393  14.229  0.7892  2.9416  0.7912
 7824SOL    HW234932   0.360   2.445  14.273 -1.7539  1.2588  0.8439
 7825SOL     OW34933   0.999   1.705   3.432 -0.1140  0.1044 -0.0851
 7825SOL    HW134934   1.010   1.615   3.400 -1.5872 -1.0539  2.6554
 7825SOL    HW234935   0.964   1.758   3.360  0.4763  4.0068  2.5301
 7826SOL     OW34936   4.476   0.576  15.107  0.2947 -0.6445 -0.1361
 7826SOL    HW134937   4.477   0.485  15.076  0.3471 -1.0093  0.9399
 7826SOL    HW234938   4.568   0.599  15.092  0.5203 -1.2104  0.3326
 7827SOL     OW34939   2.768   3.303   3.413 -0.4400 -0.3072  0.0836
 7827SOL    HW134940   2.801   3.214   3.429 -0.4858 -0.6567 -1.7494
 7827SOL    HW234941   2.707   3.318   3.485 -0.9549  0.7638 -0.5814
 7828SOL     OW34942   4.467   1.531   6.547 -0.3918  0.1309  0.0157
 7828SOL    HW134943   4.375   1.540   6.524  0.3581  1.1574 -2.5859
 7828SOL    HW234944   4.489   1.621   6.569  0.0410 -0.1942  0.9353
 7829SOL     OW34945   0.473   3.020   8.902  0.0103 -0.0444  0.2160
 7829SOL    HW134946   0.485   2.947   8.963 -0.5157  0.3817  0.8262
 7829SOL    HW234947   0.422   3.084   8.953 -0.5483  0.3088 -0.7897
 7830SOL     OW34948   4.428   3.104   7.238  0.2289  0.2889  0.5026
 7830SOL    HW134949   4.465   3.037   7.295  0.7596  0.9496  0.9311
 7830SOL    HW234950   4.454   3.061   7.156  1.2292  0.0554  0.9412
 7831SOL     OW34951   0.110   0.832   6.020  0.3466 -0.2301  0.4342
 7831SOL    HW134952   0.170   0.893   6.064  0.8010 -0.8614  0.6914
 7831SOL    HW234953   0.029   0.882   6.008 -0.3544 -1.8583 -1.6168
 7832SOL     OW34954   2.258   0.503   6.899 -0.6430  0.2013  0.2671
 7832SOL    HW134955   2.269   0.598   6.901  1.0558 -0.0717  3.7515
 7832SOL    HW234956   2.201   0.479   6.971 -0.1889  0.3180  0.6655
 7833SOL     OW34957   2.874   4.072   2.499 -0.0813 -0.4745 -0.0981
 7833SOL    HW134958   2.797   4.035   2.541 -0.7274 -0.5525 -1.3468
 7833SOL    HW234959   2.910   3.997   2.452 -0.7484 -0.4460 -0.6598
 7834SOL     OW34960   1.445   2.565   3.796 -0.3920  0.0740 -0.4223
 7834SOL    HW134961   1.421   2.605   3.712 -1.4510 -2.4199 -1.3385
 7834SOL    HW234962   1.472   2.478   3.764 -0.2705  0.6260 -1.8384
 7835SOL     OW34963   0.973   0.183   0.965 -0.2557  0.8252  0.6240
 7835SOL    HW134964   1.008   0.267   0.995 -0.4240  0.8703  0.6908
 7835SOL    HW234965   1.011   0.178   0.877 -0.7141 -0.7865  0.5132
 7836SOL     OW34966   4.352   2.431  14.061  0.1206  0.1011  0.0606
 7836SOL    HW134967   4.274   2.382  14.034  0.6971  0.7376 -2.7205
 7836SOL    HW234968   4.413   2.357  14.056  0.0741  0.2250 -2.1516
 7837SOL     OW34969   3.656   4.182  14.582  0.3670 -0.0435 -0.2978
 7837SOL    HW134970   3.714   4.233  14.525 -0.1321  0.0384 -0.7367
 7837SOL    HW234971   3.703   4.187  14.665 -0.2831  0.1208  0.0606
 7838SOL     OW34972   2.636   2.709   6.085 -0.5912  0.1471 -0.0963
 7838SOL    HW134973   2.639   2.772   6.013  1.9418  0.1407  0.0197
 7838SOL    HW234974   2.661   2.624   6.051 -1.7135  0.0417 -0.6611
 7839SOL     OW34975   1.527   3.474   5.368  0.0945  0.1307  0.0336
 7839SOL    HW134976   1.611   3.520   5.374  1.3643 -1.7012 -3.6086
 7839SOL    HW234977   1.470   3.549   5.352 -0.4238 -0.8205 -2.5623
 7840SOL     OW34978   4.238   1.844   6.999 -0.2126 -0.1471 -0.2005
 7840SOL    HW134979   4.162   1.878   6.951 -0.0557 -0.9375 -1.0201
 7840SOL    HW234980   4.254   1.752   6.976 -0.6043  0.1614 -1.7499
 7841SOL     OW34981   2.347   0.099  12.726  0.3002 -0.0171  0.2198
 7841SOL    HW134982   2.253   0.082  12.737 -0.0019  0.2825 -1.9612
 7841SOL    HW234983   2.384   0.010  12.724  2.2116  0.7816  0.7957
 7842SOL     OW34984   1.474   0.870   5.565  0.3096  0.3271  0.5209
 7842SOL    HW134985   1.513   0.955   5.585 -1.0223  1.1857 -0.5130
 7842SOL    HW234986   1.394   0.895   5.519  0.4757  1.7154  1.0028
 7843SOL     OW34987   1.720   1.542  15.638  0.4457 -0.0929 -0.3174
 7843SOL    HW134988   1.726   1.531  15.733  1.9696 -1.6647 -0.5906
 7843SOL    HW234989   1.720   1.637  15.627 -2.2358 -0.3547 -2.5350
 7844SOL     OW34990   1.044   0.784   0.544  0.2523 -0.5326  0.6568
 7844SOL    HW134991   1.014   0.839   0.617 -0.6086  1.0571 -0.8842
 7844SOL    HW234992   1.139   0.777   0.555  0.3199 -0.6107  0.0322
 7845SOL     OW34993   0.189   0.223  16.740  0.0939 -0.5318 -0.2886
 7845SOL    HW134994   0.234   0.146  16.777 -0.2434  0.4697  2.1867
 7845SOL    HW234995   0.170   0.268  16.822 -2.6316  0.7261 -1.6149
 7846SOL     OW34996   3.115   0.470  16.535  0.1888 -0.1163  0.3066
 7846SOL    HW134997   3.128   0.564  16.547 -1.3321  0.1441 -0.2122
 7846SOL    HW234998   3.020   0.476  16.543  0.0815 -2.2084  0.5434
 7847SOL     OW34999   4.476   1.943   3.302 -0.5672 -0.1142  0.1222
 7847SOL    HW135000   4.474   1.942   3.397 -0.6465  1.5360  0.1367
 7847SOL    HW235001   4.381   1.938   3.285 -0.5516  2.4153 -0.7892
 7848SOL     OW35002   1.124   0.269   3.387  0.0747  0.1425  0.5864
 7848SOL    HW135003   1.147   0.311   3.304 -1.0697  0.7487  0.5828
 7848SOL    HW235004   1.179   0.191   3.395 -0.3591 -0.2311 -0.0847
 7849SOL     OW35005   2.896   3.336   9.786 -0.7065 -0.2653 -0.4470
 7849SOL    HW135006   2.951   3.272   9.830 -1.9017 -1.8424 -1.2755
 7849SOL    HW235007   2.883   3.402   9.854  0.0224  0.0846 -0.6384
 7850SOL     OW35008   1.885   2.094   3.445 -0.5598  0.5004 -0.8152
 7850SOL    HW135009   1.840   2.019   3.485  0.2787  0.4625  0.0706
 7850SOL    HW235010   1.969   2.104   3.490 -1.7105  2.3458  0.9689
 7851SOL     OW35011   3.873   2.449   7.229  0.0111  0.1308 -0.1398
 7851SOL    HW135012   3.904   2.540   7.223 -1.3683  0.5873 -0.1536
 7851SOL    HW235013   3.928   2.404   7.165  0.4911  0.9445 -0.3127
 7852SOL     OW35014   1.982   2.855   0.316 -0.5443 -0.2729 -0.2951
 7852SOL    HW135015   2.061   2.843   0.368 -0.3818 -1.5164 -0.8088
 7852SOL    HW235016   2.005   2.942   0.284 -0.9102 -0.4829 -1.1325
 7853SOL     OW35017   1.336   3.958   7.395  0.5978 -0.0540 -0.0070
 7853SOL    HW135018   1.304   3.962   7.485  0.5621  1.2373 -0.0752
 7853SOL    HW235019   1.393   4.033   7.409  0.6842 -0.1181 -0.0212
 7854SOL     OW35020   4.674   2.404   3.374 -0.3356 -0.3226 -0.3285
 7854SOL    HW135021   4.685   2.454   3.455 -0.4068  0.7758 -1.0071
 7854SOL    HW235022   4.581   2.425   3.368 -0.1814  0.0826 -1.2985
 7855SOL     OW35023   4.182   1.711  13.550  0.0928  0.0026 -0.5882
 7855SOL    HW135024   4.104   1.756  13.580 -1.9048 -2.4283 -2.1772
 7855SOL    HW235025   4.250   1.771  13.580  0.5693 -0.1705 -1.2969
 7856SOL     OW35026   0.559   3.710  14.075  0.1614 -0.1688 -0.0718
 7856SOL    HW135027   0.579   3.783  14.135  0.3359  0.6237 -1.0929
 7856SOL    HW235028   0.639   3.660  14.092 -0.2472 -1.0549 -0.8024
 7857SOL     OW35029   2.219   2.956  14.886 -0.5361 -0.1656 -0.8306
 7857SOL    HW135030   2.185   3.026  14.830  1.9575  0.6848 -1.2856
 7857SOL    HW235031   2.258   3.005  14.959 -0.7631  2.3349 -2.3953
 7858SOL     OW35032   3.443   0.871  10.167  0.7532 -0.0433  0.1988
 7858SOL    HW135033   3.532   0.852  10.137  0.6735 -1.1611  0.6585
 7858SOL    HW235034   3.447   0.965  10.181 -0.2700  0.2095 -1.1995
 7859SOL     OW35035   0.482   2.557   4.032 -0.2464  0.0749  0.2775
 7859SOL    HW135036   0.562   2.595   3.997 -0.0467 -1.2844 -0.7251
 7859SOL    HW235037   0.520   2.487   4.085  1.2874  0.4383 -0.3475
 7860SOL     OW35038   3.414   2.961   5.438  0.0398 -0.4842 -0.1884
 7860SOL    HW135039   3.501   2.944   5.402  0.7418  2.6972  0.0061
 7860SOL    HW235040   3.380   3.038   5.392  2.2624  1.4411  1.3998
 7861SOL     OW35041   4.047   2.589   7.865 -0.6142 -0.2689  0.2498
 7861SOL    HW135042   3.971   2.595   7.806 -1.1571  0.9259  1.0578
 7861SOL    HW235043   4.073   2.681   7.878  2.2189 -0.9138 -0.9286
 7862SOL     OW35044   2.863   4.267   4.115  0.1501  0.6411 -0.9027
 7862SOL    HW135045   2.909   4.317   4.182 -1.2395  1.8352 -0.8316
 7862SOL    HW235046   2.807   4.333   4.074 -1.1890 -0.2551 -0.5277
 7863SOL     OW35047   0.908   2.075   5.023  0.1390  0.0021  0.1267
 7863SOL    HW135048   0.849   2.128   4.969 -1.7666 -0.8611  1.3572
 7863SOL    HW235049   0.883   2.101   5.112 -1.1545  1.4296 -0.6451
 7864SOL     OW35050   2.832   1.579  12.669  0.3071 -0.1652 -0.1864
 7864SOL    HW135051   2.791   1.522  12.603 -2.7808  2.8246 -0.8317
 7864SOL    HW235052   2.768   1.576  12.740  0.7283 -1.7992  0.1336
 7865SOL     OW35053   2.414   0.280  14.964  0.1033  0.4623 -0.4290
 7865SOL    HW135054   2.408   0.368  15.000  0.2846  0.1616  0.3440
 7865SOL    HW235055   2.429   0.304  14.873  1.0213  2.4342  0.2510
 7866SOL     OW35056   2.614   1.747   4.216  0.9134 -0.5003  0.2073
 7866SOL    HW135057   2.597   1.829   4.170 -2.0601 -0.1745  1.9096
 7866SOL    HW235058   2.569   1.764   4.299  1.1411 -1.9183  0.6263
 7867SOL     OW35059   1.260   1.136  16.014 -0.0703 -0.4192 -1.0640
 7867SOL    HW135060   1.261   1.066  16.079 -0.2815 -0.5268 -1.1785
 7867SOL    HW235061   1.353   1.157  16.000 -0.2506  1.1894  0.2185
 7868SOL     OW35062   2.411   2.640  11.579 -0.5269  0.1046  0.0126
 7868SOL    HW135063   2.448   2.613  11.664 -0.1058  0.6956  0.0149
 7868SOL    HW235064   2.421   2.735  11.586  1.0611 -0.2783  2.9456
 7869SOL     OW35065   0.707   1.699  13.226 -0.0627  0.1287 -0.7510
 7869SOL    HW135066   0.788   1.653  13.204  1.0100  1.3812  0.5099
 7869SOL    HW235067   0.676   1.704  13.136  3.9047  1.6808 -2.0382
 7870SOL     OW35068   3.125   3.755  17.418  0.1493  0.3761  0.0645
 7870SOL    HW135069   3.136   3.759  17.513  1.4739  1.7613 -0.1631
 7870SOL    HW235070   3.032   3.776  17.404 -0.2898 -1.8917 -0.4444
 7871SOL     OW35071   2.666   2.286   5.173  0.2178  0.0666  0.2584
 7871SOL    HW135072   2.573   2.267   5.158  0.8925 -1.4979 -1.9275
 7871SOL    HW235073   2.689   2.349   5.105  2.0903  0.2113  1.0127
 7872SOL     OW35074   0.826   4.588   5.995 -0.4495  0.3643  0.5002
 7872SOL    HW135075   0.854   4.636   6.074  0.8745  0.0492  0.2189
 7872SOL    HW235076   0.859   4.635   5.919  0.5328  0.8877  1.2472
 7873SOL     OW35077   4.085   1.287   1.338  0.2577  0.3824  0.2712
 7873SOL    HW135078   4.146   1.214   1.336 -4.4493 -3.5494 -0.4749
 7873SOL    HW235079   4.065   1.279   1.431 -0.7224 -0.8283 -0.0473
 7874SOL     OW35080   3.048   0.865   7.501  0.3442  0.2847  0.2989
 7874SOL    HW135081   3.127   0.905   7.538 -0.8034  1.3795  1.5260
 7874SOL    HW235082   3.032   0.906   7.416  1.0695  2.9028  1.4061
 7875SOL     OW35083   2.213   1.229  10.739  0.9967  0.2495  0.0666
 7875SOL    HW135084   2.121   1.236  10.763  0.9985 -0.3690  0.2542
 7875SOL    HW235085   2.248   1.310  10.775  0.3499 -1.1427  3.8458
 7876SOL     OW35086   2.794   2.998  12.541  0.5531  0.6567 -0.3092
 7876SOL    HW135087   2.882   2.961  12.542  0.3819  0.2377 -0.6866
 7876SOL    HW235088   2.770   2.976  12.451 -1.5528  0.1519  0.3708
 7877SOL     OW35089   0.728   1.801  16.140 -0.1400  0.5200 -0.3342
 7877SOL    HW135090   0.722   1.759  16.054  1.8686  0.2472 -0.3373
 7877SOL    HW235091   0.818   1.834  16.150  0.0049 -0.0557  0.2576
 7878SOL     OW35092   0.999   0.904   0.807  0.1095 -0.3358 -0.0293
 7878SOL    HW135093   0.963   0.889   0.895 -0.3339  2.4253  0.2462
 7878SOL    HW235094   1.067   0.965   0.834 -0.4201  0.4523 -0.4938
 7879SOL     OW35095   0.611   1.667   8.617  0.4444  0.0424 -0.2855
 7879SOL    HW135096   0.607   1.579   8.655 -1.3391  0.6407  0.9329
 7879SOL    HW235097   0.704   1.684   8.625  0.1026  2.9914 -2.3679
 7880SOL     OW35098   3.608   2.022   2.048  0.2930 -0.0524 -0.0340
 7880SOL    HW135099   3.522   2.052   2.017  2.1906  3.3510 -2.0384
 7880SOL    HW235100   3.619   2.089   2.116  0.9798  1.0277 -1.2005
 7881SOL     OW35101   4.009   1.623  13.765 -0.2401 -0.0967  0.0793
 7881SOL    HW135102   3.980   1.649  13.852 -1.3824 -0.2001 -0.2619
 7881SOL    HW235103   4.004   1.706  13.718 -0.3974 -2.7814 -4.7018
 7882SOL     OW35104   1.393   4.272  15.937  0.5849 -0.3657  0.3468
 7882SOL    HW135105   1.386   4.366  15.916  1.0466 -0.5445 -0.5793
 7882SOL    HW235106   1.435   4.247  15.856 -0.2831  0.2306 -0.2934
 7883SOL     OW35107   1.894   0.766   6.626 -0.2164  0.5044 -0.3784
 7883SOL    HW135108   1.885   0.845   6.572  1.0392  1.0971  0.2910
 7883SOL    HW235109   1.976   0.790   6.670  1.0535  0.2282 -2.5608
 7884SOL     OW35110   2.495   0.559   7.399  0.1986  0.0767 -0.4206
 7884SOL    HW135111   2.503   0.576   7.492 -1.5265 -1.5372  0.0096
 7884SOL    HW235112   2.430   0.625   7.374  1.0161  0.9908 -0.1403
 7885SOL     OW35113   2.896   2.382   8.722  0.0772 -0.0327 -0.1675
 7885SOL    HW135114   2.986   2.392   8.753  1.0307 -2.7014 -2.0836
 7885SOL    HW235115   2.883   2.476   8.716  0.1392  0.0227  0.5166
 7886SOL     OW35116   0.506   4.551  13.254  0.3556 -0.2011  0.1878
 7886SOL    HW135117   0.455   4.488  13.305 -0.8458  0.0433 -0.7257
 7886SOL    HW235118   0.567   4.576  13.324  0.5661 -2.7833  0.9148
 7887SOL     OW35119   0.959   3.774   3.099 -0.3012  0.1439  0.4553
 7887SOL    HW135120   0.920   3.730   3.023  1.7518 -0.3061 -0.3620
 7887SOL    HW235121   0.943   3.706   3.165  1.0927 -0.8187 -0.1714
 7888SOL     OW35122   0.199   2.945   1.061  0.0750 -0.0309  0.6339
 7888SOL    HW135123   0.236   3.030   1.037 -0.1038 -0.9870 -3.0659
 7888SOL    HW235124   0.107   2.955   1.086 -0.3753 -2.0969 -0.2664
 7889SOL     OW35125   0.577   0.849   4.366 -0.0531 -0.2093  0.5035
 7889SOL    HW135126   0.653   0.873   4.420  1.4313 -0.6526 -1.3610
 7889SOL    HW235127   0.573   0.928   4.312 -4.3607 -0.6119  0.2738
 7890SOL     OW35128   2.465   2.465  12.744 -0.5120 -0.1392  0.8918
 7890SOL    HW135129   2.390   2.416  12.710  0.0226 -1.2388  1.3261
 7890SOL    HW235130   2.448   2.555  12.716  2.6890 -0.2998 -1.6494
 7891SOL     OW35131   1.098   1.123   3.951 -0.3647  0.6559 -0.1892
 7891SOL    HW135132   1.113   1.201   3.898 -2.4983 -0.3591 -2.2346
 7891SOL    HW235133   1.158   1.061   3.910  0.2859  1.8683 -1.0681
 7892SOL     OW35134   2.674   1.589   2.014 -1.1352  0.1908  0.0155
 7892SOL    HW135135   2.724   1.568   2.093 -2.4489  0.4730  0.9124
 7892SOL    HW235136   2.683   1.683   2.025  0.7791  0.0652 -0.3492
 7893SOL     OW35137   1.459   2.727   4.652 -0.3116 -0.2824  0.0164
 7893SOL    HW135138   1.457   2.631   4.646  0.8667 -0.2297 -1.1215
 7893SOL    HW235139   1.420   2.752   4.568 -2.6219 -0.4693  1.0139
 7894SOL     OW35140   2.427   4.049   6.015 -0.2205  0.2677  0.2714
 7894SOL    HW135141   2.387   3.994   6.083 -2.6123  2.5566  0.7403
 7894SOL    HW235142   2.377   4.130   6.005 -1.8886 -0.5226  2.2560
 7895SOL     OW35143   2.603   1.975   3.267 -0.1552  0.1491  0.1758
 7895SOL    HW135144   2.691   1.955   3.297 -0.8840  0.2938  2.3942
 7895SOL    HW235145   2.558   1.898   3.300  0.5910  0.5513  2.1076
 7896SOL     OW35146   2.391   1.252   7.561 -0.6269 -0.0121  0.1603
 7896SOL    HW135147   2.333   1.233   7.635  0.3501  0.0017  0.9275
 7896SOL    HW235148   2.474   1.211   7.583 -0.5069 -0.3620 -0.9741
 7897SOL     OW35149   2.789   1.831   2.950 -0.8171  0.6207 -0.0001
 7897SOL    HW135150   2.804   1.868   2.862 -0.5360 -1.3826 -0.7999
 7897SOL    HW235151   2.750   1.906   2.995 -0.9309 -0.1677  1.2052
 7898SOL     OW35152   0.162   3.574   2.070  0.1620  0.4346  0.0603
 7898SOL    HW135153   0.069   3.578   2.090  0.1008  1.2902 -0.4010
 7898SOL    HW235154   0.174   3.648   2.011 -1.1646 -0.4659 -1.3464
 7899SOL     OW35155   0.600   2.900   2.055 -0.1054 -0.0361 -0.7471
 7899SOL    HW135156   0.684   2.936   2.084 -0.5967 -0.9300  1.7674
 7899SOL    HW235157   0.562   2.856   2.131  2.9960  0.4813  1.1208
 7900SOL     OW35158   1.045   3.973   1.101  0.3572 -0.5901 -0.0114
 7900SOL    HW135159   1.115   3.908   1.109  2.5042  1.7647  0.5787
 7900SOL    HW235160   1.049   4.024   1.182 -1.4529 -0.7976  0.2030
 7901SOL     OW35161   0.080   1.426   1.035  0.4179  0.3734  0.1420
 7901SOL    HW135162   0.099   1.444   1.127 -2.9953  0.3635  0.8696
 7901SOL    HW235163   4.716   1.383   1.043 -0.5383  2.1040 -0.7273
 7902SOL     OW35164   1.275   3.317   5.369 -0.6620  0.1908  0.2349
 7902SOL    HW135165   1.348   3.375   5.348  0.8737 -1.3815  1.3462
 7902SOL    HW235166   1.262   3.264   5.290 -2.0153  0.0398  0.5557
 7903SOL     OW35167   3.726   4.045   7.309 -0.1663 -0.1119 -0.1109
 7903SOL    HW135168   3.677   4.012   7.234  0.1341  1.2889 -0.9222
 7903SOL    HW235169   3.675   4.126   7.315 -1.1200 -0.7354  0.2438
 7904SOL     OW35170   2.262   4.217  15.412  0.0361 -0.0575  0.7562
 7904SOL    HW135171   2.232   4.288  15.356 -1.1792  0.6017  2.2284
 7904SOL    HW235172   2.314   4.263  15.478  0.1082  0.4462  0.3446
 7905SOL     OW35173   2.864   1.626   2.535  0.3793  0.1686  0.0316
 7905SOL    HW135174   2.945   1.620   2.586  1.9053  3.6845 -2.0227
 7905SOL    HW235175   2.794   1.630   2.601  1.2030 -1.9394  1.0492
 7906SOL     OW35176   0.045   1.368   1.318 -0.1062  0.1922  0.2319
 7906SOL    HW135177   4.689   1.362   1.262 -0.7388  0.7851  1.0247
 7906SOL    HW235178   0.010   1.420   1.391 -0.7023  0.1394 -0.0146
 7907SOL     OW35179   3.230   1.161  11.385  0.2258  0.2412 -0.3180
 7907SOL    HW135180   3.211   1.201  11.300  0.5396  2.0249  0.4522
 7907SOL    HW235181   3.182   1.079  11.371  2.9862 -1.4854  0.2924
 7908SOL     OW35182   3.336   0.776   7.710 -0.1679  0.0066 -0.3855
 7908SOL    HW135183   3.298   0.740   7.790  0.6408  0.1431  0.0678
 7908SOL    HW235184   3.296   0.863   7.712  0.0732  0.1492 -1.6997
 7909SOL     OW35185   1.970   0.338   2.308 -0.1741  0.1644  0.2008
 7909SOL    HW135186   1.962   0.300   2.221  0.8261 -0.6894  0.4862
 7909SOL    HW235187   1.918   0.418   2.297 -0.6759 -0.2633 -0.5102
 7910SOL     OW35188   2.392   3.725   3.489  0.1378 -0.2563  0.0697
 7910SOL    HW135189   2.360   3.642   3.454 -0.0664  0.9239 -2.5539
 7910SOL    HW235190   2.394   3.709   3.583 -1.6751  0.3793  0.2109
 7911SOL     OW35191   0.066   3.987   7.672 -0.7224  0.1726 -0.1100
 7911SOL    HW135192   0.030   4.073   7.693  0.0572  0.2052  1.1092
 7911SOL    HW235193   4.712   3.941   7.633 -1.4933  0.2379  1.2650
 7912SOL     OW35194   1.991   2.879  11.606  0.7010  0.0453 -0.1016
 7912SOL    HW135195   1.964   2.910  11.693  0.3225  0.4325 -0.3531
 7912SOL    HW235196   2.023   2.953  11.555 -0.3526  1.1534  0.8430
 7913SOL     OW35197   2.106   1.864   1.816 -0.4115 -0.7207  0.2430
 7913SOL    HW135198   2.191   1.821   1.818 -0.1414 -0.2426 -0.9631
 7913SOL    HW235199   2.119   1.922   1.891 -1.1017  0.6728 -0.7104
 7914SOL     OW35200   3.741   0.204  13.400 -0.2268 -0.0020  0.2468
 7914SOL    HW135201   3.751   0.273  13.334  0.0868  0.4428  0.7622
 7914SOL    HW235202   3.829   0.194  13.437  0.3230 -1.9781 -1.5594
 7915SOL     OW35203   2.397   4.668   2.986  0.2866  0.4801 -0.6815
 7915SOL    HW135204   2.463   4.599   2.980 -1.5955 -1.2448 -1.6338
 7915SOL    HW235205   2.321   4.622   2.951  1.0045 -1.2413  0.0527
 7916SOL     OW35206   3.769   0.304   3.913  0.1097  0.1747 -0.1538
 7916SOL    HW135207   3.847   0.324   3.861  0.0511 -1.5964 -0.9007
 7916SOL    HW235208   3.801   0.273   3.997  0.1061 -1.6612 -0.8386
 7917SOL     OW35209   2.049   4.544   1.005 -0.0081 -0.8164  0.0675
 7917SOL    HW135210   2.075   4.555   1.096 -0.5873  0.5392  0.0696
 7917SOL    HW235211   2.011   4.456   1.007  0.2560 -0.9285  0.1469
 7918SOL     OW35212   0.981   1.897   2.918 -0.3621  0.1275 -0.4733
 7918SOL    HW135213   0.920   1.942   2.859 -0.9350  0.2374  0.1996
 7918SOL    HW235214   0.965   1.803   2.911 -0.7580  0.2010 -0.5731
 7919SOL     OW35215   4.373   3.607   8.416  0.7201  0.3578 -0.3902
 7919SOL    HW135216   4.332   3.537   8.365  0.5055 -0.4209  0.8605
 7919SOL    HW235217   4.468   3.592   8.407  0.4714 -1.2355 -0.2849
 7920SOL     OW35218   3.459   3.720   2.285 -0.0536 -0.2374  0.3695
 7920SOL    HW135219   3.434   3.810   2.301  0.9776 -0.0729  1.0494
 7920SOL    HW235220   3.394   3.693   2.221 -1.7783  1.0455  1.5976
 7921SOL     OW35221   3.253   1.600   7.546  0.7652 -0.4433 -0.8449
 7921SOL    HW135222   3.280   1.508   7.545  1.8331 -0.1225 -0.7395
 7921SOL    HW235223   3.305   1.631   7.620 -1.0816 -1.8210  1.0510
 7922SOL     OW35224   0.451   2.454  11.014  0.1653  0.4681 -0.3450
 7922SOL    HW135225   0.381   2.473  11.076 -0.1649  1.0734 -0.9068
 7922SOL    HW235226   0.501   2.535  11.025 -0.0900  0.4064  1.2538
 7923SOL     OW35227   2.138   3.411   2.607  0.0098 -0.5431  0.0739
 7923SOL    HW135228   2.230   3.407   2.582  0.1078  0.3498  0.2848
 7923SOL    HW235229   2.129   3.336   2.667 -0.7601 -0.0386  0.5847
 7924SOL     OW35230   0.183   2.232   7.023  0.3944 -0.5281 -0.1689
 7924SOL    HW135231   0.123   2.228   7.098 -0.7058  1.3618 -0.9632
 7924SOL    HW235232   0.269   2.209   7.058  2.0447  3.0258 -1.9092
 7925SOL     OW35233   0.396   0.755   9.713 -0.5754 -0.3183  0.5521
 7925SOL    HW135234   0.399   0.706   9.795 -0.0998 -2.1212 -0.5386
 7925SOL    HW235235   0.397   0.683   9.649 -0.5860  0.2831 -0.1258
 7926SOL     OW35236   0.106   1.879   3.892 -0.1067  0.7057 -0.4968
 7926SOL    HW135237   0.190   1.849   3.858 -0.7372  0.8809 -2.1749
 7926SOL    HW235238   0.057   1.855   3.814  0.2674 -0.4374 -0.3684
 7927SOL     OW35239   3.878   2.693   5.569 -0.3927  0.2601 -0.5403
 7927SOL    HW135240   3.926   2.669   5.490 -1.1968 -1.9372 -0.3579
 7927SOL    HW235241   3.946   2.751   5.604 -0.3880  0.7724 -1.3899
 7928SOL     OW35242   2.066   4.345   5.819 -0.0195  0.1062  0.3763
 7928SOL    HW135243   2.144   4.399   5.823  0.1079 -0.1356  1.0431
 7928SOL    HW235244   2.082   4.309   5.732 -1.5537 -0.2487  0.2331
 7929SOL     OW35245   3.044   2.776  10.355  0.4152  0.3318  0.0712
 7929SOL    HW135246   3.125   2.743  10.392  0.8694  2.5321  1.0505
 7929SOL    HW235247   3.072   2.799  10.267 -0.6558  0.7117 -0.1705
 7930SOL     OW35248   1.883   3.583   3.610  0.3716 -0.4321  0.3785
 7930SOL    HW135249   1.801   3.633   3.607 -0.3580 -1.6491 -0.0926
 7930SOL    HW235250   1.879   3.546   3.698 -0.0233 -1.6985 -0.1679
 7931SOL     OW35251   2.308   4.717   1.751  0.5840  0.1517  0.3500
 7931SOL    HW135252   2.332   0.078   1.795  1.4306  0.5036 -0.7564
 7931SOL    HW235253   2.350   0.025   1.670  0.7602 -2.3980 -0.4373
 7932SOL     OW35254   3.970   1.905   8.527 -0.4374 -0.4113  0.2610
 7932SOL    HW135255   4.039   1.949   8.577  1.3712 -1.5952 -1.1921
 7932SOL    HW235256   3.897   1.931   8.583  0.1027  2.9803 -0.6027
 7933SOL     OW35257   3.048   0.317   0.553 -0.1477 -0.0828  0.7327
 7933SOL    HW135258   3.066   0.249   0.488  2.4365  1.4722 -0.1680
 7933SOL    HW235259   3.048   0.260   0.630  2.2693  2.2145  2.4368
 7934SOL     OW35260   2.027   4.611   6.841 -0.5755  0.9953  0.3604
 7934SOL    HW135261   2.096   4.678   6.841  0.1309  0.2620  0.3266
 7934SOL    HW235262   2.027   4.603   6.936  0.7280  0.9297  0.3525
 7935SOL     OW35263   3.243   2.673   6.526 -0.5737 -0.3423 -0.5078
 7935SOL    HW135264   3.181   2.724   6.578  0.3142  1.0066 -0.7565
 7935SOL    HW235265   3.254   2.737   6.455  0.9648 -0.3509 -0.2732
 7936SOL     OW35266   0.423   1.060   8.970  0.6171  0.1821 -0.0073
 7936SOL    HW135267   0.364   1.131   8.943  3.6731  2.1538 -1.4823
 7936SOL    HW235268   0.439   1.061   9.064 -1.5413  1.8947  0.3432
 7937SOL     OW35269   2.551   3.439   3.848  0.2134  0.2542  0.3076
 7937SOL    HW135270   2.478   3.395   3.891  2.0791 -2.1428  1.0143
 7937SOL    HW235271   2.628   3.425   3.904  0.0544 -0.7069  0.2840
 7938SOL     OW35272   0.043   3.202  16.455 -0.6104 -0.1003 -0.5382
 7938SOL    HW135273   4.692   3.247  16.411 -1.0961 -1.2842 -0.9373
 7938SOL    HW235274   0.112   3.267  16.441 -0.4693  0.1328  1.1927
 7939SOL     OW35275   2.233   1.973   0.484  0.1223  0.0203  0.4442
 7939SOL    HW135276   2.216   1.887   0.445  2.8740  0.3682 -1.5346
 7939SOL    HW235277   2.328   1.973   0.478  0.0693  2.2023 -0.3703
 7940SOL     OW35278   3.528   1.878   8.147 -0.3252 -0.4977  0.0795
 7940SOL    HW135279   3.476   1.918   8.217 -0.8170  0.9737 -1.1314
 7940SOL    HW235280   3.482   1.794   8.145  1.5923 -1.5865  1.1900
 7941SOL     OW35281   1.941   2.956   5.701 -1.0298  0.0311  0.3685
 7941SOL    HW135282   1.851   2.990   5.697 -0.6552  1.1456  1.4258
 7941SOL    HW235283   1.928   2.887   5.636  1.6361 -1.0761  1.0523
 7942SOL     OW35284   3.665   4.594  10.373  0.0054 -0.1212  0.1844
 7942SOL    HW135285   3.703   4.604  10.460 -0.9480 -0.9318  0.6950
 7942SOL    HW235286   3.604   4.667  10.365  0.1578  0.3467  3.1252
 7943SOL     OW35287   4.269   2.291   4.830  0.3444  0.3107  0.2767
 7943SOL    HW135288   4.327   2.287   4.754 -0.0249 -1.9312  0.1236
 7943SOL    HW235289   4.292   2.215   4.884  1.3448  0.3383 -0.1062
 7944SOL     OW35290   1.208   1.971   5.222 -0.4619 -0.5821  0.0973
 7944SOL    HW135291   1.255   2.016   5.293 -0.0657 -1.7022  0.5381
 7944SOL    HW235292   1.205   2.044   5.160 -0.8257  0.7570  1.6716
 7945SOL     OW35293   3.095   0.876   7.895 -0.2606 -0.8580  0.7152
 7945SOL    HW135294   3.081   0.954   7.948 -0.5925 -1.5898  1.7006
 7945SOL    HW235295   3.083   0.913   7.807  2.0505  2.3651  1.7680
 7946SOL     OW35296   2.717   1.938   7.635 -0.3413  0.9829 -0.1230
 7946SOL    HW135297   2.712   1.843   7.618 -2.8265  0.7479  1.9215
 7946SOL    HW235298   2.623   1.958   7.636 -0.1690  1.7625 -0.1887
 7947SOL     OW35299   2.965   3.701   7.296 -0.4357  0.2490 -0.6527
 7947SOL    HW135300   2.889   3.650   7.323 -0.8212  1.8057  1.2581
 7947SOL    HW235301   2.921   3.772   7.249  1.8619  1.9671 -0.2363
 7948SOL     OW35302   0.739   2.350   5.689  0.5613  0.1530  0.4708
 7948SOL    HW135303   0.794   2.388   5.758  2.7059 -1.3146 -0.4029
 7948SOL    HW235304   0.702   2.429   5.649  1.3469  1.8470  3.1071
 7949SOL     OW35305   1.207   2.058   5.745  0.1322  0.3390 -0.1974
 7949SOL    HW135306   1.178   2.047   5.835 -0.0329 -0.4689 -0.3473
 7949SOL    HW235307   1.167   2.141   5.719  0.3444 -0.0456 -1.8046
 7950SOL     OW35308   4.145   3.008   4.400 -0.1076 -0.3828 -0.2152
 7950SOL    HW135309   4.055   3.004   4.432 -0.2320 -2.4461 -0.8168
 7950SOL    HW235310   4.145   2.944   4.329 -0.0417 -1.0854  0.4201
 7951SOL     OW35311   4.290   3.035  12.884 -0.0398  0.8540 -0.5085
 7951SOL    HW135312   4.329   2.987  12.957 -0.1451  2.2167  0.4481
 7951SOL    HW235313   4.250   3.109  12.929 -1.7771 -0.4627  0.1169
 7952SOL     OW35314   4.456   0.034   5.289 -0.5577  0.2263 -0.1835
 7952SOL    HW135315   4.448   0.127   5.267  0.9140 -0.4055 -3.4184
 7952SOL    HW235316   4.548   0.023   5.265 -0.2262  0.7993  0.8372
 7953SOL     OW35317   1.463   2.876   2.466  0.1637  0.2223  0.4028
 7953SOL    HW135318   1.421   2.799   2.504  1.2111 -0.1491  0.8120
 7953SOL    HW235319   1.422   2.884   2.380  0.9487 -1.9220 -0.1627
 7954SOL     OW35320   1.401   0.346   6.310  0.0011 -0.0034  0.8716
 7954SOL    HW135321   1.347   0.279   6.351  0.5560 -0.3269  1.0661
 7954SOL    HW235322   1.447   0.388   6.384 -0.7654 -0.2671  1.4963
 7955SOL     OW35323   2.357   0.123   0.208  0.0057 -0.9184  0.5873
 7955SOL    HW135324   2.310   0.180   0.147  1.2966  0.0529  0.5020
 7955SOL    HW235325   2.301   0.112   0.285 -1.3501 -0.3866 -0.3144
 7956SOL     OW35326   1.223   3.181   8.782 -0.3498  0.1206 -0.4120
 7956SOL    HW135327   1.221   3.196   8.876  2.6944 -1.9089 -0.0329
 7956SOL    HW235328   1.182   3.260   8.746 -1.1673  0.5784  1.5425
 7957SOL     OW35329   2.999   3.296   9.524  0.3300  0.0514  0.0451
 7957SOL    HW135330   3.062   3.366   9.510 -0.1075  0.1247 -1.5986
 7957SOL    HW235331   2.965   3.322   9.609 -0.1663  0.4507 -0.2727
 7958SOL     OW35332   2.829   1.093  15.488 -0.3620 -0.2984 -0.5441
 7958SOL    HW135333   2.756   1.144  15.523  1.0233  1.5237 -0.3216
 7958SOL    HW235334   2.799   1.095  15.397 -0.8126 -1.8784 -0.4283
 7959SOL     OW35335   4.642   1.200   7.761  0.0631 -0.2373 -0.2398
 7959SOL    HW135336   4.661   1.106   7.767  3.3277  0.3401 -1.3838
 7959SOL    HW235337   4.644   1.235   7.850  0.7507 -4.7955  1.5616
 7960SOL     OW35338   4.216   0.831   8.017 -0.1879  0.1596 -0.1826
 7960SOL    HW135339   4.215   0.925   8.032  1.6008  0.3809 -1.4659
 7960SOL    HW235340   4.185   0.827   7.927  1.7628 -0.5725 -0.8349
 7961SOL     OW35341   2.282   2.413  11.516 -0.4672  0.3315 -0.0250
 7961SOL    HW135342   2.194   2.413  11.554  0.5366 -2.0190  2.2962
 7961SOL    HW235343   2.323   2.477  11.575 -0.0936 -0.0483  0.1318
 7962SOL     OW35344   3.114   2.932   2.286 -0.4870  0.2988  0.4007
 7962SOL    HW135345   3.129   2.842   2.257 -1.0757  0.4700 -0.4345
 7962SOL    HW235346   3.190   2.980   2.254  0.4795 -1.3307  0.2427
 7963SOL     OW35347   2.979   2.835   3.667  0.7441 -0.1343  0.1967
 7963SOL    HW135348   3.061   2.790   3.644  0.4098  0.4898 -2.1548
 7963SOL    HW235349   2.923   2.761   3.692  1.4182 -0.1877  1.6077
 7964SOL     OW35350   0.299   1.004   5.384 -0.0478  0.3879 -0.7268
 7964SOL    HW135351   0.361   0.941   5.421 -1.8494 -0.8398  0.1785
 7964SOL    HW235352   0.229   0.973   5.441  0.4273 -2.4796 -1.6602
 7965SOL     OW35353   2.821   2.517  12.874 -0.1549 -0.1711 -0.0406
 7965SOL    HW135354   2.880   2.481  12.940  0.2073 -0.6061 -0.6011
 7965SOL    HW235355   2.813   2.602  12.918 -0.2356 -0.3688  0.3250
 7966SOL     OW35356   4.044   1.350   6.586  0.3947 -0.2229 -0.3663
 7966SOL    HW135357   4.065   1.433   6.543  1.4871 -0.9669 -1.2722
 7966SOL    HW235358   4.067   1.372   6.676 -0.9107 -3.1049  0.6724
 7967SOL     OW35359   0.942   4.481  15.184 -0.1265  0.1524  0.3251
 7967SOL    HW135360   1.018   4.509  15.133  1.0627 -2.3188  0.7402
 7967SOL    HW235361   0.979   4.492  15.271 -2.0151 -1.7801  1.3868
 7968SOL     OW35362   4.398   2.720   9.803  0.3305 -0.5152  0.0473
 7968SOL    HW135363   4.376   2.813   9.811 -0.4579 -0.8148  1.4541
 7968SOL    HW235364   4.485   2.729   9.765  0.5558  2.1853  1.1996
 7969SOL     OW35365   0.636   1.368  12.707  0.3792 -0.4176  0.4365
 7969SOL    HW135366   0.575   1.305  12.670 -2.3020  0.9697  2.4920
 7969SOL    HW235367   0.665   1.400  12.622  3.6214 -2.9664  0.5413
 7970SOL     OW35368   4.001   0.342   3.784  0.0267 -0.3080  0.4913
 7970SOL    HW135369   4.078   0.354   3.839 -0.2939  0.4313  0.7761
 7970SOL    HW235370   4.028   0.376   3.699 -1.5390  1.9512  0.9035
 7971SOL     OW35371   4.649   2.808  15.788  0.6610  0.2716  0.0946
 7971SOL    HW135372   4.715   2.767  15.843  0.8465 -0.0421 -0.3647
 7971SOL    HW235373   4.606   2.728  15.757  0.3587 -0.0015  1.2026
 7972SOL     OW35374   3.700   1.466   4.483 -0.0940  0.1970  0.5670
 7972SOL    HW135375   3.724   1.388   4.434 -1.0317  0.0624  0.3140
 7972SOL    HW235376   3.786   1.499   4.508  0.2839 -0.0772 -0.3893
 7973SOL     OW35377   3.653   2.736  11.909  0.4972 -0.1471 -0.8057
 7973SOL    HW135378   3.583   2.771  11.853 -0.3667  0.0053  0.3756
 7973SOL    HW235379   3.630   2.643  11.914  2.2986 -0.6291 -1.5337
 7974SOL     OW35380   3.124   3.330   5.203  0.7036  0.1521 -0.0042
 7974SOL    HW135381   3.130   3.338   5.108 -0.2659 -2.1910 -0.2556
 7974SOL    HW235382   3.045   3.379   5.226  0.9752  0.3588  0.4936
 7975SOL     OW35383   2.036   1.969   9.101  0.4056  0.3436  0.1809
 7975SOL    HW135384   1.947   1.937   9.083  1.1717 -1.7562  0.1045
 7975SOL    HW235385   2.069   1.885   9.132  1.5325  1.3752  1.7244
 7976SOL     OW35386   3.953   0.301  14.001 -0.3468 -0.6180  0.0367
 7976SOL    HW135387   4.001   0.384  14.006 -0.1737 -0.6542 -1.1201
 7976SOL    HW235388   3.861   0.326  14.001  0.1310  1.1329 -0.2533
 7977SOL     OW35389   1.524   2.312   2.953  0.3965 -0.1208 -0.4844
 7977SOL    HW135390   1.541   2.298   2.860  2.2888  1.0403 -0.3329
 7977SOL    HW235391   1.480   2.397   2.950 -1.7675 -1.1922  1.9587
 7978SOL     OW35392   2.589   3.035   8.832  0.4468 -0.0538  0.4015
 7978SOL    HW135393   2.498   3.030   8.862  0.6697  1.6587  1.4188
 7978SOL    HW235394   2.632   3.029   8.918 -1.6515 -1.4691  1.3557
 7979SOL     OW35395   1.739   3.309   9.113 -0.0418 -0.3041 -0.2624
 7979SOL    HW135396   1.765   3.356   9.034  2.6789  0.4360  1.1022
 7979SOL    HW235397   1.694   3.233   9.075  1.3454 -0.6067 -1.2736
 7980SOL     OW35398   4.103   4.599   6.580 -0.4863 -0.3060 -0.2829
 7980SOL    HW135399   4.192   4.626   6.606  0.1914 -1.5430 -1.3072
 7980SOL    HW235400   4.103   4.594   6.484  1.8639  1.2753 -0.3751
 7981SOL     OW35401   2.815   0.804   9.511 -0.2169  0.1038  0.6925
 7981SOL    HW135402   2.842   0.804   9.420 -2.2031  0.0235  0.1125
 7981SOL    HW235403   2.779   0.892   9.514  1.1102  0.6715 -0.3111
 7982SOL     OW35404   0.912   0.732   4.196 -0.6638  0.3344 -0.4237
 7982SOL    HW135405   0.871   0.650   4.222 -1.6877 -0.2870 -3.9684
 7982SOL    HW235406   0.854   0.762   4.127  0.2396  2.1247 -0.4243
 7983SOL     OW35407   2.633   2.034   4.130  0.1496  0.0238 -0.6319
 7983SOL    HW135408   2.721   2.044   4.094  0.8772  0.8149  1.3583
 7983SOL    HW235409   2.595   2.122   4.139 -0.5675 -0.3997  0.5208
 7984SOL     OW35410   4.635   4.173   6.338  0.4647  0.8015  0.3967
 7984SOL    HW135411   4.636   4.259   6.296  0.2512  0.3133 -0.6101
 7984SOL    HW235412   4.649   4.200   6.428 -0.3936  0.2465  0.7056
 7985SOL     OW35413   0.464   3.436   2.129 -0.2145 -1.0441  0.0068
 7985SOL    HW135414   0.445   3.417   2.037 -0.5669  0.8069 -0.3048
 7985SOL    HW235415   0.382   3.415   2.174 -0.8920  0.0218 -0.7144
 7986SOL     OW35416   2.992   1.810  12.609  0.5294  0.2508 -0.0479
 7986SOL    HW135417   2.923   1.745  12.592  0.8937  0.2808 -1.5546
 7986SOL    HW235418   3.016   1.777  12.696  0.8382  0.8666  0.1015
 7987SOL     OW35419   0.175   0.243  16.132 -0.3837 -0.2279  0.6054
 7987SOL    HW135420   0.205   0.161  16.172  1.8241 -0.1866 -0.9496
 7987SOL    HW235421   0.240   0.307  16.162  0.2587 -0.1533 -0.9858
 7988SOL     OW35422   0.692   3.765  11.859  0.0243 -0.0155  0.0935
 7988SOL    HW135423   0.784   3.744  11.842 -0.7825 -2.2398 -1.5354
 7988SOL    HW235424   0.676   3.822  11.784 -0.7731 -0.9648 -0.4616
 7989SOL     OW35425   2.392   3.795   7.664  0.7088 -0.0321  0.1004
 7989SOL    HW135426   2.477   3.805   7.622  1.0487  0.8477  1.0063
 7989SOL    HW235427   2.409   3.823   7.754  0.4728 -1.7126  0.6795
 7990SOL     OW35428   2.482   1.611   5.139 -0.5819  0.3485  0.2368
 7990SOL    HW135429   2.484   1.584   5.047  1.1443  0.7191  0.1655
 7990SOL    HW235430   2.537   1.542   5.177  0.2027  0.1797 -1.2133
 7991SOL     OW35431   3.799   2.760  16.874  0.0633 -0.5104 -0.4540
 7991SOL    HW135432   3.739   2.801  16.937  0.1266 -1.6680  0.3518
 7991SOL    HW235433   3.772   2.669  16.861 -0.3278 -0.2368 -1.6307
 7992SOL     OW35434   4.188   2.357   1.702 -0.1104 -0.2533  0.3698
 7992SOL    HW135435   4.190   2.442   1.746  1.0988 -0.1900  0.1881
 7992SOL    HW235436   4.189   2.384   1.610  0.0701  0.0278  0.4523
 7993SOL     OW35437   0.440   2.464   0.658  0.4119 -0.0970 -0.0852
 7993SOL    HW135438   0.368   2.451   0.720  0.7337  0.7599  0.4663
 7993SOL    HW235439   0.493   2.392   0.692 -0.9409 -0.6069  0.9784
 7994SOL     OW35440   0.532   3.698   7.141 -0.5807 -0.4643 -0.6704
 7994SOL    HW135441   0.518   3.726   7.231 -1.1930  0.1016 -0.9419
 7994SOL    HW235442   0.456   3.740   7.099 -0.7964  0.6826  0.8654
 7995SOL     OW35443   0.149   2.034   7.761 -0.3285  0.2246 -0.3472
 7995SOL    HW135444   0.205   1.957   7.768  1.6566  1.7485  0.4894
 7995SOL    HW235445   0.115   2.051   7.849  2.2680  0.8409  0.5310
 7996SOL     OW35446   1.988   2.571   6.189 -0.2675 -0.2545 -0.1354
 7996SOL    HW135447   1.911   2.533   6.231 -0.9904  0.9613 -0.3478
 7996SOL    HW235448   1.973   2.665   6.196  1.9441  0.0560  0.6051
 7997SOL     OW35449   1.048   0.870   3.044  0.4761  0.3656  0.2254
 7997SOL    HW135450   1.029   0.778   3.026 -0.0860  0.4785  0.2699
 7997SOL    HW235451   1.083   0.895   2.958 -0.3875  1.1539  0.1108
 7998SOL     OW35452   3.320   1.887   5.131  0.6051  0.1121 -0.2227
 7998SOL    HW135453   3.311   1.954   5.199 -0.4560  0.3133 -0.5505
 7998SOL    HW235454   3.389   1.833   5.170 -1.0958 -2.0300 -0.1755
 7999SOL     OW35455   3.799   4.522  15.931  0.2608 -0.4538  0.2108
 7999SOL    HW135456   3.829   4.551  16.017 -0.0961  1.7437 -0.4196
 7999SOL    HW235457   3.831   4.431  15.932 -3.1307 -1.6668 -1.3585
 8000SOL     OW35458   0.547   1.147  14.755 -0.7235 -0.3532  0.5568
 8000SOL    HW135459   0.618   1.112  14.809 -1.4598 -0.8377  1.1946
 8000SOL    HW235460   0.599   1.220  14.721  0.0543 -1.3352 -0.3525
 8001SOL     OW35461   0.469   1.535   0.524  0.1694  0.4298 -0.4947
 8001SOL    HW135462   0.518   1.475   0.467  2.0913  1.6832 -0.1490
 8001SOL    HW235463   0.476   1.479   0.601  1.1756  0.2028 -0.7579
 8002SOL     OW35464   2.866   3.327  14.311  0.6531 -0.0733 -0.1924
 8002SOL    HW135465   2.859   3.356  14.221 -1.6403 -0.1393 -0.0454
 8002SOL    HW235466   2.912   3.243  14.308  1.9514  0.7019 -2.0571
 8003SOL     OW35467   1.305   4.166   7.912 -0.6032  0.3270 -0.2716
 8003SOL    HW135468   1.254   4.243   7.886 -3.9681 -1.5128  0.9303
 8003SOL    HW235469   1.258   4.148   7.993 -2.3880  3.4298 -0.5750
 8004SOL     OW35470   3.867   1.339  13.485 -0.1921 -0.5697 -0.2708
 8004SOL    HW135471   3.793   1.397  13.468 -1.0688 -1.2212  1.3055
 8004SOL    HW235472   3.934   1.387  13.437 -2.5852  2.4343 -0.5544
 8005SOL     OW35473   2.410   2.253   7.497 -0.8467  0.1240  0.1224
 8005SOL    HW135474   2.357   2.175   7.512 -0.5870  0.1329  1.1212
 8005SOL    HW235475   2.499   2.229   7.525 -0.4283  2.3311  0.7358
 8006SOL     OW35476   1.103   2.372   1.870 -0.1494 -0.5958  0.5957
 8006SOL    HW135477   1.028   2.430   1.881  0.6061  0.6958 -1.2772
 8006SOL    HW235478   1.171   2.435   1.894 -0.2037  0.0235 -0.8681
 8007SOL     OW35479   3.700   2.481  13.032 -0.2180  0.1100 -0.9577
 8007SOL    HW135480   3.704   2.575  13.048  0.7407 -0.0009 -0.5362
 8007SOL    HW235481   3.699   2.456  13.124 -2.3767 -1.7871 -1.5027
 8008SOL     OW35482   1.316   1.608   3.341 -0.0486  0.5421 -0.1510
 8008SOL    HW135483   1.278   1.533   3.386 -1.0220  0.0283 -1.8347
 8008SOL    HW235484   1.242   1.641   3.290  0.6490 -0.1113 -1.5730
 8009SOL     OW35485   1.861   0.823   0.718 -0.3601 -0.5127  0.1296
 8009SOL    HW135486   1.801   0.890   0.685 -1.2699 -0.8537  1.0995
 8009SOL    HW235487   1.947   0.862   0.700 -0.4486  0.3902  1.7041
 8010SOL     OW35488   4.421   2.746  12.753 -0.0968  0.6964  0.1666
 8010SOL    HW135489   4.417   2.653  12.776  1.2618  0.7229  0.5331
 8010SOL    HW235490   4.484   2.770  12.821 -1.9121  0.8871  1.7770
 8011SOL     OW35491   0.320   3.033   5.743  0.4206 -0.3017  0.2841
 8011SOL    HW135492   0.335   2.994   5.657 -1.4431  1.7019 -0.9693
 8011SOL    HW235493   0.225   3.028   5.737  0.6058 -2.0286 -0.9111
 8012SOL     OW35494   3.159   2.722   1.066 -0.1093 -0.1628 -0.0156
 8012SOL    HW135495   3.213   2.781   1.118  0.0449  0.8455 -1.2962
 8012SOL    HW235496   3.113   2.679   1.138  0.3910  1.4727  1.2728
 8013SOL     OW35497   2.526   3.936   7.271 -0.5407 -0.0255 -0.0712
 8013SOL    HW135498   2.514   3.853   7.316 -0.2533  0.2050  0.4413
 8013SOL    HW235499   2.618   3.941   7.245 -0.7238 -1.3881 -0.9302
 8014SOL     OW35500   1.053   0.775  10.985 -0.0194 -0.3058 -0.2252
 8014SOL    HW135501   1.051   0.733  10.899  2.3199 -0.0090 -0.4369
 8014SOL    HW235502   1.015   0.702  11.033 -1.1766  1.2875  1.2733
 8015SOL     OW35503   4.415   0.196   3.531  0.8993  0.3481  0.3612
 8015SOL    HW135504   4.323   0.175   3.513  0.6785  0.5001  1.3321
 8015SOL    HW235505   4.459   0.120   3.492  1.9168  0.3567  1.4861
 8016SOL     OW35506   0.049   3.837  16.042  0.1958  0.3053 -0.2278
 8016SOL    HW135507   4.689   3.829  15.990  1.0337 -1.5470 -1.2500
 8016SOL    HW235508   0.093   3.914  16.006 -3.7206  1.5885 -2.3294
 8017SOL     OW35509   3.291   3.821  12.880 -0.3784  0.4763  0.1772
 8017SOL    HW135510   3.333   3.904  12.904 -0.4628  0.4467  0.4254
 8017SOL    HW235511   3.361   3.758  12.897 -1.8513 -0.3005  3.2865
 8018SOL     OW35512   1.291   0.367  17.684 -0.1534 -0.3692  0.0804
 8018SOL    HW135513   1.344   0.304   0.047 -2.0904 -1.6432  0.5423
 8018SOL    HW235514   1.324   0.443   0.046  2.6276 -2.2310  1.0899
 8019SOL     OW35515   0.334   3.147  15.496 -0.3980  0.0848  0.1837
 8019SOL    HW135516   0.355   3.154  15.403  1.4574  0.7125  0.6421
 8019SOL    HW235517   0.248   3.105  15.493 -2.0955  3.7204 -2.3160
 8020SOL     OW35518   1.082   1.063   6.732  0.1605  0.3097  0.2828
 8020SOL    HW135519   1.152   1.078   6.669  0.4129 -0.9969  0.2554
 8020SOL    HW235520   1.104   1.120   6.806  2.1689 -0.1032  0.0052
 8021SOL     OW35521   3.769   4.398   4.402 -0.7589 -0.9761 -0.2002
 8021SOL    HW135522   3.674   4.407   4.400 -0.4229  2.5074  0.2292
 8021SOL    HW235523   3.777   4.348   4.320 -0.9808 -3.0218  1.0208
 8022SOL     OW35524   1.639   3.624   9.198 -0.0477 -0.0469 -0.4902
 8022SOL    HW135525   1.715   3.679   9.179  0.3661 -0.4260  0.0933
 8022SOL    HW235526   1.645   3.560   9.127 -0.6434 -0.2551 -0.3505
 8023SOL     OW35527   4.271   1.294   5.812 -0.0386 -0.4481 -0.1475
 8023SOL    HW135528   4.212   1.339   5.752  0.3315  2.2330  1.4714
 8023SOL    HW235529   4.255   1.345   5.891 -0.9109 -2.7958  1.1704
 8024SOL     OW35530   0.758   2.241   1.818 -0.2688  0.8759 -0.2111
 8024SOL    HW135531   0.819   2.296   1.867 -1.7385  1.3677  1.0612
 8024SOL    HW235532   0.674   2.286   1.811  0.0474  1.5209  0.1528
 8025SOL     OW35533   3.515   4.028   5.673 -0.4067  0.0456  0.3046
 8025SOL    HW135534   3.578   4.070   5.732 -0.8550 -0.2064  0.9596
 8025SOL    HW235535   3.537   4.077   5.594  0.2305  1.4153  1.3270
 8026SOL     OW35536   3.648   0.114   6.887  0.2182 -0.5344 -0.4804
 8026SOL    HW135537   3.616   0.197   6.921  0.1990 -0.3084 -1.0626
 8026SOL    HW235538   3.682   0.074   6.968  0.9888  1.2391  0.0705
 8027SOL     OW35539   2.573   1.573   5.871  0.1597 -0.3326  0.2685
 8027SOL    HW135540   2.576   1.495   5.925  1.0389  1.8763  3.3716
 8027SOL    HW235541   2.479   1.591   5.880 -0.1669  0.2319 -3.9758
 8028SOL     OW35542   3.338   0.542   4.412 -0.2103 -0.0645 -0.3869
 8028SOL    HW135543   3.293   0.615   4.455 -1.0971  0.1848 -1.7593
 8028SOL    HW235544   3.273   0.473   4.421 -0.9324  0.4055 -1.9810
 8029SOL     OW35545   2.241   3.499   9.246  0.4202 -0.0287  0.2009
 8029SOL    HW135546   2.154   3.474   9.278  0.8728  1.0449  2.3102
 8029SOL    HW235547   2.228   3.504   9.151  1.4749  0.5222  0.0898
 8030SOL     OW35548   2.096   1.460   5.169  0.1413  0.3391 -0.2908
 8030SOL    HW135549   2.033   1.487   5.236  1.4706  1.4135  0.5211
 8030SOL    HW235550   2.157   1.534   5.170 -1.5593  1.7245 -0.2317
 8031SOL     OW35551   2.063   1.854   7.897  0.1478 -0.9500 -0.1227
 8031SOL    HW135552   2.074   1.870   7.803 -0.9243 -2.2149 -0.4575
 8031SOL    HW235553   2.020   1.937   7.916 -0.7642 -1.1883 -1.1427
 8032SOL     OW35554   3.201   1.532   4.426  0.9029  0.3460  0.2380
 8032SOL    HW135555   3.283   1.486   4.443  1.6960  1.2201 -1.2076
 8032SOL    HW235556   3.141   1.473   4.473  1.0002  0.9657  1.1506
 8033SOL     OW35557   4.524   1.180  10.813  0.4439 -0.2098 -0.5307
 8033SOL    HW135558   4.606   1.214  10.847  1.2300 -1.5343 -1.0615
 8033SOL    HW235559   4.486   1.139  10.891  0.7693 -0.3090 -0.4235
 8034SOL     OW35560   2.088   1.356   1.040 -0.4192 -0.4214  0.3694
 8034SOL    HW135561   2.065   1.293   0.971  1.0457 -1.7865  1.1296
 8034SOL    HW235562   2.183   1.344   1.040 -0.5008 -1.1114 -1.0798
 8035SOL     OW35563   1.169   4.023   4.351 -0.4561 -0.1062  0.4666
 8035SOL    HW135564   1.151   4.076   4.273  1.0680 -0.8000 -0.3502
 8035SOL    HW235565   1.081   4.010   4.387 -0.3654  3.0631  1.8600
 8036SOL     OW35566   2.437   0.742   5.248  0.1898 -0.2654  0.1885
 8036SOL    HW135567   2.480   0.664   5.214  0.8570  0.6439 -1.0465
 8036SOL    HW235568   2.498   0.776   5.315  1.2533 -0.9239 -0.4473
 8037SOL     OW35569   4.158   1.300  10.563 -0.3234 -0.0173 -0.2257
 8037SOL    HW135570   4.251   1.281  10.558  0.2492  2.7731 -0.3599
 8037SOL    HW235571   4.142   1.344  10.647  0.2201  1.5327 -0.9207
 8038SOL     OW35572   0.154   3.635   3.844 -0.5446  0.2690  0.0269
 8038SOL    HW135573   0.179   3.640   3.936  1.0338 -1.4459 -0.2910
 8038SOL    HW235574   0.243   3.630   3.808 -0.5491  3.5391 -0.4834
 8039SOL     OW35575   0.956   3.516  16.759 -0.1689  0.0833 -0.1751
 8039SOL    HW135576   0.945   3.423  16.738 -0.8033  0.3726 -1.1098
 8039SOL    HW235577   1.051   3.514  16.771  0.0630  1.1763 -1.8637
 8040SOL     OW35578   0.363   3.466   2.964 -0.1018 -0.3271  0.5518
 8040SOL    HW135579   0.429   3.535   2.965  0.1669 -0.5811  0.3926
 8040SOL    HW235580   0.322   3.485   2.880 -0.7138  0.8589  1.1208
 8041SOL     OW35581   4.541   1.384   6.303  0.0640 -0.6058  0.4539
 8041SOL    HW135582   4.631   1.353   6.312  1.2348  3.2151  2.1368
 8041SOL    HW235583   4.513   1.374   6.394  0.0247 -0.6712  0.4346
 8042SOL     OW35584   0.290   0.883   7.310 -0.0296  0.2933 -0.2392
 8042SOL    HW135585   0.207   0.920   7.279  1.0411  2.2035 -0.8096
 8042SOL    HW235586   0.313   0.944   7.380  0.8235  0.3931 -0.6054
 8043SOL     OW35587   4.207   1.092  12.835 -0.1725  0.8659 -0.1695
 8043SOL    HW135588   4.226   1.053  12.749 -2.3153 -1.4982  0.4293
 8043SOL    HW235589   4.280   1.063  12.890 -0.3552  2.9401  1.1431
 8044SOL     OW35590   3.348   0.876   2.857 -0.4578 -0.2251 -0.0290
 8044SOL    HW135591   3.279   0.835   2.804  0.7957  0.5958 -2.2679
 8044SOL    HW235592   3.313   0.965   2.857  3.2699  1.2027 -5.2302
 8045SOL     OW35593   3.804   2.502   2.324 -0.0475 -0.1193  0.2125
 8045SOL    HW135594   3.774   2.480   2.236 -2.5701  0.1406  1.0183
 8045SOL    HW235595   3.810   2.598   2.321  0.9293 -0.2429 -2.1417
 8046SOL     OW35596   2.756   1.227  15.903 -0.4019 -0.1084  0.3199
 8046SOL    HW135597   2.800   1.161  15.850 -1.8219  0.1895 -1.2645
 8046SOL    HW235598   2.832   1.268  15.943  0.1222 -0.2809 -0.5120
 8047SOL     OW35599   0.848   4.342  10.036  0.1180  0.2867 -0.0306
 8047SOL    HW135600   0.753   4.354  10.040 -0.0042 -1.0794  1.5552
 8047SOL    HW235601   0.880   4.418   9.988 -1.3603  0.7072 -0.3514
 8048SOL     OW35602   4.135   2.473   5.285  0.0080 -0.3119 -0.0468
 8048SOL    HW135603   4.167   2.488   5.374  3.3055 -0.2214 -1.2548
 8048SOL    HW235604   4.172   2.388   5.262 -0.1507 -0.5793  0.6678
 8049SOL     OW35605   2.563   3.025  11.371  0.2783 -0.0364  0.0972
 8049SOL    HW135606   2.484   3.012  11.321 -1.7540 -2.1106  3.8445
 8049SOL    HW235607   2.564   3.118  11.395 -1.1008 -0.1071  0.4352
 8050SOL     OW35608   3.883   0.908   5.578  0.0993  0.1171 -0.1497
 8050SOL    HW135609   3.884   0.813   5.577  1.5922  0.0933  2.5199
 8050SOL    HW235610   3.810   0.918   5.517 -0.2329  1.6634  0.5020
 8051SOL     OW35611   4.337   4.130  16.647 -0.5517 -1.2309  0.2338
 8051SOL    HW135612   4.295   4.207  16.686 -0.2830 -0.4832 -0.9735
 8051SOL    HW235613   4.349   4.157  16.556 -2.2815  1.1957  0.7458
 8052SOL     OW35614   3.655   1.997   6.204  0.0076 -0.2037  0.4374
 8052SOL    HW135615   3.592   2.010   6.276  1.2624  1.2770  1.2761
 8052SOL    HW235616   3.709   1.929   6.244  1.3237 -0.0638 -1.1130
 8053SOL     OW35617   1.244   1.869   1.651 -0.3498 -0.0874  0.3956
 8053SOL    HW135618   1.243   1.914   1.736 -0.2615  1.2068 -0.3004
 8053SOL    HW235619   1.152   1.876   1.628 -0.1218  1.1559 -0.1531
 8054SOL     OW35620   4.449   1.771   2.517  0.1127 -0.6969 -0.4776
 8054SOL    HW135621   4.454   1.811   2.604  0.5113 -0.6726 -0.5090
 8054SOL    HW235622   4.429   1.848   2.464 -1.5140 -1.3598 -0.8195
 8055SOL     OW35623   0.721   1.879   5.249  0.2941 -0.6946  0.4045
 8055SOL    HW135624   0.638   1.832   5.236  1.3093 -2.2179 -0.4567
 8055SOL    HW235625   0.766   1.857   5.168  0.3180  2.6031 -0.4841
 8056SOL     OW35626   3.080   3.413  16.815  0.2060 -0.2100 -0.3206
 8056SOL    HW135627   3.049   3.444  16.900 -1.1746  0.9278 -1.2390
 8056SOL    HW235628   3.025   3.337  16.798 -0.1767  0.2436 -1.1131
 8057SOL     OW35629   1.901   3.851   3.826 -0.0651 -0.0078  0.2571
 8057SOL    HW135630   1.974   3.788   3.819  0.3389  0.5273 -0.3009
 8057SOL    HW235631   1.928   3.918   3.763 -1.0086 -1.1248 -1.3277
 8058SOL     OW35632   0.167   4.261   8.570  0.5759 -0.7720 -0.1951
 8058SOL    HW135633   0.214   4.336   8.533 -0.5549 -0.0412 -0.1237
 8058SOL    HW235634   0.174   4.278   8.663 -0.9772 -0.2913 -0.1671
 8059SOL     OW35635   0.414   4.398   7.432  0.6329 -0.2313 -0.3603
 8059SOL    HW135636   0.361   4.473   7.406  1.4618  0.1507 -0.9305
 8059SOL    HW235637   0.395   4.392   7.526 -3.5199  2.8223 -1.0141
 8060SOL     OW35638   2.060   2.234   5.305 -0.2270  0.5406  0.2430
 8060SOL    HW135639   2.141   2.243   5.355 -0.1499 -0.2720  0.2645
 8060SOL    HW235640   2.011   2.312   5.331 -0.6116  0.3686  0.0487
 8061SOL     OW35641   3.023   2.826  16.898  0.2165  0.3387  0.4840
 8061SOL    HW135642   3.080   2.758  16.861  0.6929  0.0431  1.7658
 8061SOL    HW235643   3.082   2.888  16.942 -0.4339 -0.2258  2.1259
 8062SOL     OW35644   1.089   1.680   4.710  0.0036 -0.2227  0.5983
 8062SOL    HW135645   1.045   1.672   4.795  0.2505 -1.1793  0.6430
 8062SOL    HW235646   1.146   1.603   4.711  0.7321  0.3248  1.5488
 8063SOL     OW35647   2.132   3.485   7.740 -0.3447  0.2484 -0.2036
 8063SOL    HW135648   2.163   3.559   7.792 -0.8250  0.1223  0.2636
 8063SOL    HW235649   2.061   3.451   7.795  1.2277 -2.1011  0.3899
 8064SOL     OW35650   2.599   4.549  10.990 -0.7836 -0.3705  0.0610
 8064SOL    HW135651   2.563   4.466  10.959  0.6233  0.0361 -2.6557
 8064SOL    HW235652   2.629   4.583  10.906  0.9857  0.5175  1.0544
 8065SOL     OW35653   4.326   3.576   7.735  0.1425 -0.2937  0.1095
 8065SOL    HW135654   4.380   3.655   7.739 -0.6310  0.1089  2.3650
 8065SOL    HW235655   4.238   3.596   7.765  0.4359  2.6223 -1.0247
 8066SOL     OW35656   2.430   1.250   2.211  0.2091  0.2689  0.0679
 8066SOL    HW135657   2.345   1.281   2.240  0.6638 -1.5655  3.4033
 8066SOL    HW235658   2.488   1.310   2.258  0.9245  0.2351 -0.7710
 8067SOL     OW35659   2.715   3.534   0.599  0.1637 -0.2689 -0.1376
 8067SOL    HW135660   2.794   3.482   0.616 -1.8258 -3.4865 -0.6264
 8067SOL    HW235661   2.652   3.520   0.669 -0.8991 -2.4838 -1.5102
 8068SOL     OW35662   4.057   3.860   8.071 -0.1498 -0.3266 -0.0717
 8068SOL    HW135663   3.985   3.808   8.107 -0.9794  1.5171  0.9645
 8068SOL    HW235664   4.129   3.797   8.069  0.8973  0.8906 -0.8823
 8069SOL     OW35665   0.879   1.397  13.443 -0.2166  0.2159 -0.3780
 8069SOL    HW135666   0.791   1.363  13.423 -0.9998  1.2925  1.2523
 8069SOL    HW235667   0.891   1.469  13.381  0.8203  0.9563  0.7001
 8070SOL     OW35668   3.502   4.292  12.882  0.0493 -0.4695 -0.1026
 8070SOL    HW135669   3.434   4.341  12.836  0.9012 -0.2107 -1.0805
 8070SOL    HW235670   3.446   4.218  12.905 -0.1173 -0.7293 -1.3259
 8071SOL     OW35671   0.576   1.336   6.554 -0.4621  0.4716  0.0263
 8071SOL    HW135672   0.602   1.350   6.463 -3.5077 -0.1017 -0.9255
 8071SOL    HW235673   0.617   1.408   6.603 -0.9305  0.7119  0.0641
 8072SOL     OW35674   4.664   3.837  16.367  0.2147  0.2634 -0.1983
 8072SOL    HW135675   4.639   3.863  16.456  0.5653 -2.0101  0.5547
 8072SOL    HW235676   4.603   3.881  16.307 -2.0906 -0.5905  1.5125
 8073SOL     OW35677   2.576   3.454   3.570  0.5786  0.1898 -0.0740
 8073SOL    HW135678   2.615   3.540   3.552  0.5630 -0.0821 -1.3765
 8073SOL    HW235679   2.570   3.461   3.666  0.9334  2.0083 -0.1753
 8074SOL     OW35680   3.474   4.378   9.090 -0.1210 -0.0195  0.1506
 8074SOL    HW135681   3.396   4.377   9.145 -0.2816 -1.0357 -0.0998
 8074SOL    HW235682   3.540   4.384   9.159 -0.2183  0.2678  0.2189
 8075SOL     OW35683   0.546   1.731   7.266  0.2368 -1.0997  0.2333
 8075SOL    HW135684   0.501   1.732   7.350  0.7957  0.1029  0.5138
 8075SOL    HW235685   0.582   1.819   7.268  0.0883 -1.0117 -0.5968
 8076SOL     OW35686   2.702   3.135   5.598  0.4346  0.3663  0.4686
 8076SOL    HW135687   2.610   3.141   5.624  0.1142 -2.1731 -0.0954
 8076SOL    HW235688   2.692   3.093   5.512 -0.5846  1.6840 -0.0576
 8077SOL     OW35689   3.469   4.564   4.695 -0.8428  0.3175  0.1771
 8077SOL    HW135690   3.499   4.507   4.625 -0.7021 -0.8438  1.1693
 8077SOL    HW235691   3.545   4.622   4.695 -0.3932 -0.3098 -2.0153
 8078SOL     OW35692   4.361   4.663   6.653  0.3391  0.3445 -0.2893
 8078SOL    HW135693   4.335   0.034   6.656  1.8321  0.7341  0.4497
 8078SOL    HW235694   4.360   4.638   6.746 -0.4142  2.7984  0.3612
 8079SOL     OW35695   1.723   1.779   5.298  0.2199  0.5088  0.4445
 8079SOL    HW135696   1.643   1.831   5.292  0.2372  0.4608 -0.1971
 8079SOL    HW235697   1.785   1.837   5.254  1.0769 -0.1878  0.7388
 8080SOL     OW35698   0.221   4.446   4.012 -0.3965  0.0610 -0.1077
 8080SOL    HW135699   0.199   4.412   4.099  2.2739 -0.3121  0.4040
 8080SOL    HW235700   0.214   4.363   3.964 -0.2845 -0.0605  0.0882
 8081SOL     OW35701   3.968   4.473   4.980 -0.0678 -0.1502  0.8063
 8081SOL    HW135702   4.006   4.445   5.064  4.9093  3.0317 -0.3870
 8081SOL    HW235703   3.902   4.535   5.011 -0.9497 -0.1704 -1.0205
 8082SOL     OW35704   0.695   1.915  10.662  0.5867  0.5214  0.3866
 8082SOL    HW135705   0.632   1.943  10.728 -0.5734  0.3801 -0.6708
 8082SOL    HW235706   0.756   1.866  10.718  0.3514 -2.7000 -2.2006
 8083SOL     OW35707   0.955   0.223   3.986  0.1903 -0.0641 -0.0028
 8083SOL    HW135708   1.028   0.228   4.047  1.2696  0.0923 -1.3106
 8083SOL    HW235709   0.943   0.130   3.970 -0.6905  0.4309 -2.2345
 8084SOL     OW35710   0.487   0.134   7.096 -0.7029  0.7786  0.0391
 8084SOL    HW135711   0.563   0.089   7.135  0.2175  0.7449 -1.7972
 8084SOL    HW235712   0.409   0.122   7.150 -0.2832 -3.0505 -0.1997
 8085SOL     OW35713   4.460   4.102   8.584 -0.1275 -0.1423 -0.2242
 8085SOL    HW135714   4.512   4.022   8.583 -0.2494 -0.2397  2.0955
 8085SOL    HW235715   4.376   4.061   8.561 -1.6160  1.7272  1.8478
 8086SOL     OW35716   4.520   2.344   9.256  0.6107 -0.1908  0.2284
 8086SOL    HW135717   4.612   2.369   9.269  0.5229  0.7467 -0.9382
 8086SOL    HW235718   4.491   2.295   9.333 -0.1953  0.8372  0.5684
 8087SOL     OW35719   0.363   4.125  11.062 -0.0649 -0.0512  0.1795
 8087SOL    HW135720   0.288   4.071  11.036 -1.2014  1.2410  0.7772
 8087SOL    HW235721   0.331   4.171  11.139  1.9538 -0.0195  0.9946
 8088SOL     OW35722   2.132   1.440   5.858 -0.2482 -0.3976  0.0918
 8088SOL    HW135723   2.082   1.426   5.777 -0.6588 -0.5325  0.3691
 8088SOL    HW235724   2.199   1.372   5.846  1.2995  1.1051  0.1888
 8089SOL     OW35725   2.877   3.524   3.829  0.2841 -0.0235  0.3530
 8089SOL    HW135726   2.865   3.461   3.758 -0.7126  1.1476 -0.5231
 8089SOL    HW235727   2.861   3.461   3.899 -1.6892  1.3011  1.1020
 8090SOL     OW35728   4.608   2.750   3.267 -0.0638 -0.0761  0.4526
 8090SOL    HW135729   4.543   2.779   3.332 -0.6376 -0.1903 -0.0735
 8090SOL    HW235730   4.556   2.761   3.187 -2.9744 -1.2479  2.1810
 8091SOL     OW35731   3.240   2.781   5.647 -0.0286  0.6643 -0.4585
 8091SOL    HW135732   3.282   2.836   5.581  0.0714  0.2025 -0.7779
 8091SOL    HW235733   3.310   2.727   5.683  2.0292  2.3978 -1.8855
 8092SOL     OW35734   0.199   4.217   2.022  0.9903  0.2771  0.4391
 8092SOL    HW135735   0.218   4.126   2.044  1.1811  0.4635  1.0299
 8092SOL    HW235736   0.108   4.200   1.996  1.6086  0.5731 -1.9229
 8093SOL     OW35737   0.346   0.380  16.550  0.1374  0.4550  0.2581
 8093SOL    HW135738   0.428   0.380  16.599  1.0329 -0.9626 -1.2628
 8093SOL    HW235739   0.281   0.325  16.594  1.2020 -1.5574 -0.6675
 8094SOL     OW35740   2.312   4.197   2.228 -0.3697  0.4267 -0.0627
 8094SOL    HW135741   2.379   4.138   2.262 -2.6265 -1.4355  1.1416
 8094SOL    HW235742   2.335   4.282   2.265  0.1224  0.0660  0.4578
 8095SOL     OW35743   3.328   3.927   2.703 -0.1146  0.5407  0.3039
 8095SOL    HW135744   3.410   3.977   2.707  0.8975 -1.0779 -0.1881
 8095SOL    HW235745   3.349   3.852   2.760 -0.7469  1.1338  1.3193
 8096SOL     OW35746   4.367   2.144   3.074 -0.1869  0.0336  0.2941
 8096SOL    HW135747   4.358   2.155   3.169  0.1499 -1.2128  0.4633
 8096SOL    HW235748   4.442   2.202   3.058 -0.1589  0.2996  1.3376
 8097SOL     OW35749   1.864   0.733  14.498  0.1051  0.1182 -0.2767
 8097SOL    HW135750   1.932   0.675  14.465 -0.2501 -1.4914  1.7355
 8097SOL    HW235751   1.863   0.807  14.438  0.5109  0.1887 -0.1944
 8098SOL     OW35752   1.902   4.660   2.096  0.0418 -0.0861  0.0464
 8098SOL    HW135753   1.865   4.584   2.051 -0.8060 -0.1425  0.8562
 8098SOL    HW235754   1.995   4.634   2.094  0.0684  0.0062  0.0816
 8099SOL     OW35755   0.684   0.838   8.510  0.5703  0.7874  0.2440
 8099SOL    HW135756   0.679   0.784   8.589  3.1070  0.8992  0.4796
 8099SOL    HW235757   0.592   0.837   8.483 -0.1292  1.0924  2.5185
 8100SOL     OW35758   3.616   3.556   7.017  0.1666 -0.0134 -0.3877
 8100SOL    HW135759   3.631   3.498   6.942  2.4310  0.6148 -0.4382
 8100SOL    HW235760   3.522   3.560   7.003  0.2353 -1.0253 -1.0999
 8101SOL     OW35761   3.562   2.690  10.616  0.4776 -0.3615  0.4843
 8101SOL    HW135762   3.487   2.684  10.676  0.9465 -0.3114  1.0793
 8101SOL    HW235763   3.581   2.784  10.625 -2.0891  0.2354 -0.3386
 8102SOL     OW35764   0.023   0.497   5.211  0.0988  0.0080  0.3680
 8102SOL    HW135765   4.714   0.407   5.218 -0.1207  0.0918  0.4989
 8102SOL    HW235766   0.109   0.494   5.168  0.3530 -0.7351  0.9425
 8103SOL     OW35767   3.559   0.462   4.954 -0.2098  0.0725 -0.2872
 8103SOL    HW135768   3.472   0.441   4.989  0.0266 -1.6645 -0.7228
 8103SOL    HW235769   3.542   0.518   4.879  1.6890  2.3157  0.9423
 8104SOL     OW35770   3.838   1.060   4.256  0.3684  0.0914  0.2213
 8104SOL    HW135771   3.766   1.007   4.223  0.4279  1.5839 -2.3334
 8104SOL    HW235772   3.919   1.010   4.243 -0.2061 -1.0077  0.9230
 8105SOL     OW35773   4.639   0.683  11.993  0.1347 -0.7320  0.1458
 8105SOL    HW135774   4.649   0.610  11.932  0.9301  1.0668 -1.8835
 8105SOL    HW235775   4.609   0.635  12.071 -0.3146 -0.6479  0.0225
 8106SOL     OW35776   1.469   2.577   3.219 -0.4000  0.0310 -0.3489
 8106SOL    HW135777   1.548   2.571   3.273 -0.9530  1.2846  0.6020
 8106SOL    HW235778   1.507   2.597   3.133 -1.1870  2.2646 -0.1581
 8107SOL     OW35779   1.513   4.249  15.672 -0.0389 -0.0020 -0.2009
 8107SOL    HW135780   1.546   4.337  15.653  2.5446 -0.7292  0.8620
 8107SOL    HW235781   1.554   4.203  15.598 -1.0940 -1.7979  0.3392
 8108SOL     OW35782   0.016   3.145   1.791 -0.0553 -0.1298  0.0689
 8108SOL    HW135783   4.699   3.223   1.751 -2.2156 -0.6272  1.1417
 8108SOL    HW235784   0.104   3.176   1.813  0.5451 -0.8583 -1.2862
 8109SOL     OW35785   3.315   1.235   6.648 -0.0563  0.7014 -0.1177
 8109SOL    HW135786   3.281   1.291   6.718  1.5573 -1.2443  2.2270
 8109SOL    HW235787   3.388   1.289   6.617 -0.9781  2.2110  0.3260
 8110SOL     OW35788   1.735   2.683   5.869 -0.2733  0.0468  0.0160
 8110SOL    HW135789   1.680   2.738   5.813  1.6534  3.1695  1.2488
 8110SOL    HW235790   1.802   2.650   5.809 -0.8702 -0.0075 -0.6171
 8111SOL     OW35791   0.841   2.070   8.639  0.9001 -0.0093 -0.1182
 8111SOL    HW135792   0.812   1.989   8.681  1.1673  0.6371  1.2994
 8111SOL    HW235793   0.759   2.120   8.637  1.2301  0.5535  0.9110
 8112SOL     OW35794   1.292   3.112  12.542  0.2774  0.1010 -0.2836
 8112SOL    HW135795   1.318   3.195  12.582  0.1670  0.9040 -1.8812
 8112SOL    HW235796   1.296   3.055  12.618  0.2174  0.1888 -0.2154
 8113SOL     OW35797   3.022   3.401   8.658 -0.1337 -0.0784  0.3400
 8113SOL    HW135798   3.077   3.478   8.672 -0.6507  0.0288  1.8113
 8113SOL    HW235799   3.080   3.341   8.611 -1.3223  0.2374 -1.4961
 8114SOL     OW35800   4.141   1.369   3.457  0.1019 -0.1811  0.4076
 8114SOL    HW135801   4.194   1.444   3.431  1.2124 -1.2756 -0.4696
 8114SOL    HW235802   4.194   1.295   3.428  2.1600  0.8842  1.4097
 8115SOL     OW35803   0.925   4.473   0.756 -0.9259 -0.3051 -0.9955
 8115SOL    HW135804   0.944   4.539   0.690  0.7458  0.6722  0.4609
 8115SOL    HW235805   0.841   4.433   0.733 -0.7389 -0.1904 -1.8812
 8116SOL     OW35806   2.791   3.115  10.430  0.4657 -0.0171  0.2047
 8116SOL    HW135807   2.805   3.099  10.337 -0.5907 -1.9386  0.3686
 8116SOL    HW235808   2.800   3.032  10.476 -1.8089 -1.3941 -1.8823
 8117SOL     OW35809   1.131   2.749  15.250  0.4685  0.2334 -0.4281
 8117SOL    HW135810   1.078   2.789  15.319  1.2739  2.9523 -1.3768
 8117SOL    HW235811   1.210   2.794  15.281  1.8594 -2.0006 -0.8110
 8118SOL     OW35812   2.410   1.529  13.700  0.2536 -0.0441 -0.0931
 8118SOL    HW135813   2.492   1.485  13.676  0.4905  0.0005  0.6433
 8118SOL    HW235814   2.443   1.584  13.771  4.5748 -0.1330 -1.9849
 8119SOL     OW35815   3.723   4.218  11.986 -0.0322  0.2526  0.6254
 8119SOL    HW135816   3.676   4.240  12.066 -0.5164  0.2855  0.3344
 8119SOL    HW235817   3.808   4.199  12.027  0.2641  0.2389  0.0117
 8120SOL     OW35818   3.084   3.007  15.653 -0.0970 -0.3276 -0.3543
 8120SOL    HW135819   2.996   2.970  15.654  0.6802 -2.1266  2.6435
 8120SOL    HW235820   3.091   3.046  15.566 -0.6966 -1.9823 -1.1501
 8121SOL     OW35821   3.184   1.630   2.199 -0.2731  0.6191 -0.2479
 8121SOL    HW135822   3.206   1.643   2.107 -0.6002 -3.3494 -0.8985
 8121SOL    HW235823   3.234   1.550   2.212 -0.3203  0.4403 -1.1385
 8122SOL     OW35824   1.608   3.155   5.955  0.0112 -0.5135 -0.0832
 8122SOL    HW135825   1.516   3.167   5.977  0.2917  0.8803  0.3238
 8122SOL    HW235826   1.635   3.193   6.038 -1.2591  1.8604 -0.7680
 8123SOL     OW35827   4.274   4.495   1.821  0.8366  0.2410  0.4589
 8123SOL    HW135828   4.216   4.425   1.791  1.8505  0.1055 -1.1514
 8123SOL    HW235829   4.212   4.565   1.844  0.2648 -0.4875  1.1139
 8124SOL     OW35830   3.473   4.075   2.894  0.0939  0.4599 -0.0947
 8124SOL    HW135831   3.441   4.164   2.910 -1.4607 -0.5446  2.4413
 8124SOL    HW235832   3.535   4.097   2.825 -0.8329  1.3082 -0.6523
 8125SOL     OW35833   1.416   0.292   9.600  0.6354 -0.6461  0.3006
 8125SOL    HW135834   1.468   0.322   9.526  1.2227  1.0562  1.4004
 8125SOL    HW235835   1.358   0.363   9.627  2.3884  0.8052  0.2796
 8126SOL     OW35836   1.154   1.859   8.498  0.2098 -0.0563  0.3438
 8126SOL    HW135837   1.061   1.844   8.487  0.4741 -1.4987  0.0902
 8126SOL    HW235838   1.182   1.787   8.555  2.5808 -0.3007 -1.1304
 8127SOL     OW35839   1.099   3.198   9.909  0.5922  0.5101  0.7170
 8127SOL    HW135840   1.141   3.223   9.990  1.8042  3.1934 -0.7301
 8127SOL    HW235841   1.135   3.111   9.897 -0.3546  0.2597 -0.3805
 8128SOL     OW35842   2.491   0.363  15.950 -0.1580  0.1148 -0.2693
 8128SOL    HW135843   2.412   0.364  15.895 -0.8827 -0.0681  0.7800
 8128SOL    HW235844   2.558   0.393  15.888 -0.2531  1.3070  0.2029
 8129SOL     OW35845   0.902   0.852   7.763 -0.0866 -0.2438 -0.5834
 8129SOL    HW135846   0.865   0.927   7.809  2.9431  1.4891 -0.9886
 8129SOL    HW235847   0.879   0.869   7.671  2.3646 -0.9366 -1.3226
 8130SOL     OW35848   1.668   1.725   2.536  0.4787 -0.5285 -0.3858
 8130SOL    HW135849   1.744   1.771   2.573 -0.3164  0.4411  0.0462
 8130SOL    HW235850   1.603   1.795   2.539 -0.5706 -1.4689 -1.6197
 8131SOL     OW35851   2.119   2.707   3.948 -0.3257  0.0800  0.1517
 8131SOL    HW135852   2.212   2.719   3.928 -0.7944  0.4173 -1.8437
 8131SOL    HW235853   2.110   2.612   3.945 -0.5545  0.1828 -2.7160
 8132SOL     OW35854   3.219   3.807   6.116  0.0863  0.1277 -0.2696
 8132SOL    HW135855   3.235   3.832   6.024  1.6060 -0.0688 -0.0572
 8132SOL    HW235856   3.186   3.887   6.156 -1.7840 -0.8415  0.1186
 8133SOL     OW35857   2.290   0.662   0.041  0.1716  0.4205  0.3175
 8133SOL    HW135858   2.324   0.694  17.643 -2.7129 -1.1288 -1.4483
 8133SOL    HW235859   2.366   0.605   0.048 -0.8588 -0.8965  0.9421
 8134SOL     OW35860   3.158   1.597  17.116  0.0735 -0.4042  0.3693
 8134SOL    HW135861   3.075   1.549  17.121 -1.1088  1.5298 -0.4565
 8134SOL    HW235862   3.209   1.539  17.060  1.2367  0.7105  0.2891
 8135SOL     OW35863   2.755   1.899  15.046  0.4558  0.1279  0.4564
 8135SOL    HW135864   2.699   1.869  15.116 -1.2110 -0.6477 -1.2220
 8135SOL    HW235865   2.752   1.829  14.981 -1.0363 -0.5995  1.3418
 8136SOL     OW35866   0.040   3.692   7.791  0.0431  0.4894 -0.0713
 8136SOL    HW135867   4.709   3.750   7.735 -2.3203 -0.7126  0.8566
 8136SOL    HW235868   0.056   3.621   7.730 -4.3356  0.4685 -1.2042
 8137SOL     OW35869   2.544   1.724   5.620  0.3836 -0.0688  0.4824
 8137SOL    HW135870   2.576   1.718   5.710  1.1433  1.9235  0.3427
 8137SOL    HW235871   2.632   1.719   5.582 -1.0147  1.0554 -2.9434
 8138SOL     OW35872   0.782   3.809  10.705 -0.3060 -0.5539 -0.0462
 8138SOL    HW135873   0.720   3.753  10.658 -0.5917  0.3338 -0.7175
 8138SOL    HW235874   0.768   3.776  10.793  1.9508 -0.4959  0.3362
 8139SOL     OW35875   1.671   2.291   8.757  0.3616 -0.2747 -0.7618
 8139SOL    HW135876   1.623   2.210   8.774 -0.9342  0.4561 -0.9269
 8139SOL    HW235877   1.603   2.316   8.694 -0.1039  0.9481  0.2254
 8140SOL     OW35878   0.412   2.394   0.197  0.0052  0.4149 -0.0466
 8140SOL    HW135879   0.338   2.352   0.155  1.5904 -2.2539 -0.1929
 8140SOL    HW235880   0.366   2.438   0.268 -0.0494  0.6695 -0.2399
 8141SOL     OW35881   1.404   1.688   7.178 -0.1135  0.5257 -0.6718
 8141SOL    HW135882   1.498   1.697   7.166 -0.3313  3.1130 -0.4579
 8141SOL    HW235883   1.374   1.642   7.099 -1.1464  0.3888 -0.2031
 8142SOL     OW35884   2.600   0.827   2.691  0.5712  0.3551  0.3408
 8142SOL    HW135885   2.512   0.788   2.695  0.8385 -0.4210 -1.0885
 8142SOL    HW235886   2.649   0.752   2.656  1.4216  1.1483 -0.1503
 8143SOL     OW35887   1.636   4.061   6.253 -0.0844  0.5712 -0.4312
 8143SOL    HW135888   1.627   4.077   6.160  0.7804  1.9058 -0.2938
 8143SOL    HW235889   1.729   4.078   6.267 -0.3397 -1.7538  4.2608
 8144SOL     OW35890   4.000   2.253   4.397  0.4047  0.3442  0.1209
 8144SOL    HW135891   4.067   2.231   4.462 -0.0322 -0.7884  0.1876
 8144SOL    HW235892   3.970   2.334   4.437 -0.1950  0.3284 -0.2927
 8145SOL     OW35893   0.693   3.664   6.217 -0.4074  0.0305 -0.2279
 8145SOL    HW135894   0.612   3.678   6.167 -0.4131 -1.2045 -0.5621
 8145SOL    HW235895   0.672   3.731   6.281  2.1013  1.7022 -1.1545
 8146SOL     OW35896   0.502   3.553   5.796 -0.3671  0.5466 -0.1513
 8146SOL    HW135897   0.597   3.549   5.801 -0.5428 -3.0950  0.3912
 8146SOL    HW235898   0.481   3.464   5.768 -4.7983  0.4307  3.3769
 8147SOL     OW35899   2.056   0.426  11.473  0.1224 -0.0288 -0.5383
 8147SOL    HW135900   1.999   0.360  11.433 -0.4547 -0.1996  0.5670
 8147SOL    HW235901   2.087   0.387  11.554 -0.4102  2.0635  0.6645
 8148SOL     OW35902   2.398   2.222  16.703 -0.0872  0.9771  0.1819
 8148SOL    HW135903   2.350   2.273  16.638  0.0761 -2.1413 -2.3983
 8148SOL    HW235904   2.339   2.234  16.777  1.0705  2.8870  0.7902
 8149SOL     OW35905   1.822   2.378  10.205  0.0928  0.0864  0.7205
 8149SOL    HW135906   1.917   2.384  10.201  0.1625 -1.5248  0.0361
 8149SOL    HW235907   1.788   2.455  10.160 -1.3909 -0.1810  1.3743
 8150SOL     OW35908   1.148   1.639   3.098  0.2755  0.3335  0.0771
 8150SOL    HW135909   1.215   1.591   3.049  0.0201  1.9169 -1.7877
 8150SOL    HW235910   1.067   1.610   3.055  0.2400 -0.4808  0.6854
 8151SOL     OW35911   4.026   2.314  14.525 -0.0379 -0.2229  0.8692
 8151SOL    HW135912   4.044   2.353  14.439 -0.7837  0.2266  0.9104
 8151SOL    HW235913   3.936   2.281  14.514 -0.7182  1.4696  1.4173
 8152SOL     OW35914   3.937   2.788   3.402  0.2569 -0.0605 -0.4338
 8152SOL    HW135915   4.012   2.728   3.405  1.5109  1.5233  0.2868
 8152SOL    HW235916   3.983   2.872   3.408  1.9917 -0.9877 -0.6382
 8153SOL     OW35917   0.426   1.064   7.491  0.6305  0.4003  0.4195
 8153SOL    HW135918   0.472   1.002   7.548  0.7907  1.7653  1.7865
 8153SOL    HW235919   0.444   1.148   7.535 -1.5593  0.5968  0.9412
 8154SOL     OW35920   1.715   2.257   5.133 -0.5516  0.3522 -0.3787
 8154SOL    HW135921   1.679   2.170   5.112 -0.5136  0.3576 -0.4677
 8154SOL    HW235922   1.744   2.280   5.044 -0.8626 -0.3320 -0.6581
 8155SOL     OW35923   3.775   3.761   7.114 -0.5979  0.0130  0.3641
 8155SOL    HW135924   3.711   3.694   7.089 -0.1282  0.5894 -2.4461
 8155SOL    HW235925   3.716   3.836   7.117 -0.6116  0.0844 -1.3888
 8156SOL     OW35926   4.024   0.513   5.100  0.4773  0.0349 -0.0185
 8156SOL    HW135927   4.094   0.536   5.040 -0.2159 -0.8395 -1.1683
 8156SOL    HW235928   3.953   0.505   5.036 -0.6599  1.8165  1.0132
 8157SOL     OW35929   2.637   1.270  15.576  0.1635  0.4607 -0.3351
 8157SOL    HW135930   2.618   1.316  15.658 -0.0165 -0.5469  0.1917
 8157SOL    HW235931   2.570   1.316  15.525 -0.1337 -0.8128 -1.0773
 8158SOL     OW35932   2.823   4.443   0.910  0.2761  0.1742 -0.0352
 8158SOL    HW135933   2.738   4.430   0.953  0.9400  2.0870  1.8821
 8158SOL    HW235934   2.885   4.449   0.983 -0.7319  4.2707  0.4696
 8159SOL     OW35935   3.142   1.203  12.948 -0.4053  0.2999  0.1826
 8159SOL    HW135936   3.095   1.131  12.907 -0.7724  0.0469  1.0402
 8159SOL    HW235937   3.123   1.183  13.040 -5.2648 -1.5017 -1.2018
 8160SOL     OW35938   2.635   4.617  14.247 -0.2342  0.3816 -0.3821
 8160SOL    HW135939   2.563   4.669  14.213 -1.5846 -0.5888  1.0107
 8160SOL    HW235940   2.707   4.670  14.214  1.9100 -1.6877  0.8944
 8161SOL     OW35941   3.419   1.303   5.609 -0.1418 -0.2166  0.8616
 8161SOL    HW135942   3.327   1.287   5.631 -0.8296 -0.0223 -1.8831
 8161SOL    HW235943   3.470   1.266   5.681 -1.2053 -0.1639  1.6426
 8162SOL     OW35944   3.123   1.020   2.960  0.0122  0.2498  0.4843
 8162SOL    HW135945   3.035   1.059   2.954 -0.4222 -0.6784  0.9254
 8162SOL    HW235946   3.177   1.083   2.912 -2.9401  2.5569  0.2009
 8163SOL     OW35947   0.818   0.949   4.501 -0.0969 -0.1153 -0.1043
 8163SOL    HW135948   0.901   0.909   4.529 -0.1350 -0.0055  0.1660
 8163SOL    HW235949   0.788   0.977   4.587  2.0763 -0.7008  0.8640
 8164SOL     OW35950   0.938   3.754   8.186 -0.3046 -0.2567 -0.3347
 8164SOL    HW135951   0.951   3.690   8.116 -1.3828  0.2289 -0.9857
 8164SOL    HW235952   0.976   3.704   8.258 -0.5986  0.4433  0.2972
 8165SOL     OW35953   4.471   2.504   0.011  0.1162 -0.0277 -0.6675
 8165SOL    HW135954   4.522   2.563   0.065  1.3267 -2.3943  0.7362
 8165SOL    HW235955   4.462   2.425   0.064  0.6959 -0.0083 -0.5464
 8166SOL     OW35956   2.653   2.911   7.383 -0.4916  0.1097 -0.2384
 8166SOL    HW135957   2.617   2.990   7.424  1.9744  0.9117  0.3897
 8166SOL    HW235958   2.733   2.913   7.435 -1.9000 -2.9495  2.0793
 8167SOL     OW35959   2.616   3.141   3.631  0.1825 -0.5827 -0.4245
 8167SOL    HW135960   2.583   3.061   3.589 -4.1234  0.4058  1.0635
 8167SOL    HW235961   2.542   3.202   3.632 -0.3415 -1.2836  2.4785
 8168SOL     OW35962   4.122   0.710   9.738 -0.2978 -0.6371 -0.0814
 8168SOL    HW135963   4.101   0.764   9.661 -0.9437  0.6497  1.0090
 8168SOL    HW235964   4.213   0.683   9.728 -0.1694  0.1288 -1.0054
 8169SOL     OW35965   2.013   3.322   6.765  0.0775 -0.0737 -0.0771
 8169SOL    HW135966   2.108   3.309   6.756 -0.2387 -1.5026 -1.3389
 8169SOL    HW235967   2.009   3.417   6.752 -1.6946 -0.3437 -1.4478
 8170SOL     OW35968   0.125   0.491  15.468 -0.1990  0.1444 -0.1993
 8170SOL    HW135969   0.140   0.469  15.560 -1.2605  1.5358  0.3090
 8170SOL    HW235970   0.063   0.421  15.446  1.2933 -0.3118 -2.9452
 8171SOL     OW35971   2.721   4.127   9.017 -0.3989  0.0713 -0.2552
 8171SOL    HW135972   2.784   4.059   8.992  0.1713  0.7950 -0.7809
 8171SOL    HW235973   2.691   4.092   9.101  0.4212  0.6717  0.2872
 8172SOL     OW35974   0.710   4.483   4.440  0.1620 -0.0606 -0.1544
 8172SOL    HW135975   0.712   4.556   4.378  2.8153  2.5966  3.0569
 8172SOL    HW235976   0.616   4.472   4.455  0.6704 -1.7077  1.8311
 8173SOL     OW35977   3.033   0.042   2.701 -0.0628  0.0063 -0.0849
 8173SOL    HW135978   2.970   0.045   2.629  0.5075 -1.6124 -0.6488
 8173SOL    HW235979   3.091   0.102   2.654  1.6502 -0.6278  1.2487
 8174SOL     OW35980   0.206   0.503   3.351 -0.2227  0.3385 -0.1073
 8174SOL    HW135981   0.241   0.478   3.437 -0.7206 -1.4263 -0.4142
 8174SOL    HW235982   0.283   0.552   3.322  0.0765 -0.3252 -0.4471
 8175SOL     OW35983   2.655   1.092   3.411 -0.0159 -0.2866  0.2970
 8175SOL    HW135984   2.611   1.011   3.436 -0.7221 -0.3681 -1.2078
 8175SOL    HW235985   2.623   1.162   3.468  0.6517  1.1655 -1.0771
 8176SOL     OW35986   0.105   4.415   3.591 -0.2071  0.5411  0.3486
 8176SOL    HW135987   0.049   4.446   3.520  1.7602 -0.1018 -1.5059
 8176SOL    HW235988   0.150   4.494   3.619  2.2758 -1.1899  1.2288
 8177SOL     OW35989   2.087   4.064   1.275  0.1862  0.0969  0.3860
 8177SOL    HW135990   2.108   4.059   1.369  2.1622 -2.4731 -0.1871
 8177SOL    HW235991   2.033   3.986   1.261  0.7101  0.0206 -1.1524
 8178SOL     OW35992   0.506   1.450   3.390  0.2242  0.0586  0.3357
 8178SOL    HW135993   0.431   1.509   3.389 -1.3498 -1.9322  1.7151
 8178SOL    HW235994   0.479   1.376   3.335 -0.5797  2.0784 -1.9941
 8179SOL     OW35995   4.248   0.731   3.977 -0.1320  0.6236  0.3431
 8179SOL    HW135996   4.180   0.791   3.945 -0.4181 -0.9637 -2.0334
 8179SOL    HW235997   4.219   0.647   3.941  0.6869  0.6091 -0.2770
 8180SOL     OW35998   3.824   0.837  11.254  0.0991  0.1932 -1.0526
 8180SOL    HW135999   3.806   0.773  11.323  1.1192  1.4561  0.3903
 8180SOL    HW236000   3.804   0.919  11.299 -0.6976 -1.8858  2.3861
 8181SOL     OW36001   4.124   4.479   2.799 -0.3331  0.0250  0.0831
 8181SOL    HW136002   4.049   4.512   2.849  1.4448  2.3690  1.1779
 8181SOL    HW236003   4.082   4.491   2.714  2.1629  1.8961 -0.8541
 8182SOL     OW36004   0.800   3.629   2.197 -0.4109  0.3780 -0.4544
 8182SOL    HW136005   0.809   3.566   2.125 -1.3472 -2.5955  2.0265
 8182SOL    HW236006   0.852   3.574   2.255 -0.9984  1.7993  1.4026
 8183SOL     OW36007   4.508   4.163   5.644  0.0132  0.2095 -0.5475
 8183SOL    HW136008   4.444   4.095   5.667  1.2301 -0.6821  0.2193
 8183SOL    HW236009   4.526   4.209   5.726 -0.9299  0.4976 -0.5014
 8184SOL     OW36010   3.430   2.492   4.803  0.3259 -0.5121  0.2011
 8184SOL    HW136011   3.378   2.428   4.755 -0.1399 -0.1585  0.2333
 8184SOL    HW236012   3.443   2.450   4.888 -0.1620  1.6392  1.3623
 8185SOL     OW36013   2.928   4.601   7.084  0.3263  0.4593  0.2091
 8185SOL    HW136014   2.902   4.525   7.136 -0.9686 -0.5119 -1.8622
 8185SOL    HW236015   2.852   4.635   7.037 -0.1924 -1.2473 -0.2003
 8186SOL     OW36016   0.713   0.689   8.787 -0.0842  0.2274  0.2661
 8186SOL    HW136017   0.694   0.747   8.861  0.5711  0.2354  0.4342
 8186SOL    HW236018   0.631   0.643   8.773  0.2832 -0.3721  0.0997
 8187SOL     OW36019   0.876   0.550   2.596  0.2120  0.3899 -0.5126
 8187SOL    HW136020   0.956   0.548   2.647  0.1282  1.0215 -0.3554
 8187SOL    HW236021   0.807   0.541   2.662  0.1438  1.7809 -0.3793
 8188SOL     OW36022   2.720   3.858   3.277 -0.2460  0.0604  0.0748
 8188SOL    HW136023   2.668   3.890   3.350  1.2890 -0.0198  1.2071
 8188SOL    HW236024   2.770   3.935   3.252  1.3248 -1.0408 -0.1749
 8189SOL     OW36025   0.081   1.077   0.940 -0.0665 -0.5842 -0.1186
 8189SOL    HW136026   0.049   1.157   0.898  0.0806  0.7590  2.3449
 8189SOL    HW236027   0.026   1.007   0.905 -1.3916  0.8167 -0.8491
 8190SOL     OW36028   3.954   3.812   1.382  0.1615  0.0285 -0.3071
 8190SOL    HW136029   3.869   3.824   1.424  0.9012  0.1897  1.1678
 8190SOL    HW236030   4.005   3.867   1.441 -0.0703 -1.0458  0.8972
 8191SOL     OW36031   3.181   0.762   8.501  0.0689  0.1883 -0.1931
 8191SOL    HW136032   3.134   0.813   8.567  1.4445  0.0562  0.8813
 8191SOL    HW236033   3.148   0.815   8.428 -2.0212  2.2763  2.2813
 8192SOL     OW36034   3.845   2.740   5.060  0.0657  0.2026  0.8469
 8192SOL    HW136035   3.897   2.661   5.045 -0.4480  0.0841 -0.2745
 8192SOL    HW236036   3.769   2.708   5.109 -1.1497  0.0209 -1.1894
 8193SOL     OW36037   4.101   0.787   6.151 -0.1225 -0.2777 -0.0297
 8193SOL    HW136038   4.167   0.727   6.117 -0.3621 -0.4775 -0.1377
 8193SOL    HW236039   4.110   0.861   6.091 -0.5223 -0.1490  0.0680
 8194SOL     OW36040   3.405   4.061   1.963 -0.5240  0.1019 -0.2644
 8194SOL    HW136041   3.423   4.058   1.868  0.9286 -1.2636  0.0456
 8194SOL    HW236042   3.341   3.990   1.967  0.5754 -0.8504  0.6227
 8195SOL     OW36043   4.626   1.729   4.198 -0.2073  0.6572 -0.1944
 8195SOL    HW136044   4.540   1.687   4.194 -0.4652  0.9988  1.8020
 8195SOL    HW236045   4.680   1.664   4.243  0.6532  2.3182  1.1866
 8196SOL     OW36046   4.290   2.421   4.211 -0.0942 -0.4033  0.0645
 8196SOL    HW136047   4.319   2.440   4.121 -1.5564 -0.5940 -0.4426
 8196SOL    HW236048   4.319   2.505   4.246  3.9407 -1.2102 -1.3761
 8197SOL     OW36049   0.826   0.309  16.318 -0.2508 -0.0545 -0.2403
 8197SOL    HW136050   0.743   0.321  16.365 -0.6927  0.7172 -1.2131
 8197SOL    HW236051   0.871   0.263  16.389  1.7617 -0.7896 -1.9970
 8198SOL     OW36052   0.015   4.387   6.486 -0.8150  0.1510  0.0979
 8198SOL    HW136053   0.005   4.432   6.402 -3.3499  1.2398  0.9835
 8198SOL    HW236054   4.672   4.439   6.534 -1.0469  0.5800 -0.6667
 8199SOL     OW36055   3.259   3.356   4.679 -0.0663  0.5201  0.9656
 8199SOL    HW136056   3.257   3.338   4.773 -0.9813 -3.9806  0.0896
 8199SOL    HW236057   3.186   3.298   4.659 -0.2399  0.9431  0.3741
 8200SOL     OW36058   0.145   2.688   3.891  0.1367  0.3650  0.7562
 8200SOL    HW136059   0.136   2.633   3.968 -0.5515 -1.4174 -0.5802
 8200SOL    HW236060   0.059   2.731   3.895 -0.3883 -0.7945  1.6602
 8201SOL     OW36061   0.030   2.939  11.592  0.0150  0.4519  0.0812
 8201SOL    HW136062   4.695   2.882  11.540 -1.7248  3.0909 -0.9411
 8201SOL    HW236063   0.087   2.959  11.518 -0.8753 -0.8386 -0.9419
 8202SOL     OW36064   2.871   0.274  12.109  0.2350  0.0951  0.0231
 8202SOL    HW136065   2.815   0.312  12.177  0.2831  1.0938 -0.4915
 8202SOL    HW236066   2.834   0.186  12.101 -2.1886  0.9300  1.8615
 8203SOL     OW36067   1.185   0.108  12.168  0.1785  0.5195  0.6137
 8203SOL    HW136068   1.159   0.145  12.252 -0.0605  1.9191 -0.0847
 8203SOL    HW236069   1.219   0.180  12.114  0.4483 -0.8046 -0.9955
 8204SOL     OW36070   1.229   4.198   3.894 -0.4574  0.2117  0.7731
 8204SOL    HW136071   1.217   4.135   3.966  0.5216 -0.3609  0.4348
 8204SOL    HW236072   1.205   4.281   3.935  0.9875  2.0722 -2.1967
 8205SOL     OW36073   4.159   1.102   4.720  0.7413 -0.1749 -0.6444
 8205SOL    HW136074   4.182   1.191   4.693 -0.7146  0.0980 -0.9449
 8205SOL    HW236075   4.083   1.116   4.776  0.6210 -0.8586 -0.6467
 8206SOL     OW36076   2.653   3.797   8.939  0.2323 -0.0357  0.2565
 8206SOL    HW136077   2.638   3.704   8.957  0.8455 -0.4419 -1.3267
 8206SOL    HW236078   2.727   3.817   8.996  0.6759 -0.4447 -0.1630
 8207SOL     OW36079   2.687   4.058   4.187  0.1026 -0.2418 -0.0153
 8207SOL    HW136080   2.610   4.099   4.148  0.4501  1.5540  1.1611
 8207SOL    HW236081   2.759   4.115   4.159 -0.7635  0.5772 -0.5948
 8208SOL     OW36082   4.625   1.153   6.075 -0.9551 -0.5019 -0.0309
 8208SOL    HW136083   4.590   1.106   5.999 -1.5314 -0.1571  0.0169
 8208SOL    HW236084   4.665   1.232   6.040 -2.3708  0.8881  1.4791
 8209SOL     OW36085   4.424   0.002  11.574  0.5403 -0.4119  0.3366
 8209SOL    HW136086   4.367   0.075  11.596 -0.1047 -1.4695  2.1902
 8209SOL    HW236087   4.410   4.715  11.480 -3.5590  1.5051  0.8195
 8210SOL     OW36088   2.185   0.218  11.226 -0.9543  0.3911  0.5128
 8210SOL    HW136089   2.189   0.179  11.313  0.7381 -1.6253 -0.4692
 8210SOL    HW236090   2.259   0.181  11.179 -2.2617 -0.6368 -0.7288
 8211SOL     OW36091   0.904   0.596  10.748 -0.2917  0.0755 -0.0553
 8211SOL    HW136092   0.943   0.667  10.696 -1.5734  2.1638  1.8143
 8211SOL    HW236093   0.979   0.567  10.798  1.2673  1.9126 -1.2965
 8212SOL     OW36094   0.795   3.171   0.074  0.4197  0.2930 -0.1236
 8212SOL    HW136095   0.773   3.220   0.154 -1.5808 -1.0346  0.1367
 8212SOL    HW236096   0.710   3.136   0.048 -0.1571  1.4708  0.1611
 8213SOL     OW36097   4.071   0.391   2.376  0.2587 -0.2880  0.0425
 8213SOL    HW136098   4.118   0.312   2.350 -1.5853 -1.2697 -0.3585
 8213SOL    HW236099   4.137   0.459   2.365 -1.2230  1.3884  1.4872
 8214SOL     OW36100   2.896   0.972   3.448 -0.8274  0.1332  0.4151
 8214SOL    HW136101   2.846   1.040   3.494 -0.7693 -1.1552  2.3743
 8214SOL    HW236102   2.825   0.917   3.415 -0.8271  1.1267 -1.2174
 8215SOL     OW36103   1.950   1.450   6.803  0.5754 -0.2378  0.1770
 8215SOL    HW136104   1.862   1.413   6.813  1.1851 -2.3298 -2.2154
 8215SOL    HW236105   1.952   1.532   6.853 -2.2037 -1.2836  2.0288
 8216SOL     OW36106   3.296   4.706   4.141 -0.0582  0.1511 -0.1521
 8216SOL    HW136107   3.245   4.636   4.181  2.8317 -1.2090  1.1649
 8216SOL    HW236108   3.259   0.065   4.181  1.6927  1.0523 -0.3329
 8217SOL     OW36109   2.483   2.066   3.012  0.6061 -0.1534  0.4132
 8217SOL    HW136110   2.535   2.045   3.089  2.0424 -2.8949 -1.3296
 8217SOL    HW236111   2.436   2.143   3.044  2.7622  0.4988  2.0061
 8218SOL     OW36112   2.487   3.424   2.824  0.2639  0.2349  0.5426
 8218SOL    HW136113   2.466   3.438   2.732 -0.2407  2.6945  1.0238
 8218SOL    HW236114   2.422   3.360   2.851 -1.1649  1.7406  0.6687
 8219SOL     OW36115   2.708   3.094  15.986  0.1811  0.1377  0.0385
 8219SOL    HW136116   2.759   3.021  16.021  0.4824  1.1081  1.6093
 8219SOL    HW236117   2.782   3.148  15.956 -0.5411  1.4474  0.6258
 8220SOL     OW36118   2.487   4.219   6.782  0.0920  0.9719  0.2590
 8220SOL    HW136119   2.549   4.149   6.801 -1.9450 -1.4852 -2.0174
 8220SOL    HW236120   2.468   4.226   6.875 -2.8758 -1.2635 -0.1785
 8221SOL     OW36121   0.277   3.166   3.560 -0.0300  0.2941 -0.7120
 8221SOL    HW136122   0.311   3.237   3.505  1.1397 -0.1863 -0.6147
 8221SOL    HW236123   0.266   3.213   3.642 -0.1638  1.4813 -1.4097
 8222SOL     OW36124   2.624   0.250  11.758  0.5714 -0.2763  0.4320
 8222SOL    HW136125   2.660   0.162  11.760 -0.0924 -0.5923 -1.9687
 8222SOL    HW236126   2.698   0.301  11.792  1.0722 -0.8890  0.2670
 8223SOL     OW36127   3.915   1.862   8.919  0.3576 -0.2412 -0.4363
 8223SOL    HW136128   3.917   1.815   9.003 -1.8312 -0.4339 -0.5000
 8223SOL    HW236129   3.973   1.934   8.944 -1.3327  0.3317  1.8394
 8224SOL     OW36130   0.988   2.416  12.981 -0.2189  0.0084 -0.7265
 8224SOL    HW136131   1.076   2.387  13.005  0.0263  0.9513 -0.4843
 8224SOL    HW236132   1.005   2.505  12.949  1.5006 -1.6021 -4.3498
 8225SOL     OW36133   3.777   2.034   0.327 -0.1136 -0.0772  0.0395
 8225SOL    HW136134   3.693   1.994   0.305 -1.1931  0.6858  2.7196
 8225SOL    HW236135   3.741   2.063   0.411 -1.5585 -0.2670 -0.5142
 8226SOL     OW36136   3.903   1.371  16.605  0.2021  0.3831 -0.1723
 8226SOL    HW136137   3.982   1.345  16.652  0.4652  0.3173 -0.6542
 8226SOL    HW236138   3.924   1.459  16.573  1.4690 -0.3207 -1.2550
 8227SOL     OW36139   0.718   1.172   5.432  0.4404 -0.7299 -0.3430
 8227SOL    HW136140   0.702   1.078   5.443 -3.8265 -0.3364 -3.3025
 8227SOL    HW236141   0.647   1.189   5.371  1.0804  0.0600 -0.8593
 8228SOL     OW36142   4.469   0.279  16.744  0.5423 -0.5082 -0.2147
 8228SOL    HW136143   4.526   0.352  16.769  0.1336 -0.1107 -0.4571
 8228SOL    HW236144   4.425   0.312  16.666  0.1276 -2.2855 -0.7233
 8229SOL     OW36145   3.991   0.005   5.328  0.8219  0.7215  0.1392
 8229SOL    HW136146   4.076   4.711   5.286 -0.7513 -0.9769 -2.4841
 8229SOL    HW236147   3.981   0.100   5.334 -1.3687  0.6576 -1.9783
 8230SOL     OW36148   4.654   4.408   5.799  0.3671  0.5697  0.3761
 8230SOL    HW136149   4.575   4.387   5.849  1.7648 -1.8850  1.5194
 8230SOL    HW236150   4.639   4.500   5.778 -1.4988  0.5600  1.6017
 8231SOL     OW36151   3.024   4.069   4.016  0.5153 -0.0813 -0.4599
 8231SOL    HW136152   3.036   4.022   4.099  0.0900 -0.7926 -0.7975
 8231SOL    HW236153   2.965   4.137   4.047 -1.6749 -1.5200 -1.3997
 8232SOL     OW36154   3.872   0.388  10.085  0.1575 -0.8381 -0.1454
 8232SOL    HW136155   3.797   0.373  10.143  0.1046  0.3121  0.0883
 8232SOL    HW236156   3.940   0.360  10.146 -0.7025  2.8367  2.5288
 8233SOL     OW36157   1.291   2.297   2.391 -0.5900  0.1523 -0.1172
 8233SOL    HW136158   1.222   2.346   2.346 -0.8646  0.6296  0.8454
 8233SOL    HW236159   1.351   2.284   2.317 -1.8880  0.7290 -1.2934
 8234SOL     OW36160   1.546   0.138  14.409 -0.1648 -0.2682  0.4869
 8234SOL    HW136161   1.537   0.157  14.502 -0.6592 -0.1625  0.4136
 8234SOL    HW236162   1.466   0.175  14.372 -1.6191 -1.7124  2.1990
 8235SOL     OW36163   0.570   1.054  15.401  0.0800 -0.3164 -0.3461
 8235SOL    HW136164   0.639   1.022  15.344  0.6615  0.7569 -0.2485
 8235SOL    HW236165   0.578   1.008  15.485 -1.9317 -1.4808 -0.7975
 8236SOL     OW36166   2.844   4.306  13.954  0.1791  0.4542 -0.1222
 8236SOL    HW136167   2.867   4.214  13.969  0.2031  0.8359  2.2499
 8236SOL    HW236168   2.783   4.313  14.028  0.0801 -2.7175  0.0969
 8237SOL     OW36169   1.142   2.091   7.389  0.0001  0.8331  0.1018
 8237SOL    HW136170   1.160   2.015   7.333  0.1788  0.4386  0.6900
 8237SOL    HW236171   1.128   2.158   7.322  0.5155  0.8680  0.0305
 8238SOL     OW36172   1.018   1.832   5.396 -0.6181 -0.4129  0.3797
 8238SOL    HW136173   1.102   1.832   5.441 -0.5127  1.0585  0.1816
 8238SOL    HW236174   1.024   1.912   5.345  0.3722 -1.1336 -0.6213
 8239SOL     OW36175   1.851   0.886   5.469  0.1149 -0.1914 -0.0784
 8239SOL    HW136176   1.850   0.972   5.510 -1.6756 -0.6762  0.8925
 8239SOL    HW236177   1.928   0.855   5.516  0.2935 -0.8370 -0.8002
 8240SOL     OW36178   3.230   0.179   7.094  0.5523 -0.4924  0.0986
 8240SOL    HW136179   3.323   0.155   7.096  1.3949  2.6657 -0.6616
 8240SOL    HW236180   3.214   0.164   7.001 -0.3491  1.5125 -0.0722
 8241SOL     OW36181   2.931   3.424  17.054  0.1522 -0.9855 -0.6753
 8241SOL    HW136182   2.852   3.462  17.015 -0.8493 -1.4019  0.9260
 8241SOL    HW236183   2.934   3.464  17.141 -1.3306  0.3412 -1.2367
 8242SOL     OW36184   0.337   4.526   5.849 -0.1332 -0.0679 -0.6084
 8242SOL    HW136185   0.335   4.621   5.838  1.6392 -0.0575 -0.8630
 8242SOL    HW236186   0.393   4.498   5.777 -1.6270 -4.5577 -0.0299
 8243SOL     OW36187   3.700   0.395  13.972  0.0198 -0.4876 -0.0773
 8243SOL    HW136188   3.705   0.479  13.927 -0.5040 -0.1177  0.5641
 8243SOL    HW236189   3.611   0.370  13.947 -0.8649  2.7128 -0.1618
 8244SOL     OW36190   1.465   3.193  15.878  0.1973 -0.1260  0.7921
 8244SOL    HW136191   1.474   3.142  15.797  0.6258 -0.9661  1.3754
 8244SOL    HW236192   1.417   3.255  15.823  1.1686  0.3105  0.4292
 8245SOL     OW36193   2.446   1.997   1.914  0.0259  0.7642 -0.4045
 8245SOL    HW136194   2.411   2.001   2.003  2.6454 -0.4622  0.6812
 8245SOL    HW236195   2.500   2.076   1.909  1.6150 -0.3559 -1.0788
 8246SOL     OW36196   2.391   3.748   2.076 -0.5782 -0.2111 -0.4347
 8246SOL    HW136197   2.309   3.757   2.125 -0.7358 -0.6924 -0.6149
 8246SOL    HW236198   2.360   3.725   1.988 -1.0360  2.3805 -0.9628
 8247SOL     OW36199   1.833   1.699   6.348  0.6598  0.3915  0.0552
 8247SOL    HW136200   1.771   1.753   6.397 -2.2009 -0.6630 -2.4703
 8247SOL    HW236201   1.851   1.641   6.422 -0.6669 -1.6057 -1.1967
 8248SOL     OW36202   1.713   0.894   3.878  0.5117 -0.1896  0.1512
 8248SOL    HW136203   1.704   0.984   3.845 -1.7919 -0.9253 -1.2079
 8248SOL    HW236204   1.761   0.914   3.958 -1.4265 -3.8826  2.1932
 8249SOL     OW36205   0.496   2.420   2.719 -0.1300  0.0495 -0.8223
 8249SOL    HW136206   0.448   2.492   2.679  1.9235  2.9057  1.8064
 8249SOL    HW236207   0.527   2.372   2.642 -3.0109 -0.8296 -1.4371
 8250SOL     OW36208   2.296   1.356  15.558 -0.2093 -0.1692  0.0859
 8250SOL    HW136209   2.318   1.346  15.651  0.6794  1.8995  0.1061
 8250SOL    HW236210   2.224   1.419  15.565  0.0703  0.1901 -0.2701
 8251SOL     OW36211   1.619   2.901   5.239  0.8774 -0.2865  0.0048
 8251SOL    HW136212   1.577   2.817   5.225  1.6510 -0.7697  0.5703
 8251SOL    HW236213   1.670   2.912   5.159  0.1904 -1.7509 -0.6259
 8252SOL     OW36214   1.064   3.247   3.436 -0.2400  0.1148 -0.6286
 8252SOL    HW136215   1.150   3.245   3.479 -0.7489  2.0027  0.4529
 8252SOL    HW236216   1.037   3.338   3.431 -1.7439 -0.4180 -2.1841
 8253SOL     OW36217   0.954   2.253   9.284  0.5578 -0.0114 -0.0928
 8253SOL    HW136218   0.866   2.247   9.247  2.2564 -1.5515 -3.8483
 8253SOL    HW236219   0.941   2.256   9.379  0.6396  1.5948 -0.1398
 8254SOL     OW36220   1.117   3.703   7.572 -0.1436  0.2909 -0.5949
 8254SOL    HW136221   1.155   3.635   7.516 -0.8586 -0.7462  0.1919
 8254SOL    HW236222   1.083   3.640   7.635  1.3760 -1.2484 -1.3045
 8255SOL     OW36223   2.695   0.207   5.527 -0.0164  0.8437 -0.4847
 8255SOL    HW136224   2.725   0.146   5.594  2.9146  0.8289 -1.8011
 8255SOL    HW236225   2.640   0.262   5.582 -2.3089 -0.3491 -1.6065
 8256SOL     OW36226   3.915   2.975   9.612  0.6802  0.2493  0.2630
 8256SOL    HW136227   3.829   2.948   9.645  0.7977  0.9297  1.1167
 8256SOL    HW236228   3.914   2.922   9.532 -1.0350 -0.3171  0.6691
 8257SOL     OW36229   0.979   0.387  15.409  0.6155  0.5313 -0.6777
 8257SOL    HW136230   0.940   0.349  15.330 -0.1206 -1.0841  0.4449
 8257SOL    HW236231   1.073   0.388  15.395  0.8968  2.1096  1.2967
 8258SOL     OW36232   3.162   2.435  11.476  0.1013 -0.1118  0.6113
 8258SOL    HW136233   3.131   2.346  11.463  0.3329 -0.2035  0.6877
 8258SOL    HW236234   3.143   2.474  11.391 -0.1691 -2.9671 -0.6087
 8259SOL     OW36235   3.759   0.874   4.587 -0.0916 -0.0220  0.5275
 8259SOL    HW136236   3.671   0.849   4.611  0.2971 -1.9501 -0.0578
 8259SOL    HW236237   3.802   0.832   4.661  0.7523  1.0290  0.6562
 8260SOL     OW36238   0.091   2.014   6.359 -0.3502 -0.4520 -0.5046
 8260SOL    HW136239   0.044   2.094   6.334  0.9127  0.8198  1.2056
 8260SOL    HW236240   0.064   2.022   6.451 -0.2955  1.0498 -0.6209
 8261SOL     OW36241   1.131   0.857   4.924 -0.5363 -0.7034  0.2744
 8261SOL    HW136242   1.158   0.843   5.015 -0.3753 -0.0882  0.3207
 8261SOL    HW236243   1.041   0.880   4.947  0.3509  3.0592 -0.0214
 8262SOL     OW36244   4.027   3.372   9.489 -0.6003 -0.0546  0.1259
 8262SOL    HW136245   3.946   3.389   9.537  0.1094 -1.7255  1.9511
 8262SOL    HW236246   4.053   3.463   9.478 -0.7048 -0.0255  0.1233
 8263SOL     OW36247   3.752   2.457   7.976 -0.4588  0.7459 -0.2119
 8263SOL    HW136248   3.808   2.455   8.054 -0.3169 -1.1219 -0.3728
 8263SOL    HW236249   3.763   2.550   7.955 -0.4969  0.4132 -1.7148
 8264SOL     OW36250   3.154   3.105   3.024 -0.0610 -0.2309 -0.3704
 8264SOL    HW136251   3.203   3.091   3.105  0.7773  0.4458 -0.7585
 8264SOL    HW236252   3.162   3.016   2.990 -0.2693 -0.3393 -0.1356
 8265SOL     OW36253   4.398   0.540   3.023  0.0087  0.2306 -0.5752
 8265SOL    HW136254   4.477   0.485   3.023 -1.5818 -2.0587 -0.5918
 8265SOL    HW236255   4.357   0.496   3.098 -0.5458  3.0113  0.7353
 8266SOL     OW36256   0.550   4.293   9.988 -0.3433 -0.3431 -0.1474
 8266SOL    HW136257   0.582   4.207   9.961  2.4041  0.3924  0.7343
 8266SOL    HW236258   0.564   4.346   9.910  1.1545 -0.5448 -0.0221
 8267SOL     OW36259   2.797   1.553   6.889 -0.3019  0.0207  0.5009
 8267SOL    HW136260   2.760   1.468   6.912  3.2088 -1.8276 -0.6829
 8267SOL    HW236261   2.888   1.541   6.918 -1.3320 -0.5374  3.4607
 8268SOL     OW36262   1.582   3.383  10.208  0.1545  0.7948  0.1699
 8268SOL    HW136263   1.590   3.448  10.278 -1.5287 -0.0421  1.1259
 8268SOL    HW236264   1.594   3.303  10.260 -0.2699 -0.3169 -1.4271
 8269SOL     OW36265   2.303   0.259   3.718  0.0681  0.2197  0.1962
 8269SOL    HW136266   2.356   0.325   3.763  0.8389 -0.8281  0.8282
 8269SOL    HW236267   2.211   0.277   3.740 -0.0047 -1.4667  1.3032
 8270SOL     OW36268   3.372   4.226   7.813 -0.2912 -0.3772 -0.0355
 8270SOL    HW136269   3.329   4.284   7.875  2.1644  0.7267  0.6142
 8270SOL    HW236270   3.418   4.165   7.870  1.8823 -1.9689 -3.4975
 8271SOL     OW36271   3.137   0.720   1.055 -0.4272  0.1723 -0.1714
 8271SOL    HW136272   3.055   0.762   1.028 -0.3523 -0.0478 -0.7422
 8271SOL    HW236273   3.199   0.779   1.012 -0.4216  0.4823  0.2592
 8272SOL     OW36274   0.596   3.970   1.733  0.3620  0.3616 -0.1379
 8272SOL    HW136275   0.526   3.912   1.762  0.6077  0.5962  0.9134
 8272SOL    HW236276   0.621   3.921   1.655  2.2121 -1.8288  1.8426
 8273SOL     OW36277   3.252   0.298   4.555  0.6177  0.8315 -0.1106
 8273SOL    HW136278   3.326   0.239   4.568 -0.0720 -0.2987 -1.3346
 8273SOL    HW236279   3.210   0.279   4.639 -1.6182  0.9109 -1.1959
 8274SOL     OW36280   4.666   3.747   1.786  0.5611 -0.0441 -0.3816
 8274SOL    HW136281   0.038   3.766   1.794  0.9620 -1.8926 -0.8156
 8274SOL    HW236282   4.622   3.773   1.867  0.8540 -0.3248 -0.1356
 8275SOL     OW36283   0.083   2.097   9.255  0.5282 -0.2137  0.3427
 8275SOL    HW136284   0.080   2.192   9.252 -2.7049 -0.3243 -0.2200
 8275SOL    HW236285   0.162   2.069   9.302  0.1330 -1.5091  0.2491
 8276SOL     OW36286   3.348   1.930   2.793 -0.5552  0.2809 -0.3738
 8276SOL    HW136287   3.330   1.836   2.801  0.4808  0.0198 -1.1829
 8276SOL    HW236288   3.259   1.965   2.783 -0.6074 -0.2578 -1.8412
 8277SOL     OW36289   3.439   2.892  12.034  0.4391  0.2779 -0.9887
 8277SOL    HW136290   3.518   2.837  12.036 -1.7662 -2.8475  0.3052
 8277SOL    HW236291   3.473   2.973  11.995 -0.7108  0.6796 -1.1694
 8278SOL     OW36292   2.318   2.044  10.404 -0.3233 -0.2743 -0.4398
 8278SOL    HW136293   2.228   2.067  10.429 -0.4459  0.5816 -1.6616
 8278SOL    HW236294   2.362   2.085  10.478  1.0639 -0.9043 -0.9119
 8279SOL     OW36295   2.411   1.368   9.219  0.0074  0.6638  0.2860
 8279SOL    HW136296   2.457   1.364   9.134  0.9698 -0.4383  0.8535
 8279SOL    HW236297   2.484   1.382   9.279  0.2017  0.4738  0.0950
 8280SOL     OW36298   3.568   4.268   7.623 -0.3488  0.0675  0.3422
 8280SOL    HW136299   3.501   4.269   7.554  1.0865 -2.1946 -1.0717
 8280SOL    HW236300   3.517   4.296   7.699 -0.7086 -1.4296  0.6503
 8281SOL     OW36301   2.667   3.316   6.488  0.1534 -0.0544  0.1547
 8281SOL    HW136302   2.594   3.299   6.429 -0.4747  0.0769  0.9081
 8281SOL    HW236303   2.646   3.256   6.559  1.8375 -1.4024 -0.4666
 8282SOL     OW36304   4.387   1.578   3.399 -0.0809  0.2343 -0.0601
 8282SOL    HW136305   4.443   1.606   3.326  0.0361 -0.5843 -0.2762
 8282SOL    HW236306   4.301   1.588   3.360  0.8684  1.4782 -1.8521
 8283SOL     OW36307   3.468   2.392   8.858  0.5701 -0.0981 -0.4417
 8283SOL    HW136308   3.386   2.353   8.828 -0.9708  0.8392  2.4716
 8283SOL    HW236309   3.528   2.319   8.845 -1.0541 -1.4146 -0.5977
 8284SOL     OW36310   3.539   2.276   8.328 -0.8068 -0.3570  0.1690
 8284SOL    HW136311   3.524   2.301   8.237 -0.1742 -1.3570 -0.2086
 8284SOL    HW236312   3.518   2.183   8.319  0.2005 -0.5738  0.1429
 8285SOL     OW36313   1.572   0.304   5.836 -0.1327 -0.1818  0.5905
 8285SOL    HW136314   1.566   0.214   5.868 -3.0199  0.2284  1.2220
 8285SOL    HW236315   1.508   0.352   5.888  0.0981  0.8800 -0.1097
 8286SOL     OW36316   4.161   1.518   2.139  0.2350  0.2313 -0.0803
 8286SOL    HW136317   4.098   1.495   2.070  0.0714  0.6210 -0.0594
 8286SOL    HW236318   4.208   1.589   2.095 -1.2444  1.0911 -0.2876
 8287SOL     OW36319   2.004   1.347  15.990  0.9136 -0.2365 -0.8545
 8287SOL    HW136320   2.050   1.414  15.939 -2.7311  1.6028 -1.7242
 8287SOL    HW236321   2.073   1.280  15.992  1.7113  0.6404  0.7440
 8288SOL     OW36322   2.636   1.258   1.650 -0.3786 -0.3551 -0.2379
 8288SOL    HW136323   2.620   1.233   1.741  1.4644 -4.5972 -1.0939
 8288SOL    HW236324   2.636   1.354   1.657  1.4604 -0.5253  2.0239
 8289SOL     OW36325   4.672   3.843   5.096  0.6712  0.6148  0.2919
 8289SOL    HW136326   0.039   3.863   5.062  1.3578 -0.5220  1.3738
 8289SOL    HW236327   4.636   3.794   5.022  1.4829 -1.7773  1.4982
 8290SOL     OW36328   0.150   2.547   6.476  0.3308 -0.4805 -0.5157
 8290SOL    HW136329   0.188   2.547   6.564  1.2869  0.2965 -0.9216
 8290SOL    HW236330   0.112   2.635   6.477 -1.3472 -1.2151  0.6296
 8291SOL     OW36331   0.224   1.554   8.292 -0.4822 -0.6046 -0.5441
 8291SOL    HW136332   0.135   1.540   8.326  0.0545  0.2589  1.2119
 8291SOL    HW236333   0.245   1.471   8.249 -0.8546 -1.2483  0.5199
 8292SOL     OW36334   0.155   1.872   4.199 -0.3394 -0.0078 -0.0777
 8292SOL    HW136335   0.066   1.855   4.229 -0.1726 -2.1443 -0.8239
 8292SOL    HW236336   0.150   1.822   4.118 -0.2201  0.4325 -0.3610
 8293SOL     OW36337   0.155   0.662  10.874 -0.6682 -0.2317  0.0282
 8293SOL    HW136338   0.089   0.651  10.942  1.2954  2.1335  2.3018
 8293SOL    HW236339   0.196   0.747  10.888 -0.2052 -0.6753  1.4293
 8294SOL     OW36340   2.017   1.255   4.553  0.0747 -0.5935  0.5452
 8294SOL    HW136341   2.064   1.197   4.492  0.1232  1.8140 -1.7004
 8294SOL    HW236342   1.933   1.262   4.508 -0.5596  1.8485  2.1440
 8295SOL     OW36343   3.944   0.713  11.473 -0.2140  0.1031 -0.6553
 8295SOL    HW136344   3.971   0.708  11.565  1.6130  1.5631 -1.1319
 8295SOL    HW236345   4.009   0.774  11.439 -1.2979  1.6055 -0.0348
 8296SOL     OW36346   1.286   3.242   3.587 -0.1236  0.5631  0.5481
 8296SOL    HW136347   1.288   3.335   3.610 -1.5248  0.9622 -0.9886
 8296SOL    HW236348   1.309   3.201   3.671 -2.7229  1.2325  1.5688
 8297SOL     OW36349   2.601   3.968   6.806  0.3626 -0.6532 -0.3222
 8297SOL    HW136350   2.604   3.929   6.719 -2.3688  0.5484 -0.9451
 8297SOL    HW236351   2.589   3.893   6.864  1.0864 -1.7156 -1.5288
 8298SOL     OW36352   4.134   3.900  17.261  0.0922  0.2972 -0.1891
 8298SOL    HW136353   4.174   3.964  17.320 -0.1448  0.9426 -0.7319
 8298SOL    HW236354   4.047   3.896  17.301 -0.3934 -0.1698 -1.2901
 8299SOL     OW36355   3.931   1.870   8.038  0.1448  0.2315  0.1022
 8299SOL    HW136356   3.864   1.936   8.054 -0.0625 -0.1284  0.7338
 8299SOL    HW236357   3.968   1.856   8.125 -3.3139 -1.2955  1.3673
 8300SOL     OW36358   3.791   1.022   1.919  0.3328 -1.0073 -0.4536
 8300SOL    HW136359   3.713   1.040   1.866  0.1548  1.0873  0.5177
 8300SOL    HW236360   3.752   0.989   2.000  0.8988 -0.0603  0.2108
 8301SOL     OW36361   1.284   2.699   6.978 -0.8257 -0.5300  0.9916
 8301SOL    HW136362   1.347   2.711   7.048 -0.8772  4.3918  0.1771
 8301SOL    HW236363   1.251   2.788   6.964 -0.8851 -0.7002 -0.0076
 8302SOL     OW36364   0.977   1.380  13.708  0.3508  0.1511 -0.2257
 8302SOL    HW136365   0.945   1.295  13.680  1.0719 -0.2248  0.1034
 8302SOL    HW236366   0.956   1.414  13.621 -2.6611 -0.4387  0.2704
 8303SOL     OW36367   3.365   1.285  17.460  0.0076 -0.0782 -0.2681
 8303SOL    HW136368   3.426   1.334  17.404 -2.0361  2.6417 -0.0609
 8303SOL    HW236369   3.333   1.228  17.390  0.5437 -1.8476  0.9154
 8304SOL     OW36370   0.796   4.422  16.189 -0.2351 -0.8177  0.2696
 8304SOL    HW136371   0.796   4.363  16.264  1.1408 -0.0953  0.8404
 8304SOL    HW236372   0.889   4.416  16.166 -0.1470 -0.5982  0.5674
 8305SOL     OW36373   2.328   2.795  11.279  0.1473 -0.3006 -0.1797
 8305SOL    HW136374   2.378   2.845  11.215 -0.5691 -0.5963 -0.9802
 8305SOL    HW236375   2.236   2.815  11.259  0.4173  0.8963 -0.2146
 8306SOL     OW36376   1.845   3.482   6.210  0.4787 -1.0193 -0.2481
 8306SOL    HW136377   1.913   3.519   6.154 -0.2696 -2.1529 -1.8711
 8306SOL    HW236378   1.770   3.539   6.191  1.0067 -0.6638 -1.2233
 8307SOL     OW36379   1.519   2.593   1.356 -0.1314 -0.1549 -0.1280
 8307SOL    HW136380   1.614   2.593   1.353 -0.1290 -0.4227  0.0452
 8307SOL    HW236381   1.497   2.650   1.430  6.0202  1.2019  0.6281
 8308SOL     OW36382   3.526   1.948   7.563 -0.4057  0.5049 -0.3761
 8308SOL    HW136383   3.575   2.022   7.600  0.5112  0.5340 -1.6584
 8308SOL    HW236384   3.445   1.993   7.541 -0.3557  0.6851 -0.1995
 8309SOL     OW36385   0.641   0.405   8.956 -0.3681  0.2378 -0.4259
 8309SOL    HW136386   0.610   0.474   9.015  0.8833 -0.7831  1.4189
 8309SOL    HW236387   0.567   0.347   8.938 -0.7594  1.2110 -1.9681
 8310SOL     OW36388   4.542   4.608   3.998  0.0892 -0.2855  0.3811
 8310SOL    HW136389   4.568   4.532   4.050  0.8351  1.1827  2.1526
 8310SOL    HW236390   4.478   4.569   3.938  1.6717  0.1910 -1.6440
 8311SOL     OW36391   0.447   4.408   3.018 -0.4591 -0.1193 -0.3390
 8311SOL    HW136392   0.387   4.355   2.966 -0.3500  0.0775 -0.6592
 8311SOL    HW236393   0.411   4.384   3.104  2.3585  1.3038  1.2762
 8312SOL     OW36394   0.120   1.555   3.766 -0.0404  0.7742 -0.2396
 8312SOL    HW136395   0.214   1.551   3.745  0.3857  0.2007  1.7488
 8312SOL    HW236396   0.095   1.637   3.723  3.7395  2.2310  0.3137
 8313SOL     OW36397   2.529   0.229   6.204  0.4586  0.0980 -0.0873
 8313SOL    HW136398   2.507   0.140   6.177 -2.5954  0.4158  1.3929
 8313SOL    HW236399   2.498   0.286   6.134 -2.2557 -2.2840 -0.8244
 8314SOL     OW36400   4.705   1.024   6.309 -0.0398 -0.4073  0.1782
 8314SOL    HW136401   4.677   1.061   6.225  1.2510  0.5779  0.1696
 8314SOL    HW236402   0.010   0.935   6.288  0.1735 -1.4487  4.8670
 8315SOL     OW36403   4.385   3.142  12.366 -0.3710 -0.3714 -0.0581
 8315SOL    HW136404   4.336   3.116  12.444 -1.2427 -2.2424 -1.2212
 8315SOL    HW236405   4.333   3.217  12.337  1.2126  0.0065 -1.9113
 8316SOL     OW36406   2.662   0.685   7.227 -0.1449  0.4381 -0.1112
 8316SOL    HW136407   2.587   0.641   7.265  0.5800  0.2512  1.0892
 8316SOL    HW236408   2.724   0.691   7.299 -0.0950  0.5454 -0.1626
 8317SOL     OW36409   4.704   0.653   8.051 -0.4482 -0.3576 -0.2276
 8317SOL    HW136410   4.676   0.593   7.982  3.8216  0.6445 -2.8769
 8317SOL    HW236411   4.645   0.634   8.124 -1.1438  0.7931 -0.4978
 8318SOL     OW36412   0.414   3.084  14.346  0.2661  0.2307  0.4684
 8318SOL    HW136413   0.383   3.114  14.261  1.9062 -1.2884 -0.6548
 8318SOL    HW236414   0.330   3.080  14.391 -0.2567 -2.7121 -0.7744
 8319SOL     OW36415   2.467   1.943   6.570 -0.0411  0.0963  0.0002
 8319SOL    HW136416   2.540   1.927   6.630 -1.3815 -2.6033  0.9081
 8319SOL    HW236417   2.498   1.904   6.488  1.3764  0.7816  0.2045
 8320SOL     OW36418   3.414   0.126   2.264  0.5857 -0.0236  0.3580
 8320SOL    HW136419   3.459   0.205   2.295  1.2094 -0.3387  0.2374
 8320SOL    HW236420   3.401   0.073   2.343 -3.6950  1.3386  0.6103
 8321SOL     OW36421   3.913   4.275  15.885  0.4143 -0.2274  0.1042
 8321SOL    HW136422   3.873   4.191  15.859 -1.8156  1.0313 -0.5047
 8321SOL    HW236423   3.927   4.331  15.809  0.2330 -1.1281 -0.5918
 8322SOL     OW36424   0.435   0.653   9.364  0.5075  0.2213 -0.1042
 8322SOL    HW136425   0.444   0.613   9.450 -4.5309  1.2379  0.8902
 8322SOL    HW236426   0.389   0.732   9.392  0.3184  0.5049 -1.2154
 8323SOL     OW36427   0.443   1.867   8.896  0.1834  0.0261  0.1676
 8323SOL    HW136428   0.409   1.784   8.862 -1.1127 -0.5533  2.8549
 8323SOL    HW236429   0.496   1.831   8.968 -1.0507  1.9733  2.0511
 8324SOL     OW36430   1.196   2.120  12.080 -0.2270  0.3095  0.1826
 8324SOL    HW136431   1.214   2.206  12.118 -1.7994  0.9009 -0.4069
 8324SOL    HW236432   1.274   2.074  12.111  0.5828  2.0850  0.7260
 8325SOL     OW36433   0.111   4.160   2.354  0.9537 -0.1980  0.3231
 8325SOL    HW136434   0.113   4.065   2.351 -0.1100 -0.1185 -3.4276
 8325SOL    HW236435   0.187   4.186   2.405  1.6928 -2.2489  0.2591
 8326SOL     OW36436   3.070   0.795   5.249  0.5011 -0.0817 -0.6358
 8326SOL    HW136437   3.066   0.700   5.261  0.0026 -0.2340 -2.0186
 8326SOL    HW236438   2.998   0.807   5.188  0.4350 -2.9896 -1.1141
 8327SOL     OW36439   4.545   0.064   2.687  0.6127  0.1039  0.1325
 8327SOL    HW136440   4.486   0.033   2.756 -0.3270  1.9252  0.1490
 8327SOL    HW236441   4.477   0.115   2.642  1.2731  0.6354 -0.2639
 8328SOL     OW36442   1.366   2.682   3.575  0.6114  0.7382  0.0150
 8328SOL    HW136443   1.394   2.719   3.491  2.6125 -2.6431 -0.8115
 8328SOL    HW236444   1.344   2.764   3.618 -0.8120 -0.5787  1.8008
 8329SOL     OW36445   0.975   0.608   0.784  0.4520  0.1301  0.4650
 8329SOL    HW136446   0.912   0.585   0.716  1.7537 -1.1793 -0.2970
 8329SOL    HW236447   1.018   0.674   0.730  0.7701  2.0869  3.1775
 8330SOL     OW36448   1.841   1.822  12.629 -0.1809  0.2683 -0.1381
 8330SOL    HW136449   1.791   1.884  12.682 -0.6173  0.0105 -0.2452
 8330SOL    HW236450   1.891   1.881  12.573  0.5917  0.1093  0.3872
 8331SOL     OW36451   2.310   0.185   4.872 -0.0576 -0.3978  0.7554
 8331SOL    HW136452   2.333   0.213   4.960 -0.4996  1.8642  0.1666
 8331SOL    HW236453   2.257   0.108   4.890  0.2584 -0.6956  0.4048
 8332SOL     OW36454   2.394   3.758   6.745 -0.2789 -0.3690 -0.3437
 8332SOL    HW136455   2.364   3.669   6.764  0.8777 -1.1511 -2.1764
 8332SOL    HW236456   2.486   3.752   6.720 -0.2008 -0.4395 -0.0384
 8333SOL     OW36457   0.931   0.227  16.592  0.3216 -0.0980 -0.7316
 8333SOL    HW136458   0.988   0.184  16.529 -1.9505 -1.7705 -1.6675
 8333SOL    HW236459   0.943   0.318  16.565  0.2988  0.3258  0.7151
 8334SOL     OW36460   4.124   3.130   5.881 -0.4556  0.1287 -0.0586
 8334SOL    HW136461   4.214   3.135   5.916 -1.2845  2.5079  1.7483
 8334SOL    HW236462   4.113   3.225   5.878  1.5082  0.3284 -0.8453
 8335SOL     OW36463   1.985   1.230   7.006 -0.5368 -0.6185 -0.4343
 8335SOL    HW136464   1.899   1.262   7.033 -0.1920 -1.0965  1.2612
 8335SOL    HW236465   1.972   1.222   6.912 -0.1583 -0.2503 -0.5180
 8336SOL     OW36466   1.366   0.194   4.956  0.1627 -0.1820 -0.3267
 8336SOL    HW136467   1.430   0.140   5.002  0.1617  0.5436  0.5192
 8336SOL    HW236468   1.361   0.139   4.877 -0.8091  0.1086 -0.4610
 8337SOL     OW36469   0.344   3.045   8.218 -0.3302 -0.1713  0.4304
 8337SOL    HW136470   0.363   3.139   8.219 -0.2564 -0.1477 -3.0103
 8337SOL    HW236471   0.402   3.008   8.151 -2.3554 -0.7805 -0.9706
 8338SOL     OW36472   2.916   2.356   8.416  0.0926  0.4851 -0.6316
 8338SOL    HW136473   2.980   2.421   8.444  1.1614 -0.5790 -0.5534
 8338SOL    HW236474   2.894   2.326   8.504 -0.5928  2.6355 -0.0960
 8339SOL     OW36475   0.336   4.392  10.132 -0.3176  0.2400  0.0677
 8339SOL    HW136476   0.409   4.358  10.081  0.8885  0.8081  1.4192
 8339SOL    HW236477   0.376   4.477  10.148 -1.6389  0.1913  3.6133
 8340SOL     OW36478   0.700   3.467   2.818  0.7243 -0.2997 -0.3644
 8340SOL    HW136479   0.672   3.390   2.769 -1.1650 -1.0517  1.9001
 8340SOL    HW236480   0.686   3.429   2.905 -0.4165  1.4722  0.2324
 8341SOL     OW36481   2.901   1.367   2.067 -0.4604 -0.3555 -0.0538
 8341SOL    HW136482   2.926   1.433   2.132 -2.8696  1.6411 -1.1363
 8341SOL    HW236483   2.951   1.392   1.989  1.0148  0.7661  1.2305
 8342SOL     OW36484   2.831   4.526  13.790 -0.6577 -0.2782  0.0561
 8342SOL    HW136485   2.826   4.478  13.707  0.0568 -0.4524  0.1092
 8342SOL    HW236486   2.847   4.454  13.851  1.7616  0.6796  0.5661
 8343SOL     OW36487   4.319   3.840   7.013 -0.0701  0.0633  0.0887
 8343SOL    HW136488   4.366   3.784   7.074 -0.9270  0.2049  0.8827
 8343SOL    HW236489   4.377   3.915   7.000 -0.5348  0.6093  1.2172
 8344SOL     OW36490   2.286   1.347   1.708  0.4073  0.0493  0.2371
 8344SOL    HW136491   2.349   1.419   1.712 -0.1376  0.3632  3.1212
 8344SOL    HW236492   2.207   1.401   1.697 -0.0114 -0.2719  1.6832
 8345SOL     OW36493   2.189   0.200   8.575 -0.5446 -0.3851  0.2948
 8345SOL    HW136494   2.108   0.156   8.547 -0.2466  0.3774 -1.7914
 8345SOL    HW236495   2.157   0.239   8.656  0.5242  0.7197  0.1921
 8346SOL     OW36496   4.092   4.181   3.285 -0.0486  0.0361 -0.0530
 8346SOL    HW136497   4.173   4.189   3.337  0.1875  1.0685 -0.5774
 8346SOL    HW236498   4.129   4.178   3.197  1.5772 -3.5963  0.7826
 8347SOL     OW36499   0.713   4.138   3.775  0.2150 -0.5118 -0.4243
 8347SOL    HW136500   0.674   4.147   3.862  1.0869 -0.3152 -0.0560
 8347SOL    HW236501   0.686   4.218   3.730  3.1668 -0.3689 -1.9262
 8348SOL     OW36502   3.208   1.773   9.107 -0.0216  0.2082  0.4298
 8348SOL    HW136503   3.180   1.824   9.031 -0.2454  1.1450  1.1353
 8348SOL    HW236504   3.141   1.707   9.125  1.9786 -1.4450  1.8896
 8349SOL     OW36505   3.379   0.947   8.789 -0.7059 -0.0157 -0.0929
 8349SOL    HW136506   3.411   0.858   8.773 -2.1132 -0.5413  0.0384
 8349SOL    HW236507   3.323   0.928   8.864 -0.4079 -0.5188  0.0075
 8350SOL     OW36508   3.618   0.697   6.204  0.3171 -0.5642  0.4553
 8350SOL    HW136509   3.692   0.636   6.200 -0.3594 -1.5261  3.1723
 8350SOL    HW236510   3.652   0.769   6.150 -0.5420  0.9533  1.9587
 8351SOL     OW36511   1.416   2.704   5.776 -0.2932 -0.1886 -0.2596
 8351SOL    HW136512   1.360   2.701   5.854 -2.8097 -0.5781 -2.0998
 8351SOL    HW236513   1.478   2.769   5.809  0.5122 -1.4291  0.6913
 8352SOL     OW36514   2.661   0.980   4.226 -0.1617 -0.1232  0.0498
 8352SOL    HW136515   2.735   0.920   4.233 -0.1268  0.2118  2.5099
 8352SOL    HW236516   2.608   0.923   4.170  1.0711 -2.5156  1.3279
 8353SOL     OW36517   0.447   2.490   4.534 -0.3848 -0.1266  0.0893
 8353SOL    HW136518   0.495   2.433   4.475 -0.0993  0.3257 -0.1142
 8353SOL    HW236519   0.371   2.432   4.540  0.5163 -1.0907  2.2477
 8354SOL     OW36520   0.951   3.438   5.374  0.1168 -0.3768  0.1860
 8354SOL    HW136521   0.993   3.392   5.301  1.2656  1.3104 -0.2315
 8354SOL    HW236522   1.016   3.416   5.441 -0.0553 -3.9964 -0.8587
 8355SOL     OW36523   2.000   0.234   9.062 -0.1681  0.5198  0.1439
 8355SOL    HW136524   2.013   0.141   9.041  1.6404  1.8376 -4.4410
 8355SOL    HW236525   1.956   0.228   9.147  1.0657 -0.7653  0.6835
 8356SOL     OW36526   0.917   0.159  10.809  0.3053 -0.1565  0.1632
 8356SOL    HW136527   0.870   0.110  10.876 -0.8564 -0.2375 -0.7064
 8356SOL    HW236528   0.840   0.202  10.772  0.3069 -2.7668 -2.8715
 8357SOL     OW36529   3.216   0.447   7.757 -0.4098  0.3590 -0.3886
 8357SOL    HW136530   3.301   0.491   7.754  0.0821 -0.6102 -0.9119
 8357SOL    HW236531   3.200   0.430   7.664 -2.2725 -0.7501  0.1394
 8358SOL     OW36532   3.510   1.480   4.153  0.4904 -0.1809  0.6903
 8358SOL    HW136533   3.421   1.451   4.132  0.4905  0.1599  0.2011
 8358SOL    HW236534   3.566   1.420   4.104  0.6255  0.0369  0.5762
 8359SOL     OW36535   1.929   0.249   8.211  0.0582  0.3025 -0.1822
 8359SOL    HW136536   2.002   0.217   8.159  0.3904  0.4809  0.1726
 8359SOL    HW236537   1.904   0.173   8.263 -1.3843  1.0402  0.2300
 8360SOL     OW36538   0.732   1.212  13.839  0.2727 -0.2163 -0.2600
 8360SOL    HW136539   0.649   1.223  13.885  0.0162  0.7738 -0.9622
 8360SOL    HW236540   0.793   1.237  13.909 -1.5774 -0.1315  1.3154
 8361SOL     OW36541   3.378   1.259   8.835  0.2437  0.0133 -0.0084
 8361SOL    HW136542   3.429   1.196   8.784 -0.8704  0.0015 -1.1023
 8361SOL    HW236543   3.349   1.191   8.896 -1.4222  0.2252 -0.5676
 8362SOL     OW36544   1.426   2.012   2.831  0.1723 -0.4398  0.2433
 8362SOL    HW136545   1.359   1.951   2.862 -1.9055  1.4884 -0.4994
 8362SOL    HW236546   1.465   2.040   2.914 -2.0060 -1.9830  1.7807
 8363SOL     OW36547   1.776   1.101   7.762 -0.1434  0.4371 -0.4669
 8363SOL    HW136548   1.819   1.166   7.818 -0.7641  0.7104 -0.3015
 8363SOL    HW236549   1.847   1.050   7.725 -1.4417  0.3654 -2.8620
 8364SOL     OW36550   4.510   2.983   1.773  0.0292 -0.1657 -0.2114
 8364SOL    HW136551   4.596   3.024   1.763 -0.5010  1.6087  2.3759
 8364SOL    HW236552   4.454   3.042   1.723  0.5990 -0.2566 -0.9596
 8365SOL     OW36553   3.884   0.950   6.509  0.0296  0.2059  0.5359
 8365SOL    HW136554   3.904   0.858   6.492  1.8838  0.8224 -0.6681
 8365SOL    HW236555   3.948   0.981   6.574 -0.4541  0.7413  0.7583
 8366SOL     OW36556   3.214   0.992   6.583  0.2639  0.2335 -0.9751
 8366SOL    HW136557   3.194   0.956   6.669  0.9831  2.0402 -0.0398
 8366SOL    HW236558   3.218   1.084   6.610 -0.7600 -0.1361  0.4292
 8367SOL     OW36559   4.410   1.566   2.914  0.2899 -0.3999 -0.3997
 8367SOL    HW136560   4.358   1.548   2.836  0.2127 -0.9032 -0.2374
 8367SOL    HW236561   4.357   1.621   2.971 -1.4334 -0.2868 -2.1210
 8368SOL     OW36562   0.193   0.308   2.796 -0.1707  0.1846  0.1784
 8368SOL    HW136563   0.102   0.323   2.770 -0.5707  0.1831  1.5860
 8368SOL    HW236564   0.190   0.309   2.892 -0.5293  0.5333  0.1659
 8369SOL     OW36565   2.116   2.440  10.908 -0.0482 -0.0027 -0.5128
 8369SOL    HW136566   2.031   2.405  10.936  0.5561  0.2535  1.6246
 8369SOL    HW236567   2.085   2.499  10.840  1.4337  1.8222  0.4060
 8370SOL     OW36568   3.911   3.854  16.792 -0.4196 -0.0540 -0.4165
 8370SOL    HW136569   3.908   3.945  16.763 -2.1349  0.2066  0.5524
 8370SOL    HW236570   3.897   3.871  16.886  0.1725  2.0565 -0.7196
 8371SOL     OW36571   2.498   1.868   7.909  0.2244  0.5120  0.4139
 8371SOL    HW136572   2.443   1.796   7.942 -0.1874 -0.9765 -3.4682
 8371SOL    HW236573   2.581   1.861   7.955 -0.1958  2.0704  1.3806
 8372SOL     OW36574   2.279   0.688   1.785 -0.0697 -0.5234  0.2021
 8372SOL    HW136575   2.248   0.601   1.759  1.4484 -1.3746  1.2787
 8372SOL    HW236576   2.197   0.736   1.796  1.0472  1.5467 -0.6557
 8373SOL     OW36577   1.909   3.456   0.773  0.4198  0.0723 -0.0203
 8373SOL    HW136578   1.940   3.443   0.862  0.0310  1.4473  0.3160
 8373SOL    HW236579   1.992   3.457   0.725  0.3354  0.4768 -0.1604
 8374SOL     OW36580   3.138   2.308  14.503  0.3253  0.1964 -0.0493
 8374SOL    HW136581   3.132   2.343  14.414  0.1470  1.7848  0.5958
 8374SOL    HW236582   3.088   2.374  14.552  0.7658  0.2908  0.2701
 8375SOL     OW36583   0.159   0.390  16.969  0.3338 -0.0251 -0.4699
 8375SOL    HW136584   0.080   0.424  16.926  1.9061  2.8011 -1.1096
 8375SOL    HW236585   0.131   0.391  17.060 -0.0808  1.5953 -0.6133
 8376SOL     OW36586   4.255   3.864   6.296  0.3347  0.6076  0.2317
 8376SOL    HW136587   4.318   3.841   6.364  0.5773  0.8638  0.0932
 8376SOL    HW236588   4.235   3.955   6.318 -0.8426  0.2229  0.7899
 8377SOL     OW36589   1.370   4.507  15.299 -0.1717 -0.0011  0.2818
 8377SOL    HW136590   1.373   4.590  15.251  0.8867 -0.5987 -0.7038
 8377SOL    HW236591   1.433   4.469  15.237 -0.0740 -1.3548  1.2142
 8378SOL     OW36592   3.065   1.072   6.832 -0.4948 -0.2604 -0.0960
 8378SOL    HW136593   3.087   1.164   6.843 -0.6047 -0.1412 -0.9404
 8378SOL    HW236594   2.998   1.079   6.764  0.0702  1.2651 -0.4920
 8379SOL     OW36595   2.874   1.610  12.095 -0.0558  0.5025 -0.2127
 8379SOL    HW136596   2.855   1.521  12.064  1.3361 -0.0297  0.4527
 8379SOL    HW236597   2.958   1.596  12.138 -0.7938  0.4668  1.2329
 8380SOL     OW36598   1.534   2.691   9.861  0.1394 -0.0016 -0.1365
 8380SOL    HW136599   1.558   2.762   9.921 -1.2461  0.3441  0.0087
 8380SOL    HW236600   1.504   2.739   9.784 -2.4102 -1.0181  0.2254
 8381SOL     OW36601   3.931   1.077  15.253  0.1834 -0.2211  0.2200
 8381SOL    HW136602   3.919   0.991  15.294  2.1300 -0.3652  0.4780
 8381SOL    HW236603   4.021   1.075  15.220 -0.3380  0.0467 -1.2392
 8382SOL     OW36604   3.863   0.001   0.252 -0.0868 -0.2306  0.6125
 8382SOL    HW136605   3.803   0.075   0.238 -0.9988 -0.7418  1.8947
 8382SOL    HW236606   3.837   4.703   0.342 -0.5051  0.3689  0.6224
 8383SOL     OW36607   3.311   3.297  16.421  0.3373  0.3863 -0.0296
 8383SOL    HW136608   3.291   3.298  16.514 -0.9961  1.7147 -0.3275
 8383SOL    HW236609   3.220   3.293  16.393  0.5221  2.5315 -1.0133
 8384SOL     OW36610   3.812   2.202   7.864  0.3305  0.4308 -0.2363
 8384SOL    HW136611   3.796   2.292   7.894 -1.1287 -0.1540  0.7541
 8384SOL    HW236612   3.797   2.142   7.937  0.8996 -2.7336 -2.7058
 8385SOL     OW36613   0.671   1.411   7.091  0.2197  0.1174  0.3739
 8385SOL    HW136614   0.710   1.499   7.089  0.9329 -0.2178 -0.4802
 8385SOL    HW236615   0.582   1.446   7.102  0.4869  0.9369 -0.0748
 8386SOL     OW36616   0.547   3.159  17.664  0.0860 -0.2557 -0.1344
 8386SOL    HW136617   0.521   3.126  17.578 -3.4607  1.7716  0.1482
 8386SOL    HW236618   0.460   3.194  17.686 -0.3819 -1.0738 -0.6942
 8387SOL     OW36619   4.153   1.689   7.793 -0.1452  0.0095  0.2579
 8387SOL    HW136620   4.190   1.698   7.705  1.4569 -1.0605  0.8337
 8387SOL    HW236621   4.229   1.715   7.844 -0.3618  1.1863 -0.0126
 8388SOL     OW36622   4.664   0.908   5.192  1.0700 -0.2153 -0.0113
 8388SOL    HW136623   4.658   0.830   5.248  0.9611  1.4570  2.2930
 8388SOL    HW236624   4.569   0.920   5.184  0.9198  0.2382  2.4201
 8389SOL     OW36625   2.175   3.798   4.243 -0.6209  0.7646 -0.1140
 8389SOL    HW136626   2.120   3.852   4.300  0.8118  1.4456  0.6167
 8389SOL    HW236627   2.136   3.813   4.157 -0.8796  0.6817 -0.0107
 8390SOL     OW36628   0.356   0.617  17.639  0.2136  0.1441  0.8448
 8390SOL    HW136629   0.415   0.663   0.013  0.4285  0.1310  0.6442
 8390SOL    HW236630   0.408   0.630  17.559 -2.3364  1.2096 -0.6384
 8391SOL     OW36631   4.358   3.261   1.164  0.6197  0.1011 -0.2369
 8391SOL    HW136632   4.318   3.261   1.077  1.0133  0.0751 -0.4204
 8391SOL    HW236633   4.320   3.328   1.220 -0.6161 -0.2049 -0.7124
 8392SOL     OW36634   2.101   4.478  11.953 -0.2429 -0.0306  0.0197
 8392SOL    HW136635   2.130   4.449  11.867  1.5361  1.3702  0.1477
 8392SOL    HW236636   2.081   4.568  11.930  0.1468  0.5139  1.8031
 8393SOL     OW36637   3.625   2.211   8.714 -0.0490  0.4013  0.2102
 8393SOL    HW136638   3.701   2.268   8.725 -0.0075 -0.0575  2.3011
 8393SOL    HW236639   3.676   2.130   8.720 -0.1350  0.4756  1.9246
 8394SOL     OW36640   0.722   2.470  15.608  0.1956  0.3200  0.5861
 8394SOL    HW136641   0.694   2.551  15.649  0.5154 -0.0296  1.5062
 8394SOL    HW236642   0.805   2.497  15.568 -1.4520 -0.7630 -3.5117
 8395SOL     OW36643   1.479   3.726   4.350  0.1401 -0.6900 -0.0904
 8395SOL    HW136644   1.548   3.693   4.407  0.9945  3.3200  1.1857
 8395SOL    HW236645   1.471   3.660   4.281 -0.5374  1.1427 -1.7525
 8396SOL     OW36646   4.664   1.468   2.988 -0.0293  0.2354 -0.4061
 8396SOL    HW136647   4.576   1.501   3.009  0.5675  1.2957  0.4399
 8396SOL    HW236648   4.712   1.545   2.957  0.6599 -0.0740 -0.1078
 8397SOL     OW36649   1.041   0.115  16.382  0.3702  0.1832 -0.2378
 8397SOL    HW136650   0.988   0.158  16.315  1.9204 -1.5272 -2.5222
 8397SOL    HW236651   1.124   0.091  16.342 -0.1728 -1.8042 -0.1601
 8398SOL     OW36652   2.709   0.560  12.585  0.7155  0.4191  0.2804
 8398SOL    HW136653   2.640   0.626  12.583  1.5749  1.3057 -0.0790
 8398SOL    HW236654   2.655   0.484  12.562 -1.0066  0.9506  2.6062
 8399SOL     OW36655   2.840   2.442  11.664  0.6350 -0.1199 -0.0851
 8399SOL    HW136656   2.874   2.526  11.696  0.6826 -0.0225 -0.3921
 8399SOL    HW236657   2.765   2.476  11.615  1.2398  0.9680 -0.2606
 8400SOL     OW36658   1.998   3.549  12.304 -0.3591  0.9641 -0.8144
 8400SOL    HW136659   1.948   3.584  12.378  0.0125  2.3019 -1.1933
 8400SOL    HW236660   1.963   3.461  12.293  0.2486  0.8164 -1.5128
 8401SOL     OW36661   3.368   4.074  12.965 -0.3746 -0.4683 -0.4692
 8401SOL    HW136662   3.293   4.100  13.018  1.5775  2.6744  0.7517
 8401SOL    HW236663   3.425   4.043  13.035  1.1068  0.2522 -1.3645
 8402SOL     OW36664   1.612   3.894   5.882  0.7924  0.4551 -0.3518
 8402SOL    HW136665   1.548   3.906   5.951 -2.6843 -1.8333 -3.1948
 8402SOL    HW236666   1.675   3.962   5.906  1.1835  0.3097 -0.9471
 8403SOL     OW36667   0.079   1.147   1.450 -0.0387  0.6831  0.0295
 8403SOL    HW136668   0.061   1.091   1.374  1.5615 -1.5443  1.2823
 8403SOL    HW236669   0.102   1.231   1.410 -1.0542  0.9194 -0.0370
 8404SOL     OW36670   3.482   0.543   6.402  0.6486  0.1136  0.1414
 8404SOL    HW136671   3.540   0.604   6.355 -0.5584  0.1766 -1.2707
 8404SOL    HW236672   3.417   0.609   6.427 -0.5950 -1.2445  0.4785
 8405SOL     OW36673   3.389   0.038   7.557 -0.2339 -0.7479  0.5985
 8405SOL    HW136674   3.383   4.720   7.469 -0.0796  0.9774 -0.1804
 8405SOL    HW236675   3.337   0.116   7.534  1.4918  0.1036 -0.4585
 8406SOL     OW36676   3.235   0.353   0.115 -0.3160  0.3165  0.1680
 8406SOL    HW136677   3.289   0.274   0.113  0.1769  0.6985 -1.4952
 8406SOL    HW236678   3.236   0.381   0.207  1.4446 -0.0195  0.2505
 8407SOL     OW36679   3.590   0.792   3.895 -0.5180  0.1513  0.0723
 8407SOL    HW136680   3.503   0.753   3.901 -0.6718  0.1249 -2.4158
 8407SOL    HW236681   3.596   0.851   3.819  4.3612 -0.8138 -0.2829
 8408SOL     OW36682   3.935   1.296  15.691 -0.0218  0.0110  0.1094
 8408SOL    HW136683   4.005   1.240  15.656  0.0678  1.1247 -1.4911
 8408SOL    HW236684   3.922   1.351  15.614 -1.0613 -1.0069 -0.4367
 8409SOL     OW36685   2.955   3.362   2.487  0.3198 -0.0141  0.4687
 8409SOL    HW136686   2.924   3.338   2.574  2.2279  0.3226  1.2477
 8409SOL    HW236687   2.964   3.277   2.443 -0.3821 -1.2781  2.7791
 8410SOL     OW36688   1.931   1.010   2.314 -0.3896  0.3203  0.2343
 8410SOL    HW136689   1.906   0.922   2.289  1.6649 -0.1070 -0.3853
 8410SOL    HW236690   1.968   1.041   2.231 -1.5231  0.0201 -0.3827
 8411SOL     OW36691   3.198   4.657   6.827 -0.0847 -0.1724  0.1670
 8411SOL    HW136692   3.252   4.693   6.757 -1.5722  0.1975 -0.7811
 8411SOL    HW236693   3.134   0.008   6.827 -0.2022 -0.2762  0.6669
 8412SOL     OW36694   3.826   2.422   8.913  0.6529 -0.5057 -0.0932
 8412SOL    HW136695   3.903   2.368   8.934 -0.6686 -1.9868  0.9356
 8412SOL    HW236696   3.847   2.439   8.821  0.9825 -0.8264 -0.0791
 8413SOL     OW36697   1.571   3.695   0.932 -0.3071 -0.1521  0.3698
 8413SOL    HW136698   1.631   3.769   0.939  1.0485 -1.2088 -0.1111
 8413SOL    HW236699   1.556   3.675   1.024 -1.2716  1.8292  0.6396
 8414SOL     OW36700   2.807   2.498   7.561  0.1408  0.4285  0.0585
 8414SOL    HW136701   2.832   2.422   7.613  1.8681  2.0368  1.5667
 8414SOL    HW236702   2.881   2.490   7.500  0.5356  3.5501  0.1546
 8415SOL     OW36703   1.160   1.998   4.925 -0.2736  0.1225 -0.0464
 8415SOL    HW136704   1.097   2.053   4.971  0.6206  0.6275  0.5706
 8415SOL    HW236705   1.119   1.994   4.839 -1.1161 -1.6262  0.4444
 8416SOL     OW36706   3.195   1.525  16.383 -0.0382  0.3444  0.0952
 8416SOL    HW136707   3.278   1.520  16.336  0.5799 -2.2949  1.4935
 8416SOL    HW236708   3.159   1.438  16.368  0.2042  0.1931  0.3879
 8417SOL     OW36709   0.340   0.903   3.307  0.3436 -1.0267  0.2817
 8417SOL    HW136710   0.266   0.900   3.246  0.6095  0.8079 -0.1314
 8417SOL    HW236711   0.379   0.822   3.274 -0.8050 -0.5461 -2.2345
 8418SOL     OW36712   0.313   4.424   3.286 -0.2402 -0.5441  0.0566
 8418SOL    HW136713   0.292   4.517   3.288  1.1962 -0.2028 -0.5980
 8418SOL    HW236714   0.378   4.420   3.357  0.0043 -2.0882 -0.2552
 8419SOL     OW36715   1.121   2.501   7.029  0.6556 -0.0650  0.2221
 8419SOL    HW136716   1.046   2.540   6.983  0.6693  0.9193  1.0287
 8419SOL    HW236717   1.181   2.569   6.999 -0.5403  1.3286  0.9550
 8420SOL     OW36718   1.062   2.640  13.938 -0.6734 -0.5205  0.7072
 8420SOL    HW136719   1.066   2.624  14.032 -2.0023  1.0794  1.0467
 8420SOL    HW236720   1.113   2.721  13.941  2.2995 -2.3761  0.4080
 8421SOL     OW36721   0.172   2.920  11.828 -0.5858  0.0007 -0.4161
 8421SOL    HW136722   0.141   2.927  11.738 -1.0623  1.7178 -0.1180
 8421SOL    HW236723   0.261   2.954  11.830 -2.0997  3.9597 -2.6028
 8422SOL     OW36724   0.447   1.760  12.812 -0.1032 -0.0607  0.1087
 8422SOL    HW136725   0.352   1.760  12.829 -0.2247  0.1765 -0.5719
 8422SOL    HW236726   0.470   1.838  12.762  0.1151 -0.9950 -1.2446
 8423SOL     OW36727   1.141   1.430   0.509 -0.0755  0.8810 -0.4630
 8423SOL    HW136728   1.065   1.473   0.548  0.6937  1.0643  0.8432
 8423SOL    HW236729   1.095   1.371   0.449 -1.2932  0.1472  1.1755
 8424SOL     OW36730   1.928   0.536  13.844  0.4893 -0.0177  0.0512
 8424SOL    HW136731   1.895   0.615  13.886 -0.7386 -1.2679  1.4183
 8424SOL    HW236732   1.994   0.571  13.784  2.0555  0.9885  2.3548
 8425SOL     OW36733   2.268   1.932   6.328  0.3026 -0.3245  0.0615
 8425SOL    HW136734   2.279   1.843   6.361  0.0939 -0.0758  0.8059
 8425SOL    HW236735   2.295   1.916   6.238  2.1893  2.0541  0.1845
 8426SOL     OW36736   0.886   3.540  17.310 -0.2686  0.1316  0.0171
 8426SOL    HW136737   0.886   3.505  17.221 -0.8212  1.5592 -0.5464
 8426SOL    HW236738   0.799   3.505  17.331 -1.0289  1.4907 -0.8347
 8427SOL     OW36739   3.018   4.397   4.596 -0.1054  0.5076  0.7052
 8427SOL    HW136740   2.971   4.474   4.628 -0.0453 -0.4594  3.1639
 8427SOL    HW236741   3.098   4.402   4.648  0.2461 -3.8594  0.5698
 8428SOL     OW36742   4.618   2.522   4.143 -0.3661 -0.4946  0.4811
 8428SOL    HW136743   4.606   2.431   4.116 -1.8129 -0.3278  0.5391
 8428SOL    HW236744   4.713   2.532   4.148 -0.1685 -2.0111 -0.2264
 8429SOL     OW36745   2.413   0.277   4.363 -0.2454 -0.1226 -0.1168
 8429SOL    HW136746   2.486   0.237   4.409 -0.6269  1.6686  2.0243
 8429SOL    HW236747   2.401   0.359   4.411  0.2044 -0.7533  1.0487
 8430SOL     OW36748   4.646   3.803   6.148 -0.6589 -1.1019 -0.2063
 8430SOL    HW136749   4.639   3.714   6.183  0.6229 -1.6938 -1.4378
 8430SOL    HW236750   4.717   3.842   6.199  0.2942  0.9490 -3.0891
 8431SOL     OW36751   2.269   2.802   2.790 -0.1973  0.0919  0.7167
 8431SOL    HW136752   2.215   2.851   2.727 -0.0827 -1.1912 -0.3934
 8431SOL    HW236753   2.316   2.872   2.834  3.0541 -1.9059  0.4088
 8432SOL     OW36754   3.221   3.387  14.512 -0.1751 -0.0435 -0.7434
 8432SOL    HW136755   3.262   3.442  14.445  1.2842  1.1564  1.1359
 8432SOL    HW236756   3.279   3.312  14.505 -0.0507  0.3165 -3.4830
 8433SOL     OW36757   0.301   4.151   6.237 -0.4472 -0.4021 -0.3316
 8433SOL    HW136758   0.269   4.213   6.171 -1.5759 -0.3893  0.2301
 8433SOL    HW236759   0.227   4.093   6.253 -0.5286 -0.7737 -2.0832
 8434SOL     OW36760   4.518   1.563   7.075  0.1432 -0.2582  0.0535
 8434SOL    HW136761   4.550   1.552   7.165 -0.8494  1.1256  0.5746
 8434SOL    HW236762   4.531   1.474   7.044  0.7818  0.2738 -1.2059
 8435SOL     OW36763   3.978   1.090  10.140 -0.6493  0.4418 -0.0120
 8435SOL    HW136764   3.994   1.065  10.231 -1.6720 -1.2749 -0.3131
 8435SOL    HW236765   4.012   1.008  10.105 -1.8865  0.5363 -1.4518
 8436SOL     OW36766   2.341   0.740   2.690  0.2393  0.1861  0.2814
 8436SOL    HW136767   2.265   0.685   2.708  0.0704  0.0233 -0.9769
 8436SOL    HW236768   2.342   0.722   2.596 -1.4412  2.4110 -0.1738
 8437SOL     OW36769   3.896   1.813   4.801  0.1767  0.2335  0.3242
 8437SOL    HW136770   3.817   1.833   4.850  0.2194  1.6380 -0.1495
 8437SOL    HW236771   3.842   1.765   4.738  1.5535 -1.1883  0.2179
 8438SOL     OW36772   2.394   4.440   3.913  0.5406  0.1667 -0.0200
 8438SOL    HW136773   2.344   4.390   3.849  1.0927 -1.9806  1.2022
 8438SOL    HW236774   2.333   4.478   3.976 -0.3082  1.0271 -1.3814
 8439SOL     OW36775   1.413   3.346   7.489  0.0096  0.4586 -0.3837
 8439SOL    HW136776   1.492   3.380   7.532 -0.3968  1.8560 -0.7486
 8439SOL    HW236777   1.424   3.396   7.408  1.6645  1.8901  0.7182
 8440SOL     OW36778   2.196   3.650   2.782  0.6934  0.4566  0.3082
 8440SOL    HW136779   2.163   3.570   2.824  1.1331  0.6501  1.0179
 8440SOL    HW236780   2.156   3.640   2.695 -0.2182  3.7978  0.3560
 8441SOL     OW36781   0.648   1.343  13.244  0.5906  0.9441  0.0574
 8441SOL    HW136782   0.704   1.334  13.167  1.1833 -0.2782  0.6175
 8441SOL    HW236783   0.565   1.384  13.222 -0.4914 -0.9917  0.5137
 8442SOL     OW36784   3.838   1.419   6.365 -0.3322 -0.3371 -0.0095
 8442SOL    HW136785   3.788   1.487   6.410  1.8833  1.0948  0.3144
 8442SOL    HW236786   3.896   1.382   6.432  1.7063 -1.0796 -2.1980
 8443SOL     OW36787   3.505   1.818   2.373 -0.2907  0.0266 -0.6485
 8443SOL    HW136788   3.542   1.906   2.373  0.0672 -0.1226 -0.8339
 8443SOL    HW236789   3.512   1.787   2.464 -0.5321 -1.7696 -1.2396
 8444SOL     OW36790   2.578   1.986   7.260 -0.2784  0.0197 -0.4321
 8444SOL    HW136791   2.538   2.011   7.176 -2.7554  1.1676  1.0959
 8444SOL    HW236792   2.651   2.044   7.283 -0.0093 -0.1791 -0.7867
 8445SOL     OW36793   3.501   1.450  17.241 -0.3950 -0.0503  0.2081
 8445SOL    HW136794   3.594   1.448  17.217 -0.6052  0.6226 -0.6666
 8445SOL    HW236795   3.481   1.388  17.171  1.1952  0.5245 -0.7829
 8446SOL     OW36796   0.252   2.505  16.963  0.2516  0.3061  0.4369
 8446SOL    HW136797   0.166   2.518  16.924  0.2979  1.5347  0.7488
 8446SOL    HW236798   0.306   2.512  16.885 -0.9079  1.9308 -0.2335
 8447SOL     OW36799   2.447   3.379   6.983  0.6174  0.3028  0.5107
 8447SOL    HW136800   2.408   3.305   6.935  0.7691 -0.9991  2.3898
 8447SOL    HW236801   2.507   3.404   6.913 -0.0226 -1.8693 -0.8295
 8448SOL     OW36802   3.120   3.314   1.865 -0.6861  0.4728  0.1957
 8448SOL    HW136803   3.045   3.266   1.899  0.5917 -0.0008  2.2901
 8448SOL    HW236804   3.077   3.397   1.885  0.9071  0.9288  1.6817
 8449SOL     OW36805   4.704   0.105   9.300  0.2220  0.0842  0.0591
 8449SOL    HW136806   0.042   0.052   9.246 -0.9571 -0.7544 -0.4148
 8449SOL    HW236807   0.004   0.064   9.384 -0.9116  1.5701  1.0494
 8450SOL     OW36808   1.414   3.359   9.032  0.5581 -0.5214 -0.3147
 8450SOL    HW136809   1.377   3.305   9.102 -1.8419 -0.3480 -1.4280
 8450SOL    HW236810   1.435   3.445   9.069  0.5316 -0.2923 -0.8312
 8451SOL     OW36811   2.340   1.362   5.071 -0.9059  0.3900 -0.1609
 8451SOL    HW136812   2.260   1.360   5.124 -0.6955 -0.7936  0.0957
 8451SOL    HW236813   2.307   1.428   5.009  1.9713 -0.2442 -2.3611
 8452SOL     OW36814   1.607   3.118   0.454 -0.0288  0.3896  0.0445
 8452SOL    HW136815   1.666   3.178   0.500  0.5144 -0.5663  0.5796
 8452SOL    HW236816   1.588   3.159   0.369  1.5191  2.3671  0.6269
 8453SOL     OW36817   2.502   4.459  13.980 -0.3289  0.3019 -0.1482
 8453SOL    HW136818   2.516   4.490  13.890 -3.8641 -0.4281 -0.9489
 8453SOL    HW236819   2.502   4.542  14.027 -1.3682  0.7834 -1.0004
 8454SOL     OW36820   2.313   4.235   5.328  0.1614 -0.1108 -0.6751
 8454SOL    HW136821   2.398   4.272   5.304  0.1401  0.2108 -0.2393
 8454SOL    HW236822   2.307   4.175   5.253  1.6980 -0.3640 -0.6127
 8455SOL     OW36823   1.596   1.250  13.094 -0.5434  0.3201 -0.1547
 8455SOL    HW136824   1.518   1.304  13.109 -0.1780  2.0548 -4.2198
 8455SOL    HW236825   1.555   1.200  13.023 -0.9805 -0.3433  0.5707
 8456SOL     OW36826   2.291   1.286   8.231 -0.5401 -0.3094 -0.2427
 8456SOL    HW136827   2.338   1.213   8.271 -0.3097  0.0438  0.1301
 8456SOL    HW236828   2.354   1.311   8.163  1.3937 -1.0614  1.2637
 8457SOL     OW36829   1.341   1.606   0.816  0.0896 -0.3073  0.3334
 8457SOL    HW136830   1.276   1.629   0.750 -0.1098  0.1532  0.6847
 8457SOL    HW236831   1.313   1.650   0.896 -1.0307 -2.8047  1.3429
 8458SOL     OW36832   2.243   3.506   8.439  0.0147  0.2340  0.3503
 8458SOL    HW136833   2.290   3.425   8.421 -1.0122 -0.0800 -0.9263
 8458SOL    HW236834   2.152   3.477   8.427 -0.1823  1.5785 -1.3182
 8459SOL     OW36835   0.642   3.334   2.331  0.4581  0.1558 -0.5319
 8459SOL    HW136836   0.555   3.366   2.307  0.6452  1.4359  0.5243
 8459SOL    HW236837   0.684   3.353   2.247  3.2960  1.0214  1.0774
 8460SOL     OW36838   2.820   2.425   9.873 -0.0993  0.7600 -0.2861
 8460SOL    HW136839   2.816   2.516   9.902  0.7887  0.8617 -0.4654
 8460SOL    HW236840   2.854   2.389   9.955  1.9234 -0.5125 -1.6773
 8461SOL     OW36841   0.877   0.314   6.337  0.5744  0.0115 -0.1903
 8461SOL    HW136842   0.901   0.229   6.300 -3.2818 -1.4056  0.5983
 8461SOL    HW236843   0.879   0.294   6.431  1.0099 -0.9562 -0.4032
 8462SOL     OW36844   2.252   4.704  10.088 -0.5192 -0.0397  0.0555
 8462SOL    HW136845   2.261   0.044  10.015 -0.2636 -0.9478 -0.6647
 8462SOL    HW236846   2.242   4.622  10.040  0.3710 -1.0817  1.6428
 8463SOL     OW36847   1.164   1.862   4.401  0.0967 -0.1859  0.0717
 8463SOL    HW136848   1.072   1.835   4.409  0.5316 -1.9311 -0.8541
 8463SOL    HW236849   1.204   1.775   4.410  0.8842  0.1004 -0.7022
 8464SOL     OW36850   2.588   3.061   1.251 -0.1282 -0.0722 -0.1146
 8464SOL    HW136851   2.602   3.047   1.157  2.4668  0.7693  0.1575
 8464SOL    HW236852   2.664   3.019   1.291 -0.4701  2.0876  2.7708
 8465SOL     OW36853   4.272   3.309   7.866 -0.7283  0.3775  0.3552
 8465SOL    HW136854   4.287   3.255   7.788  0.7913  0.2128  0.7659
 8465SOL    HW236855   4.325   3.388   7.855 -0.7802  0.3859  0.1480
 8466SOL     OW36856   0.745   2.254   6.442  0.1312  0.3007 -0.2354
 8466SOL    HW136857   0.706   2.185   6.496  2.1649  0.6218  1.6224
 8466SOL    HW236858   0.698   2.249   6.358  1.5555  1.3890 -1.0887
 8467SOL     OW36859   2.176   2.185   8.524 -0.0720 -0.3941 -0.0122
 8467SOL    HW136860   2.235   2.118   8.559 -1.6010 -0.5253  2.2725
 8467SOL    HW236861   2.128   2.125   8.467 -0.2304 -2.4136  2.2621
 8468SOL     OW36862   3.822   3.095   1.559  0.7375 -0.0436  0.3951
 8468SOL    HW136863   3.786   3.118   1.473 -2.3176  0.4763  1.8190
 8468SOL    HW236864   3.755   3.131   1.616  0.8200  2.0956 -0.8777
 8469SOL     OW36865   1.459   1.894  15.810  0.8011 -0.2249 -0.0298
 8469SOL    HW136866   1.412   1.871  15.730 -1.2499  0.9160  0.8417
 8469SOL    HW236867   1.536   1.838  15.813  2.1709  1.6747  0.3088
 8470SOL     OW36868   2.355   0.437  16.674 -0.3024  0.2018 -0.2948
 8470SOL    HW136869   2.410   0.381  16.619 -1.3786 -0.5681 -0.5775
 8470SOL    HW236870   2.274   0.391  16.652 -0.7606  0.6303  0.4971
 8471SOL     OW36871   4.119   3.407   5.836 -0.1122 -0.5789 -0.3112
 8471SOL    HW136872   4.070   3.474   5.788 -0.0655 -0.5270 -0.2857
 8471SOL    HW236873   4.185   3.465   5.874 -1.3815 -0.2153  1.3686
 8472SOL     OW36874   1.589   3.176   0.194 -0.3392  0.4378 -0.2134
 8472SOL    HW136875   1.599   3.082   0.179 -0.6861  0.1798  1.1724
 8472SOL    HW236876   1.654   3.208   0.131 -1.1934  0.9684 -0.8374
 8473SOL     OW36877   0.769   2.201   1.526 -0.3353 -0.4789  0.8666
 8473SOL    HW136878   0.853   2.176   1.566  1.1976  1.7606 -0.9346
 8473SOL    HW236879   0.731   2.253   1.597  0.2496 -0.4360  1.1486
 8474SOL     OW36880   3.728   3.372  11.229 -0.0947 -0.5147 -0.4233
 8474SOL    HW136881   3.809   3.402  11.269 -0.8728  1.5537 -0.4004
 8474SOL    HW236882   3.718   3.436  11.158 -1.2551  1.2501  1.3155
 8475SOL     OW36883   1.113   1.633   6.318 -0.2806  0.3646 -0.0847
 8475SOL    HW136884   1.176   1.566   6.293 -3.5010 -2.7724  0.2775
 8475SOL    HW236885   1.147   1.669   6.400  3.1900  0.0991 -1.4220
 8476SOL     OW36886   0.452   1.386   7.983  0.0942  0.0186 -0.0010
 8476SOL    HW136887   0.378   1.324   7.987  2.2074 -2.4914  0.1819
 8476SOL    HW236888   0.486   1.380   7.894 -0.7424  0.7301 -0.3708
 8477SOL     OW36889   2.861   1.201  13.029  0.0352 -0.2892  0.4730
 8477SOL    HW136890   2.886   1.109  13.016 -0.8313 -0.5199  0.4620
 8477SOL    HW236891   2.935   1.245  12.987 -1.7432  1.1437 -1.1302
 8478SOL     OW36892   3.590   1.649  13.692  0.0626  0.8295  0.3855
 8478SOL    HW136893   3.645   1.640  13.615  1.4354  1.0565  1.3357
 8478SOL    HW236894   3.626   1.580  13.749 -2.3536 -0.3470  0.5030
 8479SOL     OW36895   2.789   3.406   7.124  0.2042  0.5627 -0.1847
 8479SOL    HW136896   2.884   3.399   7.135  0.4107  0.3878 -2.0816
 8479SOL    HW236897   2.769   3.434   7.213 -0.2139 -4.2633  1.2500
 8480SOL     OW36898   1.912   1.000   1.662 -0.6448 -0.6118  0.6603
 8480SOL    HW136899   1.905   0.905   1.657  0.1785 -0.6779  0.7502
 8480SOL    HW236900   2.004   1.018   1.645 -0.8181 -1.3915 -1.0741
 8481SOL     OW36901   2.805   4.631   3.218 -0.0876 -0.3340  0.1803
 8481SOL    HW136902   2.839   4.666   3.136  1.9976  1.1874  1.7167
 8481SOL    HW236903   2.753   4.699   3.261 -0.2733  0.9778 -2.0668
 8482SOL     OW36904   3.301   2.725   2.849  0.3541  0.3053 -0.4632
 8482SOL    HW136905   3.287   2.809   2.805  1.1050 -0.9977 -3.1984
 8482SOL    HW236906   3.307   2.765   2.935 -1.9508 -0.2122 -0.0708
 8483SOL     OW36907   1.787   4.611   3.880 -0.0386 -0.1137 -0.0254
 8483SOL    HW136908   1.812   4.701   3.899  1.2187 -0.7388  1.2735
 8483SOL    HW236909   1.840   4.563   3.944 -0.0072 -1.1811 -0.8421
 8484SOL     OW36910   2.047   2.837  10.537 -0.7124 -0.1980  0.2358
 8484SOL    HW136911   2.059   2.929  10.512 -0.4580  0.1219  1.4920
 8484SOL    HW236912   2.086   2.847  10.624 -1.7195  1.3515  0.5274
 8485SOL     OW36913   4.354   4.424   0.479 -0.1760  0.4963 -0.2649
 8485SOL    HW136914   4.323   4.513   0.466 -1.0008  0.2316 -0.1064
 8485SOL    HW236915   4.380   4.394   0.392  1.1883  1.0312 -0.0464
 8486SOL     OW36916   3.071   3.341  11.754  0.1938  0.1445  0.2487
 8486SOL    HW136917   3.039   3.429  11.734  1.2494 -0.0903 -2.5038
 8486SOL    HW236918   3.009   3.330  11.826  0.4142 -0.8071  0.2997
 8487SOL     OW36919   3.150   1.930  15.156  0.5719 -0.4306 -0.3166
 8487SOL    HW136920   3.135   1.866  15.226  0.0119 -0.8031 -0.7757
 8487SOL    HW236921   3.113   1.882  15.082 -1.1174  3.2013 -1.8079
 8488SOL     OW36922   0.622   0.035   3.462  0.0934  0.2122 -0.1159
 8488SOL    HW136923   0.605   0.005   3.551  2.0096  0.3610  0.3088
 8488SOL    HW236924   0.717   0.048   3.465 -0.1695  2.2080  0.1144
 8489SOL     OW36925   0.104   1.655  14.252 -0.2329  0.1079  0.0450
 8489SOL    HW136926   0.155   1.629  14.175  1.5660  1.5182  0.7564
 8489SOL    HW236927   0.026   1.602  14.234  0.2833 -0.9722  0.9709
 8490SOL     OW36928   1.186   2.656   0.904  0.2828  0.1327  0.1530
 8490SOL    HW136929   1.247   2.623   0.970 -1.1853 -0.0709  1.4108
 8490SOL    HW236930   1.243   2.725   0.870  0.2872 -0.2397 -0.6004
 8491SOL     OW36931   2.124   0.209   7.711 -0.7616  0.0141 -0.6087
 8491SOL    HW136932   2.137   0.114   7.703  0.8790  0.0066  2.4755
 8491SOL    HW236933   2.211   0.235   7.680 -0.1202  0.3503  1.5151
 8492SOL     OW36934   1.924   0.272   0.586  0.4761  0.4486  0.2592
 8492SOL    HW136935   1.862   0.311   0.525  0.9183  0.6511 -0.0553
 8492SOL    HW236936   1.890   0.311   0.667  0.7782 -0.6307  0.9046
 8493SOL     OW36937   2.997   3.088   5.470 -0.1363 -0.2188 -0.0119
 8493SOL    HW136938   2.906   3.076   5.443 -0.2663  0.6328  0.0402
 8493SOL    HW236939   3.032   3.162   5.420 -1.1852  0.5620  0.4151
 8494SOL     OW36940   4.257   3.878   1.512  0.0659 -0.2667  0.1795
 8494SOL    HW136941   4.227   3.869   1.421  0.8957  1.4178 -0.2644
 8494SOL    HW236942   4.260   3.973   1.521 -3.6960 -0.0878 -0.5585
 8495SOL     OW36943   0.839   4.366   1.409 -0.2204 -0.0406 -0.2752
 8495SOL    HW136944   0.792   4.425   1.350 -1.7842 -1.4471 -0.4494
 8495SOL    HW236945   0.926   4.405   1.402 -0.3600  0.0625 -1.3843
 8496SOL     OW36946   3.646   4.082   5.960 -0.3216  0.0381  0.7227
 8496SOL    HW136947   3.580   4.147   5.983 -0.7419 -1.0585  2.6287
 8496SOL    HW236948   3.605   3.999   5.984  1.9466 -1.5660 -0.8939
 8497SOL     OW36949   0.929   4.407   3.852 -0.4641 -0.1184  0.6050
 8497SOL    HW136950   0.965   4.415   3.940  1.2757 -1.2292  0.0140
 8497SOL    HW236951   0.835   4.405   3.868 -0.8419 -0.0317 -1.5880
 8498SOL     OW36952   0.066   2.902   3.110 -0.0255 -0.1827 -0.1862
 8498SOL    HW136953   0.022   2.832   3.160 -0.9111  0.1257 -0.5266
 8498SOL    HW236954   0.111   2.937   3.187 -0.0157 -1.1123  0.2329
 8499SOL     OW36955   0.194   4.055  12.341  0.1995 -0.1542  0.2538
 8499SOL    HW136956   0.173   4.012  12.258 -0.9621 -0.8201  0.8979
 8499SOL    HW236957   0.283   4.085  12.320  0.3953 -2.3338 -2.0934
 8500SOL     OW36958   0.256   1.289   5.516 -0.3611  0.0721  0.0844
 8500SOL    HW136959   0.189   1.220   5.515 -0.2630 -0.0657  1.8936
 8500SOL    HW236960   0.229   1.334   5.437  1.5505  0.2934 -0.4267
 8501SOL     OW36961   2.146   1.050  13.223 -0.1690 -0.5814  0.8458
 8501SOL    HW136962   2.102   1.121  13.177 -2.6608 -2.8002 -0.2394
 8501SOL    HW236963   2.076   0.986  13.212 -0.3468  0.1577 -2.2863
 8502SOL     OW36964   2.775   4.028   4.491 -0.3175  0.2485 -0.1231
 8502SOL    HW136965   2.705   4.093   4.489 -0.3926  0.1417 -0.9783
 8502SOL    HW236966   2.833   4.059   4.561  0.4519 -1.6953  0.0960
 8503SOL     OW36967   1.680   2.880   9.082  0.1237 -0.2685 -0.3469
 8503SOL    HW136968   1.743   2.925   9.025 -0.6187 -1.1048 -1.8270
 8503SOL    HW236969   1.684   2.790   9.049 -0.3775 -0.4825  0.1854
 8504SOL     OW36970   3.886   4.191   6.241  0.0662 -0.0324 -0.2501
 8504SOL    HW136971   3.872   4.204   6.147 -0.4900  1.2474  0.0073
 8504SOL    HW236972   3.979   4.170   6.239  0.5883  2.0684  2.2124
 8505SOL     OW36973   1.236   4.669  16.558  0.4596 -0.6844  0.2593
 8505SOL    HW136974   1.257   0.007  16.485  0.5212 -1.2553 -0.1868
 8505SOL    HW236975   1.227   0.008  16.632  2.8431  1.7402 -1.3845
 8506SOL     OW36976   2.182   4.024   5.720  0.1238 -0.7228 -0.2317
 8506SOL    HW136977   2.250   4.050   5.658 -1.0849  0.4225 -1.0657
 8506SOL    HW236978   2.109   4.007   5.661 -0.4732  0.1966  0.2443
 8507SOL     OW36979   1.561   0.571   5.992 -0.4000 -0.1039  0.1087
 8507SOL    HW136980   1.632   0.605   6.047 -0.8295 -0.7383  1.0634
 8507SOL    HW236981   1.579   0.613   5.908  0.3627  1.3850  1.0275
 8508SOL     OW36982   1.899   4.652   7.917  0.2044 -0.1036  0.0462
 8508SOL    HW136983   1.906   0.016   7.962  0.5183 -1.0782  1.8341
 8508SOL    HW236984   1.809   4.639   7.885  0.0881  0.0017  0.3265
 8509SOL     OW36985   1.734   4.691   3.612 -0.2628  0.0561  0.2427
 8509SOL    HW136986   1.714   4.606   3.651 -1.4705 -0.3032 -1.1390
 8509SOL    HW236987   1.805   0.006   3.664 -1.9589  2.1368  1.1210
 8510SOL     OW36988   0.225   1.403   2.898  0.5510 -0.0917  0.0362
 8510SOL    HW136989   0.260   1.382   2.985  0.5323 -1.1479 -0.2175
 8510SOL    HW236990   0.144   1.353   2.895 -0.0551  0.9552 -1.1409
 8511SOL     OW36991   2.560   2.614   3.019  0.1311  0.2427  0.2788
 8511SOL    HW136992   2.473   2.575   3.009 -0.0009  0.3166  1.1549
 8511SOL    HW236993   2.566   2.667   2.940  2.1337  0.8292  0.8082
 8512SOL     OW36994   0.550   0.621  17.457  0.2567 -0.2902 -0.1816
 8512SOL    HW136995   0.582   0.547  17.404  0.9104  0.6517 -1.0865
 8512SOL    HW236996   0.633   0.652  17.494 -0.6091  0.7286  0.8934
 8513SOL     OW36997   0.692   3.619   4.570  0.4449 -0.1524 -0.4619
 8513SOL    HW136998   0.704   3.533   4.609 -1.1448 -0.1398  0.0742
 8513SOL    HW236999   0.661   3.592   4.483 -0.7090 -0.9840  0.2108
 8514SOL     OW37000   4.256   3.827   6.007  0.0064 -0.0898  0.5801
 8514SOL    HW137001   4.263   3.804   6.100  1.6003 -0.5771  0.3433
 8514SOL    HW237002   4.163   3.849   6.011 -0.5371 -2.0934 -1.5511
 8515SOL     OW37003   2.298   0.699   5.637  0.2586  0.0798 -0.1586
 8515SOL    HW137004   2.210   0.691   5.601 -0.6221  3.1369  1.3276
 8515SOL    HW237005   2.333   0.767   5.579  0.1648  1.5042  1.4525
 8516SOL     OW37006   1.363   3.014   9.513  0.2337 -0.0112 -0.3980
 8516SOL    HW137007   1.354   3.067   9.435  0.5171  0.4525 -0.1127
 8516SOL    HW237008   1.268   2.999   9.512 -0.0682  1.9396  0.2690
 8517SOL     OW37009   1.938   4.171   6.271 -0.0280  0.0915 -0.0816
 8517SOL    HW137010   1.912   4.262   6.259 -1.5058 -0.4797 -1.1251
 8517SOL    HW237011   2.013   4.169   6.211  1.4582  1.9298  1.6719
 8518SOL     OW37012   3.849   3.856   5.552  0.5924  0.6255 -0.1400
 8518SOL    HW137013   3.872   3.948   5.541  3.7761 -0.2016 -0.4733
 8518SOL    HW237014   3.920   3.811   5.506  0.3856 -0.4755  0.6287
 8519SOL     OW37015   3.384   4.562   5.279 -0.1931 -0.0146 -0.4527
 8519SOL    HW137016   3.327   4.485   5.272  2.0771 -1.8963  1.5538
 8519SOL    HW237017   3.450   4.539   5.213 -0.0030 -0.1688 -0.2081
 8520SOL     OW37018   0.252   2.716   7.909 -0.3467  0.5467  0.3184
 8520SOL    HW137019   0.238   2.634   7.958  0.4273 -1.2024 -2.4047
 8520SOL    HW237020   0.164   2.754   7.901 -1.2782 -2.1370 -2.5292
 8521SOL     OW37021   3.926   3.840   6.335  0.0388  0.2671 -0.5113
 8521SOL    HW137022   3.840   3.876   6.356 -0.0413  0.6025 -1.3883
 8521SOL    HW237023   3.984   3.890   6.392 -0.5032  2.3283 -1.7368
 8522SOL     OW37024   4.556   1.674  15.705  0.0554 -0.1833  0.3697
 8522SOL    HW137025   4.547   1.638  15.616  1.3977 -0.7795  0.4712
 8522SOL    HW237026   4.476   1.725  15.718  0.7738  0.5948  1.6408
 8523SOL     OW37027   4.626   1.622   7.686  0.1288 -0.1026 -0.3202
 8523SOL    HW137028   4.531   1.624   7.671  0.1963 -0.4106 -0.7980
 8523SOL    HW237029   4.623   1.622   7.781  0.9028 -0.7403 -0.2968
 8524SOL     OW37030   2.195   3.384  11.117  0.2025 -0.3724  0.1832
 8524SOL    HW137031   2.263   3.451  11.120  0.0978 -0.3747  2.3500
 8524SOL    HW237032   2.128   3.433  11.068  0.1577  0.0856  0.6969
 8525SOL     OW37033   0.872   4.247   6.472  0.1623  0.2202 -0.4622
 8525SOL    HW137034   0.799   4.212   6.524  0.5393 -0.3299 -0.3038
 8525SOL    HW237035   0.873   4.172   6.412 -0.0187 -0.5131  0.4641
 8526SOL     OW37036   2.681   0.387   0.243 -0.1689 -0.0277  0.1153
 8526SOL    HW137037   2.674   0.359   0.152  0.8668 -1.7959  0.5899
 8526SOL    HW237038   2.593   0.424   0.252  0.3549 -0.0595  5.2244
 8527SOL     OW37039   2.086   1.073   5.729 -0.3042  0.2547 -0.6942
 8527SOL    HW137040   2.140   1.117   5.795  1.7458  0.1465 -2.2817
 8527SOL    HW237041   2.125   1.105   5.648  2.1240  0.0308  0.3659
 8528SOL     OW37042   2.032   2.843   4.163 -0.1934  0.0014  0.0488
 8528SOL    HW137043   2.067   2.780   4.101  2.4280  0.4943  1.0306
 8528SOL    HW237044   2.008   2.917   4.107 -1.8088 -0.0785  0.6264
 8529SOL     OW37045   0.634   3.948   8.126  0.4548  0.3917 -0.4269
 8529SOL    HW137046   0.636   4.010   8.199  1.7958  1.0586 -1.0353
 8529SOL    HW237047   0.666   3.996   8.050  2.9857  1.4673  1.3099
 8530SOL     OW37048   3.033   2.916   1.868 -0.0369 -0.5938  0.0816
 8530SOL    HW137049   2.972   2.895   1.939 -1.4715  0.8713 -0.7380
 8530SOL    HW237050   3.030   2.835   1.817  0.8428 -1.5731  1.5663
 8531SOL     OW37051   1.571   4.239   7.910  0.0781  0.1805 -0.4323
 8531SOL    HW137052   1.482   4.207   7.923 -0.5540  1.1572 -2.4792
 8531SOL    HW237053   1.626   4.163   7.931 -0.2839 -0.3397 -1.4039
 8532SOL     OW37054   4.436   0.985  12.963  0.2830 -0.0067 -0.2138
 8532SOL    HW137055   4.513   1.016  13.010  0.1754  0.8099 -0.5698
 8532SOL    HW237056   4.452   0.891  12.967  1.4312  0.2224  0.6287
 8533SOL     OW37057   2.423   2.193   6.512 -1.2399 -0.7422  0.0638
 8533SOL    HW137058   2.421   2.101   6.541 -0.2933 -0.3763  1.3401
 8533SOL    HW237059   2.331   2.212   6.527 -0.4947  2.0121  1.1586
 8534SOL     OW37060   4.035   0.473   5.409 -0.1461 -0.2432  0.4790
 8534SOL    HW137061   4.033   0.488   5.314 -2.0494 -2.3293  0.1816
 8534SOL    HW237062   4.046   0.379   5.418 -0.3915 -0.4770 -1.5909
 8535SOL     OW37063   2.336   3.235   6.779  0.1359  0.0893  0.3521
 8535SOL    HW137064   2.268   3.186   6.825  2.2785 -2.5541  0.7328
 8535SOL    HW237065   2.337   3.176   6.703 -1.7214 -1.2640  1.3711
 8536SOL     OW37066   2.849   2.016   4.951 -0.1588 -0.3239  0.1669
 8536SOL    HW137067   2.921   1.959   4.978 -1.8199 -2.5694 -0.1309
 8536SOL    HW237068   2.767   1.975   4.980 -1.2145  0.6865 -1.4316
 8537SOL     OW37069   0.430   0.773   8.139 -0.0625  0.1049 -0.1299
 8537SOL    HW137070   0.411   0.680   8.146 -1.8553  0.4489 -0.4449
 8537SOL    HW237071   0.341   0.808   8.133 -0.2910 -0.5119 -0.3137
 8538SOL     OW37072   2.762   2.933   6.639  0.3295  0.0252 -0.1393
 8538SOL    HW137073   2.847   2.902   6.670  0.6765  0.8377 -0.2828
 8538SOL    HW237074   2.778   2.935   6.545 -1.6872 -0.7621 -0.5091
 8539SOL     OW37075   1.442   2.824   4.914  0.1362 -0.3996 -0.6153
 8539SOL    HW137076   1.484   2.907   4.933 -0.9634  0.0997 -0.3466
 8539SOL    HW237077   1.490   2.781   4.843  3.0669  0.2477  1.0275
 8540SOL     OW37078   0.450   1.126  13.124 -0.1896 -0.4776  0.6412
 8540SOL    HW137079   0.511   1.054  13.110 -1.3750 -1.0469 -1.5721
 8540SOL    HW237080   0.495   1.199  13.080 -2.1511  0.6299  0.4506
 8541SOL     OW37081   1.859   3.571   6.572  0.4805  0.5219  0.2746
 8541SOL    HW137082   1.822   3.482   6.577  3.4647 -0.7903 -0.8292
 8541SOL    HW237083   1.936   3.559   6.517  0.0775  1.9870 -0.5790
 8542SOL     OW37084   1.434   0.306   9.135  0.2126 -0.2029 -0.1307
 8542SOL    HW137085   1.524   0.324   9.162 -0.4031  0.4618  1.4359
 8542SOL    HW237086   1.380   0.368   9.184 -0.5530  0.2191 -1.5068
 8543SOL     OW37087   1.242   4.337   6.208  0.1616  0.1392 -0.0856
 8543SOL    HW137088   1.311   4.274   6.189 -1.2436 -1.1214 -1.0210
 8543SOL    HW237089   1.277   4.360   6.295 -0.5690 -1.9791  0.7700
 8544SOL     OW37090   4.048   2.677   9.467  0.2270  0.1423  0.2515
 8544SOL    HW137091   4.064   2.735   9.392 -1.9959  0.8397  0.3107
 8544SOL    HW237092   3.973   2.627   9.433  0.0995 -1.0624  2.3317
 8545SOL     OW37093   0.616   0.820  11.912  0.6098 -0.4928  0.2731
 8545SOL    HW137094   0.688   0.795  11.855  1.5428 -0.1026  1.2751
 8545SOL    HW237095   0.587   0.739  11.953  0.1855 -0.2958  0.3628
 8546SOL     OW37096   1.754   4.335  15.330  0.2246  0.2951  0.0286
 8546SOL    HW137097   1.792   4.397  15.392  1.4490  0.4355 -0.8517
 8546SOL    HW237098   1.810   4.353  15.254 -0.5235 -0.1041 -0.6125
 8547SOL     OW37099   3.893   4.643   7.875  0.1309  0.1227  0.4091
 8547SOL    HW137100   3.914   4.594   7.796 -0.3817 -0.2351  0.4981
 8547SOL    HW237101   3.877   4.566   7.929  0.9618 -0.2529  0.1119
 8548SOL     OW37102   2.785   0.006  11.712 -0.6774  0.1806  0.4410
 8548SOL    HW137103   2.833   0.043  11.638  0.9577 -2.5038  0.1644
 8548SOL    HW237104   2.719   4.675  11.666 -2.0323  0.2971  2.2394
 8549SOL     OW37105   2.437   1.922   8.920 -0.3181  0.5282  0.2141
 8549SOL    HW137106   2.343   1.905   8.929 -0.3999  1.1596  0.5508
 8549SOL    HW237107   2.444   2.016   8.938  1.5909  0.4371 -0.0170
 8550SOL     OW37108   0.911   1.892   1.777 -0.8264  0.1650 -0.7280
 8550SOL    HW137109   0.936   1.979   1.748  0.8926 -0.4973 -1.2308
 8550SOL    HW237110   0.918   1.840   1.697  0.1528 -0.0719 -0.4826
 8551SOL     OW37111   2.213   0.437   0.340  0.0905  0.0370  0.3317
 8551SOL    HW137112   2.130   0.478   0.366  0.2532  0.0961  0.7652
 8551SOL    HW237113   2.189   0.390   0.260  0.5566 -2.2858  1.5515
 8552SOL     OW37114   4.647   0.407   1.153  0.7813  0.6207  0.0829
 8552SOL    HW137115   4.644   0.352   1.232 -3.2682  1.1743  0.3073
 8552SOL    HW237116   4.583   0.476   1.174  1.2062  1.3926 -1.2269
 8553SOL     OW37117   2.633   2.296  12.939 -0.0558 -0.2251 -0.3947
 8553SOL    HW137118   2.559   2.242  12.967  1.1025 -1.0681  1.0582
 8553SOL    HW237119   2.682   2.323  13.017  0.2368 -1.3969 -0.1726
 8554SOL     OW37120   4.047   2.589  16.192  0.0558 -0.2430 -0.6220
 8554SOL    HW137121   4.075   2.498  16.180 -1.2088 -0.7823  0.4683
 8554SOL    HW237122   4.099   2.608  16.270 -1.9582  2.1347  0.1356
 8555SOL     OW37123   3.290   4.373  17.319 -0.1160 -0.2991 -0.5831
 8555SOL    HW137124   3.358   4.437  17.339  1.8903 -2.4247 -0.5454
 8555SOL    HW237125   3.214   4.429  17.305  0.0959  0.4805  1.4253
 8556SOL     OW37126   4.302   3.447   7.482 -0.1375  0.0069  0.4043
 8556SOL    HW137127   4.321   3.487   7.567 -1.3952  2.5012 -0.4882
 8556SOL    HW237128   4.261   3.364   7.507  0.2259 -0.0752  0.7383
 8557SOL     OW37129   2.521   3.564   3.037  0.3126 -0.3443 -0.5424
 8557SOL    HW137130   2.510   3.505   2.963  0.2405 -0.9497 -0.0446
 8557SOL    HW237131   2.585   3.509   3.082 -0.6983 -0.2649  0.9820
 8558SOL     OW37132   2.970   2.227  17.183  0.1490  0.1456  0.0815
 8558SOL    HW137133   3.061   2.254  17.167 -0.4027  2.8241  1.4948
 8558SOL    HW237134   2.963   2.244  17.276  0.0570  0.2872  0.0481
 8559SOL     OW37135   2.442   2.708   8.966  0.3318 -0.4711 -0.3639
 8559SOL    HW137136   2.380   2.779   8.982  0.8507  0.3446 -1.9926
 8559SOL    HW237137   2.465   2.733   8.876  0.8735 -0.5541 -0.2514
 8560SOL     OW37138   1.210   4.404  10.038 -0.5937 -0.7841 -0.0322
 8560SOL    HW137139   1.216   4.309  10.023  0.5048 -0.8290  0.6650
 8560SOL    HW237140   1.133   4.431   9.988 -0.2331  0.9604  0.3562
 8561SOL     OW37141   3.062   3.950  10.956  0.0498  0.4065 -0.5453
 8561SOL    HW137142   3.121   3.944  10.881  1.2199 -0.9523  0.4953
 8561SOL    HW237143   3.115   4.001  11.016 -2.9728  0.9148  1.7039
 8562SOL     OW37144   4.482   2.625  16.888 -0.0925 -0.2541 -0.8222
 8562SOL    HW137145   4.443   2.630  16.801  0.3579 -0.2761 -1.0295
 8562SOL    HW237146   4.419   2.679  16.937  0.1708 -0.5245 -0.1832
 8563SOL     OW37147   3.056   3.452   6.532 -0.2460 -0.1367  0.0153
 8563SOL    HW137148   3.149   3.474   6.535 -0.9377  2.5153  1.8017
 8563SOL    HW237149   3.027   3.524   6.476  1.2533  1.1281  0.8953
 8564SOL     OW37150   4.361   4.395   7.193 -0.7602 -0.4057 -0.4375
 8564SOL    HW137151   4.349   4.318   7.248  0.1738  0.3399  0.7839
 8564SOL    HW237152   4.452   4.372   7.178 -0.1366  1.2646  0.8336
 8565SOL     OW37153   2.252   4.146  10.797 -0.6021 -0.2543  0.3422
 8565SOL    HW137154   2.220   4.213  10.857  1.5147  0.4263  0.7099
 8565SOL    HW237155   2.203   4.073  10.836 -1.4585 -0.0351 -0.3317
 8566SOL     OW37156   4.191   2.110   4.565 -0.6242  0.5676 -0.6501
 8566SOL    HW137157   4.273   2.148   4.596 -0.5234 -0.9008  0.8986
 8566SOL    HW237158   4.211   2.064   4.483  1.9422 -0.7519  0.7368
 8567SOL     OW37159   0.693   3.171   6.616  0.1614  0.3431  0.1444
 8567SOL    HW137160   0.696   3.196   6.708  1.5555  0.8924 -0.0494
 8567SOL    HW237161   0.784   3.190   6.591 -0.4412  0.0189 -2.3722
 8568SOL     OW37162   2.873   1.912  14.538  0.3482  0.0639 -0.5225
 8568SOL    HW137163   2.936   1.840  14.531 -1.2562 -1.1212 -2.6831
 8568SOL    HW237164   2.810   1.878  14.602  1.0545 -1.5754 -0.6991
 8569SOL     OW37165   2.728   0.802   3.302 -0.4984  0.0912  0.2487
 8569SOL    HW137166   2.635   0.783   3.286 -0.8768  2.2982 -0.0664
 8569SOL    HW237167   2.761   0.820   3.214 -1.0860  0.8245  0.1860
 8570SOL     OW37168   3.040   3.950   6.638  0.3016 -0.4256 -0.2296
 8570SOL    HW137169   2.970   3.980   6.580  1.8456 -1.3923 -2.6092
 8570SOL    HW237170   3.111   3.988   6.588 -0.0476  0.4563 -0.0512
 8571SOL     OW37171   4.382   3.056  11.952  0.5046  0.0775  0.2216
 8571SOL    HW137172   4.359   3.048  11.859  4.4665  0.8364 -0.8028
 8571SOL    HW237173   4.292   3.049  11.985 -0.1236 -3.0662 -2.1867
 8572SOL     OW37174   0.227   4.650  10.947  0.1774  0.1469  0.2620
 8572SOL    HW137175   0.272   4.571  10.918 -0.6920 -0.5612  0.8239
 8572SOL    HW237176   0.143   4.613  10.975  0.9888 -1.1775  0.9775
 8573SOL     OW37177   3.280   2.250   1.833 -0.3839 -0.4314 -0.2341
 8573SOL    HW137178   3.339   2.205   1.773  0.4888  0.4646 -0.0468
 8573SOL    HW237179   3.312   2.208   1.913  1.4903  1.3316 -0.0472
 8574SOL     OW37180   3.758   1.663  15.315 -0.0237  0.4184  0.3903
 8574SOL    HW137181   3.746   1.683  15.222  0.0388  0.9324  0.4940
 8574SOL    HW237182   3.816   1.734  15.343  1.2961 -0.0823 -1.0743
 8575SOL     OW37183   3.871   3.767   2.915 -0.6970  0.1328 -0.6732
 8575SOL    HW137184   3.779   3.747   2.899 -1.5366  1.0034  3.0645
 8575SOL    HW237185   3.913   3.763   2.829  0.8827  0.4195  0.0752
 8576SOL     OW37186   1.739   2.155   8.411 -0.3552 -0.3413  0.0908
 8576SOL    HW137187   1.794   2.226   8.442  0.8326 -0.7464 -1.0828
 8576SOL    HW237188   1.682   2.144   8.487 -0.2348 -0.2847  0.1880
 8577SOL     OW37189   0.222   2.350   4.553 -0.3419  0.4377 -0.2846
 8577SOL    HW137190   0.221   2.255   4.565 -1.1469  0.6244  1.1368
 8577SOL    HW237191   0.140   2.360   4.505  0.2280  0.6597 -1.2147
 8578SOL     OW37192   2.975   2.782  15.002  0.5647 -0.3033 -0.6067
 8578SOL    HW137193   3.059   2.806  14.963  1.8632 -2.6301  0.7673
 8578SOL    HW237194   3.001   2.727  15.076  0.8881  1.1907  0.3804
 8579SOL     OW37195   3.946   0.581   3.299 -0.3127  0.2454 -0.1999
 8579SOL    HW137196   3.933   0.547   3.210 -1.0149  0.9316 -0.3549
 8579SOL    HW237197   3.868   0.538   3.333  0.6585 -0.1704  1.5055
 8580SOL     OW37198   4.268   0.492   7.820  0.5622  0.4014  0.1848
 8580SOL    HW137199   4.277   0.397   7.816  0.6159  0.4945 -2.1384
 8580SOL    HW237200   4.227   0.493   7.733 -0.4112  3.1615  0.6680
 8581SOL     OW37201   4.131   0.661   8.445  0.3150  0.6128  0.6805
 8581SOL    HW137202   4.208   0.630   8.493  0.5925 -0.2219 -0.3096
 8581SOL    HW237203   4.169   0.654   8.357 -1.0313  0.5195  0.1156
 8582SOL     OW37204   4.015   2.727   5.326 -0.1306 -0.0930  0.7514
 8582SOL    HW137205   3.998   2.762   5.238 -0.9038 -0.5011  0.7335
 8582SOL    HW237206   4.030   2.634   5.305 -1.1695 -0.1103  0.0396
 8583SOL     OW37207   3.675   2.028  14.142 -0.4470 -0.5115 -0.2524
 8583SOL    HW137208   3.600   2.048  14.086 -0.4115 -0.0366 -0.1302
 8583SOL    HW237209   3.735   2.024  14.067 -3.7166 -2.8613 -2.7651
 8584SOL     OW37210   2.521   3.670   8.187  0.3270 -0.0841  0.1368
 8584SOL    HW137211   2.540   3.709   8.272  1.7717 -0.4084 -0.0368
 8584SOL    HW237212   2.574   3.592   8.202 -0.6017 -1.1245 -1.8463
 8585SOL     OW37213   1.975   3.202  11.072  0.5115 -0.5480  0.3106
 8585SOL    HW137214   2.066   3.232  11.084  1.0897 -2.6590  1.1951
 8585SOL    HW237215   1.936   3.285  11.100 -0.0090 -0.4206 -0.8204
 8586SOL     OW37216   1.140   3.615  14.381 -0.1654 -0.2224  0.0423
 8586SOL    HW137217   1.046   3.621  14.364 -0.8059 -1.2802  3.0354
 8586SOL    HW237218   1.141   3.536  14.435 -2.4467  0.2384  0.7844
 8587SOL     OW37219   4.469   1.959   7.156 -0.7220 -0.0422 -0.4058
 8587SOL    HW137220   4.504   1.884   7.204 -0.5303 -1.4016 -2.6482
 8587SOL    HW237221   4.385   1.921   7.130 -1.4690  1.0489  0.4249
 8588SOL     OW37222   1.942   2.679   5.050  0.9098 -0.1925  0.3448
 8588SOL    HW137223   1.927   2.772   5.036 -0.2786 -0.4142  0.1236
 8588SOL    HW237224   1.990   2.697   5.131  0.7081  0.0902  0.4019
 8589SOL     OW37225   3.327   4.268  15.346  0.2383 -0.4415  0.0065
 8589SOL    HW137226   3.345   4.356  15.314 -2.1371  1.0235  2.6864
 8589SOL    HW237227   3.242   4.272  15.390  0.0574 -1.1698 -0.2713
 8590SOL     OW37228   0.594   4.333   5.928 -0.3489  0.6443 -0.0251
 8590SOL    HW137229   0.504   4.302   5.921  0.3167 -0.8461 -2.2373
 8590SOL    HW237230   0.593   4.417   5.883  0.9063  0.1834 -0.9207
 8591SOL     OW37231   4.298   3.670  10.215 -0.0393 -0.1571  0.1901
 8591SOL    HW137232   4.265   3.624  10.138  0.2354 -1.8666  1.0788
 8591SOL    HW237233   4.233   3.652  10.283 -1.0391  0.0099 -0.7334
 8592SOL     OW37234   3.183   0.035   8.424 -0.6474 -0.3130 -0.6337
 8592SOL    HW137235   3.234   4.707   8.490 -0.7515  0.3154 -0.0912
 8592SOL    HW237236   3.211   0.125   8.438 -0.8844 -0.3469  0.1094
 8593SOL     OW37237   3.945   4.466   1.863 -0.4033  0.4533 -0.3115
 8593SOL    HW137238   3.867   4.447   1.811  0.5992  0.4111 -1.8189
 8593SOL    HW237239   4.003   4.411   1.810  1.1339  0.9220  0.8839
 8594SOL     OW37240   1.378   3.146   3.327  0.3882 -0.2492  0.2755
 8594SOL    HW137241   1.364   3.169   3.419  1.4175  0.3004  0.3015
 8594SOL    HW237242   1.471   3.169   3.324 -0.1465  1.5141 -2.3976
 8595SOL     OW37243   0.203   1.528  14.659  0.0846  0.4007  0.2024
 8595SOL    HW137244   0.142   1.454  14.662 -0.2253  0.6169 -0.7973
 8595SOL    HW237245   0.260   1.485  14.723 -0.1921 -1.4819 -0.8022
 8596SOL     OW37246   4.228   0.648   5.481  0.4380  0.7981  0.3975
 8596SOL    HW137247   4.158   0.584   5.467  0.0542  0.4131  3.8690
 8596SOL    HW237248   4.304   0.600   5.450  0.3142  1.3881 -0.8333
 8597SOL     OW37249   3.514   1.295   7.368  0.3039  0.1506 -0.9482
 8597SOL    HW137250   3.504   1.228   7.300 -2.1429  0.5604 -1.0192
 8597SOL    HW237251   3.604   1.328   7.362  0.4410  0.0474  0.5888
 8598SOL     OW37252   0.750   0.348   2.434 -0.2526  0.4266  0.1535
 8598SOL    HW137253   0.757   0.422   2.494  0.2196  0.1076  0.4850
 8598SOL    HW237254   0.802   0.286   2.484 -1.2379  0.6077  1.4103
 8599SOL     OW37255   2.361   2.751   4.236 -0.5585  0.8668 -0.3682
 8599SOL    HW137256   2.313   2.678   4.276  0.8389  1.6174  2.6921
 8599SOL    HW237257   2.317   2.825   4.279  1.2256  1.6811  0.0571
 8600SOL     OW37258   1.129   4.637   1.009 -0.0933 -0.2029 -0.4059
 8600SOL    HW137259   1.125   0.012   1.009 -1.0498 -0.2476  1.2162
 8600SOL    HW237260   1.038   4.609   1.011 -0.1341  0.0085  0.5727
 8601SOL     OW37261   3.305   2.993  14.700 -0.5916  0.4517 -0.4689
 8601SOL    HW137262   3.294   2.898  14.698  1.4223  0.2074 -0.1656
 8601SOL    HW237263   3.214   3.021  14.710 -1.6135 -2.5909 -1.3696
 8602SOL     OW37264   1.261   1.199   0.733  0.0237  0.0650 -0.9081
 8602SOL    HW137265   1.325   1.257   0.691  0.2935  0.9626  0.7436
 8602SOL    HW237266   1.229   1.256   0.802  0.4047  0.9376 -1.4570
 8603SOL     OW37267   0.970   4.172   3.696 -0.0278  0.8677  0.0151
 8603SOL    HW137268   0.877   4.184   3.716  0.0890 -0.5509  1.4121
 8603SOL    HW237269   1.005   4.235   3.759  2.3272 -1.2439  0.8159
 8604SOL     OW37270   0.064   0.905   7.557 -0.1220  0.7527  0.1096
 8604SOL    HW137271   0.082   0.911   7.463 -0.2771  1.4807  0.1191
 8604SOL    HW237272   4.708   0.850   7.566  0.8389 -0.4513  0.9583
 8605SOL     OW37273   3.165   2.488   2.676 -0.7589  0.0939  0.6983
 8605SOL    HW137274   3.116   2.564   2.643  0.7986  1.8465  2.3695
 8605SOL    HW237275   3.226   2.524   2.740  2.0492 -2.0836 -0.7504
 8606SOL     OW37276   2.031   4.293  11.271 -0.0662 -0.0398  0.0727
 8606SOL    HW137277   1.941   4.311  11.243 -0.0045  0.7317  0.3819
 8606SOL    HW237278   2.013   4.208  11.311 -2.9093  0.2804 -0.5369
 8607SOL     OW37279   0.287   3.859   7.117 -0.1521  0.2218  0.2610
 8607SOL    HW137280   0.286   3.951   7.088  0.9842  0.8598  2.2454
 8607SOL    HW237281   0.250   3.807   7.045 -0.8896  1.0031  0.0714
 8608SOL     OW37282   0.126   0.638   2.968 -0.1240  0.3559 -0.4637
 8608SOL    HW137283   0.134   0.543   2.979  0.6552  0.2921 -1.6239
 8608SOL    HW237284   0.201   0.641   2.910  1.5775  0.1088  1.7214
 8609SOL     OW37285   2.928   2.243   5.136  0.4124  0.3201 -0.1406
 8609SOL    HW137286   2.837   2.272   5.141  1.0587  2.6491 -1.8937
 8609SOL    HW237287   2.917   2.163   5.086  0.1953  2.1672 -3.0703
 8610SOL     OW37288   4.475   1.490   2.161  0.1005 -0.0282 -0.1065
 8610SOL    HW137289   4.381   1.475   2.154  0.6328 -3.2862 -0.3804
 8610SOL    HW237290   4.480   1.585   2.152 -1.8326 -0.0523 -1.4355
 8611SOL     OW37291   4.247   3.615   9.047  0.0275  0.2370 -0.6854
 8611SOL    HW137292   4.268   3.564   9.125  0.4523  0.2555 -0.7884
 8611SOL    HW237293   4.317   3.680   9.055  1.4419 -1.1813 -1.4264
 8612SOL     OW37294   3.298   2.180  16.136  0.3763 -0.2445 -0.2901
 8612SOL    HW137295   3.393   2.165  16.130  0.5624  1.2418 -0.9598
 8612SOL    HW237296   3.280   2.134  16.218 -0.5186  1.7654  0.6282
 8613SOL     OW37297   3.435   3.995   0.227  0.0747 -0.6289  0.5941
 8613SOL    HW137298   3.343   4.007   0.249 -0.1847 -1.1544 -0.2294
 8613SOL    HW237299   3.461   3.953   0.309 -1.3026 -2.0442  0.2977
 8614SOL     OW37300   1.513   1.954   5.250  0.3564  0.0284 -0.2943
 8614SOL    HW137301   1.507   1.995   5.336  1.2591  1.2608 -0.8172
 8614SOL    HW237302   1.481   2.015   5.184  1.1881 -0.5033 -1.1878
 8615SOL     OW37303   1.253   1.090   9.474 -0.0800 -0.2321  0.2111
 8615SOL    HW137304   1.319   1.022   9.482 -1.3622 -1.3786  1.1960
 8615SOL    HW237305   1.305   1.169   9.466 -0.8124  0.2174 -0.1790
 8616SOL     OW37306   3.177   2.526   8.249  0.0590 -0.5323  0.0093
 8616SOL    HW137307   3.268   2.497   8.255  0.7438  1.4627 -1.0341
 8616SOL    HW237308   3.155   2.528   8.343 -0.2278  1.1207 -0.0877
 8617SOL     OW37309   4.174   0.926   5.382  0.4874 -0.0390 -0.2337
 8617SOL    HW137310   4.195   0.846   5.430  1.0228  0.3985  0.2698
 8617SOL    HW237311   4.160   0.990   5.453  3.0821  1.2197 -0.8525
 8618SOL     OW37312   3.317   3.453  17.240 -0.0613 -0.0737  0.1734
 8618SOL    HW137313   3.402   3.416  17.216 -0.2403 -0.4679  0.1534
 8618SOL    HW237314   3.305   3.515  17.168  1.6713  1.9150  1.6045
 8619SOL     OW37315   3.335   2.469   6.247 -0.2161  0.4232  0.0045
 8619SOL    HW137316   3.388   2.398   6.211  0.8380  0.1074  2.1861
 8619SOL    HW237317   3.391   2.545   6.229  3.0059 -2.4399 -2.0271
 8620SOL     OW37318   2.799   2.076   6.140  0.4188  0.2845  0.3244
 8620SOL    HW137319   2.778   2.077   6.234 -0.7385  1.6932  0.0313
 8620SOL    HW237320   2.720   2.026   6.118  0.6524 -0.2741  0.7305
 8621SOL     OW37321   2.757   2.262  15.340 -0.1107 -0.0954 -0.7518
 8621SOL    HW137322   2.818   2.205  15.294 -0.2551  0.1965 -1.2939
 8621SOL    HW237323   2.728   2.302  15.259  0.8426 -1.0589 -1.5647
 8622SOL     OW37324   0.662   2.191   2.894  0.3214  0.4486  0.0727
 8622SOL    HW137325   0.713   2.144   2.828  0.1732 -0.5518  0.6752
 8622SOL    HW237326   0.572   2.202   2.863  0.4372 -0.4727 -0.5975
 8623SOL     OW37327   2.853   3.951   9.167  0.6893 -0.7956 -0.1154
 8623SOL    HW137328   2.829   3.924   9.256 -0.0683  0.0390 -0.0671
 8623SOL    HW237329   2.882   3.867   9.131 -0.2837 -1.6054  0.9811
 8624SOL     OW37330   2.155   1.439  13.716 -0.3579 -0.4176  0.4234
 8624SOL    HW137331   2.240   1.482  13.705  0.7884 -2.6737  0.4709
 8624SOL    HW237332   2.132   1.461  13.807  2.1716  0.3358  0.8801
 8625SOL     OW37333   1.505   1.053   6.188 -0.2879 -0.0664  0.5439
 8625SOL    HW137334   1.412   1.069   6.173 -0.3877 -2.9753 -1.8955
 8625SOL    HW237335   1.529   0.976   6.137  0.1212  0.7267 -0.4523
 8626SOL     OW37336   0.391   1.027  16.504 -0.2193 -0.3703 -0.3043
 8626SOL    HW137337   0.337   1.105  16.488  1.1918  0.7394  0.3494
 8626SOL    HW237338   0.457   1.041  16.436  0.0485 -0.1086  0.0080
 8627SOL     OW37339   4.463   0.265   8.013 -0.4442  0.6171  0.0214
 8627SOL    HW137340   4.398   0.252   7.944 -2.4191  0.5378  1.8881
 8627SOL    HW237341   4.444   0.188   8.067  0.5401 -0.0533 -0.5854
 8628SOL     OW37342   0.920   3.759  11.993 -0.2374  0.3752  1.0968
 8628SOL    HW137343   0.901   3.805  12.075 -2.8430 -0.5767  1.0349
 8628SOL    HW237344   0.917   3.667  12.019 -1.5588 -0.2919 -1.3930
 8629SOL     OW37345   4.479   2.901   7.042  0.5109 -0.5692  0.6439
 8629SOL    HW137346   4.455   2.832   6.980 -0.8366  1.1570 -0.7458
 8629SOL    HW237347   4.574   2.891   7.049  0.4710 -1.3694 -0.0214
 8630SOL     OW37348   3.445   1.589  12.425 -0.0916 -0.2732 -0.1597
 8630SOL    HW137349   3.388   1.525  12.467  0.3379 -1.0462 -0.7524
 8630SOL    HW237350   3.420   1.668  12.473 -1.3255  0.5425 -2.1577
 8631SOL     OW37351   2.456   2.307   5.896  0.0726 -0.3475 -0.7786
 8631SOL    HW137352   2.419   2.242   5.955 -0.8865  0.0799 -0.8989
 8631SOL    HW237353   2.474   2.252   5.820  1.4608  0.5579 -1.0926
 8632SOL     OW37354   3.828   4.101   1.440  0.3064  0.0842 -0.3505
 8632SOL    HW137355   3.826   4.011   1.471  1.8820  0.2099  0.0967
 8632SOL    HW237356   3.736   4.128   1.448  0.3865 -0.2207  1.6973
 8633SOL     OW37357   0.188   1.706  11.193 -0.2943 -0.0859 -0.0012
 8633SOL    HW137358   0.270   1.754  11.209  0.1867 -1.2805  1.0531
 8633SOL    HW237359   0.190   1.702  11.097  0.5178 -2.1997  0.1052
 8634SOL     OW37360   0.516   0.997   8.708 -0.2591  0.2009  0.4140
 8634SOL    HW137361   0.500   1.017   8.800  1.8812 -0.6527  0.9546
 8634SOL    HW237362   0.609   1.017   8.696 -1.2377  3.4943 -1.9190
 8635SOL     OW37363   1.013   1.368   5.143  0.7059  0.2695  0.2983
 8635SOL    HW137364   0.984   1.375   5.234 -2.3273  2.3403 -0.7921
 8635SOL    HW237365   1.015   1.458   5.109 -0.6061  1.0152  2.1673
 8636SOL     OW37366   1.239   3.337   0.013 -0.4127 -0.2898 -0.0113
 8636SOL    HW137367   1.183   3.365  17.626 -2.0875  1.0988  1.7961
 8636SOL    HW237368   1.203   3.249   0.019  1.7269 -1.1289  0.6185
 8637SOL     OW37369   0.369   2.847   1.249  0.1213 -0.8112 -0.2792
 8637SOL    HW137370   0.312   2.770   1.245  2.4642 -2.5545 -0.2163
 8637SOL    HW237371   0.302   2.900   1.206 -0.1589 -1.0153 -0.1009
 8638SOL     OW37372   1.661   3.469   8.288 -1.0094  0.1680  0.1475
 8638SOL    HW137373   1.614   3.542   8.328  0.6746  0.4168  1.6540
 8638SOL    HW237374   1.750   3.492   8.314 -1.1006 -0.2537  0.8280
 8639SOL     OW37375   4.124   4.090  16.990 -0.1444  0.1915  0.0964
 8639SOL    HW137376   4.038   4.107  16.952  0.1184 -0.8086 -0.9274
 8639SOL    HW237377   4.101   4.108  17.081  0.7899  0.7723  0.2185
 8640SOL     OW37378   4.442   0.401   7.454  0.8069  0.1167  0.2039
 8640SOL    HW137379   4.494   0.320   7.448  2.0798  0.9178  0.5130
 8640SOL    HW237380   4.516   0.461   7.454  1.5481 -0.8091 -1.3891
 8641SOL     OW37381   2.038   0.495   3.963  0.3179 -0.5304 -0.7024
 8641SOL    HW137382   1.963   0.555   3.966  0.6770 -0.2297  2.8620
 8641SOL    HW237383   2.078   0.526   4.045  2.5839 -0.9425 -1.6482
 8642SOL     OW37384   1.011   0.964   5.206 -0.1256 -1.0613  0.4288
 8642SOL    HW137385   0.991   0.882   5.162 -2.7393  0.0237 -0.4003
 8642SOL    HW237386   0.927   1.009   5.202  0.7833  0.5823 -0.3281
 8643SOL     OW37387   1.571   1.165   9.584 -0.3713  0.5849 -0.3896
 8643SOL    HW137388   1.664   1.143   9.577 -0.2803  0.5066  1.1028
 8643SOL    HW237389   1.541   1.194   9.498  0.8654  0.1723 -0.9525
 8644SOL     OW37390   0.724   4.233   6.156 -0.0778  0.2382 -0.0971
 8644SOL    HW137391   0.663   4.261   6.088 -0.2107  3.0797  1.2073
 8644SOL    HW237392   0.778   4.312   6.157 -1.2511  1.0389 -0.7213
 8645SOL     OW37393   3.443   1.418   8.081 -0.1020 -0.0377  0.0479
 8645SOL    HW137394   3.401   1.418   7.994  0.8860 -1.4483 -0.4279
 8645SOL    HW237395   3.409   1.498   8.120  3.4396  1.4274  0.1171
 8646SOL     OW37396   4.523   4.169   9.445 -0.6048 -0.6286  0.6483
 8646SOL    HW137397   4.459   4.131   9.384  0.9882 -1.2718 -0.6338
 8646SOL    HW237398   4.604   4.146   9.399 -1.6997  0.3787 -1.7612
 8647SOL     OW37399   2.960   3.539   1.943  0.1169 -0.1997 -0.1834
 8647SOL    HW137400   2.901   3.486   1.997 -0.8549 -0.5080 -1.5454
 8647SOL    HW237401   2.926   3.624   1.969  1.1231  0.0349  0.3566
 8648SOL     OW37402   2.233   3.892   2.451 -0.3372 -0.5414 -0.0652
 8648SOL    HW137403   2.164   3.869   2.389  1.0267 -0.2439 -1.6740
 8648SOL    HW237404   2.183   3.937   2.520 -1.2483 -1.3696 -0.1826
 8649SOL     OW37405   0.245   0.217   2.438  0.2856 -0.7444  0.5545
 8649SOL    HW137406   0.304   0.179   2.374 -0.5836 -1.4810  0.1834
 8649SOL    HW237407   0.164   0.219   2.387  0.4982 -1.1843  0.2033
 8650SOL     OW37408   2.212   3.358   4.697 -0.4650  0.6685  0.4370
 8650SOL    HW137409   2.173   3.431   4.745  1.6563  0.4599  2.4742
 8650SOL    HW237410   2.173   3.363   4.610 -0.0970 -0.3864  0.2127
 8651SOL     OW37411   2.433   1.115   5.002  0.0846  0.2875 -0.2333
 8651SOL    HW137412   2.475   1.126   4.917  0.9341  0.6630  0.2318
 8651SOL    HW237413   2.425   1.209   5.022 -2.1013 -0.1391  0.9320
 8652SOL     OW37414   0.823   2.993   4.192 -0.2809  0.1048  0.3364
 8652SOL    HW137415   0.826   3.085   4.166  1.7121 -0.5953 -1.9651
 8652SOL    HW237416   0.756   2.997   4.260  0.0887 -0.2525  0.7250
 8653SOL     OW37417   2.015   0.381  11.116  0.9783  0.2370 -0.1006
 8653SOL    HW137418   2.074   0.327  11.167 -2.1215 -0.3518  2.9034
 8653SOL    HW237419   2.016   0.460  11.171  1.0078 -0.5819  1.0596
 8654SOL     OW37420   2.571   1.069  12.643  0.3951  0.0068  0.0581
 8654SOL    HW137421   2.518   1.149  12.644  1.2622  0.5732  0.3107
 8654SOL    HW237422   2.571   1.051  12.549 -1.9520  0.8242 -0.1144
 8655SOL     OW37423   2.825   4.325   8.653  0.4359 -0.0898  0.3909
 8655SOL    HW137424   2.828   4.346   8.746 -2.6109 -1.1098  0.7109
 8655SOL    HW237425   2.776   4.395   8.611  0.5336 -0.0671  0.3128
 8656SOL     OW37426   1.634   0.743   2.934  0.0457 -0.8496  0.2951
 8656SOL    HW137427   1.688   0.822   2.925 -0.0854 -0.4696  2.8507
 8656SOL    HW237428   1.690   0.676   2.896  0.4552 -0.5881  0.4317
 8657SOL     OW37429   4.497   0.211   6.161 -0.4816 -0.1984  0.7025
 8657SOL    HW137430   4.453   0.162   6.230 -4.0590  0.4959 -1.0660
 8657SOL    HW237431   4.589   0.205   6.188  0.0605 -0.7667 -1.2800
 8658SOL     OW37432   1.122   0.521  10.881  0.1348  0.4912 -0.4549
 8658SOL    HW137433   1.108   0.472  10.962  1.3496  0.1658 -0.4418
 8658SOL    HW237434   1.206   0.478  10.867  0.8129  1.2249  1.3869
 8659SOL     OW37435   0.625   3.624  15.472  0.2433 -0.6882  0.4765
 8659SOL    HW137436   0.553   3.681  15.444  0.2526 -0.8490  0.1181
 8659SOL    HW237437   0.575   3.544  15.485 -0.9982 -0.1431 -0.8899
 8660SOL     OW37438   4.214   1.827   6.716  0.1437  0.0867  0.1153
 8660SOL    HW137439   4.208   1.912   6.760 -0.1945  0.0877  0.0652
 8660SOL    HW237440   4.309   1.819   6.728 -0.4743 -1.8705  3.6756
 8661SOL     OW37441   2.231   3.191   2.742 -0.5882 -0.7883 -0.0597
 8661SOL    HW137442   2.259   3.134   2.671  1.6351 -0.4569  0.5692
 8661SOL    HW237443   2.250   3.142   2.822 -0.6482  0.7828  0.9333
 8662SOL     OW37444   2.462   1.763   6.966 -0.4036  0.2862 -0.5641
 8662SOL    HW137445   2.553   1.790   6.972  0.0236 -1.2877  0.0466
 8662SOL    HW237446   2.409   1.833   6.927  0.5105  0.5914 -1.2553
 8663SOL     OW37447   2.614   0.923  12.866  0.2012  0.4171  0.1227
 8663SOL    HW137448   2.645   0.852  12.810 -2.9725  0.7009 -1.9733
 8663SOL    HW237449   2.603   0.990  12.799 -0.5528  1.4321  1.2730
 8664SOL     OW37450   1.991   1.073   2.064  0.6179  0.5477  0.0611
 8664SOL    HW137451   1.941   1.144   2.023 -3.4300 -1.1188  2.0384
 8664SOL    HW237452   2.068   1.065   2.008  0.5933  1.3098 -0.0776
 8665SOL     OW37453   2.487   2.419   4.785 -0.4283  0.6158 -0.3219
 8665SOL    HW137454   2.557   2.460   4.835 -1.0093  2.9975 -1.4919
 8665SOL    HW237455   2.406   2.463   4.812 -1.0886 -1.4531  1.0289
 8666SOL     OW37456   1.264   0.383   5.389 -0.0212  0.1193 -0.3587
 8666SOL    HW137457   1.331   0.369   5.323  0.6469 -0.1926  0.3784
 8666SOL    HW237458   1.323   0.420   5.455  0.9083 -0.4990 -0.8509
 8667SOL     OW37459   2.690   0.034   0.464 -0.4847  0.3332  0.2778
 8667SOL    HW137460   2.646   0.010   0.382 -0.3499  1.3351 -0.0943
 8667SOL    HW237461   2.737   0.106   0.422 -0.5500 -0.3484 -0.9793
 8668SOL     OW37462   1.226   3.870   7.892  0.0815 -0.1491 -0.0988
 8668SOL    HW137463   1.253   3.795   7.838  1.8088  0.1027  0.4224
 8668SOL    HW237464   1.296   3.880   7.956  0.5466  1.1458 -0.8098
 8669SOL     OW37465   4.715   0.058   7.140  0.0267 -0.2655 -0.1567
 8669SOL    HW137466   4.648   0.126   7.133  0.0386 -0.0229  2.1084
 8669SOL    HW237467   0.070   0.114   7.156 -0.6414  1.0762 -1.7684
 8670SOL     OW37468   1.793   3.830   0.659  0.7466  0.8438 -0.3585
 8670SOL    HW137469   1.744   3.903   0.696  0.0531 -0.0021  0.4011
 8670SOL    HW237470   1.884   3.857   0.675  0.1002  3.1426 -0.5970
 8671SOL     OW37471   3.495   2.411   3.849  0.0684  0.3890  0.2115
 8671SOL    HW137472   3.510   2.462   3.769 -0.9675  1.6143  0.8051
 8671SOL    HW237473   3.447   2.477   3.899 -1.4376  0.9119 -1.9005
 8672SOL     OW37474   3.250   4.174   2.284 -0.1183  0.4189  0.5684
 8672SOL    HW137475   3.310   4.214   2.222  0.4937 -0.4602  0.5879
 8672SOL    HW237476   3.206   4.102   2.239  0.5837  1.4745 -1.7861
 8673SOL     OW37477   4.610   3.517   6.236 -0.2446 -0.2572 -0.1137
 8673SOL    HW137478   4.542   3.489   6.298  1.5776  0.2136  2.0787
 8673SOL    HW237479   4.686   3.505   6.293  0.0863  1.3709 -0.2164
 8674SOL     OW37480   1.093   0.869  11.750  0.1002  0.5083  0.0776
 8674SOL    HW137481   1.168   0.826  11.791 -0.3109  0.5747  0.8899
 8674SOL    HW237482   1.130   0.872  11.662 -1.4889  0.4613 -0.5826
 8675SOL     OW37483   0.994   2.041   5.994  0.0007 -0.5455 -0.5176
 8675SOL    HW137484   0.983   1.958   6.040  1.9638 -1.6924 -2.0784
 8675SOL    HW237485   0.984   2.110   6.059  1.2502 -1.3896  0.5690
 8676SOL     OW37486   3.407   3.624  13.185 -0.4401  0.0887  0.2737
 8676SOL    HW137487   3.452   3.550  13.145 -1.7103 -0.1707 -0.6913
 8676SOL    HW237488   3.404   3.591  13.275 -1.2586  1.9667  0.9332
 8677SOL     OW37489   1.701   3.775   4.898 -0.0543  0.0667  0.0065
 8677SOL    HW137490   1.669   3.686   4.911  0.3829 -0.0003  0.5965
 8677SOL    HW237491   1.788   3.787   4.936 -1.0499  2.3195  1.6147
 8678SOL     OW37492   2.104   0.149   5.507 -0.0985 -0.1655  0.0363
 8678SOL    HW137493   2.018   0.137   5.548  0.6163 -0.1107  1.5880
 8678SOL    HW237494   2.077   0.166   5.417  1.3894 -1.5696 -0.6568
 8679SOL     OW37495   4.077   2.679  14.118 -0.3119  0.1803  0.1603
 8679SOL    HW137496   4.169   2.655  14.126  0.0357  2.2810  2.1853
 8679SOL    HW237497   4.055   2.658  14.027 -1.5052 -0.3908  0.5701
 8680SOL     OW37498   4.360   3.579   3.972 -0.1477  0.5257 -0.5060
 8680SOL    HW137499   4.440   3.594   4.024  0.0818  2.0733 -1.3201
 8680SOL    HW237500   4.389   3.583   3.881 -0.6850  2.0872 -0.5999
 8681SOL     OW37501   4.222   0.409   4.508 -0.1747  0.1784 -0.1868
 8681SOL    HW137502   4.230   0.449   4.595  1.0525  1.7458 -1.0031
 8681SOL    HW237503   4.259   0.482   4.458  0.4819  1.8039  2.6133
 8682SOL     OW37504   1.273   2.360  16.644 -0.0480 -0.0428 -0.7570
 8682SOL    HW137505   1.271   2.308  16.725 -0.8508  0.9717 -0.1232
 8682SOL    HW237506   1.185   2.396  16.655 -0.3570 -0.4754 -1.8928
 8683SOL     OW37507   0.109   3.479   2.496 -0.0347 -0.2750 -0.3779
 8683SOL    HW137508   0.034   3.443   2.449  0.5141  0.2916 -1.6787
 8683SOL    HW237509   0.158   3.520   2.425 -0.5323  1.8616  0.4827
 8684SOL     OW37510   0.906   0.280  15.156 -0.5364 -0.3995  0.2328
 8684SOL    HW137511   0.826   0.246  15.117 -0.4651  0.8227 -0.9829
 8684SOL    HW237512   0.960   0.301  15.080 -3.0390 -1.4439 -1.8311
 8685SOL     OW37513   0.557   3.621   5.376 -0.1898 -0.1571 -0.6560
 8685SOL    HW137514   0.602   3.644   5.457 -0.4855 -0.9457 -0.2666
 8685SOL    HW237515   0.514   3.541   5.407  1.1500 -0.0634  1.4164
 8686SOL     OW37516   0.566   1.053   6.304 -0.5294 -0.4393 -0.2385
 8686SOL    HW137517   0.651   1.088   6.276 -1.2671 -0.3657 -2.3430
 8686SOL    HW237518   0.594   0.961   6.311  2.3041  0.5485  1.4771
 8687SOL     OW37519   1.252   0.364   0.804  0.1486 -0.0090 -0.0816
 8687SOL    HW137520   1.318   0.418   0.759  1.0022 -1.2485 -0.3182
 8687SOL    HW237521   1.272   0.279   0.765 -1.6532 -0.8027  0.7300
 8688SOL     OW37522   0.334   3.278   2.533 -0.5747 -0.8185 -0.0171
 8688SOL    HW137523   0.296   3.262   2.447  2.8095  1.1388 -1.8650
 8688SOL    HW237524   0.275   3.230   2.591 -1.7297  0.5503 -0.0467
 8689SOL     OW37525   0.535   4.697  16.391  0.2783 -0.2354 -1.0177
 8689SOL    HW137526   0.588   4.623  16.421  2.4466  1.7303 -0.0569
 8689SOL    HW237527   0.532   4.692  16.295  0.9706  2.4309 -1.1916
 8690SOL     OW37528   3.529   2.167   4.480 -0.6521 -0.3979  0.3078
 8690SOL    HW137529   3.621   2.147   4.467 -0.5436  1.4694 -1.7484
 8690SOL    HW237530   3.530   2.259   4.508  0.6887  0.5904 -3.0146
 8691SOL     OW37531   2.535   3.454  11.184  0.1921 -0.3418 -0.2380
 8691SOL    HW137532   2.473   3.519  11.151  0.8516  0.4259  0.0165
 8691SOL    HW237533   2.609   3.461  11.124  1.7090  1.5496  1.8663
 8692SOL     OW37534   4.308   3.763   8.666  0.1915  0.5472  0.7600
 8692SOL    HW137535   4.314   3.829   8.597 -1.3032 -2.0576 -1.8845
 8692SOL    HW237536   4.377   3.700   8.644 -1.0650 -1.5715  2.9804
 8693SOL     OW37537   1.754   0.963   8.015  0.3596  0.0521 -0.4825
 8693SOL    HW137538   1.725   1.015   7.939  0.3774  0.7600 -0.0068
 8693SOL    HW237539   1.825   0.914   7.972  1.7300  1.0184  0.6781
 8694SOL     OW37540   2.557   4.446   0.311 -0.2928 -0.0382  0.1035
 8694SOL    HW137541   2.636   4.397   0.287 -1.4969 -0.8995 -2.0731
 8694SOL    HW237542   2.566   4.519   0.250  0.4759 -1.3642 -1.3550
 8695SOL     OW37543   1.739   3.407   1.514  0.5340 -0.2906  0.9522
 8695SOL    HW137544   1.725   3.312   1.519 -1.3967  0.0023  1.0143
 8695SOL    HW237545   1.656   3.441   1.548 -0.3169 -0.8877 -0.5291
 8696SOL     OW37546   2.976   1.002  12.863 -0.1834 -0.2527  0.7549
 8696SOL    HW137547   2.946   0.911  12.871  0.7242 -0.7070 -1.1491
 8696SOL    HW237548   2.943   1.029  12.777 -0.1961  0.2058  0.9039
 8697SOL     OW37549   1.387   4.415  16.665 -0.1210 -0.0722 -0.3691
 8697SOL    HW137550   1.437   4.484  16.621 -0.7468 -0.6115 -1.9515
 8697SOL    HW237551   1.295   4.437  16.646  0.0514  0.0087 -1.1374
 8698SOL     OW37552   1.576   4.127   4.944  0.0751 -0.8369 -0.1597
 8698SOL    HW137553   1.660   4.090   4.970  0.8516 -0.2747 -1.8632
 8698SOL    HW237554   1.520   4.071   4.998  1.4812 -3.9003 -1.9233
 8699SOL     OW37555   4.087   4.003   5.339  0.0434  0.3688 -0.7277
 8699SOL    HW137556   4.100   3.997   5.244  0.4150 -0.2227 -0.6369
 8699SOL    HW237557   4.175   3.985   5.372 -1.0350 -0.1205  1.8561
 8700SOL     OW37558   0.913   3.349   4.565  0.5345  0.0729  0.1532
 8700SOL    HW137559   0.858   3.356   4.487 -0.8574 -1.3425  1.0049
 8700SOL    HW237560   0.847   3.324   4.630  0.0489  2.9347  0.7605
 8701SOL     OW37561   0.839   2.766   2.698 -0.5334 -0.2557  0.2883
 8701SOL    HW137562   0.744   2.759   2.689 -0.5056  0.5212 -0.7125
 8701SOL    HW237563   0.860   2.841   2.641  1.3674 -1.2137 -0.2961
 8702SOL     OW37564   1.079   3.896  16.213 -0.8136  0.3670 -0.1637
 8702SOL    HW137565   1.039   3.819  16.171  0.9747 -1.0174  0.6732
 8702SOL    HW237566   1.170   3.867  16.215 -1.2036 -0.7486  1.2396
 8703SOL     OW37567   3.833   1.217   5.703 -0.4612  0.0123  0.1323
 8703SOL    HW137568   3.762   1.207   5.766 -1.3620 -0.7305 -1.0032
 8703SOL    HW237569   3.798   1.155   5.640 -0.6235  0.2926 -0.0561
 8704SOL     OW37570   4.277   2.710   6.156  0.0062 -0.0610 -0.0918
 8704SOL    HW137571   4.249   2.619   6.153  1.1220 -0.4074  0.2664
 8704SOL    HW237572   4.211   2.750   6.213 -1.3069 -0.1614 -1.5604
 8705SOL     OW37573   4.012   2.508  15.779  0.2066  0.2472 -0.0982
 8705SOL    HW137574   3.933   2.517  15.832 -0.0384 -3.0179  0.0718
 8705SOL    HW237575   4.026   2.598  15.748 -0.0228  0.4883  0.5138
 8706SOL     OW37576   3.807   0.495  11.370 -0.2782 -0.1607 -0.6241
 8706SOL    HW137577   3.872   0.547  11.418 -1.8190  1.2134 -0.0373
 8706SOL    HW237578   3.861   0.429  11.327 -0.2041 -0.7664  0.4100
 8707SOL     OW37579   2.668   3.051   9.089 -0.4965  0.3782  0.1058
 8707SOL    HW137580   2.636   3.059   9.179 -1.3938  0.5738 -0.2296
 8707SOL    HW237581   2.704   3.138   9.074  0.4882 -0.0050  0.2966
 8708SOL     OW37582   1.922   2.096  10.696 -0.0747  0.4323  0.1126
 8708SOL    HW137583   1.922   2.008  10.732 -0.9402 -0.1647 -1.3419
 8708SOL    HW237584   1.836   2.135  10.708  0.4436  1.8145 -0.6180
 8709SOL     OW37585   4.183   0.568   2.798 -0.8926  0.1121 -0.1752
 8709SOL    HW137586   4.150   0.482   2.823 -0.1766 -0.4724 -1.2476
 8709SOL    HW237587   4.221   0.591   2.882 -1.1790 -0.6568  0.1636
 8710SOL     OW37588   3.534   2.982   6.239 -0.0949  0.7303  0.0949
 8710SOL    HW137589   3.526   2.928   6.318  0.4351 -0.7855 -0.8982
 8710SOL    HW237590   3.454   2.965   6.189  0.4261  0.6216 -0.6919
 8711SOL     OW37591   4.479   0.564   4.952 -0.0217  0.4336 -0.3887
 8711SOL    HW137592   4.554   0.616   4.980 -1.2712  0.7939  2.2647
 8711SOL    HW237593   4.481   0.588   4.859  1.4811  1.2165 -0.1550
 8712SOL     OW37594   2.870   4.599   4.699  0.2521  0.7637 -0.1078
 8712SOL    HW137595   2.798   4.557   4.746  0.7036 -0.6658 -0.7110
 8712SOL    HW237596   2.875   4.684   4.743 -0.8479  0.2567  0.9931
 8713SOL     OW37597   2.933   0.117   1.814 -0.4147  0.1954 -0.0352
 8713SOL    HW137598   2.966   0.058   1.881  0.5134  0.1170 -0.5660
 8713SOL    HW237599   2.930   0.201   1.861 -1.6151 -0.5154  1.1502
 8714SOL     OW37600   4.577   4.176   9.709 -0.2567  0.1764 -0.7456
 8714SOL    HW137601   4.575   4.267   9.740  1.2286  0.3245 -1.0604
 8714SOL    HW237602   4.559   4.188   9.616  0.2560  0.7517 -0.7778
 8715SOL     OW37603   0.670   4.700  15.716 -0.0628  0.3086 -0.3624
 8715SOL    HW137604   0.619   0.004  15.638  1.0262  0.8213 -0.9025
 8715SOL    HW237605   0.744   4.656  15.675  0.4293 -0.0189  0.8761
 8716SOL     OW37606   0.154   0.386   3.925  0.1210 -0.3845 -0.4807
 8716SOL    HW137607   0.178   0.360   4.015 -0.7609  1.8621  0.4073
 8716SOL    HW237608   0.060   0.368   3.926  0.0098  0.2135  0.1234
 8717SOL     OW37609   1.759   3.022   3.133 -0.8252 -0.4633 -0.9437
 8717SOL    HW137610   1.715   2.997   3.052 -1.5469  1.0547 -1.0267
 8717SOL    HW237611   1.733   2.949   3.189  0.8918 -1.9307 -2.0901
 8718SOL     OW37612   3.519   0.897  14.805  0.4587  0.3209 -0.2777
 8718SOL    HW137613   3.497   0.886  14.898 -0.3481  1.2126 -0.3623
 8718SOL    HW237614   3.443   0.862  14.759 -0.8962  1.5759  0.9941
 8719SOL     OW37615   1.553   4.520   8.168  0.0501 -0.0213  0.7545
 8719SOL    HW137616   1.470   4.566   8.184  1.2428  2.2309  0.4065
 8719SOL    HW237617   1.540   4.449   8.231  0.1741  0.4494  1.3140
 8720SOL     OW37618   4.708   1.540   6.783  0.1950 -0.7529 -0.4055
 8720SOL    HW137619   0.016   1.563   6.871  0.8664 -0.4359 -0.7104
 8720SOL    HW237620   0.069   1.528   6.736 -0.3789 -1.1102 -1.3334
 8721SOL     OW37621   2.994   0.696   6.901 -0.1798  0.4632 -0.2822
 8721SOL    HW137622   3.040   0.770   6.941 -1.9257  0.7442  1.1968
 8721SOL    HW237623   3.069   0.644   6.871 -1.6248 -1.2772 -0.8801
 8722SOL     OW37624   0.031   1.643  16.707  0.7031  0.0513 -0.1966
 8722SOL    HW137625   0.025   1.665  16.614  0.4467  2.5447  0.4016
 8722SOL    HW237626   4.677   1.584  16.718 -0.1315  1.3173  0.8839
 8723SOL     OW37627   2.156   1.974   4.304 -0.0106 -0.4355  0.2242
 8723SOL    HW137628   2.083   1.926   4.342 -0.5925 -0.5021 -0.9985
 8723SOL    HW237629   2.148   2.045   4.368  2.4418  0.5191 -0.5182
 8724SOL     OW37630   2.549   0.063   8.896 -0.1348 -0.2038  0.5418
 8724SOL    HW137631   2.491   0.126   8.854 -1.8811 -0.6327  2.2976
 8724SOL    HW237632   2.503   0.054   8.980 -1.3392 -0.0774 -0.1037
 8725SOL     OW37633   0.544   1.340  12.985  0.4429  0.0571 -0.2483
 8725SOL    HW137634   0.594   1.374  12.911  0.8381  0.6200  0.2723
 8725SOL    HW237635   0.476   1.406  12.994  0.9656  0.7111 -1.1158
 8726SOL     OW37636   2.499   0.956  14.752  0.4942  0.0520 -0.7503
 8726SOL    HW137637   2.539   0.882  14.707  0.5103  1.1068 -2.4773
 8726SOL    HW237638   2.409   0.929  14.773  1.1709 -1.5876  0.0313
 8727SOL     OW37639   0.626   4.312   0.003 -0.2220  0.0544 -0.6779
 8727SOL    HW137640   0.606   4.231  17.642 -0.5651 -1.3435  1.8786
 8727SOL    HW237641   0.560   4.372  17.654 -0.4763  1.0796  1.5676
 8728SOL     OW37642   0.508   4.222  10.831  0.0584  0.3664  0.1946
 8728SOL    HW137643   0.591   4.267  10.850  0.3383  0.1180 -0.4358
 8728SOL    HW237644   0.478   4.193  10.917 -1.1987 -0.5946 -0.5728
 8729SOL     OW37645   1.048   4.207   6.943 -0.4808 -0.0213 -0.8968
 8729SOL    HW137646   1.079   4.283   6.992 -1.4585 -1.5481  2.0728
 8729SOL    HW237647   0.980   4.167   6.997  0.7791 -2.0111 -0.7983
 8730SOL     OW37648   2.339   4.147   7.298  0.4232 -0.0120 -0.0609
 8730SOL    HW137649   2.416   4.091   7.292 -1.2043 -2.2519  0.0703
 8730SOL    HW237650   2.325   4.168   7.391 -1.5325 -0.8408 -0.1681
 8731SOL     OW37651   0.886   3.027  13.001  0.5117  0.6245  0.3472
 8731SOL    HW137652   0.875   2.932  12.998  1.8872  0.4096  1.6045
 8731SOL    HW237653   0.798   3.055  13.025  1.0079  2.1174  0.4400
 8732SOL     OW37654   0.457   3.389   6.969 -0.2812  0.3293 -0.4052
 8732SOL    HW137655   0.384   3.381   7.030  1.6357  3.5413  2.3262
 8732SOL    HW237656   0.444   3.478   6.936 -0.3034  0.8922  1.1406
 8733SOL     OW37657   1.565   3.809   4.670 -0.1908 -0.0538 -0.0543
 8733SOL    HW137658   1.491   3.748   4.667  0.9557 -1.3771 -1.2707
 8733SOL    HW237659   1.591   3.797   4.762  2.0067 -0.4485 -0.7326
 8734SOL     OW37660   1.844   3.179   0.081 -0.4086 -0.4210 -0.6445
 8734SOL    HW137661   1.938   3.172   0.101 -0.1919  2.4213 -0.6040
 8734SOL    HW237662   1.850   3.223  17.682  2.5179  2.3488  0.9803
 8735SOL     OW37663   2.275   0.686   7.767 -0.3765  0.5984 -0.0259
 8735SOL    HW137664   2.264   0.781   7.761  0.8111  0.7196 -0.2147
 8735SOL    HW237665   2.357   0.659   7.726  0.6056 -1.5026  3.2709
 8736SOL     OW37666   1.065   0.100   1.276 -0.4586  0.4479  0.1696
 8736SOL    HW137667   0.990   0.078   1.220  0.9206 -3.7103 -0.0579
 8736SOL    HW237668   1.063   0.195   1.281 -1.5852  0.3799  0.9836
 8737SOL     OW37669   0.941   3.514   8.343 -0.3641 -0.5997 -0.8962
 8737SOL    HW137670   0.872   3.451   8.324  1.5904 -2.3643 -2.1911
 8737SOL    HW237671   1.016   3.474   8.298 -0.7751 -0.0208 -2.0945
 8738SOL     OW37672   2.739   3.484   8.242  0.1011  0.2941  0.1789
 8738SOL    HW137673   2.741   3.465   8.336 -1.1617 -0.3410  0.0774
 8738SOL    HW237674   2.793   3.425   8.191 -0.7996 -2.4284  2.3649
 8739SOL     OW37675   1.191   2.520  14.429  0.3478  0.3099 -0.5239
 8739SOL    HW137676   1.272   2.470  14.422 -0.9085 -1.7420 -0.2136
 8739SOL    HW237677   1.200   2.544  14.521  1.8480 -0.9749 -0.3457
 8740SOL     OW37678   0.975   2.616   5.978  0.4640 -0.0840  0.1269
 8740SOL    HW137679   0.948   2.634   6.068 -0.7467  0.9157 -0.4458
 8740SOL    HW237680   1.022   2.698   5.965  1.6648 -1.1529 -2.3143
 8741SOL     OW37681   1.397   2.182   0.320 -0.0346  0.1901  0.6758
 8741SOL    HW137682   1.480   2.134   0.323 -0.5308 -0.6063  1.6509
 8741SOL    HW237683   1.424   2.274   0.310  0.4780  0.0203  0.5060
 8742SOL     OW37684   4.261   2.518   2.635  0.4931 -0.3249  0.1556
 8742SOL    HW137685   4.167   2.504   2.641  0.3875  0.7499  0.9423
 8742SOL    HW237686   4.269   2.600   2.585  1.0348 -1.4506 -1.6267
 8743SOL     OW37687   4.537   3.123   8.031  0.2360 -0.1721  0.2844
 8743SOL    HW137688   4.614   3.178   8.045  1.5727 -2.0952  0.2995
 8743SOL    HW237689   4.543   3.107   7.937  0.7978  2.5985 -0.1684
 8744SOL     OW37690   3.772   2.352  13.719  0.0427  0.3266 -0.4671
 8744SOL    HW137691   3.784   2.371  13.812 -0.7287 -1.3492 -0.0236
 8744SOL    HW237692   3.691   2.303  13.721  0.6695 -0.8122 -3.0616
 8745SOL     OW37693   3.718   4.057   3.954 -0.3422  0.4205  0.3745
 8745SOL    HW137694   3.764   3.985   3.998  0.5727  0.8913  0.1808
 8745SOL    HW237695   3.794   4.080   3.900  0.7597 -1.6607  1.0264
 8746SOL     OW37696   4.328   3.155   6.215 -0.1686 -0.6499 -0.0323
 8746SOL    HW137697   4.360   3.212   6.285 -0.4318 -1.2892  0.6163
 8746SOL    HW237698   4.237   3.133   6.237 -0.1625 -0.6309  0.0126
 8747SOL     OW37699   0.632   3.650   1.931  0.4840  0.1764  0.1398
 8747SOL    HW137700   0.555   3.701   1.907 -0.4897 -0.1554  2.5043
 8747SOL    HW237701   0.603   3.560   1.922 -0.2498  0.4606 -0.2723
 8748SOL     OW37702   1.935   0.003  16.824  0.0737  0.1543 -0.1748
 8748SOL    HW137703   1.938   0.094  16.856 -1.3241 -0.0894  0.6322
 8748SOL    HW237704   1.840   4.711  16.829  0.0977 -0.0170 -0.1728
 8749SOL     OW37705   0.538   4.012  16.460  0.3839  0.7712 -0.9787
 8749SOL    HW137706   0.526   4.081  16.395 -0.3227  1.0345 -0.5759
 8749SOL    HW237707   0.606   4.049  16.516  0.3643 -0.2122 -0.3092
 8750SOL     OW37708   3.431   0.078  15.125 -0.2193 -0.2153  0.2508
 8750SOL    HW137709   3.457   0.157  15.078 -3.8219 -0.1515 -1.6260
 8750SOL    HW237710   3.515   0.041  15.152 -0.5667 -1.0857  0.1330
 8751SOL     OW37711   4.192   2.458   6.171 -0.1500 -0.9192 -0.6979
 8751SOL    HW137712   4.132   2.392   6.134 -2.1800  0.5595 -0.0659
 8751SOL    HW237713   4.164   2.452   6.263  0.1925  0.4141 -0.5070
 8752SOL     OW37714   1.821   4.715  10.427  0.1555 -0.1745 -0.5369
 8752SOL    HW137715   1.849   0.069  10.480  0.0577  1.7284 -3.1439
 8752SOL    HW237716   1.858   0.020  10.342 -2.7984  1.4473 -1.3310
 8753SOL     OW37717   3.143   0.492   7.499  0.5713  0.2687  0.0767
 8753SOL    HW137718   3.150   0.588   7.495  0.2907  0.2296 -1.3582
 8753SOL    HW237719   3.164   0.463   7.410 -0.4562  1.3811 -0.5428
 8754SOL     OW37720   3.859   4.137   6.683  0.2730  0.1560  0.4712
 8754SOL    HW137721   3.901   4.063   6.638  0.7464  1.7181 -1.6588
 8754SOL    HW237722   3.933   4.197   6.677  1.7585 -1.6741  0.1949
 8755SOL     OW37723   3.345   3.900  13.263 -0.0771  0.1586 -0.7212
 8755SOL    HW137724   3.323   3.810  13.239 -1.0023  0.0814  0.4101
 8755SOL    HW237725   3.262   3.947  13.251 -0.9643 -0.9900  0.8858
 8756SOL     OW37726   2.366   3.907   8.428 -0.1119 -0.9550  0.0331
 8756SOL    HW137727   2.426   3.849   8.476  0.1868 -1.1590 -0.5912
 8756SOL    HW237728   2.431   3.963   8.387  1.1784 -0.3806  2.8490
 8757SOL     OW37729   2.080   1.375   4.139 -0.0729  0.0982  0.0258
 8757SOL    HW137730   2.116   1.448   4.089 -1.7336  2.4497  2.2602
 8757SOL    HW237731   1.987   1.366   4.120  0.6711 -2.1059 -2.4670
 8758SOL     OW37732   1.756   2.253  16.373  0.3043  0.2016  0.3077
 8758SOL    HW137733   1.692   2.315  16.409 -1.8753 -3.2982  2.5033
 8758SOL    HW237734   1.720   2.174  16.412 -2.0364  1.0911 -0.0569
 8759SOL     OW37735   3.414   1.218  17.172 -0.3390  0.1345 -0.3374
 8759SOL    HW137736   3.320   1.208  17.189 -0.5293  2.6780  0.0606
 8759SOL    HW237737   3.424   1.163  17.094  1.4130  0.0115 -0.0173
 8760SOL     OW37738   4.057   2.780  15.675 -0.0867 -0.3878  0.6218
 8760SOL    HW137739   4.129   2.780  15.612 -1.6016 -0.1517 -1.1356
 8760SOL    HW237740   3.979   2.772  15.619  0.1222  0.5627  0.1909
 8761SOL     OW37741   0.750   4.698   7.818  0.1983 -0.0950  0.5665
 8761SOL    HW137742   0.827   4.698   7.761 -0.3216  1.8291 -0.1471
 8761SOL    HW237743   0.681   4.714   7.753  0.2024  0.0841  0.6076
 8762SOL     OW37744   2.242   4.299  14.100 -0.5810 -0.2049 -0.7190
 8762SOL    HW137745   2.270   4.382  14.062 -0.8326 -0.6259 -1.8363
 8762SOL    HW237746   2.307   4.239  14.062  0.6638  1.9487 -1.9932
 8763SOL     OW37747   2.717   1.408  13.132 -0.0385 -0.7993 -0.9228
 8763SOL    HW137748   2.773   1.485  13.124  0.5416 -1.0523  0.7060
 8763SOL    HW237749   2.775   1.339  13.099 -0.9863 -0.5822 -3.0229
 8764SOL     OW37750   3.251   3.934   2.421 -0.5345  0.6581  0.1086
 8764SOL    HW137751   3.261   4.026   2.397  0.5686  0.4102 -0.3920
 8764SOL    HW237752   3.245   3.956   2.514  2.1264 -0.2646  0.5079
 8765SOL     OW37753   2.541   1.041   4.472 -0.1194  0.0399  0.0406
 8765SOL    HW137754   2.533   1.058   4.378 -1.5405  2.2205  0.5444
 8765SOL    HW237755   2.458   0.998   4.495 -0.8920  1.3193 -0.3671
 8766SOL     OW37756   3.923   4.416   6.667  0.0392 -0.7668  0.3722
 8766SOL    HW137757   3.988   4.480   6.639  0.7996 -0.9877  1.6258
 8766SOL    HW237758   3.886   4.393   6.582 -0.1368  1.4778 -0.1413
 8767SOL     OW37759   1.634   0.191   9.792  0.5896 -0.1852 -0.4577
 8767SOL    HW137760   1.601   0.103   9.808 -0.4977 -0.0112 -1.7968
 8767SOL    HW237761   1.555   0.234   9.760  1.9104  2.2897 -0.4081
 8768SOL     OW37762   1.979   1.200   6.271  0.3154 -0.3933  0.4381
 8768SOL    HW137763   1.970   1.252   6.191 -2.3509  0.3964  1.2587
 8768SOL    HW237764   1.977   1.267   6.339  1.4514 -0.2446  0.3237
 8769SOL     OW37765   0.874   4.252  16.422  0.8725  0.5861  0.3568
 8769SOL    HW137766   0.817   4.205  16.483 -0.2306  0.9909 -0.3555
 8769SOL    HW237767   0.877   4.345  16.442 -0.7407  0.8517 -0.7025
 8770SOL     OW37768   3.483   3.315   9.121  1.0015  0.3296  0.2949
 8770SOL    HW137769   3.473   3.382   9.189 -1.8642 -0.1281  0.3298
 8770SOL    HW237770   3.465   3.363   9.040  1.2332 -0.9079 -0.4857
 8771SOL     OW37771   0.063   4.685   4.288  0.5458  0.1770  0.1463
 8771SOL    HW137772   0.058   4.590   4.277  0.5889  0.1443  0.4163
 8771SOL    HW237773   0.150   4.698   4.327 -0.7941 -0.5665  3.3554
 8772SOL     OW37774   2.177   0.536   4.184  0.3196  0.3276 -0.2014
 8772SOL    HW137775   2.148   0.465   4.241 -2.7606  1.2687 -0.5555
 8772SOL    HW237776   2.269   0.514   4.175  0.2425  0.5829 -1.6266
 8773SOL     OW37777   3.158   3.040   7.379 -0.2556  0.4940 -0.2401
 8773SOL    HW137778   3.117   3.124   7.400  1.8858  1.6286 -0.5839
 8773SOL    HW237779   3.149   2.984   7.456  0.1882 -0.1997 -0.6985
 8774SOL     OW37780   4.352   1.953  16.986  0.0217  0.4730 -0.0524
 8774SOL    HW137781   4.323   2.044  16.989 -0.6051  0.3461 -2.0998
 8774SOL    HW237782   4.268   1.907  16.988  0.2453  0.1406  1.8217
 8775SOL     OW37783   0.608   0.598  15.840 -0.1248  0.6908  0.2435
 8775SOL    HW137784   0.671   0.661  15.806  0.6449  0.8552  2.0025
 8775SOL    HW237785   0.550   0.647  15.898  1.0508  0.3302  1.7084
 8776SOL     OW37786   1.379   3.694  10.756 -0.1415  0.5528 -0.0253
 8776SOL    HW137787   1.415   3.663  10.839 -2.0196 -0.5175  0.3580
 8776SOL    HW237788   1.341   3.780  10.776 -0.5656  0.0843  1.1365
 8777SOL     OW37789   2.118   0.612   8.221  0.0085  0.5307 -0.6301
 8777SOL    HW137790   2.121   0.695   8.269  1.6153 -0.9939  1.8876
 8777SOL    HW237791   2.185   0.564   8.269 -0.9653 -0.8273 -0.6480
 8778SOL     OW37792   1.028   4.598   3.018  0.1204  0.3626 -0.1990
 8778SOL    HW137793   1.003   4.512   3.050 -1.0581  0.5436 -0.6134
 8778SOL    HW237794   0.964   4.608   2.948  1.6370  1.7019 -1.4042
 8779SOL     OW37795   2.687   3.398  17.287  0.1220 -0.2006  0.0870
 8779SOL    HW137796   2.610   3.348  17.312  0.4304 -0.6374  0.1646
 8779SOL    HW237797   2.747   3.330  17.256  1.2649  0.9010 -0.1321
 8780SOL     OW37798   2.615   1.056  16.049 -0.6523 -0.0987 -0.3215
 8780SOL    HW137799   2.659   0.983  16.005  1.7444  0.8507  0.5173
 8780SOL    HW237800   2.671   1.125  16.015  0.8755  0.4471  3.3804
 8781SOL     OW37801   1.238   3.926  15.794 -0.2898  0.0821  0.4769
 8781SOL    HW137802   1.320   3.940  15.746  0.5651  0.1941  1.9722
 8781SOL    HW237803   1.177   3.884  15.733  0.7372  0.1533 -0.6051
 8782SOL     OW37804   0.838   4.314  13.795 -0.5447  0.1823 -0.0633
 8782SOL    HW137805   0.926   4.320  13.759 -0.8017  0.2631 -0.6823
 8782SOL    HW237806   0.854   4.304  13.889  0.5399 -2.4614 -0.5300
 8783SOL     OW37807   3.618   1.966  10.339  0.7093  0.5493 -0.1894
 8783SOL    HW137808   3.627   1.891  10.280 -0.5797  2.1668 -2.4127
 8783SOL    HW237809   3.525   1.954  10.359  0.3857  0.7752 -1.5761
 8784SOL     OW37810   3.401   4.204   8.127  0.2582 -0.1076 -0.2230
 8784SOL    HW137811   3.345   4.209   8.204  0.3271 -0.4347 -0.1521
 8784SOL    HW237812   3.384   4.293   8.097  1.4936  0.3861  0.5801
 8785SOL     OW37813   0.944   3.404   2.244  1.0608 -0.1879 -0.0992
 8785SOL    HW137814   0.879   3.345   2.205  2.4187 -1.1537 -0.9067
 8785SOL    HW237815   1.008   3.400   2.173  1.1133  0.0312 -0.0656
 8786SOL     OW37816   2.470   4.575  11.977  0.1649 -0.1216  0.7347
 8786SOL    HW137817   2.412   4.629  12.031  0.7103 -0.1690  1.3641
 8786SOL    HW237818   2.408   4.534  11.917  1.6893 -1.1433 -0.1070
 8787SOL     OW37819   2.642   1.600  15.612 -0.3035  0.4065  0.1197
 8787SOL    HW137820   2.595   1.565  15.687  0.4904 -1.7809 -0.4079
 8787SOL    HW237821   2.581   1.667  15.581  0.2270 -0.4625 -2.8614
 8788SOL     OW37822   0.614   1.784   9.111  0.4748  0.4290 -0.3930
 8788SOL    HW137823   0.595   1.754   9.200 -0.2625  1.7449 -0.1061
 8788SOL    HW237824   0.650   1.702   9.078  0.8746  0.8316 -0.9505
 8789SOL     OW37825   4.665   1.228   0.710 -0.4027  0.2072  0.2167
 8789SOL    HW137826   4.706   1.223   0.624 -0.2565  1.6298  0.2041
 8789SOL    HW237827   4.668   1.323   0.722 -1.6697  0.1023  1.4666
 8790SOL     OW37828   3.712   4.368   1.725  0.8753 -0.5088 -0.2400
 8790SOL    HW137829   3.765   4.293   1.754  1.4330 -0.0710 -0.1347
 8790SOL    HW237830   3.624   4.335   1.744 -0.3947  2.1262 -1.6190
 8791SOL     OW37831   4.397   4.144   1.025  0.1780 -0.0598  0.0400
 8791SOL    HW137832   4.420   4.147   1.118 -0.6947 -0.2105  0.2614
 8791SOL    HW237833   4.317   4.093   1.030  0.7639 -0.8958  0.8710
 8792SOL     OW37834   2.165   0.202   7.217  0.7240  0.0195  0.0553
 8792SOL    HW137835   2.242   0.210   7.274  1.1438 -1.5836 -0.2966
 8792SOL    HW237836   2.112   0.141   7.268 -0.3580  0.5178 -0.4671
 8793SOL     OW37837   0.908   2.679   5.070  1.2097 -0.2249  0.3316
 8793SOL    HW137838   0.873   2.594   5.098  0.9895 -0.3888 -0.4344
 8793SOL    HW237839   0.987   2.689   5.123  1.9137 -2.3647 -0.2998
 8794SOL     OW37840   2.248   1.719   4.199  0.1309 -0.2373  0.6769
 8794SOL    HW137841   2.235   1.767   4.281  0.7002 -1.1841  1.3296
 8794SOL    HW237842   2.159   1.713   4.165  0.2584 -1.2508  0.5142
 8795SOL     OW37843   2.687   1.638  14.548  0.3239  0.1214  0.0918
 8795SOL    HW137844   2.748   1.564  14.545 -1.7799 -1.6710  1.7703
 8795SOL    HW237845   2.693   1.664  14.456  1.9720  0.2962  0.2374
 8796SOL     OW37846   1.895   4.510   5.616 -0.1138 -0.1278  0.0614
 8796SOL    HW137847   1.939   4.460   5.546  1.2352  1.8277 -0.4870
 8796SOL    HW237848   1.959   4.494   5.685 -0.0842  0.8828  0.2738
 8797SOL     OW37849   3.067   2.232  15.984 -0.3460  0.2287 -0.0487
 8797SOL    HW137850   3.015   2.291  16.037 -0.4995  0.4277 -0.4170
 8797SOL    HW237851   3.146   2.230  16.038 -0.2451  0.3171 -0.1932
 8798SOL     OW37852   0.621   1.075  13.618 -0.7635  0.0035  0.2880
 8798SOL    HW137853   0.681   1.068  13.544 -0.5888  1.6805  0.2712
 8798SOL    HW237854   0.657   1.146  13.671  2.0146  0.5005 -2.2691
 8799SOL     OW37855   2.265   0.379  12.547 -0.1603 -0.1481  0.3966
 8799SOL    HW137856   2.233   0.405  12.633  0.4078 -4.0657  1.8241
 8799SOL    HW237857   2.195   0.409  12.491  0.4808 -0.0482 -0.3510
 8800SOL     OW37858   3.690   1.423   3.945  0.1285  0.4550  0.0058
 8800SOL    HW137859   3.767   1.371   3.969 -1.7358 -2.9031 -1.3238
 8800SOL    HW237860   3.730   1.504   3.978  0.3366  1.0840 -1.7660
 8801SOL     OW37861   2.961   4.230  17.486 -0.6401  0.4785  0.3769
 8801SOL    HW137862   2.962   4.169  17.560 -0.2976 -2.5240 -2.1172
 8801SOL    HW237863   2.871   4.230  17.455 -1.0497 -0.5475  1.5813
 8802SOL     OW37864   2.572   2.826   1.880 -0.8545  0.2385  0.3492
 8802SOL    HW137865   2.616   2.758   1.931  2.8521  0.6429 -2.2798
 8802SOL    HW237866   2.627   2.824   1.801 -4.1165 -0.3000 -1.8953
 8803SOL     OW37867   3.665   0.032  12.297 -0.0698  0.0216  0.2662
 8803SOL    HW137868   3.721   0.008  12.371  0.0864  0.5695  0.3275
 8803SOL    HW237869   3.725   0.075  12.236  0.8921 -1.6029  0.0826
 8804SOL     OW37870   2.273   2.897  16.375 -0.1172 -0.5808 -0.1173
 8804SOL    HW137871   2.271   2.948  16.456 -1.2823 -1.0954  0.1753
 8804SOL    HW237872   2.274   2.975  16.320  1.9535  0.8774  1.9750
 8805SOL     OW37873   1.417   2.266   7.533 -0.4346 -0.2910 -0.2538
 8805SOL    HW137874   1.342   2.324   7.520 -0.4053 -0.5239 -1.4863
 8805SOL    HW237875   1.455   2.281   7.446  2.4021 -0.0382  1.0223
 8806SOL     OW37876   3.418   0.572   3.856 -0.0902 -0.2977 -0.2203
 8806SOL    HW137877   3.412   0.484   3.894 -1.3981 -0.9330 -1.9236
 8806SOL    HW237878   3.334   0.608   3.883  1.8802  1.9241  2.9670
 8807SOL     OW37879   2.641   1.131   9.817  0.3036  0.1882 -0.5171
 8807SOL    HW137880   2.641   1.211   9.871  1.9545  0.5989 -1.1291
 8807SOL    HW237881   2.592   1.072   9.874 -0.4449  0.4821 -0.8407
 8808SOL     OW37882   1.664   4.629   6.131  0.2336  0.1446 -0.2074
 8808SOL    HW137883   1.586   4.680   6.110  0.4341 -0.0691 -1.4819
 8808SOL    HW237884   1.687   4.592   6.046  0.4998  0.2011 -0.1615
 8809SOL     OW37885   1.954   0.817   6.248 -0.0285 -0.2256  0.1074
 8809SOL    HW137886   2.010   0.759   6.300  1.3255  1.4776  0.5466
 8809SOL    HW237887   1.924   0.876   6.316  1.1606 -0.6666  1.0251
 8810SOL     OW37888   3.731   2.484   3.010  0.5742  0.1447 -0.7498
 8810SOL    HW137889   3.744   2.535   3.090 -1.0972 -0.2015 -0.2610
 8810SOL    HW237890   3.694   2.555   2.957 -2.1634 -1.6916 -1.2584
 8811SOL     OW37891   3.113   3.094   5.946 -0.7146  0.0583  0.0326
 8811SOL    HW137892   3.054   3.106   5.871 -1.5373  0.1917  0.7013
 8811SOL    HW237893   3.051   3.049   6.003 -2.9098  2.1153 -0.7296
 8812SOL     OW37894   0.316   4.577  16.480  0.4750  0.0276  0.0947
 8812SOL    HW137895   0.396   4.616  16.443  0.4504  0.5365  0.5739
 8812SOL    HW237896   0.262   4.569  16.401 -1.2935 -0.4573  1.3380
 8813SOL     OW37897   2.960   4.575   8.469 -0.3885 -0.2892  0.3565
 8813SOL    HW137898   3.002   4.517   8.532 -0.3862  0.7726  1.3338
 8813SOL    HW237899   3.029   4.640   8.458 -0.5274 -0.3778 -1.0863
 8814SOL     OW37900   0.307   1.496   7.482 -0.0955 -0.3375 -0.1985
 8814SOL    HW137901   0.273   1.559   7.418  1.0981 -0.7582 -1.2271
 8814SOL    HW237902   0.227   1.467   7.528 -0.2681  1.2158  0.4827
 8815SOL     OW37903   3.167   3.298   0.830  0.2303 -0.2317  0.7177
 8815SOL    HW137904   3.194   3.206   0.826 -1.3623 -0.6711  0.0466
 8815SOL    HW237905   3.131   3.294   0.918 -1.1669  0.3608  0.1859
 8816SOL     OW37906   3.658   0.601  16.823 -0.2424 -0.8662  0.1062
 8816SOL    HW137907   3.682   0.693  16.821 -0.9242 -0.7009 -0.4447
 8816SOL    HW237908   3.727   0.566  16.767  0.8324 -0.0442  0.9337
 8817SOL     OW37909   1.402   1.484   4.586 -0.1738 -0.1113  0.2211
 8817SOL    HW137910   1.418   1.392   4.608 -0.6456  0.6614  3.8000
 8817SOL    HW237911   1.398   1.521   4.675 -1.9299  0.6064 -0.1444
 8818SOL     OW37912   2.315   4.304  14.710  0.4662  0.0559  0.6570
 8818SOL    HW137913   2.386   4.288  14.648 -1.8831 -3.0459 -1.2473
 8818SOL    HW237914   2.247   4.341  14.653  1.9187  1.7301  0.0206
 8819SOL     OW37915   2.911   3.406   0.717 -0.8116  0.3347 -0.0864
 8819SOL    HW137916   3.004   3.397   0.735 -0.6942  2.0427  0.1820
 8819SOL    HW237917   2.884   3.317   0.695 -0.5523  0.2370 -0.0017
 8820SOL     OW37918   0.427   0.823   6.115 -0.1020 -0.6012  0.2180
 8820SOL    HW137919   0.521   0.835   6.099  0.1922 -2.0603  0.8172
 8820SOL    HW237920   0.389   0.907   6.089 -0.9895 -0.9903  0.2659
 8821SOL     OW37921   4.297   2.973   9.756  0.0867 -0.1551  0.3954
 8821SOL    HW137922   4.310   2.990   9.662 -0.3813 -0.9913  0.1837
 8821SOL    HW237923   4.381   2.999   9.794 -0.2579  1.5393  0.0283
 8822SOL     OW37924   0.266   3.668   2.303 -0.2424  0.5369  0.6155
 8822SOL    HW137925   0.351   3.704   2.280 -0.1648 -0.5746 -0.7894
 8822SOL    HW237926   0.247   3.633   2.217  1.0551  0.8344  0.2096
 8823SOL     OW37927   2.740   2.249   6.896  0.2075 -0.1552 -0.0365
 8823SOL    HW137928   2.767   2.236   6.987  0.0030 -1.3697 -0.1429
 8823SOL    HW237929   2.653   2.288   6.906 -0.4700 -1.3257 -1.3493
 8824SOL     OW37930   0.812   4.113   8.655  0.4975  0.1425  0.6403
 8824SOL    HW137931   0.828   4.060   8.577  0.6723 -0.2757  0.9602
 8824SOL    HW237932   0.870   4.188   8.643  0.5472  0.4449  2.8270
 8825SOL     OW37933   3.868   0.796   0.906  0.1203  0.0188  0.0622
 8825SOL    HW137934   3.960   0.794   0.932  0.3793 -0.2800 -0.8677
 8825SOL    HW237935   3.830   0.734   0.967  1.7922 -1.2251 -0.1443
 8826SOL     OW37936   3.404   0.831  12.429  0.3390 -0.3703  0.4998
 8826SOL    HW137937   3.436   0.770  12.495  0.5955 -1.7634 -0.9074
 8826SOL    HW237938   3.333   0.782  12.387  1.3710 -1.0514 -0.4650
 8827SOL     OW37939   1.181   3.766  12.399  0.0821  0.2447  0.4832
 8827SOL    HW137940   1.111   3.702  12.387  0.7002 -0.1453 -1.0158
 8827SOL    HW237941   1.220   3.775  12.312  1.0621  1.3332  1.0285
 8828SOL     OW37942   4.651   4.714   2.276 -0.6061 -0.3625  0.5078
 8828SOL    HW137943   4.675   4.705   2.368 -0.8409 -1.2081  0.4874
 8828SOL    HW237944   0.016   4.719   2.234  0.1549 -0.2258  2.0810
 8829SOL     OW37945   3.999   0.984   2.194 -0.0678 -0.2936  0.6114
 8829SOL    HW137946   4.009   0.924   2.121 -0.2605 -1.2278  1.3518
 8829SOL    HW237947   3.915   0.956   2.231  0.0724  0.0781  1.2263
 8830SOL     OW37948   4.328   0.022   3.062 -0.1879 -0.1909 -0.0968
 8830SOL    HW137949   4.410   0.039   3.109 -0.3300  2.0246 -0.6420
 8830SOL    HW237950   4.367   0.007   2.976 -0.8901 -2.0950 -0.0922
 8831SOL     OW37951   4.140   3.585   4.133  0.5373  0.7659 -0.5722
 8831SOL    HW137952   4.194   3.541   4.067 -1.8335  1.5046 -2.9906
 8831SOL    HW237953   4.172   3.675   4.133  2.8943 -0.0577  0.8402
 8832SOL     OW37954   3.413   3.237   8.172  0.1586  0.0866  0.1548
 8832SOL    HW137955   3.495   3.215   8.214  1.4787  1.0718 -1.9087
 8832SOL    HW237956   3.412   3.333   8.170  0.4551  0.0875  0.1365
 8833SOL     OW37957   0.882   2.188   4.438 -0.0451  0.0693  0.3706
 8833SOL    HW137958   0.977   2.188   4.441 -0.0165 -0.5669 -0.5447
 8833SOL    HW237959   0.861   2.250   4.368  0.4024  1.8415  1.8021
 8834SOL     OW37960   1.678   1.754   7.098 -0.1656 -0.4995 -0.1638
 8834SOL    HW137961   1.744   1.808   7.054  0.4971 -1.1454  0.0388
 8834SOL    HW237962   1.724   1.693   7.156 -1.6170 -0.8203  0.6284
 8835SOL     OW37963   0.077   0.986   6.958 -0.1232 -0.3496 -0.1131
 8835SOL    HW137964   0.020   0.959   6.887  0.2311  0.7835 -0.8320
 8835SOL    HW237965   0.139   1.046   6.916  1.0585  0.0221  2.1303
 8836SOL     OW37966   0.027   3.556  13.502 -0.2982  0.3287 -0.2449
 8836SOL    HW137967   0.087   3.613  13.454  2.0185  0.3343  2.6611
 8836SOL    HW237968   0.044   3.587  13.590 -0.1280 -1.9855  0.5551
 8837SOL     OW37969   2.340   4.055   6.302 -0.1504 -0.0172 -0.1898
 8837SOL    HW137970   2.327   3.961   6.312  0.3015 -0.0543  0.0634
 8837SOL    HW237971   2.401   4.063   6.375 -1.0072  1.6937  0.3291
 8838SOL     OW37972   1.055   2.515   7.285 -0.2469  0.2265  0.0280
 8838SOL    HW137973   1.094   2.521   7.198  1.5826  1.4708  0.9426
 8838SOL    HW237974   1.133   2.477   7.324  0.0171 -0.2582 -0.9588
 8839SOL     OW37975   4.408   2.270   4.609 -0.1443  0.0458 -0.0210
 8839SOL    HW137976   4.428   2.214   4.534 -0.1405  1.7904 -1.3132
 8839SOL    HW237977   4.493   2.273   4.652 -0.3576 -0.4233  0.4329
 8840SOL     OW37978   2.885   2.489   6.289 -0.2519  0.0557 -0.0726
 8840SOL    HW137979   2.792   2.467   6.282 -0.4328  0.1942  1.7907
 8840SOL    HW237980   2.924   2.412   6.332 -0.2000  0.2218  0.1764
 8841SOL     OW37981   1.250   2.608   9.841  0.4364  0.2182  0.0722
 8841SOL    HW137982   1.291   2.545   9.900 -1.5793  1.6500  3.0161
 8841SOL    HW237983   1.320   2.659   9.800 -0.1899 -1.3440 -2.9330
 8842SOL     OW37984   4.494   0.147   3.929  0.1246  0.1824 -0.7233
 8842SOL    HW137985   4.524   0.060   3.958 -0.4070  0.2297 -0.0455
 8842SOL    HW237986   4.422   0.112   3.877  1.4856 -0.4021 -2.2042
 8843SOL     OW37987   4.176   0.388   2.058 -0.5038 -0.2878  0.7662
 8843SOL    HW137988   4.116   0.456   2.027 -0.5385 -0.4800  0.4231
 8843SOL    HW237989   4.258   0.437   2.063 -0.5695 -0.0615 -0.4118
 8844SOL     OW37990   2.206   2.671   6.593 -0.3486  0.0985  0.0155
 8844SOL    HW137991   2.123   2.650   6.636 -0.7995  1.8641  0.0013
 8844SOL    HW237992   2.242   2.583   6.581  1.7848  0.9461  0.2799
 8845SOL     OW37993   3.048   0.732  17.399  0.0476  0.4196  0.2456
 8845SOL    HW137994   2.963   0.733  17.355  0.0063 -0.1010  0.3090
 8845SOL    HW237995   3.085   0.815  17.370  0.0861  0.5782  0.7409
 8846SOL     OW37996   3.099   4.435  15.148  0.5226  0.4634 -0.2004
 8846SOL    HW137997   3.025   4.414  15.206  0.7773  1.1282  0.3661
 8846SOL    HW237998   3.062   4.391  15.072  1.0273 -0.0915 -0.1267
 8847SOL     OW37999   2.366   3.131   5.095 -0.5071  0.5015 -0.5813
 8847SOL    HW138000   2.362   3.136   4.999  1.4640 -0.4593 -0.7190
 8847SOL    HW238001   2.388   3.223   5.112  0.0704 -0.2075  2.5093
 8848SOL     OW38002   3.876   1.252   9.198 -0.8665  0.1674 -0.3822
 8848SOL    HW138003   3.967   1.253   9.228 -0.7865  0.1020 -0.6230
 8848SOL    HW238004   3.887   1.209   9.114  0.4021  0.5164 -0.3857
 8849SOL     OW38005   3.129   2.407   5.024 -0.5503 -0.3565 -0.1196
 8849SOL    HW138006   3.100   2.396   4.934  0.2142 -2.7684 -0.0646
 8849SOL    HW238007   3.070   2.349   5.071 -0.4254  0.7101  1.3409
 8850SOL     OW38008   1.361   2.053   8.474  0.2128  0.2244  0.3559
 8850SOL    HW138009   1.277   2.008   8.466  0.6985 -0.4644 -0.8022
 8850SOL    HW238010   1.416   2.000   8.417  0.9147 -2.0624  3.1178
 8851SOL     OW38011   1.649   0.151   0.074  0.0329  0.0875 -0.1733
 8851SOL    HW138012   1.657   0.071   0.021 -2.7911 -0.6574  0.5355
 8851SOL    HW238013   1.717   0.201   0.029 -1.2995 -0.5723 -2.9159
 8852SOL     OW38014   1.413   1.475   4.010 -0.3787  0.2672  0.3555
 8852SOL    HW138015   1.441   1.393   3.970 -1.0122 -0.8802  2.2700
 8852SOL    HW238016   1.337   1.441   4.058 -1.9091 -0.1847 -2.3755
 8853SOL     OW38017   3.326   3.447   3.092  0.3334  0.1620  0.6142
 8853SOL    HW138018   3.232   3.429   3.092  0.2850  0.4092  0.4084
 8853SOL    HW238019   3.336   3.514   3.159  1.4040  1.8939 -1.2627
 8854SOL     OW38020   3.663   3.907   3.331  0.3047  0.1920  0.0365
 8854SOL    HW138021   3.683   3.964   3.257  1.5039  0.3145  0.4584
 8854SOL    HW238022   3.697   3.961   3.403 -0.7164  1.4827 -0.4396
 8855SOL     OW38023   1.351   2.188   4.655 -0.7972  0.2898 -0.3609
 8855SOL    HW138024   1.415   2.124   4.622 -0.6198  0.6074 -0.6341
 8855SOL    HW238025   1.300   2.186   4.574  0.0386  0.7035 -0.9035
 8856SOL     OW38026   0.192   1.591   1.783  0.0343 -0.0538 -0.5295
 8856SOL    HW138027   0.162   1.641   1.859  2.2148  0.1855  0.1776
 8856SOL    HW238028   0.250   1.658   1.745  2.1788 -0.9303  1.2009
 8857SOL     OW38029   3.183   0.142   3.375  0.3979  0.0919 -0.1081
 8857SOL    HW138030   3.159   0.204   3.305 -0.1135  1.6696  1.4693
 8857SOL    HW238031   3.131   0.170   3.450 -1.3412 -0.9763 -0.9131
 8858SOL     OW38032   0.605   2.072  16.200  0.6133 -0.1223  0.5252
 8858SOL    HW138033   0.529   2.017  16.179 -1.2433  2.1307  1.2625
 8858SOL    HW238034   0.666   2.001  16.218  1.2586 -0.4342 -2.8112
 8859SOL     OW38035   4.494   0.902   1.101  0.5237 -0.4082  0.8556
 8859SOL    HW138036   4.437   0.834   1.066  1.7059 -1.1874  0.4367
 8859SOL    HW238037   4.489   0.971   1.035 -1.1824 -1.6991 -0.3490
 8860SOL     OW38038   0.013   3.878   3.868  0.0142 -0.1221 -0.4632
 8860SOL    HW138039   0.063   3.898   3.788 -0.9433 -0.7736 -1.2237
 8860SOL    HW238040   0.017   3.784   3.853  1.3142  0.0653 -1.3485
 8861SOL     OW38041   3.707   3.748   0.849 -0.0201  0.5360 -0.1820
 8861SOL    HW138042   3.730   3.691   0.776  1.3819  2.0276 -0.8853
 8861SOL    HW238043   3.703   3.674   0.910 -0.0354  1.2291  0.6573
 8862SOL     OW38044   0.454   1.775   6.992  0.1318 -0.3464 -0.6646
 8862SOL    HW138045   0.501   1.773   7.075  0.9922 -0.6294 -1.1593
 8862SOL    HW238046   0.487   1.696   6.950  3.0735 -0.1189  1.2290
 8863SOL     OW38047   1.350   1.467   5.066 -0.3073  0.2389 -0.4517
 8863SOL    HW138048   1.365   1.548   5.115 -0.4030  0.3949 -0.6791
 8863SOL    HW238049   1.358   1.396   5.130  1.7207  0.1553 -0.7873
 8864SOL     OW38050   3.765   0.422  14.928  0.4353  0.2918 -0.3317
 8864SOL    HW138051   3.724   0.436  15.014 -0.6604  0.2713 -0.8493
 8864SOL    HW238052   3.714   0.474  14.866  2.2059 -0.4828 -2.4271
 8865SOL     OW38053   0.215   0.431   8.606 -0.0668  0.3110 -0.5795
 8865SOL    HW138054   0.215   0.521   8.574 -1.3756  0.6766  0.4321
 8865SOL    HW238055   0.279   0.396   8.545  1.9502  0.7270  1.2888
 8866SOL     OW38056   4.321   1.494  13.667  0.3668  0.1576  0.3982
 8866SOL    HW138057   4.245   1.437  13.674  2.1526 -2.2683 -0.0703
 8866SOL    HW238058   4.277   1.569  13.628  1.5648  0.3830 -0.5023
 8867SOL     OW38059   0.888   2.958   4.566  0.2162 -0.1583  0.1519
 8867SOL    HW138060   0.799   2.974   4.535  0.6867  1.4722 -0.3640
 8867SOL    HW238061   0.882   2.950   4.661 -2.2571  0.6565  0.0420
 8868SOL     OW38062   0.217   0.142  11.120 -0.1663  0.8505  0.5964
 8868SOL    HW138063   0.217   0.056  11.077 -1.5145  0.8367  0.6156
 8868SOL    HW238064   0.229   0.198  11.043  0.9431  1.3494  1.1435
 8869SOL     OW38065   4.087   0.873   9.474  0.2853  0.0432 -0.2448
 8869SOL    HW138066   4.007   0.926   9.467  1.0095  0.9222 -1.9731
 8869SOL    HW238067   4.075   0.834   9.387  0.2328  3.3061 -1.7103
 8870SOL     OW38068   1.783   2.970   9.308 -0.2330  0.5854  0.2435
 8870SOL    HW138069   1.809   2.878   9.303 -0.6635  0.5490 -1.2623
 8870SOL    HW238070   1.718   2.968   9.238 -0.4185  0.7483  0.4113
 8871SOL     OW38071   0.782   1.341   6.854 -0.3722 -0.0472  0.4063
 8871SOL    HW138072   0.746   1.342   6.942 -1.5879 -0.5937 -0.0888
 8871SOL    HW238073   0.759   1.253   6.824 -1.5324 -0.4860  2.6369
 8872SOL     OW38074   4.128   3.581   2.194  0.1296  0.1257 -0.3874
 8872SOL    HW138075   4.141   3.671   2.162  0.4170  0.3008  0.2347
 8872SOL    HW238076   4.145   3.534   2.112  0.2552  0.4577 -0.5524
 8873SOL     OW38077   1.827   0.477  10.122  0.0382  0.1313  0.1193
 8873SOL    HW138078   1.906   0.459  10.174  0.9796  0.6545 -1.1350
 8873SOL    HW238079   1.765   0.414  10.159  0.3392 -0.3056 -0.1193
 8874SOL     OW38080   2.576   1.005   2.144 -0.9037 -1.0093 -0.4794
 8874SOL    HW138081   2.534   1.083   2.180  0.7173 -0.5796  0.4682
 8874SOL    HW238082   2.668   1.012   2.167 -1.1724  1.5813 -0.1696
 8875SOL     OW38083   2.804   1.761   3.815 -0.1082 -0.0049 -0.5552
 8875SOL    HW138084   2.857   1.693   3.774  0.7004 -0.9325  2.0608
 8875SOL    HW238085   2.798   1.829   3.748 -0.7441 -0.5102 -1.0116
 8876SOL     OW38086   1.057   3.145   4.444  0.3515 -0.9266 -0.2411
 8876SOL    HW138087   1.020   3.062   4.474  2.4992 -2.6051 -2.3106
 8876SOL    HW238088   0.997   3.208   4.485  0.6375 -1.1739  0.5669
 8877SOL     OW38089   4.265   2.565   3.596 -0.2165 -0.1839 -0.2961
 8877SOL    HW138090   4.225   2.597   3.515  2.1550 -0.4718 -1.5719
 8877SOL    HW238091   4.213   2.620   3.655 -0.1846 -1.2824  0.7412
 8878SOL     OW38092   2.464   3.210  15.992 -0.2430  0.1861 -0.8908
 8878SOL    HW138093   2.488   3.300  16.012  1.2390 -0.6516  1.1505
 8878SOL    HW238094   2.548   3.164  15.990  0.4203  1.3164  0.8371
 8879SOL     OW38095   0.481   0.452   2.940 -0.3839 -0.3437 -0.4716
 8879SOL    HW138096   0.472   0.444   3.035 -1.2405 -0.2542 -0.5504
 8879SOL    HW238097   0.538   0.375   2.928  1.9548  1.1902  0.8691
 8880SOL     OW38098   1.388   1.552   7.644  0.0877 -0.1615 -0.2672
 8880SOL    HW138099   1.380   1.506   7.561 -0.2928 -1.2271  0.3545
 8880SOL    HW238100   1.445   1.621   7.612  0.0903  0.0815  0.2585
 8881SOL     OW38101   0.380   1.189  13.382  0.4889  0.2796  0.0505
 8881SOL    HW138102   0.400   1.165  13.291 -1.1021  1.5170 -0.6314
 8881SOL    HW238103   0.320   1.261  13.364  0.8555  0.6624  0.3579
 8882SOL     OW38104   4.451   4.682  13.452 -0.2601 -0.9184 -0.4475
 8882SOL    HW138105   4.444   4.600  13.402 -1.0768 -1.0187 -0.1643
 8882SOL    HW238106   4.389   0.017  13.405 -1.5325 -2.2496 -0.3528
 8883SOL     OW38107   4.162   3.738   2.995 -0.3952 -0.0661 -0.4961
 8883SOL    HW138108   4.181   3.706   2.907  0.0453 -0.1917 -0.3529
 8883SOL    HW238109   4.068   3.756   2.993  0.2077  3.0607  0.5869
 8884SOL     OW38110   0.721   4.247   5.402  0.2011  0.2896  0.0980
 8884SOL    HW138111   0.754   4.298   5.327  1.2919 -1.4509 -0.6248
 8884SOL    HW238112   0.741   4.307   5.473  1.6714 -0.1548  0.0580
 8885SOL     OW38113   1.173   4.187  16.305  0.0845  0.3153 -0.7911
 8885SOL    HW138114   1.180   4.281  16.319 -0.8143  0.4306 -1.1143
 8885SOL    HW238115   1.254   4.180  16.255  0.4852  0.2881 -0.1449
 8886SOL     OW38116   2.058   0.922   7.039  0.0660  0.2011 -0.0079
 8886SOL    HW138117   1.992   0.985   7.069 -0.7575  0.2859 -2.0058
 8886SOL    HW238118   2.001   0.849   7.063  1.0579 -0.2041  1.1105
 8887SOL     OW38119   2.858   1.611   4.415  0.3687 -0.5901 -0.4595
 8887SOL    HW138120   2.786   1.549   4.426 -0.5907  0.4395 -0.9581
 8887SOL    HW238121   2.880   1.608   4.322 -0.1248  1.1007 -0.6146
 8888SOL     OW38122   3.404   4.558  15.298 -0.1315 -0.2223  0.2348
 8888SOL    HW138123   3.457   4.611  15.357 -1.4529  2.0033 -0.5927
 8888SOL    HW238124   3.472   4.530  15.235  0.2668 -0.8380  0.9313
 8889SOL     OW38125   1.549   3.922   5.604 -0.5892 -0.0696 -0.1850
 8889SOL    HW138126   1.526   3.916   5.697 -0.2103 -0.4608 -0.1184
 8889SOL    HW238127   1.600   4.003   5.604 -0.5083 -0.1185  0.1497
 8890SOL     OW38128   3.210   0.673  12.320  0.7513  0.1338  0.1274
 8890SOL    HW138129   3.245   0.686  12.232 -0.8058 -0.6155 -0.5941
 8890SOL    HW238130   3.189   0.580  12.314  1.4091 -0.0179  0.1733
 8891SOL     OW38131   1.598   2.958   4.550  1.1027 -0.5182  0.2391
 8891SOL    HW138132   1.616   2.899   4.477  0.0422 -0.4013 -0.1236
 8891SOL    HW238133   1.545   2.903   4.608  1.4603 -0.2761  0.7913
 8892SOL     OW38134   1.605   2.611   9.044 -0.1836 -0.2550 -0.3024
 8892SOL    HW138135   1.531   2.557   9.017 -1.3686 -0.1293  2.7833
 8892SOL    HW238136   1.612   2.579   9.134  0.1076 -1.7602 -0.8605
 8893SOL     OW38137   0.686   1.684  14.510  0.2642  0.2784  0.2532
 8893SOL    HW138138   0.699   1.734  14.430  0.4425 -0.7209 -0.3483
 8893SOL    HW238139   0.731   1.731  14.580 -2.3202  3.0269  0.0828
 8894SOL     OW38140   0.398   4.413   6.909  0.8448  0.4565 -0.1730
 8894SOL    HW138141   0.334   4.428   6.839  2.5455  1.0205 -1.5819
 8894SOL    HW238142   0.464   4.375   6.851  1.1927 -0.3312  0.7325
 8895SOL     OW38143   1.956   0.545   4.550 -0.7712 -0.4253 -0.2014
 8895SOL    HW138144   2.007   0.505   4.620 -1.0933 -0.3809  0.0583
 8895SOL    HW238145   1.927   0.619   4.602  1.6659  0.6974 -0.4520
 8896SOL     OW38146   4.491   1.423  15.937  0.3396  0.4093  0.0456
 8896SOL    HW138147   4.549   1.390  15.869 -2.0150  0.1517 -1.8091
 8896SOL    HW238148   4.426   1.480  15.896  0.1543  0.9287  1.0375
 8897SOL     OW38149   2.348   1.279  12.021  0.1188  0.1623  0.1303
 8897SOL    HW138150   2.436   1.259  11.990  0.1783  0.6325 -0.0045
 8897SOL    HW238151   2.298   1.201  11.998  0.6632 -0.3864  0.8091
 8898SOL     OW38152   0.771   1.900   9.956  0.9201  0.4020  0.3397
 8898SOL    HW138153   0.838   1.840   9.988  1.3102  0.6631  0.0144
 8898SOL    HW238154   0.772   1.952  10.037 -4.2850 -0.5598  0.9846
 8899SOL     OW38155   2.591   2.527  15.111 -0.3439 -0.3972 -0.4542
 8899SOL    HW138156   2.528   2.598  15.108 -1.1376 -1.1040 -0.4508
 8899SOL    HW238157   2.660   2.574  15.159 -1.1895  1.7537 -1.4010
 8900SOL     OW38158   2.218   4.596   4.055  0.1239 -0.1644  0.2883
 8900SOL    HW138159   2.179   4.633   3.976  1.0670 -1.5880 -0.8314
 8900SOL    HW238160   2.267   4.674   4.082 -1.8890  1.4313 -0.6252
 8901SOL     OW38161   3.800   1.996   4.179 -0.0998 -0.2617  0.5535
 8901SOL    HW138162   3.870   1.965   4.121 -1.6823  0.2582 -1.6267
 8901SOL    HW238163   3.829   1.938   4.250 -0.0268 -2.8089 -1.5402
 8902SOL     OW38164   0.918   0.773  13.043  0.8987  0.5068 -0.1272
 8902SOL    HW138165   0.893   0.682  13.028 -0.5344  0.1944  3.9240
 8902SOL    HW238166   0.984   0.775  13.112  0.0584 -2.4834  0.7316
 8903SOL     OW38167   0.302   0.749   7.668  0.0267  0.2078 -0.2879
 8903SOL    HW138168   0.237   0.810   7.634 -0.2922 -0.8368 -1.5329
 8903SOL    HW238169   0.251   0.668   7.664  2.7804 -1.4353 -2.5725
 8904SOL     OW38170   3.719   2.843  16.361  0.7625  0.0718 -0.1230
 8904SOL    HW138171   3.758   2.764  16.325 -1.3219 -1.1976  0.3965
 8904SOL    HW238172   3.763   2.860  16.444 -0.5036  1.2829  0.3136
 8905SOL     OW38173   1.039   0.937   5.816 -0.3327 -0.2191 -0.6602
 8905SOL    HW138174   0.971   0.931   5.749 -0.5464 -1.4873 -0.3363
 8905SOL    HW238175   1.083   0.853   5.806 -2.1098 -1.4420  1.8773
 8906SOL     OW38176   3.060   3.929   7.578  0.1101  0.1527  0.2009
 8906SOL    HW138177   3.016   3.967   7.502 -0.7353  0.6613  0.9465
 8906SOL    HW238178   2.995   3.897   7.640  2.8349 -0.2510  2.8435
 8907SOL     OW38179   1.579   1.124   5.582 -0.0025  0.2231 -0.4014
 8907SOL    HW138180   1.657   1.179   5.589  0.0254  0.1855 -0.4164
 8907SOL    HW238181   1.508   1.188   5.579  1.0345  1.4700  1.2178
 8908SOL     OW38182   2.790   4.580   7.982 -0.0322  0.1508 -0.3693
 8908SOL    HW138183   2.802   4.674   7.987  1.0130 -0.0382  0.5286
 8908SOL    HW238184   2.842   4.551   8.057  1.2579 -2.4934 -2.3013
 8909SOL     OW38185   2.393   0.404  11.405 -0.2543  0.1005 -0.1066
 8909SOL    HW138186   2.454   0.332  11.390 -0.1265  0.2905 -0.5010
 8909SOL    HW238187   2.314   0.351  11.396  0.1631 -0.6316  0.6528
 8910SOL     OW38188   1.453   0.408   4.628  0.1777  0.0797  0.4157
 8910SOL    HW138189   1.404   0.345   4.574  1.2340  0.0716 -0.5278
 8910SOL    HW238190   1.529   0.361   4.663  0.4957  0.1368 -0.2105
 8911SOL     OW38191   2.816   3.938   5.542  0.7811  0.2483 -0.1190
 8911SOL    HW138192   2.833   3.928   5.636 -1.8462  1.0033  0.4502
 8911SOL    HW238193   2.830   3.847   5.519  1.3018  0.2696  0.1107
 8912SOL     OW38194   4.564   1.929  17.159 -0.5785  0.3009 -0.5278
 8912SOL    HW138195   4.587   1.838  17.137  0.7508  0.1900  1.3795
 8912SOL    HW238196   4.494   1.941  17.094  0.1485  3.6243 -0.6555
 8913SOL     OW38197   4.498   2.636   0.531  0.3756 -0.1888  0.0546
 8913SOL    HW138198   4.537   2.721   0.551  1.5145 -0.7231  0.1308
 8913SOL    HW238199   4.414   2.649   0.575  0.2496  0.3225 -0.3304
 8914SOL     OW38200   0.189   1.304   4.414  0.3001  0.0240 -0.7108
 8914SOL    HW138201   0.160   1.216   4.395  0.9557 -0.3133 -0.1718
 8914SOL    HW238202   0.278   1.286   4.444 -0.0103  1.1315  0.8912
 8915SOL     OW38203   1.425   2.686   9.376 -0.1827 -0.3233 -0.1661
 8915SOL    HW138204   1.349   2.629   9.388 -0.1907 -0.0697  1.0621
 8915SOL    HW238205   1.493   2.619   9.375  0.1842  0.0455 -0.0124
 8916SOL     OW38206   0.535   4.428   6.510  0.0289  0.3665 -0.2670
 8916SOL    HW138207   0.445   4.460   6.513  1.2094  3.6975 -0.1187
 8916SOL    HW238208   0.521   4.367   6.437 -0.3520  1.8468 -1.4494
 8917SOL     OW38209   4.401   0.166  13.613  0.2006  0.1759 -0.1645
 8917SOL    HW138210   4.312   0.132  13.601  0.3936 -0.2677 -0.3717
 8917SOL    HW238211   4.447   0.100  13.562 -0.0149 -0.4494  0.4435
 8918SOL     OW38212   1.325   0.036   4.704  0.9674 -0.4651 -0.4083
 8918SOL    HW138213   1.392   4.699   4.667  0.0178 -0.4142 -2.1555
 8918SOL    HW238214   1.305   0.077   4.621  2.1875  1.2661  0.1549
 8919SOL     OW38215   0.868   0.942   7.521 -0.0378  0.3172 -0.4897
 8919SOL    HW138216   0.801   1.007   7.500 -1.2605 -0.3293  1.3772
 8919SOL    HW238217   0.905   0.921   7.436 -0.0970 -3.9633  0.5655
 8920SOL     OW38218   3.800   1.698   4.327 -0.0075  0.3064 -0.3718
 8920SOL    HW138219   3.867   1.700   4.395  0.2331  0.6726 -0.6219
 8920SOL    HW238220   3.736   1.641   4.372  2.7144 -2.0752  0.4750
 8921SOL     OW38221   0.116   3.718   4.373 -0.3794  0.2731  0.0603
 8921SOL    HW138222   0.025   3.689   4.376  0.4434 -2.1443  1.7366
 8921SOL    HW238223   0.115   3.812   4.388  0.5511  0.6636 -2.2968
 8922SOL     OW38224   1.072   0.838   8.236 -0.3837  0.0340  0.2516
 8922SOL    HW138225   1.160   0.827   8.200 -0.8711  3.4807 -1.9901
 8922SOL    HW238226   1.034   0.866   8.153 -1.8992 -0.3991  0.7821
 8923SOL     OW38227   3.847   3.001  10.000  0.3510  0.3705  0.1444
 8923SOL    HW138228   3.900   3.004   9.920  2.2886 -0.3121  1.3834
 8923SOL    HW238229   3.905   2.938  10.043 -0.5396 -0.2035  0.4967
 8924SOL     OW38230   2.303   1.389   7.361 -0.0778  0.1568  0.4066
 8924SOL    HW138231   2.328   1.339   7.438  0.1427 -0.3722 -0.0037
 8924SOL    HW238232   2.217   1.352   7.339  0.7489 -1.4789 -0.0672
 8925SOL     OW38233   4.420   1.873  11.743  0.0367  0.2412 -0.1434
 8925SOL    HW138234   4.494   1.832  11.699  0.3453  0.0749  0.5278
 8925SOL    HW238235   4.414   1.817  11.820 -0.9971  1.1237  0.4219
 8926SOL     OW38236   0.457   4.558   3.945  0.2538 -0.0767 -0.6424
 8926SOL    HW138237   0.383   4.517   3.990  0.3869  1.1729  0.7238
 8926SOL    HW238238   0.492   4.613   4.015  0.3993 -1.9308  0.7625
 8927SOL     OW38239   0.379   0.848  12.922  0.0073  0.6585 -0.5151
 8927SOL    HW138240   0.463   0.871  12.963 -0.0294 -0.6708  0.3281
 8927SOL    HW238241   0.412   0.835  12.833 -1.0110 -0.1859 -0.7661
 8928SOL     OW38242   2.774   3.061  12.827  0.1925  0.0193  0.1947
 8928SOL    HW138243   2.725   3.128  12.873  0.3509  0.3475 -0.1102
 8928SOL    HW238244   2.823   3.116  12.766 -1.8377  0.8861 -0.6218
 8929SOL     OW38245   2.302   0.459   8.346 -0.6122 -0.1287  0.3455
 8929SOL    HW138246   2.377   0.487   8.293 -1.4797  1.0848 -0.2323
 8929SOL    HW238247   2.328   0.502   8.428  0.0655  0.8863 -0.3823
 8930SOL     OW38248   3.543   0.252   2.485 -0.3673 -0.4375  0.4908
 8930SOL    HW138249   3.624   0.220   2.448  0.2175  1.7090 -0.1103
 8930SOL    HW238250   3.556   0.344   2.460  1.6868 -1.0267 -0.5317
 8931SOL     OW38251   3.549   1.643   3.409  0.1169 -0.1970  0.0397
 8931SOL    HW138252   3.630   1.656   3.459  0.0834  1.8443 -0.4556
 8931SOL    HW238253   3.486   1.688   3.465  1.3898  1.7288 -0.0725
 8932SOL     OW38254   1.686   4.308   9.344 -0.2903 -0.4822  0.4602
 8932SOL    HW138255   1.770   4.320   9.389 -0.1118  1.0982 -0.2820
 8932SOL    HW238256   1.695   4.213   9.343  0.1934 -0.4199 -0.8927
 8933SOL     OW38257   2.333   4.299   1.400 -0.1825 -0.3386 -0.4210
 8933SOL    HW138258   2.379   4.259   1.326  0.6882 -0.6519  0.3011
 8933SOL    HW238259   2.407   4.311   1.459 -3.0570 -2.3672  3.5581
 8934SOL     OW38260   4.276   2.081   2.100  0.1718  0.2298 -0.0709
 8934SOL    HW138261   4.276   2.010   2.035 -1.1455  0.3035 -0.1507
 8934SOL    HW238262   4.288   2.160   2.046  0.1914 -0.0226 -0.4385
 8935SOL     OW38263   2.697   3.584   7.311 -0.6221 -0.4658 -0.5317
 8935SOL    HW138264   2.634   3.630   7.366 -1.5540 -1.7483 -0.5056
 8935SOL    HW238265   2.685   3.633   7.230 -0.1320  0.8864  0.2248
 8936SOL     OW38266   1.774   2.336   5.680  0.1722  0.4223  0.0450
 8936SOL    HW138267   1.751   2.306   5.592 -1.0405  1.2228  0.0780
 8936SOL    HW238268   1.747   2.428   5.688  1.6992  1.0068 -1.5784
 8937SOL     OW38269   4.365   4.467   5.068 -0.8130 -0.0926 -0.2027
 8937SOL    HW138270   4.404   4.534   5.012 -1.1178 -0.8043 -1.2622
 8937SOL    HW238271   4.445   4.419   5.087 -0.5268  0.5119  0.1284
 8938SOL     OW38272   2.866   0.341   8.829  0.5858  0.1246 -0.0070
 8938SOL    HW138273   2.863   0.246   8.824 -1.3922  0.2546 -1.1368
 8938SOL    HW238274   2.849   0.357   8.737 -1.3666  0.0826  0.3527
 8939SOL     OW38275   3.126   2.015   0.603  0.1513  0.1066  0.2390
 8939SOL    HW138276   3.050   2.007   0.660 -0.4302 -1.9793 -0.8414
 8939SOL    HW238277   3.182   2.081   0.645  0.7001  0.0018 -0.3210
 8940SOL     OW38278   3.017   2.415   7.764 -0.1892 -0.1376  0.1385
 8940SOL    HW138279   3.070   2.450   7.693 -0.1169 -0.5322 -0.0009
 8940SOL    HW238280   3.083   2.415   7.834 -1.2050 -0.2434  1.0936
 8941SOL     OW38281   4.687   1.312   8.027  0.5077  0.3525  0.5272
 8941SOL    HW138282   4.629   1.353   8.091 -0.5945  1.5141 -1.2187
 8941SOL    HW238283   0.011   1.391   7.997 -1.5454  0.4970 -2.1742
 8942SOL     OW38284   4.266   4.372  13.717 -0.0672 -0.1499 -0.1264
 8942SOL    HW138285   4.356   4.340  13.725 -0.6956 -1.8084  0.1533
 8942SOL    HW238286   4.253   4.412  13.631  3.5351  1.4722  0.0762
 8943SOL     OW38287   1.302   2.853   4.455 -0.4747  0.1228 -0.6185
 8943SOL    HW138288   1.283   2.940   4.421 -2.4842 -0.1162 -0.1276
 8943SOL    HW238289   1.238   2.801   4.406 -0.8116 -0.3183  0.2858
 8944SOL     OW38290   0.669   0.359   4.999  0.2308  0.3568 -0.2284
 8944SOL    HW138291   0.606   0.290   4.981  1.0633 -0.7529  1.0494
 8944SOL    HW238292   0.750   0.310   5.015  0.0262  0.0404 -0.1572
 8945SOL     OW38293   3.345   1.253   4.655  0.6262  0.3276 -0.4121
 8945SOL    HW138294   3.378   1.301   4.579  1.3965  0.8401  0.2398
 8945SOL    HW238295   3.254   1.278   4.643 -0.2055 -1.2599  2.7724
 8946SOL     OW38296   3.218   3.961  12.064  0.1089  0.7426 -0.1011
 8946SOL    HW138297   3.170   4.029  12.016 -0.6556  1.2036  1.3097
 8946SOL    HW238298   3.198   3.892  12.001 -2.7311  0.8435  0.6557
 8947SOL     OW38299   1.460   1.918  11.488  0.2522  0.2327  0.2110
 8947SOL    HW138300   1.496   1.885  11.406  0.5993  0.1715  0.3896
 8947SOL    HW238301   1.516   1.993  11.508 -0.4615  0.5590  0.9938
 8948SOL     OW38302   0.557   4.121   4.880  0.1168  0.1643  0.2280
 8948SOL    HW138303   0.524   4.153   4.965 -1.7418  1.3318 -0.9272
 8948SOL    HW238304   0.624   4.187   4.861 -0.4868  0.9519  0.8214
 8949SOL     OW38305   0.171   4.685   1.354  0.0731 -0.5257 -0.2385
 8949SOL    HW138306   0.248   4.697   1.300 -1.1607  3.2945 -1.1940
 8949SOL    HW238307   0.158   4.591   1.341 -0.7759 -0.3346 -0.7845
 8950SOL     OW38308   3.958   2.747   2.732 -0.0444 -0.0782  0.5805
 8950SOL    HW138309   3.868   2.778   2.725 -0.1716 -1.3364 -3.0302
 8950SOL    HW238310   3.969   2.741   2.827  1.9552 -1.9728  0.2435
 8951SOL     OW38311   2.039   1.510   2.918 -0.0130  0.1365  0.5112
 8951SOL    HW138312   2.124   1.553   2.928 -0.1353  0.2753  0.9727
 8951SOL    HW238313   2.063   1.417   2.916  1.0843  0.4022  1.6182
 8952SOL     OW38314   2.566   3.036   2.060  0.2968 -0.5065  0.0985
 8952SOL    HW138315   2.476   3.065   2.047  0.6042  1.1118  1.7055
 8952SOL    HW238316   2.567   2.953   2.012 -4.8623 -1.4474  1.6502
 8953SOL     OW38317   1.778   4.109   8.869 -0.2389 -0.0814 -0.2993
 8953SOL    HW138318   1.819   4.195   8.877  1.5785 -0.7085 -2.8573
 8953SOL    HW238319   1.819   4.070   8.946  0.6423  0.0664 -0.6866
 8954SOL     OW38320   3.819   4.558   3.745  0.1137 -0.2705 -0.2755
 8954SOL    HW138321   3.733   4.582   3.781  1.0841  1.4172  0.8793
 8954SOL    HW238322   3.860   4.642   3.723  0.3119  0.1545  1.7723
 8955SOL     OW38323   1.310   1.366   8.782 -0.6215 -0.0284 -0.1839
 8955SOL    HW138324   1.266   1.292   8.823  0.9613 -2.2504 -2.4716
 8955SOL    HW238325   1.317   1.335   8.691  1.2191  1.8156 -0.6612
 8956SOL     OW38326   0.169   2.157  10.284  0.3059  0.3237  0.1979
 8956SOL    HW138327   0.098   2.205  10.327  0.4803  0.5271  0.2566
 8956SOL    HW238328   0.186   2.100  10.359  0.2471  0.2775  0.1754
 8957SOL     OW38329   1.658   0.664   1.590  0.3596 -0.2443  0.0366
 8957SOL    HW138330   1.636   0.757   1.592  0.6943 -0.1526 -0.4456
 8957SOL    HW238331   1.604   0.634   1.516  1.6253  0.6071 -1.2416
 8958SOL     OW38332   1.308   4.218  14.750  0.5074  1.2082 -0.7061
 8958SOL    HW138333   1.273   4.256  14.831  1.0159  0.9565 -0.3629
 8958SOL    HW238334   1.326   4.131  14.784  1.8079  1.5534 -0.5150
 8959SOL     OW38335   0.646   2.051  11.849  0.5154  0.6326  0.5781
 8959SOL    HW138336   0.552   2.064  11.845  0.0736 -2.9816 -0.9197
 8959SOL    HW238337   0.665   1.999  11.770 -1.9624  2.5362 -1.2523
 8960SOL     OW38338   2.035   2.880   6.973  0.4015  0.1167 -0.2059
 8960SOL    HW138339   2.027   2.956   6.915 -1.3174  0.9401  1.1216
 8960SOL    HW238340   2.096   2.825   6.924  0.1726 -2.5362  2.4965
 8961SOL     OW38341   1.907   4.551   3.057  0.8105  0.6056 -0.1666
 8961SOL    HW138342   1.961   4.556   2.978 -0.9470 -1.0810 -1.4685
 8961SOL    HW238343   1.840   4.612   3.026 -0.1251  0.3576  1.3476
 8962SOL     OW38344   3.094   1.825   2.406 -0.3183 -0.2341 -0.1167
 8962SOL    HW138345   3.140   1.778   2.337 -1.2451  0.9037 -1.4954
 8962SOL    HW238346   3.116   1.780   2.488 -0.8415 -0.4828 -0.1147
 8963SOL     OW38347   0.117   1.532   6.521  0.0231 -0.3329 -0.1658
 8963SOL    HW138348   0.081   1.511   6.435 -0.5593  0.8035 -0.1950
 8963SOL    HW238349   0.062   1.609   6.536  2.1060  0.9647  0.7067
 8964SOL     OW38350   3.376   3.752   9.422 -0.2146  0.5963  0.6529
 8964SOL    HW138351   3.459   3.798   9.431  0.1856  0.1407 -0.7177
 8964SOL    HW238352   3.355   3.744   9.515 -0.1045 -1.2608  0.5268
 8965SOL     OW38353   1.963   3.550  16.871 -0.0655  0.5283  0.5947
 8965SOL    HW138354   1.950   3.645  16.881 -2.0323  0.5049 -1.4993
 8965SOL    HW238355   1.921   3.526  16.788  0.1720  0.4045  0.5112
 8966SOL     OW38356   2.533   2.936   5.202 -0.3592 -0.2420 -0.2264
 8966SOL    HW138357   2.495   3.003   5.145 -0.6313 -0.8510 -0.7686
 8966SOL    HW238358   2.464   2.931   5.268  0.9213  0.1939  1.1232
 8967SOL     OW38359   2.690   4.394   5.956 -0.7599 -0.4216 -0.7682
 8967SOL    HW138360   2.631   4.319   5.963 -0.0193 -0.9947 -0.7768
 8967SOL    HW238361   2.631   4.462   5.989  0.2798  0.9045 -1.6266
 8968SOL     OW38362   2.982   2.008   3.844  0.3099  0.6825  0.1248
 8968SOL    HW138363   2.948   1.920   3.859  1.2433  0.0006 -1.8478
 8968SOL    HW238364   3.055   2.008   3.906  1.3479 -0.9089 -1.1066
 8969SOL     OW38365   2.030   3.671   7.073 -0.1130 -0.1611 -0.0974
 8969SOL    HW138366   1.947   3.625   7.084  1.2454 -2.7090 -0.6446
 8969SOL    HW238367   2.035   3.677   6.978 -3.4037  0.3451 -0.2543
 8970SOL     OW38368   2.438   0.658   1.262  0.3393  0.5081  0.0338
 8970SOL    HW138369   2.448   0.629   1.172  2.3111 -1.0306  0.7640
 8970SOL    HW238370   2.495   0.591   1.298 -2.5309 -2.4282 -0.8980
 8971SOL     OW38371   1.129   0.318   4.941  0.1067 -0.0354  0.1552
 8971SOL    HW138372   1.169   0.397   4.904  1.9459 -0.5371  1.0428
 8971SOL    HW238373   1.204   0.259   4.947 -0.0738 -0.0986  1.7497
 8972SOL     OW38374   0.699   4.200  10.275  0.5741 -0.0956  0.3504
 8972SOL    HW138375   0.791   4.196  10.252  0.7073 -1.6231  1.1366
 8972SOL    HW238376   0.673   4.145  10.201  0.6151  1.9036 -1.1173
 8973SOL     OW38377   2.210   4.188   2.911 -0.2545 -0.2813  0.1269
 8973SOL    HW138378   2.268   4.170   2.985 -0.3228 -3.4145 -0.5731
 8973SOL    HW238379   2.187   4.099   2.885  1.8897 -0.5237 -0.8840
 8974SOL     OW38380   3.489   2.012  11.791  0.0609  0.3967 -0.1190
 8974SOL    HW138381   3.559   2.077  11.795  2.3376 -1.9490 -0.9247
 8974SOL    HW238382   3.509   1.962  11.871  0.5061  1.0524  0.1795
 8975SOL     OW38383   1.757   1.373   9.234  0.4269  0.6596 -0.4404
 8975SOL    HW138384   1.829   1.390   9.294  0.1355 -2.2805  0.7630
 8975SOL    HW238385   1.703   1.448   9.258  1.9466  2.6979 -3.4103
 8976SOL     OW38386   0.602   0.118   0.330 -0.5865  0.0134  0.7260
 8976SOL    HW138387   0.575   0.058   0.259  1.9872 -0.5797  0.2503
 8976SOL    HW238388   0.634   0.050   0.389 -1.6640 -0.9741  0.1853
 8977SOL     OW38389   2.138   0.283   2.537  0.6284  1.0479 -0.2576
 8977SOL    HW138390   2.088   0.297   2.456 -0.8281 -0.6814  0.3504
 8977SOL    HW238391   2.222   0.303   2.496  1.3807  1.2256  1.3960
 8978SOL     OW38392   0.036   1.581  10.815  0.0974 -0.1063  0.1405
 8978SOL    HW138393   0.071   1.667  10.792  0.7832  0.0349  1.6785
 8978SOL    HW238394   0.098   1.545  10.879  1.3863  2.0125  0.0954
 8979SOL     OW38395   0.959   4.398   4.854  0.4968  0.3136  0.5050
 8979SOL    HW138396   1.037   4.447   4.830  0.1833  0.2398 -0.6522
 8979SOL    HW238397   0.995   4.310   4.862 -1.1652 -0.6749 -2.5945
 8980SOL     OW38398   3.485   3.805   0.012  0.4302 -0.2160 -0.5166
 8980SOL    HW138399   3.400   3.791  17.656 -1.0197 -0.8379  2.6663
 8980SOL    HW238400   3.470   3.886   0.062  1.3236 -0.8289  0.7294
 8981SOL     OW38401   2.003   1.826  11.622  0.3321  0.1299 -0.3582
 8981SOL    HW138402   2.095   1.852  11.616 -0.2176  1.6860 -1.9293
 8981SOL    HW238403   1.980   1.788  11.537  0.4468 -1.6959  0.4109
 8982SOL     OW38404   4.433   2.460   7.682  0.0945  0.3989  0.3812
 8982SOL    HW138405   4.417   2.538   7.628  1.8354  0.6784  0.2598
 8982SOL    HW238406   4.383   2.485   7.760 -1.1301  2.2580 -0.9911
 8983SOL     OW38407   3.942   1.873  13.655 -0.6937 -1.0413 -0.0694
 8983SOL    HW138408   3.974   1.959  13.681  0.7381 -1.7730  0.6337
 8983SOL    HW238409   3.928   1.886  13.561 -0.3435 -1.1902 -0.1431
 8984SOL     OW38410   1.347   0.643   6.665 -0.4635 -0.5798  0.1688
 8984SOL    HW138411   1.293   0.686   6.732 -2.7416 -0.6862 -1.5787
 8984SOL    HW238412   1.366   0.558   6.704  0.7150  0.0644  1.0271
 8985SOL     OW38413   3.195   0.707   2.684 -0.5283 -0.4025 -0.0683
 8985SOL    HW138414   3.121   0.741   2.636 -0.4210  0.5015  0.4107
 8985SOL    HW238415   3.257   0.700   2.611 -0.1597  0.1499  0.1938
 8986SOL     OW38416   4.541   4.008  12.267 -0.1485  0.2274  0.5591
 8986SOL    HW138417   4.569   4.099  12.267 -0.6296  0.3721  1.6666
 8986SOL    HW238418   4.592   3.980  12.343 -1.3148 -3.8734 -0.1665
 8987SOL     OW38419   0.621   1.843   2.851 -0.2662  0.3611 -0.2152
 8987SOL    HW138420   0.558   1.813   2.916 -0.5503  1.3621 -0.0219
 8987SOL    HW238421   0.707   1.829   2.889 -0.8536 -1.1884  0.5236
 8988SOL     OW38422   3.335   1.067   7.939  0.3797  0.4189 -0.2297
 8988SOL    HW138423   3.332   1.098   7.848  1.8631  2.3807  0.3880
 8988SOL    HW238424   3.347   1.150   7.986 -1.0439 -1.1683  2.9167
 8989SOL     OW38425   0.689   3.859   4.266 -0.8730  0.0107  0.2319
 8989SOL    HW138426   0.749   3.870   4.193 -0.6103 -1.5154  0.2162
 8989SOL    HW238427   0.682   3.764   4.266 -0.7200 -0.0023  1.0724
 8990SOL     OW38428   0.752   2.560   9.085  0.1937  0.4506 -0.2670
 8990SOL    HW138429   0.740   2.655   9.081 -0.6641  0.2699 -2.0707
 8990SOL    HW238430   0.677   2.527   9.135  0.2939  1.0663  0.2993
 8991SOL     OW38431   0.716   4.622  10.145 -0.2709 -0.1310 -0.1250
 8991SOL    HW138432   0.727   4.701  10.093 -2.1524  0.5065  0.4445
 8991SOL    HW238433   0.798   4.625  10.194 -0.6329 -3.5654  0.7444
 8992SOL     OW38434   1.001   1.146  13.475 -0.5781 -0.1583 -0.4478
 8992SOL    HW138435   0.979   1.236  13.450  0.3194  0.0232 -0.5881
 8992SOL    HW238436   0.916   1.107  13.457  0.0394 -1.7032  0.0388
 8993SOL     OW38437   3.364   1.664   8.155  0.2995 -0.2885 -0.6336
 8993SOL    HW138438   3.275   1.633   8.168  0.5334 -1.5845 -2.1967
 8993SOL    HW238439   3.386   1.670   8.248 -0.4548  2.1901 -0.6040
 8994SOL     OW38440   1.146   0.456   0.467  0.2955  0.1599 -0.1617
 8994SOL    HW138441   1.174   0.537   0.424 -1.3381  0.4010 -0.7889
 8994SOL    HW238442   1.050   0.462   0.459  0.2427 -0.8272 -0.2724
 8995SOL     OW38443   3.399   0.181   0.420 -0.4601 -0.4019 -0.8394
 8995SOL    HW138444   3.359   0.146   0.500  2.6426  0.7991  1.2230
 8995SOL    HW238445   3.338   0.254   0.412  0.3161  0.2799 -0.5380
 8996SOL     OW38446   3.597   2.972  11.543 -0.0274 -0.4282  0.2949
 8996SOL    HW138447   3.631   2.885  11.522  0.0413 -0.6329  1.2421
 8996SOL    HW238448   3.573   2.970  11.636 -1.0924  0.0305  0.0317
 8997SOL     OW38449   2.568   4.132   7.600 -0.1112 -0.1749 -0.3028
 8997SOL    HW138450   2.612   4.174   7.674  0.6597  2.3754 -2.1981
 8997SOL    HW238451   2.486   4.181   7.604  1.4000  2.3366  0.3238
 8998SOL     OW38452   3.241   1.814  16.501 -0.2791  0.1768  0.8424
 8998SOL    HW138453   3.294   1.821  16.581 -1.3147 -1.5045  1.6707
 8998SOL    HW238454   3.295   1.861  16.437 -1.7879 -1.6747 -1.7511
 8999SOL     OW38455   1.625   2.451  11.511 -0.3941 -0.1761  0.2508
 8999SOL    HW138456   1.594   2.363  11.532  0.4513 -0.5589 -0.0866
 8999SOL    HW238457   1.680   2.472  11.586 -2.3183  0.5158  1.4581
 9000SOL     OW38458   4.413   2.383   6.371  0.1634 -0.4670 -0.1985
 9000SOL    HW138459   4.468   2.319   6.326  0.1362  0.4239 -1.5198
 9000SOL    HW238460   4.393   2.344   6.456 -1.3567  0.2635 -0.2270
 9001SOL     OW38461   0.342   0.113   2.673 -0.1479 -1.0742 -0.6367
 9001SOL    HW138462   0.336   0.158   2.589 -2.3511 -3.9184 -2.0091
 9001SOL    HW238463   0.274   0.161   2.719  0.8928 -1.4689  1.3014
 9002SOL     OW38464   1.430   2.184   5.130 -0.3085 -0.3353 -0.4101
 9002SOL    HW138465   1.338   2.210   5.131 -0.2552 -0.1949  3.0491
 9002SOL    HW238466   1.454   2.227   5.048 -1.2917  0.2157 -0.3991
 9003SOL     OW38467   0.927   3.991   6.345 -0.1318  0.4188  0.6463
 9003SOL    HW138468   0.955   3.979   6.254  0.9135 -1.0472  1.1525
 9003SOL    HW238469   0.997   3.953   6.398  0.2083 -0.0201 -0.1164
 9004SOL     OW38470   2.405   4.527   0.532 -0.6373  0.2829  0.4587
 9004SOL    HW138471   2.445   4.502   0.449  0.6482  0.8115  0.9300
 9004SOL    HW238472   2.407   4.444   0.578 -0.9745  0.4413  0.7627
 9005SOL     OW38473   1.685   1.038   2.907 -0.2354 -0.3464 -0.1773
 9005SOL    HW138474   1.778   1.036   2.933 -0.0914 -3.0781 -0.8276
 9005SOL    HW238475   1.640   1.068   2.986 -1.1657  0.1512 -0.9055
 9006SOL     OW38476   0.239   3.700  13.731  0.5734  0.2233 -0.0788
 9006SOL    HW138477   0.176   3.634  13.759 -0.5254  1.0543 -0.5936
 9006SOL    HW238478   0.318   3.649  13.746  0.5901  0.9353  2.2652
 9007SOL     OW38479   1.218   1.541   3.616  0.1481 -0.3946  0.5748
 9007SOL    HW138480   1.242   1.452   3.642  2.0007 -0.4900 -1.4026
 9007SOL    HW238481   1.272   1.591   3.677 -0.7201  1.3045 -0.0808
 9008SOL     OW38482   1.362   2.290   4.233 -0.1214 -0.2338  0.3225
 9008SOL    HW138483   1.351   2.287   4.137 -0.3653 -0.4020  0.3564
 9008SOL    HW238484   1.440   2.345   4.240  0.5260 -0.8993 -1.4588
 9009SOL     OW38485   0.793   3.408   0.570 -0.0526  0.0899 -0.6599
 9009SOL    HW138486   0.813   3.360   0.651  1.7917  1.0731 -0.5267
 9009SOL    HW238487   0.873   3.442   0.530 -0.0777  1.0268  0.0943
 9010SOL     OW38488   0.014   0.399   5.828 -0.5935 -0.2237  0.1028
 9010SOL    HW138489   0.073   0.429   5.759 -0.9934 -0.6325 -0.4185
 9010SOL    HW238490   0.033   0.450   5.906 -0.2294  0.9561 -0.7608
 9011SOL     OW38491   0.992   3.831  14.204  0.2517 -0.0902  0.3966
 9011SOL    HW138492   0.953   3.746  14.224  1.8242 -0.9733 -0.2966
 9011SOL    HW238493   1.076   3.814  14.247  0.2542 -0.3075  0.3084
 9012SOL     OW38494   4.313   1.469   4.871  0.1808 -0.0417 -0.5399
 9012SOL    HW138495   4.279   1.422   4.795 -0.2489  0.4137 -0.6275
 9012SOL    HW238496   4.380   1.405   4.897  0.3905  0.4188  0.0430
 9013SOL     OW38497   0.609   4.378   0.611 -0.5885  0.3400 -0.5104
 9013SOL    HW138498   0.674   4.317   0.645 -0.7238 -0.0056 -0.8787
 9013SOL    HW238499   0.574   4.325   0.539  0.8857  0.2406 -1.1471
 9014SOL     OW38500   2.405   3.162  10.389 -0.2589 -0.2980 -0.1209
 9014SOL    HW138501   2.423   3.210  10.308 -0.4165 -1.0085 -0.5820
 9014SOL    HW238502   2.412   3.228  10.457 -1.3388  0.6157 -0.8895
 9015SOL     OW38503   0.424   4.198   5.085 -0.1631 -0.4523  0.1300
 9015SOL    HW138504   0.457   4.284   5.112  1.2748 -0.4163 -1.7259
 9015SOL    HW238505   0.330   4.196   5.103  0.0470 -0.2453  1.2560
 9016SOL     OW38506   2.894   1.157   2.913  0.2507  0.1620 -0.1243
 9016SOL    HW138507   2.804   1.172   2.942  0.0053 -2.5757  0.5075
 9016SOL    HW238508   2.921   1.248   2.902  0.7431  0.1793  1.1582
 9017SOL     OW38509   1.183   4.043   9.026  0.1787 -0.0073 -0.3428
 9017SOL    HW138510   1.260   4.086   8.989 -0.3447 -0.3481 -1.8219
 9017SOL    HW238511   1.212   3.952   9.037  1.9551  0.7177  1.0905
 9018SOL     OW38512   2.310   0.848   8.346 -0.1991 -0.0363 -0.2758
 9018SOL    HW138513   2.262   0.818   8.423 -2.2680  2.8223 -0.4612
 9018SOL    HW238514   2.280   0.938   8.336  0.0294  0.2026  1.3080
 9019SOL     OW38515   0.427   1.362  12.090 -0.0801 -0.0676  0.0966
 9019SOL    HW138516   0.467   1.289  12.043  1.0504  0.7577 -0.2405
 9019SOL    HW238517   0.373   1.404  12.023  3.0449  3.8039 -0.0416
 9020SOL     OW38518   3.818   3.385   5.577  0.4101 -0.2567 -0.4487
 9020SOL    HW138519   3.883   3.450   5.605 -1.3248  0.7725  1.1742
 9020SOL    HW238520   3.845   3.321   5.642  0.2430 -1.5413 -1.6361
 9021SOL     OW38521   2.901   3.914   8.181  0.3670  0.3222 -0.5602
 9021SOL    HW138522   2.964   3.954   8.241  2.2961 -1.8554 -1.1409
 9021SOL    HW238523   2.856   3.865   8.250  2.1894 -1.0044 -0.3302
 9022SOL     OW38524   1.334   3.069   7.474 -0.0904 -0.2447 -0.2469
 9022SOL    HW138525   1.332   3.164   7.481 -1.2600 -0.1526 -1.9288
 9022SOL    HW238526   1.413   3.053   7.423 -0.2570  0.3795 -0.6906
 9023SOL     OW38527   1.300   2.168  16.857  0.0943 -0.2688  0.0736
 9023SOL    HW138528   1.245   2.204  16.926 -1.6083  0.5100 -1.6822
 9023SOL    HW238529   1.386   2.176  16.899 -0.8987  2.4904  1.5359
 9024SOL     OW38530   3.670   0.142   9.254 -0.0226  0.0008 -0.4831
 9024SOL    HW138531   3.733   0.146   9.182  0.9890 -0.2222  0.3833
 9024SOL    HW238532   3.661   0.236   9.271  0.1644  0.1859 -1.3799
 9025SOL     OW38533   0.643   0.838   9.273  0.0672  0.7416 -0.0695
 9025SOL    HW138534   0.725   0.883   9.294 -0.2151  1.2928 -0.1497
 9025SOL    HW238535   0.644   0.772   9.342 -2.5805  0.1324 -0.6143
 9026SOL     OW38536   3.470   3.190   0.780  0.7179  0.1992 -0.3292
 9026SOL    HW138537   3.394   3.141   0.810  0.7938  0.1147 -0.2734
 9026SOL    HW238538   3.541   3.153   0.833 -0.2107  1.5459  1.8151
 9027SOL     OW38539   0.756   2.288  11.908  0.4228 -0.4666 -0.2728
 9027SOL    HW138540   0.709   2.207  11.888 -1.0126  0.3002 -0.0334
 9027SOL    HW238541   0.733   2.348  11.838  0.7932  0.1594  0.1446
 9028SOL     OW38542   0.437   1.047   9.249  0.1598  0.4374  0.2301
 9028SOL    HW138543   0.378   1.030   9.323 -0.0035  0.8033  0.1827
 9028SOL    HW238544   0.506   0.981   9.263 -0.9624 -0.6228  0.7963
 9029SOL     OW38545   4.551   0.759  14.598  0.3094  0.2496  0.3011
 9029SOL    HW138546   4.530   0.755  14.692 -1.7075  1.5905 -0.1001
 9029SOL    HW238547   4.474   0.791  14.551  0.5821  0.3186 -0.0932
 9030SOL     OW38548   1.988   2.293  16.267 -0.4143  0.4909  0.2034
 9030SOL    HW138549   1.980   2.386  16.244 -1.1562 -0.2259 -2.4138
 9030SOL    HW238550   1.915   2.285  16.328 -1.7269 -1.8355 -1.7057
 9031SOL     OW38551   1.270   2.551  13.253 -0.0885 -0.3572  0.2324
 9031SOL    HW138552   1.299   2.633  13.213 -1.3646 -0.4437 -0.8600
 9031SOL    HW238553   1.289   2.499  13.175  0.4734  1.3296 -0.7717
 9032SOL     OW38554   1.685   4.211   7.647  0.3382  0.0419 -0.3125
 9032SOL    HW138555   1.620   4.215   7.718 -0.7181 -1.9621 -1.1685
 9032SOL    HW238556   1.753   4.259   7.696 -0.1273 -0.3120  0.6938
 9033SOL     OW38557   3.548   2.980   0.931  0.2642 -0.1512  0.0693
 9033SOL    HW138558   3.525   2.958   1.022  2.1664  0.1731  0.6303
 9033SOL    HW238559   3.471   2.937   0.895 -0.3456  1.8840 -1.0157
 9034SOL     OW38560   0.313   2.618   4.331 -0.3289  0.0674 -0.6129
 9034SOL    HW138561   0.345   2.708   4.327 -0.2622 -0.0264 -2.1976
 9034SOL    HW238562   0.361   2.588   4.408 -1.5108 -3.7687 -1.3412
 9035SOL     OW38563   2.846   2.025   6.444  0.0130 -0.0649  0.2287
 9035SOL    HW138564   2.872   1.957   6.506 -1.0254 -2.4095 -1.8986
 9035SOL    HW238565   2.817   2.093   6.504  2.1415  0.5529  0.5452
 9036SOL     OW38566   1.422   2.420   9.635  0.2025  0.2859  0.0217
 9036SOL    HW138567   1.406   2.331   9.603 -0.3538  0.5737 -0.4933
 9036SOL    HW238568   1.360   2.467   9.578  0.5681  1.3283  0.4803
 9037SOL     OW38569   0.567   3.434   6.310 -0.4752  0.3738 -0.0245
 9037SOL    HW138570   0.511   3.429   6.232  1.1490  0.5469 -1.2118
 9037SOL    HW238571   0.643   3.483   6.278 -0.9069  0.6396 -0.6446
 9038SOL     OW38572   0.616   0.775   5.213 -0.2256 -0.7135  0.3275
 9038SOL    HW138573   0.530   0.806   5.186 -0.1371 -1.2820 -0.5796
 9038SOL    HW238574   0.635   0.744   5.125  0.6094 -0.1025  0.2834
 9039SOL     OW38575   2.334   1.267   2.489  0.0100 -0.5418  0.6345
 9039SOL    HW138576   2.382   1.186   2.506  1.5811  0.5594  1.4351
 9039SOL    HW238577   2.243   1.235   2.487  0.2170 -0.9335 -2.1615
 9040SOL     OW38578   0.515   2.460   9.223 -0.2670 -0.1157  0.0922
 9040SOL    HW138579   0.420   2.465   9.209 -0.2137 -2.2376 -1.0270
 9040SOL    HW238580   0.531   2.366   9.218  1.7082  0.3323 -2.2202
 9041SOL     OW38581   3.957   2.055   4.698 -0.1203  0.0926 -0.3835
 9041SOL    HW138582   4.044   2.067   4.659  0.2219 -1.3508 -0.0595
 9041SOL    HW238583   3.954   1.970   4.741 -0.2485  0.7021  0.8208
 9042SOL     OW38584   0.506   0.436   5.918  0.1395  0.1732 -0.6395
 9042SOL    HW138585   0.569   0.448   5.847  0.3554  0.1789 -0.4487
 9042SOL    HW238586   0.548   0.362   5.963 -0.2382 -0.2888 -1.0423
 9043SOL     OW38587   1.203   1.768   2.366 -0.2449  0.7783  0.7528
 9043SOL    HW138588   1.155   1.705   2.314  0.6512  0.1813  0.6430
 9043SOL    HW238589   1.141   1.838   2.385 -1.7901 -0.8834  1.8608
 9044SOL     OW38590   1.260   4.576  16.067  0.4460  0.2886  0.0592
 9044SOL    HW138591   1.165   4.586  16.056  0.1890 -0.4307  1.6656
 9044SOL    HW238592   1.282   4.601  15.977 -1.0134  0.5144 -0.2371
 9045SOL     OW38593   3.155   0.176   4.811 -0.1739  0.1727 -0.0235
 9045SOL    HW138594   3.063   0.150   4.821  0.9864 -2.9020  2.7359
 9045SOL    HW238595   3.194   0.158   4.897  0.0345  2.1615  0.2993
 9046SOL     OW38596   1.997   1.935   3.139 -0.3326 -0.1402  0.5226
 9046SOL    HW138597   2.060   1.973   3.200 -1.6341  0.5143  1.4542
 9046SOL    HW238598   2.061   1.871   3.107  2.7916  2.0313  2.4470
 9047SOL     OW38599   2.711   0.165   2.115  0.1104 -0.0311  0.0497
 9047SOL    HW138600   2.722   0.125   2.029 -0.5525 -1.3443  0.5652
 9047SOL    HW238601   2.706   0.089   2.173  1.8219 -0.0735  0.1435
 9048SOL     OW38602   3.445   3.565   2.529  0.3557 -0.0293 -0.0542
 9048SOL    HW138603   3.476   3.590   2.442 -0.7225 -1.3373 -0.8142
 9048SOL    HW238604   3.356   3.600   2.515 -0.1313 -1.2167  0.0875
 9049SOL     OW38605   0.692   0.844   6.022 -0.1838 -0.3470  0.5966
 9049SOL    HW138606   0.740   0.764   6.002 -2.1484 -1.6854  1.3039
 9049SOL    HW238607   0.769   0.893   6.051  0.1148 -0.3493 -0.2045
 9050SOL     OW38608   2.832   1.536  11.771 -0.0312 -0.0800 -0.4342
 9050SOL    HW138609   2.798   1.572  11.853 -0.7606  0.6346 -1.0429
 9050SOL    HW238610   2.912   1.490  11.796 -0.3408  0.8895  2.2576
 9051SOL     OW38611   2.552   3.720   8.526  0.2093 -0.1320 -0.2147
 9051SOL    HW138612   2.640   3.684   8.523  0.5679  0.5926  1.5993
 9051SOL    HW238613   2.510   3.654   8.582  0.8890 -0.2037  0.2138
 9052SOL     OW38614   3.013   1.989   6.007 -0.5992 -0.3143  0.2225
 9052SOL    HW138615   3.012   2.057   5.940  2.6767 -1.8075 -1.3285
 9052SOL    HW238616   2.969   2.038   6.076  0.7912 -1.6201  2.0269
 9053SOL     OW38617   2.166   3.035   5.560 -1.2732  0.4054  0.3997
 9053SOL    HW138618   2.102   2.996   5.619  0.1288 -1.4440  0.7072
 9053SOL    HW238619   2.119   3.109   5.521 -2.4183 -0.8007 -0.5291
 9054SOL     OW38620   1.799   2.593   4.334  0.7408  0.2873  0.2579
 9054SOL    HW138621   1.833   2.549   4.257 -2.0050 -2.2859  0.5182
 9054SOL    HW238622   1.877   2.631   4.375  0.1123  1.2649  0.5533
 9055SOL     OW38623   1.506   3.284  16.981  0.3587 -0.2992  0.6479
 9055SOL    HW138624   1.480   3.363  17.028  0.7595 -0.6897  1.5346
 9055SOL    HW238625   1.422   3.258  16.943  1.3623 -0.0480 -1.7251
 9056SOL     OW38626   3.026   2.298   4.753 -0.0299  0.0855 -0.2866
 9056SOL    HW138627   3.060   2.235   4.818  1.5879  0.6285 -0.6006
 9056SOL    HW238628   3.101   2.302   4.694  0.6495 -1.2684  0.4607
 9057SOL     OW38629   1.439   3.986   4.392 -0.2305  0.0165  0.3531
 9057SOL    HW138630   1.452   3.891   4.389  0.4912  0.2045 -2.6662
 9057SOL    HW238631   1.348   3.991   4.362  0.1304  2.1862 -0.3827
 9058SOL     OW38632   0.066   1.306   6.325  0.2892 -0.2136 -0.0484
 9058SOL    HW138633   0.099   1.235   6.269  2.1667 -1.4173  2.5591
 9058SOL    HW238634   0.129   1.302   6.397  0.7070  5.7735 -0.1446
 9059SOL     OW38635   2.722   4.478  14.511 -0.4519 -0.6514 -0.1415
 9059SOL    HW138636   2.810   4.441  14.505 -0.0145  0.0047  2.1418
 9059SOL    HW238637   2.703   4.507  14.422  1.8026  1.2086 -0.0292
 9060SOL     OW38638   3.258   2.725  12.120 -0.1137  0.6794  0.0647
 9060SOL    HW138639   3.320   2.790  12.089 -0.2633  2.1347  2.7849
 9060SOL    HW238640   3.289   2.643  12.082  1.7600  0.3109  2.4436
 9061SOL     OW38641   2.812   0.996   2.684 -0.2592 -0.1431 -0.0158
 9061SOL    HW138642   2.744   0.938   2.716  1.5423 -1.2181  1.8584
 9061SOL    HW238643   2.842   1.035   2.766  1.0452  0.0889 -0.5982
 9062SOL     OW38644   1.962   4.101   9.309  0.4052 -0.2360  0.5202
 9062SOL    HW138645   1.911   4.041   9.364  2.6598 -2.9254 -0.3226
 9062SOL    HW238646   2.010   4.148   9.377 -0.2193  0.2607  0.6215
 9063SOL     OW38647   2.527   1.450   3.276  0.2089 -0.3867  0.5195
 9063SOL    HW138648   2.557   1.507   3.206 -2.5266 -0.5996 -0.8231
 9063SOL    HW238649   2.568   1.495   3.350  1.0727  0.6332 -0.5759
 9064SOL     OW38650   2.035   1.739  13.772 -0.0556  0.3941  0.4303
 9064SOL    HW138651   2.110   1.753  13.714 -0.8418 -2.1742 -1.1938
 9064SOL    HW238652   2.080   1.695  13.845 -1.0125  1.9847  1.9756
 9065SOL     OW38653   2.422   3.528   8.674 -0.0076 -0.1338 -0.1574
 9065SOL    HW138654   2.455   3.438   8.677 -0.0266 -0.2387 -2.9241
 9065SOL    HW238655   2.359   3.513   8.604 -0.5762  1.7679 -0.0578
 9066SOL     OW38656   2.543   3.863   7.927 -0.7485  0.0845  0.5684
 9066SOL    HW138657   2.503   3.825   8.005  0.0248 -2.1094 -0.1177
 9066SOL    HW238658   2.623   3.811   7.930  0.0914  1.3205 -0.2712
 9067SOL     OW38659   4.245   1.781   2.754 -0.4451 -0.5945 -0.3477
 9067SOL    HW138660   4.245   1.812   2.844  2.2581 -0.6960 -0.3137
 9067SOL    HW238661   4.178   1.835   2.713 -0.5810  0.3032  1.0509
 9068SOL     OW38662   1.954   0.064   1.414 -0.0207  0.1052 -0.6157
 9068SOL    HW138663   1.943   0.029   1.325 -1.1138 -0.5373 -0.2259
 9068SOL    HW238664   1.979   0.152   1.388  0.3799 -0.6576 -2.8892
 9069SOL     OW38665   1.213   2.076   6.634  0.0493  0.3227  0.4060
 9069SOL    HW138666   1.140   2.092   6.575 -1.0084  0.4218  1.7390
 9069SOL    HW238667   1.192   2.133   6.708 -4.7573 -1.5861  0.4975
 9070SOL     OW38668   4.443   4.227   7.761 -0.0971 -0.3272  0.1948
 9070SOL    HW138669   4.371   4.262   7.813 -0.5406  0.2612 -0.7953
 9070SOL    HW238670   4.501   4.178   7.818 -2.2053 -2.0827  0.8378
 9071SOL     OW38671   3.161   2.420   3.914 -0.5563 -0.2547 -0.0887
 9071SOL    HW138672   3.227   2.489   3.917 -0.0452 -0.7299 -0.5206
 9071SOL    HW238673   3.215   2.341   3.911 -0.6180 -0.2042 -2.2768
 9072SOL     OW38674   0.767   3.339   4.354  0.2332  0.2272 -0.0436
 9072SOL    HW138675   0.717   3.419   4.339  0.5958  0.1519 -1.6816
 9072SOL    HW238676   0.788   3.323   4.262 -1.0197 -1.9611  0.0747
 9073SOL     OW38677   4.146   4.049   1.024 -0.4305  0.2361  0.3081
 9073SOL    HW138678   4.055   4.062   1.051 -0.5056 -3.3250  1.7372
 9073SOL    HW238679   4.153   3.996   0.945  1.3607  2.0818 -0.7736
 9074SOL     OW38680   3.737   2.118   5.043 -0.1252  0.4805 -0.0074
 9074SOL    HW138681   3.714   2.031   5.010 -3.1671  1.2752  0.1093
 9074SOL    HW238682   3.704   2.105   5.132 -3.0295 -1.3289 -1.3706
 9075SOL     OW38683   4.086   2.998   3.851 -0.8288  0.3362  0.0410
 9075SOL    HW138684   4.015   3.027   3.907 -0.3409 -1.1431  1.4020
 9075SOL    HW238685   4.160   2.973   3.907 -0.3767  0.7553 -0.3612
 9076SOL     OW38686   2.827   3.710   3.048 -0.0075 -0.7676  0.0621
 9076SOL    HW138687   2.767   3.757   3.105  1.1853  1.5119 -0.5531
 9076SOL    HW238688   2.798   3.626   3.083 -2.6476  0.8975  1.7738
 9077SOL     OW38689   1.786   4.389   8.437  0.0705 -0.0853 -0.7295
 9077SOL    HW138690   1.762   4.348   8.520  3.2894  0.2654  0.3671
 9077SOL    HW238691   1.809   4.473   8.476 -3.0772 -0.3569  1.6957
 9078SOL     OW38692   2.130   1.933   8.840  0.4968 -0.2424 -0.1186
 9078SOL    HW138693   2.111   1.947   8.932  1.6566  1.1345 -0.0947
 9078SOL    HW238694   2.106   2.022   8.815  1.5685  0.6663  2.1682
 9079SOL     OW38695   4.031   1.573   1.785 -0.0215  0.4225  0.3246
 9079SOL    HW138696   4.094   1.566   1.713 -0.4102 -0.4910  0.0727
 9079SOL    HW238697   3.990   1.487   1.775 -3.0195  1.7384  1.1130
 9080SOL     OW38698   0.284   3.175  15.232  0.2319 -0.3330 -0.7950
 9080SOL    HW138699   0.189   3.167  15.241  0.1735 -1.2250 -2.3354
 9080SOL    HW238700   0.305   3.087  15.200  5.2076  0.3021  0.6658
 9081SOL     OW38701   0.241   3.704  13.383  0.8223 -0.4421 -0.1692
 9081SOL    HW138702   0.242   3.737  13.293  0.3727  0.9026  0.3246
 9081SOL    HW238703   0.315   3.643  13.389 -0.1421 -1.2315  3.4390
 9082SOL     OW38704   0.502   3.261  17.038  0.0181 -0.5110 -0.0475
 9082SOL    HW138705   0.456   3.216  16.967  1.7813  0.7953 -1.9889
 9082SOL    HW238706   0.430   3.277  17.100  1.5138  2.1369  0.9903
 9083SOL     OW38707   4.075   0.399  12.538 -0.0567  0.2294 -0.4102
 9083SOL    HW138708   3.981   0.416  12.537 -0.1619 -0.3425 -0.3679
 9083SOL    HW238709   4.103   0.480  12.580  1.3693 -0.5264  0.0781
 9084SOL     OW38710   1.504   1.167   4.473  0.2437 -0.3671  0.2817
 9084SOL    HW138711   1.529   1.075   4.482  0.6046 -0.4937 -1.9528
 9084SOL    HW238712   1.541   1.201   4.391  0.5231 -0.3288  0.4265
 9085SOL     OW38713   4.480   1.567   8.716 -0.3393  0.2236  0.3042
 9085SOL    HW138714   4.404   1.615   8.683 -0.8714  0.3985  1.7818
 9085SOL    HW238715   4.448   1.478   8.699 -1.1106  0.8257 -1.3702
 9086SOL     OW38716   3.938   0.671   5.875 -0.0872 -0.3998  0.3609
 9086SOL    HW138717   4.027   0.652   5.904 -0.5083 -1.4395  0.9527
 9086SOL    HW238718   3.965   0.707   5.791 -3.4233 -0.0732 -0.5892
 9087SOL     OW38719   4.713   1.794   3.665  0.2888  0.7104 -0.0444
 9087SOL    HW138720   4.621   1.790   3.640 -0.0517  0.5383  1.2303
 9087SOL    HW238721   0.030   1.836   3.588 -0.4044  0.5957 -0.4456
 9088SOL     OW38722   4.473   2.134   5.829 -0.1494  0.7499  0.3404
 9088SOL    HW138723   4.429   2.207   5.872  0.1748 -0.3830  2.6131
 9088SOL    HW238724   4.494   2.164   5.741  0.3302  0.8847  0.5027
 9089SOL     OW38725   3.664   2.930   9.748  0.1409  0.1419  0.4186
 9089SOL    HW138726   3.652   3.023   9.729  1.1190  0.3131  0.6385
 9089SOL    HW238727   3.710   2.937   9.832  1.2197  0.7109 -0.2170
 9090SOL     OW38728   1.402   1.133   1.785  0.5344  0.2336  0.3007
 9090SOL    HW138729   1.371   1.065   1.725  0.2752 -0.4591  1.2256
 9090SOL    HW238730   1.490   1.156   1.755  0.7579  0.6260  1.2485
 9091SOL     OW38731   2.405   3.132  15.074  0.3430 -0.5617 -0.1635
 9091SOL    HW138732   2.314   3.142  15.046  0.7461  0.6512 -1.0699
 9091SOL    HW238733   2.417   3.224  15.099 -0.0984 -0.6221  0.2745
 9092SOL     OW38734   2.373   2.299   6.960  0.4747  0.1766  0.3713
 9092SOL    HW138735   2.444   2.346   6.916  1.3777 -0.1022  1.5346
 9092SOL    HW238736   2.301   2.361   6.951  0.0815 -0.2886  0.3282
 9093SOL     OW38737   0.865   4.052   9.542 -0.3908  0.0728  0.2362
 9093SOL    HW138738   0.803   4.057   9.615  0.1084  0.0398  0.6631
 9093SOL    HW238739   0.846   4.138   9.505 -0.9458 -0.3671 -0.5138
 9094SOL     OW38740   2.151   3.596   2.229 -0.1932 -0.1836  0.4091
 9094SOL    HW138741   2.111   3.673   2.188 -1.5370 -0.4946  1.1510
 9094SOL    HW238742   2.110   3.594   2.315 -0.3061  0.6840  0.3795
 9095SOL     OW38743   2.927   4.445   8.200 -0.3189  0.6036  0.2678
 9095SOL    HW138744   3.019   4.421   8.190 -0.7088 -0.8113  0.1208
 9095SOL    HW238745   2.927   4.454   8.295  0.1074  1.6334  0.1698
 9096SOL     OW38746   2.018   2.934   7.268  0.1982  0.6912  0.4872
 9096SOL    HW138747   1.961   3.011   7.261  0.7377  1.0698  0.2046
 9096SOL    HW238748   2.064   2.932   7.184 -0.2700  0.6330  0.2328
 9097SOL     OW38749   2.811   0.278   3.291  1.2397 -0.3609  0.0384
 9097SOL    HW138750   2.763   0.355   3.322  1.4377 -0.0134 -0.5154
 9097SOL    HW238751   2.773   0.213   3.350 -0.2400  1.1090  0.7085
 9098SOL     OW38752   2.433   3.492   2.569 -0.1857 -0.1983  0.4394
 9098SOL    HW138753   2.414   3.558   2.502 -0.9654 -0.5101  0.3557
 9098SOL    HW238754   2.525   3.480   2.548  0.2517 -0.4274  2.4897
 9099SOL     OW38755   0.912   2.112   0.856  0.5627  0.4816 -0.3683
 9099SOL    HW138756   0.884   2.166   0.781  0.3333 -0.7877 -1.1882
 9099SOL    HW238757   1.007   2.106   0.856  0.4943 -0.5503 -1.6510
 9100SOL     OW38758   1.328   1.704  10.317 -0.3781 -0.1939  0.7847
 9100SOL    HW138759   1.401   1.683  10.259 -0.0331  1.1316  0.7393
 9100SOL    HW238760   1.253   1.703  10.258  0.5655  0.1786 -0.4116
 9101SOL     OW38761   1.999   2.935  10.942 -0.0341  0.3285 -0.2054
 9101SOL    HW138762   1.908   2.909  10.951  0.0591 -0.4360 -1.4726
 9101SOL    HW238763   2.006   3.031  10.940  0.2880  0.2470 -3.2654
 9102SOL     OW38764   0.882   1.524  12.877 -0.5293 -0.6199  0.3716
 9102SOL    HW138765   0.871   1.440  12.922  1.0610  0.4171  2.7011
 9102SOL    HW238766   0.931   1.495  12.800 -2.2382  0.2670 -1.0522
 9103SOL     OW38767   3.488   2.245   3.562 -0.0061  0.4611  0.2421
 9103SOL    HW138768   3.583   2.244   3.550  0.4639 -1.6472  4.2700
 9103SOL    HW238769   3.475   2.340   3.573 -0.7174  0.4466 -0.3965
 9104SOL     OW38770   3.612   3.029   3.332  0.1292 -0.1543  0.2008
 9104SOL    HW138771   3.610   2.934   3.323  1.1634  0.0965 -2.4684
 9104SOL    HW238772   3.658   3.063   3.255 -1.2170 -0.9700 -0.9617
 9105SOL     OW38773   4.046   0.852   9.992 -0.5479 -0.2762 -0.1606
 9105SOL    HW138774   3.996   0.790  10.046  1.5721  0.8701  3.1153
 9105SOL    HW238775   4.055   0.803   9.911  1.2955  1.6016 -1.0801
 9106SOL     OW38776   0.235   0.885   2.787  0.8102 -0.2372  0.9266
 9106SOL    HW138777   0.301   0.901   2.855  1.7465  0.9666 -0.2455
 9106SOL    HW238778   0.260   0.795   2.766 -2.3564 -1.2899  1.6888
 9107SOL     OW38779   1.763   4.109   3.123 -0.0809  0.5032  0.0139
 9107SOL    HW138780   1.833   4.174   3.114  0.4100 -0.0061  0.1789
 9107SOL    HW238781   1.814   4.043   3.170 -0.8393 -0.8697 -1.1298
 9108SOL     OW38782   2.609   1.901  15.274  0.0064 -0.0137 -0.0251
 9108SOL    HW138783   2.546   1.974  15.279 -0.9933 -0.8922  0.2129
 9108SOL    HW238784   2.585   1.840  15.344 -1.8394 -1.6633 -2.1067
 9109SOL     OW38785   1.125   2.851  11.264 -0.2083  0.1097  0.4041
 9109SOL    HW138786   1.113   2.762  11.298 -1.3653  0.5887  1.2719
 9109SOL    HW238787   1.100   2.907  11.338 -0.9744 -1.6436  1.4898
 9110SOL     OW38788   0.972   2.162   6.557  0.0026 -0.0171  0.3011
 9110SOL    HW138789   0.925   2.225   6.502 -0.1174  1.3460  1.9289
 9110SOL    HW238790   0.955   2.084   6.504 -2.3368  0.6692  0.0344
 9111SOL     OW38791   4.086   2.077  16.805 -0.0840  0.4951  0.0795
 9111SOL    HW138792   4.087   2.067  16.709  1.6170  1.3903 -0.0060
 9111SOL    HW238793   4.006   2.030  16.829  0.5671 -1.2048 -1.0989
 9112SOL     OW38794   0.644   2.100   7.833  0.4227 -0.1320 -0.0270
 9112SOL    HW138795   0.588   2.171   7.866  0.1503  0.4901 -1.8585
 9112SOL    HW238796   0.733   2.113   7.864 -0.0627  0.7717  1.0227
 9113SOL     OW38797   2.198   0.114   6.956  0.2025 -0.1536  0.3025
 9113SOL    HW138798   2.261   0.171   6.911 -1.5525  1.5962  0.1018
 9113SOL    HW238799   2.200   0.143   7.047 -0.0587 -0.0875  0.2845
 9114SOL     OW38800   1.125   3.682  13.938  0.4557 -0.1382 -0.2731
 9114SOL    HW138801   1.074   3.711  13.863  1.2582  1.4705 -0.1914
 9114SOL    HW238802   1.152   3.762  13.984 -0.7634  0.9100 -1.4018
 9115SOL     OW38803   0.627   2.174   3.819 -0.4685 -0.4768  0.5031
 9115SOL    HW138804   0.603   2.235   3.749 -3.2681 -1.5908  0.4951
 9115SOL    HW238805   0.701   2.131   3.775 -0.8638 -0.9169  0.2745
 9116SOL     OW38806   0.022   1.347   9.269  0.7343 -0.2618  0.3561
 9116SOL    HW138807   0.042   1.253   9.274 -0.4541 -0.5643 -0.5457
 9116SOL    HW238808   0.082   1.365   9.196  1.6055  0.0580  1.1502
 9117SOL     OW38809   2.572   0.583   5.803  0.1062  0.4792  0.1871
 9117SOL    HW138810   2.492   0.604   5.851  0.0083 -0.3455  0.3741
 9117SOL    HW238811   2.631   0.648   5.843 -0.9376  1.5684 -0.0510
 9118SOL     OW38812   4.030   2.573   1.206  0.0635 -0.1870 -0.1520
 9118SOL    HW138813   4.067   2.661   1.215 -0.3384 -0.0186 -0.1481
 9118SOL    HW238814   4.078   2.534   1.133 -1.4346 -1.5888 -0.3832
 9119SOL     OW38815   3.594   0.269   8.443 -0.2429  0.1274 -0.0095
 9119SOL    HW138816   3.618   0.197   8.502 -0.1342 -0.0032 -0.2147
 9119SOL    HW238817   3.509   0.249   8.404 -0.1017  0.1217 -0.3145
 9120SOL     OW38818   1.314   2.420  10.906 -0.5293 -0.5772  0.1485
 9120SOL    HW138819   1.263   2.364  10.848 -1.9273 -0.1371  0.9487
 9120SOL    HW238820   1.394   2.369  10.916 -0.0067  0.1651 -0.2854
 9121SOL     OW38821   1.207   2.029   1.250 -0.7234  0.7675  0.2187
 9121SOL    HW138822   1.257   1.952   1.223  0.6200  1.5749  0.3845
 9121SOL    HW238823   1.124   1.986   1.271  0.6726 -1.8931  0.3825
 9122SOL     OW38824   1.569   4.054   2.936  0.1915 -0.3051  0.3324
 9122SOL    HW138825   1.630   4.103   2.990  1.7516 -0.1267 -1.5927
 9122SOL    HW238826   1.632   3.996   2.893  1.4357 -0.1422  1.9409
 9123SOL     OW38827   1.754   1.550   1.997  0.2450  0.6494 -0.1021
 9123SOL    HW138828   1.836   1.596   1.978  1.5499 -1.0522  1.4509
 9123SOL    HW238829   1.749   1.562   2.091 -1.5588 -0.0905 -0.1023
 9124SOL     OW38830   1.773   3.986   8.300  0.2568 -0.3611  0.0291
 9124SOL    HW138831   1.821   3.940   8.368  0.1955  0.6505  0.7497
 9124SOL    HW238832   1.686   3.997   8.339  1.2315  2.9189  1.2811
 9125SOL     OW38833   3.898   0.259  15.453  0.1985 -0.2039 -0.0746
 9125SOL    HW138834   3.839   0.286  15.523  0.4160  0.8537 -0.3063
 9125SOL    HW238835   3.953   0.336  15.436  0.5958 -0.0351  2.0354
 9126SOL     OW38836   0.890   1.998   8.176 -0.2327 -0.1010 -0.4059
 9126SOL    HW138837   0.852   2.058   8.111 -0.3578 -0.5496 -0.7489
 9126SOL    HW238838   0.982   2.022   8.168 -0.2793  0.4001  0.5928
 9127SOL     OW38839   2.394   0.129   9.790  0.3358 -0.1678  0.0066
 9127SOL    HW138840   2.345   0.201   9.830 -0.4756 -1.0246  0.5590
 9127SOL    HW238841   2.354   0.134   9.703  1.6051 -5.0480 -0.8567
 9128SOL     OW38842   3.817   1.122   4.516 -0.5099 -0.3739  0.4290
 9128SOL    HW138843   3.788   1.036   4.545  0.0039 -0.3604  0.9908
 9128SOL    HW238844   3.835   1.108   4.423  0.7787 -0.5744  0.7187
 9129SOL     OW38845   1.619   1.088   2.433 -0.4285 -0.2783 -0.2058
 9129SOL    HW138846   1.639   1.027   2.361  0.5195  0.3985 -0.5140
 9129SOL    HW238847   1.655   1.169   2.399 -1.4383  0.6608  0.9694
 9130SOL     OW38848   0.940   2.047   2.246  0.1186 -0.7070 -0.1488
 9130SOL    HW138849   0.998   2.097   2.189 -0.4510  0.6925  0.5078
 9130SOL    HW238850   0.859   2.079   2.206  0.8372  2.6145  1.1325
 9131SOL     OW38851   0.525   4.232   0.391 -0.3331 -0.5961 -0.0719
 9131SOL    HW138852   0.599   4.251   0.333 -0.6258 -1.4090 -0.7038
 9131SOL    HW238853   0.460   4.202   0.328  2.0650 -1.0377 -2.3122
 9132SOL     OW38854   1.127   0.538  16.445 -0.0739 -0.4332 -0.1822
 9132SOL    HW138855   1.040   0.551  16.482 -0.5100  2.2765 -2.1737
 9132SOL    HW238856   1.182   0.604  16.488  0.1607 -2.8818  3.2324
 9133SOL     OW38857   0.053   2.700   7.193  0.2184 -0.4078 -0.3129
 9133SOL    HW138858   0.115   2.628   7.203 -1.6638 -1.9183  0.4319
 9133SOL    HW238859   4.710   2.697   7.264 -0.1151  1.9553 -0.5007
 9134SOL     OW38860   2.833   2.853   8.794 -0.1730 -0.4161  0.5131
 9134SOL    HW138861   2.781   2.831   8.871  0.3391 -0.0846  0.9565
 9134SOL    HW238862   2.823   2.948   8.791 -1.9982 -0.6239 -0.0600
 9135SOL     OW38863   1.879   2.554  16.212 -0.2513  0.1451 -0.7195
 9135SOL    HW138864   1.928   2.618  16.160 -1.8533  0.6100 -1.6701
 9135SOL    HW238865   1.787   2.573  16.199  0.0388  0.7291 -1.9340
 9136SOL     OW38866   4.306   2.092   6.132  0.2551  0.0945 -0.0314
 9136SOL    HW138867   4.235   2.148   6.102  0.7832  2.0246  2.2735
 9136SOL    HW238868   4.260   2.010   6.153  2.1451 -1.1890 -0.9343
 9137SOL     OW38869   4.464   4.365   8.631 -0.1657  0.0108 -0.4703
 9137SOL    HW138870   4.472   4.271   8.611  0.5961  0.2086 -1.0973
 9137SOL    HW238871   4.424   4.364   8.718 -2.0412 -0.7173 -1.3451
 9138SOL     OW38872   2.646   2.471   7.136  0.3636 -0.4383 -0.1234
 9138SOL    HW138873   2.583   2.525   7.087 -0.3511 -0.5051  0.7356
 9138SOL    HW238874   2.643   2.521   7.217 -2.9086 -2.9229  1.2950
 9139SOL     OW38875   0.702   1.098   4.709 -0.0424  0.9423  0.1147
 9139SOL    HW138876   0.614   1.070   4.685  0.8839 -1.4731 -0.5085
 9139SOL    HW238877   0.691   1.085   4.803 -0.2659 -0.1349 -0.0550
 9140SOL     OW38878   0.582   4.225   6.707 -0.6021  0.4520 -0.5876
 9140SOL    HW138879   0.564   4.280   6.631  0.2225  0.8565 -0.4942
 9140SOL    HW238880   0.660   4.267   6.743 -1.1766  0.4101  0.7117
 9141SOL     OW38881   3.112   4.273   2.975 -0.2644 -0.4443  0.6552
 9141SOL    HW138882   3.097   4.196   3.030 -0.1353 -1.4918 -0.7517
 9141SOL    HW238883   3.089   4.227   2.894 -0.5885  0.8572  0.0141
 9142SOL     OW38884   3.681   0.260   1.885  0.6799 -0.1695 -0.0645
 9142SOL    HW138885   3.735   0.267   1.807  0.3050 -1.2820 -0.4157
 9142SOL    HW238886   3.602   0.306   1.856  0.0198 -0.1059  1.8077
 9143SOL     OW38887   3.493   1.953  14.560  0.6477  0.1337 -0.0252
 9143SOL    HW138888   3.510   1.860  14.545 -0.9609  0.2304 -2.3655
 9143SOL    HW238889   3.411   1.971  14.516 -0.1665  0.9374  1.8313
 9144SOL     OW38890   2.676   4.374   9.784 -0.4191  0.3701  0.5567
 9144SOL    HW138891   2.727   4.335   9.713 -0.5006 -0.5501  1.0000
 9144SOL    HW238892   2.745   4.400   9.845  0.1712 -0.7224  0.3728
 9145SOL     OW38893   0.395   3.672   3.709  0.2015 -0.2510  0.0189
 9145SOL    HW138894   0.346   3.684   3.627 -2.4286  0.3011  1.6480
 9145SOL    HW238895   0.460   3.740   3.691  0.8282 -1.0391 -0.6499
 9146SOL     OW38896   4.668   0.479   9.279  0.0040  0.0608  0.0941
 9146SOL    HW138897   0.033   0.499   9.318 -0.1812  0.5231  0.2637
 9146SOL    HW238898   4.610   0.540   9.325  1.0323 -0.1087  1.6337
 9147SOL     OW38899   3.356   4.572   3.604  0.2572 -1.1743  0.1645
 9147SOL    HW138900   3.331   4.641   3.666 -0.5040  0.1019 -1.5461
 9147SOL    HW238901   3.440   4.595   3.566 -0.4829 -1.8669 -1.8736
 9148SOL     OW38902   2.094   0.899   4.836  0.0102 -0.3382 -0.1686
 9148SOL    HW138903   2.039   0.977   4.834 -2.2375 -1.9415 -0.7754
 9148SOL    HW238904   2.118   0.904   4.929 -1.5070  1.0590  0.1293
 9149SOL     OW38905   2.526   3.454  16.118 -0.4029 -0.2149 -0.1364
 9149SOL    HW138906   2.492   3.541  16.095 -0.7791 -0.1054  0.8564
 9149SOL    HW238907   2.507   3.446  16.211  0.9202  2.1579  0.3435
 9150SOL     OW38908   1.259   4.429  14.604 -0.0977 -0.1999  0.0240
 9150SOL    HW138909   1.296   4.365  14.665 -3.4610 -1.3995  0.8624
 9150SOL    HW238910   1.165   4.416  14.617  0.1892 -2.4854 -0.2245
 9151SOL     OW38911   0.279   4.463   8.368 -0.1988 -0.1395  0.4570
 9151SOL    HW138912   0.271   4.557   8.385  2.3836  0.3691 -1.1186
 9151SOL    HW238913   0.208   4.452   8.304  1.0127 -0.8194 -0.7563
 9152SOL     OW38914   1.288   1.085   2.369  0.0588  0.0506 -0.6009
 9152SOL    HW138915   1.374   1.072   2.407 -0.4492  1.4777  1.0587
 9152SOL    HW238916   1.247   0.998   2.374 -1.5907  0.8919  0.7168
 9153SOL     OW38917   3.760   4.148   0.943  0.0284  0.0818  0.4019
 9153SOL    HW138918   3.725   4.065   0.909 -0.6928  0.6505 -0.2235
 9153SOL    HW238919   3.793   4.122   1.029 -1.7749 -1.8137  0.5132
 9154SOL     OW38920   4.236   4.286   4.039 -0.4095 -0.3989  0.4351
 9154SOL    HW138921   4.148   4.323   4.052 -0.1553  0.4686 -0.3193
 9154SOL    HW238922   4.207   4.201   4.005 -0.4594 -0.5807  0.9178
 9155SOL     OW38923   4.034   0.356  16.167 -0.5570  0.3594  0.1300
 9155SOL    HW138924   3.992   0.271  16.155  1.9007 -0.8288  0.1069
 9155SOL    HW238925   4.004   0.402  16.088 -0.4214 -1.6158 -1.0717
 9156SOL     OW38926   3.755   4.005  12.897  0.1523  0.4591  0.4179
 9156SOL    HW138927   3.829   3.990  12.956 -1.3663 -2.6866  1.5167
 9156SOL    HW238928   3.691   4.027  12.965 -1.0534 -1.5662 -0.0542
 9157SOL     OW38929   0.101   2.655   8.758  0.2843 -0.1129  0.4365
 9157SOL    HW138930   0.030   2.686   8.701  1.9862 -0.2950 -1.7700
 9157SOL    HW238931   0.152   2.736   8.754 -0.6029  0.4354  0.1718
 9158SOL     OW38932   0.997   3.191   8.170  0.1115 -0.3372  0.3265
 9158SOL    HW138933   1.058   3.264   8.160 -1.1409  0.5098 -1.2502
 9158SOL    HW238934   0.910   3.228   8.152 -1.0592 -2.9259  0.6251
 9159SOL     OW38935   3.677   0.412   7.441  0.4011  0.2911  0.0707
 9159SOL    HW138936   3.597   0.380   7.399 -1.4603  1.1238  2.9687
 9159SOL    HW238937   3.744   0.422   7.374 -0.2783 -1.8903 -0.9206
 9160SOL     OW38938   3.348   0.207   8.214  0.3786 -0.2739  0.4811
 9160SOL    HW138939   3.337   0.272   8.146 -0.7630 -0.6116  0.3508
 9160SOL    HW238940   3.321   0.258   8.291  0.6456 -0.7487  0.8959
 9161SOL     OW38941   3.509   4.208   8.883  0.4379  0.2151 -0.0322
 9161SOL    HW138942   3.561   4.130   8.904  0.3760 -0.2110 -1.4673
 9161SOL    HW238943   3.512   4.268   8.957  2.3476 -2.0682  1.7681
 9162SOL     OW38944   0.115   2.621   4.650  0.3135  0.0531 -0.1070
 9162SOL    HW138945   0.175   2.549   4.629 -0.0709 -0.5807  0.9543
 9162SOL    HW238946   0.163   2.697   4.616  1.0378 -0.9395 -1.2864
 9163SOL     OW38947   4.019   3.146   9.808 -0.5377 -0.2738  0.4306
 9163SOL    HW138948   4.018   3.059   9.768 -2.1776 -0.6861  1.3659
 9163SOL    HW238949   4.069   3.190   9.739 -0.9967  0.8570  0.8290
 9164SOL     OW38950   3.819   1.703   1.923 -0.0167  0.3012  0.0030
 9164SOL    HW138951   3.871   1.653   1.860  0.0342 -0.6997  0.8438
 9164SOL    HW238952   3.878   1.772   1.952  1.2143 -0.2584 -1.1882
 9165SOL     OW38953   4.131   0.191   3.289 -0.2484 -0.0732 -0.2776
 9165SOL    HW138954   4.080   0.193   3.370  1.0048  0.7125  0.4651
 9165SOL    HW238955   4.180   0.110   3.307  0.5368  0.5500  0.3451
 9166SOL     OW38956   2.548   2.293   4.211 -0.2249 -0.1189  0.2053
 9166SOL    HW138957   2.520   2.365   4.155  1.8007  0.6703  0.1853
 9166SOL    HW238958   2.641   2.313   4.224  0.2621 -2.1674 -0.0915
 9167SOL     OW38959   0.359   2.722   9.283  0.4777  0.2637 -0.5697
 9167SOL    HW138960   0.312   2.643   9.257  0.9347 -0.0504 -0.4289
 9167SOL    HW238961   0.299   2.755   9.350 -0.3272 -1.1249 -0.6070
 9168SOL     OW38962   1.282   2.044   3.931  0.7858  0.4444  0.1652
 9168SOL    HW138963   1.278   2.038   3.835  0.9590 -0.5055  0.2128
 9168SOL    HW238964   1.212   1.982   3.953  0.1131  1.8536  1.9654
 9169SOL     OW38965   4.696   0.148   5.208  0.1237  0.2794 -0.3166
 9169SOL    HW138966   0.058   0.135   5.162 -0.1009 -0.8464 -0.4029
 9169SOL    HW238967   0.003   0.165   5.298  0.6999 -1.4159 -0.1834
 9170SOL     OW38968   0.431   0.225  12.260  0.2035  0.9103  0.2149
 9170SOL    HW138969   0.340   0.246  12.280 -0.3533 -1.1815 -0.1210
 9170SOL    HW238970   0.430   0.138  12.300 -0.6119  1.5636  1.6416
 9171SOL     OW38971   4.049   4.293   0.284 -0.6978 -0.0797 -0.0904
 9171SOL    HW138972   3.977   4.295   0.222  0.3335 -0.2758 -1.2933
 9171SOL    HW238973   4.080   4.384   0.288 -0.1786 -0.1959 -1.5500
 9172SOL     OW38974   3.622   3.465   5.300 -0.0157  0.0927  0.2198
 9172SOL    HW138975   3.674   3.403   5.248  0.3702  1.7666 -1.3574
 9172SOL    HW238976   3.551   3.480   5.238 -0.1123  0.3637  0.3986
 9173SOL     OW38977   2.997   4.150  12.866  0.3961  0.3316 -0.0005
 9173SOL    HW138978   2.926   4.134  12.804  0.4742 -1.0607  0.2551
 9173SOL    HW238979   3.065   4.174  12.804  2.3877 -1.1585  1.6234
 9174SOL     OW38980   2.024   2.262   6.297 -0.4704  0.0381  0.2643
 9174SOL    HW138981   2.025   2.221   6.210 -0.4056  1.1664 -0.2595
 9174SOL    HW238982   1.947   2.318   6.284 -1.7436 -1.7774 -0.1201
 9175SOL     OW38983   0.962   1.288   8.973  0.2453  0.1015 -0.4427
 9175SOL    HW138984   1.037   1.230   8.981  0.3379 -0.1368 -2.9496
 9175SOL    HW238985   0.901   1.221   9.002  2.5601 -1.4424  0.8375
 9176SOL     OW38986   3.190   2.890  11.816 -0.0647  0.3505 -0.2140
 9176SOL    HW138987   3.223   2.970  11.775  0.0589  0.9327  1.0495
 9176SOL    HW238988   3.104   2.920  11.844 -0.0726 -0.3267  0.4813
 9177SOL     OW38989   3.912   0.794   7.936 -0.1210  0.3824 -0.5022
 9177SOL    HW138990   3.964   0.786   8.017  1.1400 -0.9156 -1.4452
 9177SOL    HW238991   3.834   0.750   7.969  0.2430 -1.0777 -1.5942
 9178SOL     OW38992   1.885   4.681   0.630 -0.3965  0.0650  0.2010
 9178SOL    HW138993   1.969   4.659   0.590  0.5743  1.5120  1.4446
 9178SOL    HW238994   1.875   0.052   0.605 -2.3539 -0.7281 -1.9729
 9179SOL     OW38995   4.371   2.898   3.406  0.2683  0.5325  0.0386
 9179SOL    HW138996   4.392   2.979   3.359  1.3070  0.0065 -0.3987
 9179SOL    HW238997   4.395   2.919   3.496  1.3556  0.5355 -0.2523
 9180SOL     OW38998   2.078   1.252   7.269  0.0903  0.6702 -0.4720
 9180SOL    HW138999   2.009   1.200   7.309 -0.0945  0.7148 -0.7313
 9180SOL    HW239000   2.040   1.250   7.181 -1.2985  0.6517  0.1262
 9181SOL     OW39001   4.396   4.661   7.328  0.5388 -0.0818  0.6873
 9181SOL    HW139002   4.342   4.669   7.249  0.0583  2.3122  1.2471
 9181SOL    HW239003   4.416   4.568   7.333 -1.0076 -0.6077 -2.9767
 9182SOL     OW39004   1.564   3.459   2.450  1.1808 -0.3550 -0.0928
 9182SOL    HW139005   1.487   3.457   2.393  0.8890 -0.9192  0.3157
 9182SOL    HW239006   1.630   3.412   2.400  3.3250  1.3212  1.1666
 9183SOL     OW39007   0.958   0.415   7.287  0.9560 -0.1327 -1.0325
 9183SOL    HW139008   0.937   0.427   7.195  0.1112  0.6869 -0.7303
 9183SOL    HW239009   0.957   0.505   7.319  1.1107 -0.1797 -0.8924
 9184SOL     OW39010   2.238   4.298   3.746  0.6627  0.2137 -0.6472
 9184SOL    HW139011   2.153   4.338   3.728 -0.0157 -1.0533 -0.2536
 9184SOL    HW239012   2.257   4.237   3.675 -0.2910  0.1018 -0.8061
 9185SOL     OW39013   3.460   1.819  14.290  0.2117  0.4372  0.1572
 9185SOL    HW139014   3.500   1.904  14.276 -2.5527  1.2484 -2.9576
 9185SOL    HW239015   3.519   1.775  14.351  1.2458  0.3771 -0.8879
 9186SOL     OW39016   4.252   4.610   7.736  0.2506  0.1592 -0.5265
 9186SOL    HW139017   4.167   4.575   7.763  1.0848 -1.7121 -0.3377
 9186SOL    HW239018   4.301   4.579   7.812 -0.2215  0.3026 -0.1561
 9187SOL     OW39019   4.266   3.188   8.109  0.5984  0.7418 -0.4171
 9187SOL    HW139020   4.358   3.167   8.092  0.4305  0.4195 -0.9209
 9187SOL    HW239021   4.256   3.234   8.026  0.3909 -0.7421 -1.2211
 9188SOL     OW39022   0.669   3.587  12.913  0.3878  0.1006  0.0312
 9188SOL    HW139023   0.588   3.559  12.871  0.9429 -1.0742 -0.2613
 9188SOL    HW239024   0.726   3.518  12.881 -2.1543 -0.8200 -2.5497
 9189SOL     OW39025   0.086   1.954   1.299 -0.2470  0.1173 -0.5915
 9189SOL    HW139026   0.169   1.983   1.261  0.3677 -0.4839  0.3008
 9189SOL    HW239027   0.029   1.933   1.225 -0.9351 -0.3263  0.0596
 9190SOL     OW39028   0.296   3.980   5.473  0.1408 -0.0502  0.7476
 9190SOL    HW139029   0.315   4.054   5.530  1.0505 -0.2245  0.6608
 9190SOL    HW239030   0.364   3.922   5.506  0.4422 -0.1884 -0.1045
 9191SOL     OW39031   0.500   3.467   0.377 -0.3137  0.0068 -0.6867
 9191SOL    HW139032   0.539   3.541   0.424  0.8937 -1.6515  0.9263
 9191SOL    HW239033   0.419   3.457   0.427  0.3633 -1.9071  0.0320
 9192SOL     OW39034   0.706   3.376   4.743  0.7250  0.1229  0.2966
 9192SOL    HW139035   0.741   3.422   4.819  0.3448  1.2109 -0.1931
 9192SOL    HW239036   0.622   3.345   4.776  0.2695  0.4742 -0.5208
 9193SOL     OW39037   1.887   0.516   8.016 -0.2974 -0.1257 -0.4065
 9193SOL    HW139038   1.948   0.564   8.072 -1.9267  0.1983  1.1022
 9193SOL    HW239039   1.820   0.489   8.079 -1.4089  3.0479 -0.1986
 9194SOL     OW39040   2.769   0.279   1.637 -0.2014  0.3248  0.1742
 9194SOL    HW139041   2.816   0.240   1.564  0.4555  0.2310  0.6515
 9194SOL    HW239042   2.795   0.226   1.711  1.3873  2.0513  0.8420
 9195SOL     OW39043   1.932   0.094   4.378 -0.0859  0.1326  0.0501
 9195SOL    HW139044   1.985   0.170   4.355 -0.5431  0.1945 -0.7889
 9195SOL    HW239045   1.851   0.121   4.336 -0.3008 -1.9155 -0.8555
 9196SOL     OW39046   4.602   0.114   3.149  0.2869  0.1239 -0.3581
 9196SOL    HW139047   4.579   0.137   3.239  2.5204  0.0132  0.2434
 9196SOL    HW239048   4.669   0.180   3.135 -1.5351  2.1398  0.4454
 9197SOL     OW39049   3.460   3.719   3.801 -0.0235 -0.3638  0.4865
 9197SOL    HW139050   3.382   3.682   3.844 -0.2104 -0.1730  0.3154
 9197SOL    HW239051   3.429   3.809   3.787 -0.5204 -0.4788  0.8269
 9198SOL     OW39052   3.124   4.087  15.250 -0.2493 -0.3178  0.1282
 9198SOL    HW139053   3.096   4.130  15.331 -0.0411 -2.5591  1.4030
 9198SOL    HW239054   3.217   4.112  15.253 -0.4245  0.0530  2.6859
 9199SOL     OW39055   0.730   4.111   9.786  0.4166  0.2399  0.5498
 9199SOL    HW139056   0.689   4.078   9.866  0.8769 -0.2714  0.5783
 9199SOL    HW239057   0.816   4.135   9.822  0.6987 -0.6684  0.4782
 9200SOL     OW39058   0.835   2.662   4.802  0.5977  0.2312  0.3556
 9200SOL    HW139059   0.849   2.664   4.896  3.1064  0.3008 -0.0063
 9200SOL    HW239060   0.917   2.621   4.776  0.3091  0.4968 -0.9830
 9201SOL     OW39061   1.676   2.556   6.862 -0.4001 -0.7240 -0.3003
 9201SOL    HW139062   1.738   2.489   6.891  2.2585  1.3457 -1.1649
 9201SOL    HW239063   1.599   2.503   6.878 -0.1437 -0.9259  0.2459
 9202SOL     OW39064   2.288   0.986   8.687  0.3473 -0.1823 -0.1340
 9202SOL    HW139065   2.222   1.054   8.677 -0.1709 -0.5847  0.5370
 9202SOL    HW239066   2.262   0.916   8.628  1.6790 -2.1710  1.6181
 9203SOL     OW39067   0.782   3.608   5.253  0.6102  0.2200 -0.3885
 9203SOL    HW139068   0.831   3.559   5.318  0.5248  1.6193  0.7515
 9203SOL    HW239069   0.691   3.600   5.283  0.3128 -0.2873 -1.4134
 9204SOL     OW39070   0.425   0.781   4.109  0.6340  0.1884 -0.3076
 9204SOL    HW139071   0.371   0.859   4.122 -0.5896 -0.4844 -1.3983
 9204SOL    HW239072   0.476   0.777   4.190  0.2919  1.1172 -0.0483
 9205SOL     OW39073   0.022   3.361   4.212  0.5565  0.4339  0.1999
 9205SOL    HW139074   4.656   3.325   4.230  0.1275  1.7144  0.6392
 9205SOL    HW239075   0.082   3.333   4.281  1.0481 -1.6989 -1.0906
 9206SOL     OW39076   2.680   1.288   5.389 -0.0007  0.5305 -0.0244
 9206SOL    HW139077   2.758   1.306   5.440 -0.6442 -1.2287  1.5394
 9206SOL    HW239078   2.684   1.195   5.370 -3.5124  0.0060  1.7055
 9207SOL     OW39079   2.138   1.255   6.737 -0.0319  0.4663  0.1780
 9207SOL    HW139080   2.227   1.268   6.768 -0.1999  1.8328  0.0922
 9207SOL    HW239081   2.088   1.327   6.776 -0.0116  0.8614 -0.5130
 9208SOL     OW39082   0.221   1.681   7.315  0.1959 -0.2909  0.4589
 9208SOL    HW139083   0.130   1.677   7.344 -0.0973  0.9022 -0.2900
 9208SOL    HW239084   0.246   1.772   7.334  1.4092 -0.7165  0.9196
 9209SOL     OW39085   4.521   4.613   6.035  0.2222 -0.1055  0.1484
 9209SOL    HW139086   4.513   4.663   6.117  0.6836  1.4806 -0.7628
 9209SOL    HW239087   4.560   4.681   5.979  0.8261  0.1587  0.8822
 9210SOL     OW39088   2.339   3.101  10.009  0.4884 -0.5662 -0.3887
 9210SOL    HW139089   2.330   3.087   9.915  1.6590 -0.6950 -0.4822
 9210SOL    HW239090   2.405   3.171  10.011 -1.9461  1.7094 -0.3405
 9211SOL     OW39091   2.720   3.438   4.703  0.5056 -0.0850 -0.0208
 9211SOL    HW139092   2.674   3.417   4.621 -2.3690  2.1477  1.0468
 9211SOL    HW239093   2.716   3.351   4.744 -0.4294 -0.7460 -1.5135
 9212SOL     OW39094   0.842   2.331   8.191 -1.0534  0.0166 -0.0996
 9212SOL    HW139095   0.843   2.329   8.287 -2.3595 -1.2271 -0.0891
 9212SOL    HW239096   0.748   2.348   8.187 -0.6037  2.5823  0.9243
 9213SOL     OW39097   0.333   2.769   8.344  0.8267 -0.2990 -0.5577
 9213SOL    HW139098   0.298   2.850   8.306 -2.0381 -1.2786 -0.0318
 9213SOL    HW239099   0.385   2.801   8.417 -0.2186 -0.3927  0.2331
 9214SOL     OW39100   0.399   4.468   5.459  0.4626  0.5369 -0.2300
 9214SOL    HW139101   0.345   4.545   5.444  1.0869  0.9851 -0.1601
 9214SOL    HW239102   0.454   4.484   5.536 -1.9088  2.0702  1.1580
 9215SOL     OW39103   4.006   2.328   2.949  0.3183  0.0237  0.1564
 9215SOL    HW139104   3.924   2.344   2.995  0.6847  1.7982  0.1622
 9215SOL    HW239105   4.003   2.382   2.871  1.2784  2.3630  1.7506
 9216SOL     OW39106   1.234   0.029   6.873 -0.4115  0.0867 -0.3228
 9216SOL    HW139107   1.186   4.671   6.900 -0.1504 -0.5493 -1.7217
 9216SOL    HW239108   1.303   0.032   6.939  1.3900  0.4744 -2.2274
 9217SOL     OW39109   1.671   4.052   5.272  0.3002 -0.5213  0.2439
 9217SOL    HW139110   1.592   4.028   5.224  0.7842 -1.8063  0.0927
 9217SOL    HW239111   1.734   4.028   5.204 -0.9442  1.0042 -1.4234
 9218SOL     OW39112   1.413   3.904   6.861 -0.8824  0.1374 -0.7106
 9218SOL    HW139113   1.474   3.902   6.935 -1.5120 -1.7148 -0.2450
 9218SOL    HW239114   1.476   3.934   6.794 -1.1325 -0.4778 -1.2189
 9219SOL     OW39115   2.753   0.444   4.716 -0.5653  0.1443  0.1042
 9219SOL    HW139116   2.678   0.504   4.721 -2.7635 -2.4238 -1.9863
 9219SOL    HW239117   2.709   0.363   4.743 -1.8019  0.7414 -0.0916
 9220SOL     OW39118   4.481   4.134   1.501  0.1102  0.0507  0.2950
 9220SOL    HW139119   4.442   4.129   1.414 -2.0710 -0.2740  1.2832
 9220SOL    HW239120   4.530   4.052   1.509  0.7325  0.4140  0.2421
 9221SOL     OW39121   2.657   4.351   8.156 -0.2735  0.0664  0.4426
 9221SOL    HW139122   2.681   4.279   8.097  0.0654  0.5330  0.0027
 9221SOL    HW239123   2.747   4.385   8.164 -0.6021  0.9086  0.5188
 9222SOL     OW39124   2.338   1.158   7.840  0.1423  0.3130 -0.2299
 9222SOL    HW139125   2.425   1.119   7.850  0.6074  0.9863 -1.6491
 9222SOL    HW239126   2.356   1.229   7.901 -0.0330 -2.4819  3.0741
 9223SOL     OW39127   0.905   0.531   8.940  0.0817 -0.5093  0.2560
 9223SOL    HW139128   0.874   0.570   8.858  0.6053  0.0661  0.3342
 9223SOL    HW239129   0.832   0.475   8.967  0.3152  0.2092  2.3745
 9224SOL     OW39130   1.121   4.240  10.497 -0.6193 -0.0397 -0.2603
 9224SOL    HW139131   1.047   4.301  10.502 -0.8677 -0.2675 -1.1207
 9224SOL    HW239132   1.192   4.301  10.516  0.0022 -0.7649 -0.2545
 9225SOL     OW39133   0.135   3.012  14.546  0.2612 -0.0997  0.3228
 9225SOL    HW139134   0.119   3.067  14.469 -1.0104 -0.4604  0.3305
 9225SOL    HW239135   0.058   3.038  14.596 -0.4680  1.7258 -1.7275
 9226SOL     OW39136   2.945   2.071  11.151 -0.0220 -0.0696 -0.4081
 9226SOL    HW139137   2.965   2.131  11.223 -0.1567  0.2688 -0.6568
 9226SOL    HW239138   3.028   2.081  11.104  0.8358 -1.9719  0.7100
 9227SOL     OW39139   1.548   4.281   2.132 -0.2952  0.1334 -0.4067
 9227SOL    HW139140   1.633   4.321   2.151 -0.3699 -0.8352  1.8984
 9227SOL    HW239141   1.524   4.226   2.206 -0.3159 -1.4490 -1.5930
 9228SOL     OW39142   4.414   0.418   6.886  0.1578  0.5609  0.8769
 9228SOL    HW139143   4.458   0.502   6.868 -1.4868  0.9948 -1.1408
 9228SOL    HW239144   4.368   0.438   6.967  1.4820 -0.9331  1.9807
 9229SOL     OW39145   3.187   2.461   8.881 -0.6170  0.3845  0.0675
 9229SOL    HW139146   3.196   2.445   8.975  0.1943  0.4331  0.0011
 9229SOL    HW239147   3.161   2.553   8.881 -1.7337  0.0747 -1.9097
 9230SOL     OW39148   4.254   0.434   3.257  0.1345 -0.0242 -0.1230
 9230SOL    HW139149   4.184   0.476   3.306 -0.2626 -2.0240  0.9907
 9230SOL    HW239150   4.238   0.342   3.275  0.3608 -0.4143 -1.8561
 9231SOL     OW39151   1.662   4.026   2.289 -0.5169  0.3076  0.6468
 9231SOL    HW139152   1.692   4.028   2.380 -2.7076 -0.4770  1.3826
 9231SOL    HW239153   1.747   4.040   2.247 -0.0358 -1.4802  1.0494
 9232SOL     OW39154   2.314   1.933   5.328  0.0083  0.1542 -0.0391
 9232SOL    HW139155   2.378   1.958   5.262  1.0375  0.3165  1.0000
 9232SOL    HW239156   2.338   1.990   5.401  1.6513 -2.1168  1.2154
 9233SOL     OW39157   2.493   4.000  17.479  0.1235 -0.0565 -0.0655
 9233SOL    HW139158   2.526   4.026  17.393  0.0652 -0.8875 -0.3376
 9233SOL    HW239159   2.571   3.960  17.518  0.2342 -0.8347 -1.0891
 9234SOL     OW39160   2.462   2.185   1.639 -0.4242 -0.0738  0.3948
 9234SOL    HW139161   2.489   2.258   1.583  2.4999 -1.2426  0.2997
 9234SOL    HW239162   2.541   2.132   1.636  0.7019  1.7953 -2.3230
 9235SOL     OW39163   3.173   1.780  14.463  0.3716 -0.0051  0.3950
 9235SOL    HW139164   3.218   1.764  14.380  1.6444  0.0465  1.0716
 9235SOL    HW239165   3.168   1.874  14.482 -1.5990 -0.5041  2.3874
 9236SOL     OW39166   1.857   1.462   2.567 -0.0911  0.4879 -0.4816
 9236SOL    HW139167   1.852   1.526   2.638  2.2972 -1.7379  1.6850
 9236SOL    HW239168   1.870   1.376   2.606  0.3818  0.5482 -0.5011
 9237SOL     OW39169   2.500   3.304   9.917  0.0231 -0.0638 -0.0397
 9237SOL    HW139170   2.537   3.383   9.956  0.8837 -0.2560 -0.4756
 9237SOL    HW239171   2.564   3.278   9.850  0.4781  0.2965  0.2595
 9238SOL     OW39172   1.348   1.675   2.586 -0.3901 -0.0097 -0.1564
 9238SOL    HW139173   1.306   1.706   2.506 -2.5478 -0.5785  0.7630
 9238SOL    HW239174   1.386   1.594   2.551  0.6376  0.8017 -0.9307
 9239SOL     OW39175   0.076   2.332   0.509  0.3273 -0.7214  0.6274
 9239SOL    HW139176   0.030   2.394   0.452  2.2865 -2.1915 -2.5243
 9239SOL    HW239177   4.717   2.312   0.557 -0.6775  0.8720 -0.3785
 9240SOL     OW39178   3.876   2.167  13.511  0.3485  0.1970  0.6853
 9240SOL    HW139179   3.843   2.215  13.587  0.2767  1.1317  0.0602
 9240SOL    HW239180   3.969   2.188  13.518  1.0106 -2.4833 -0.0227
 9241SOL     OW39181   0.709   0.308   4.085 -0.3384  0.2168 -0.3313
 9241SOL    HW139182   0.668   0.296   4.000  1.0215  0.1945 -0.9879
 9241SOL    HW239183   0.798   0.295   4.053  0.3404 -0.3094  1.7177
 9242SOL     OW39184   0.276   2.759   2.167  0.6013 -1.0905  0.2440
 9242SOL    HW139185   0.200   2.810   2.195  1.0066 -1.0225  1.2273
 9242SOL    HW239186   0.344   2.806   2.215 -1.4707  1.6648  0.4962
 9243SOL     OW39187   3.790   3.701   3.209 -0.1734 -0.0821 -0.0048
 9243SOL    HW139188   3.748   3.769   3.262 -2.7720 -2.8977  1.5536
 9243SOL    HW239189   3.810   3.755   3.133 -0.5127  0.8216  0.5528
 9244SOL     OW39190   4.648   2.876  12.436 -0.8037 -0.4256 -0.6167
 9244SOL    HW139191   4.714   2.942  12.411 -1.8109  1.1799  0.9849
 9244SOL    HW239192   4.595   2.890  12.358 -1.4902 -1.6442 -0.3574
 9245SOL     OW39193   2.804   3.922   1.563 -0.6534  0.7504 -0.7924
 9245SOL    HW139194   2.753   3.953   1.638 -0.3000  0.5091 -0.4508
 9245SOL    HW239195   2.743   3.888   1.497  2.0512 -2.2366 -1.7257
 9246SOL     OW39196   3.621   0.961   8.446  0.2366 -0.2603  0.0401
 9246SOL    HW139197   3.707   1.001   8.459  1.2393 -2.1950 -0.5679
 9246SOL    HW239198   3.573   0.992   8.523  0.0230  0.6204 -0.4576
 9247SOL     OW39199   0.032   3.552  13.792 -0.4190  0.6147 -0.2195
 9247SOL    HW139200   0.010   3.460  13.804  0.6805  0.1823 -1.5233
 9247SOL    HW239201   4.680   3.594  13.839 -1.1987 -0.2678 -0.6506
 9248SOL     OW39202   4.016   1.061   3.925 -0.6004 -0.1191 -0.3947
 9248SOL    HW139203   4.033   1.092   3.836  0.6955  2.7933  0.8530
 9248SOL    HW239204   3.972   0.979   3.905 -3.3965  0.8978  1.5990
 9249SOL     OW39205   3.731   1.801  15.059  0.2545  0.0353  0.0880
 9249SOL    HW139206   3.688   1.826  14.977  0.5308  0.9239  0.2052
 9249SOL    HW239207   3.658   1.836  15.110  0.7523  0.2008  0.6875
 9250SOL     OW39208   4.339   2.751   5.073  0.4393  0.4189  0.5595
 9250SOL    HW139209   4.301   2.686   5.014 -0.0137 -0.0629  1.3892
 9250SOL    HW239210   4.299   2.830   5.035 -2.2453 -1.4921 -0.6209
 9251SOL     OW39211   1.413   0.959   0.807 -0.6190 -0.2506 -0.4840
 9251SOL    HW139212   1.376   1.048   0.802 -1.4159 -0.6822 -2.0728
 9251SOL    HW239213   1.496   0.974   0.763 -0.6640  2.0591  0.1981
 9252SOL     OW39214   0.797   3.874   5.130 -0.0138  0.1091  0.1348
 9252SOL    HW139215   0.735   3.936   5.169 -1.2722  0.3282 -2.2022
 9252SOL    HW239216   0.785   3.793   5.178 -1.3041 -1.1334 -2.3170
 9253SOL     OW39217   1.254   3.734  16.991 -0.3410  0.0487 -0.2505
 9253SOL    HW139218   1.284   3.647  17.018 -0.5750  0.3242  0.9119
 9253SOL    HW239219   1.212   3.754  17.075  1.0605  2.1445 -0.0430
 9254SOL     OW39220   3.806   3.021   1.903 -0.3021  0.1606  0.2460
 9254SOL    HW139221   3.846   2.946   1.948 -0.0405  0.3585  0.3405
 9254SOL    HW239222   3.729   2.973   1.870 -1.8217  0.5583  3.1515
 9255SOL     OW39223   0.778   2.886   9.106  0.0021 -0.3230  0.2664
 9255SOL    HW139224   0.775   2.976   9.138 -2.5501 -0.3640  0.1525
 9255SOL    HW239225   0.866   2.889   9.068  0.3965  1.4841  1.3575
 9256SOL     OW39226   4.153   4.103   2.300 -0.3490 -0.0966  0.0202
 9256SOL    HW139227   4.077   4.159   2.313 -1.2405 -1.8763  2.4187
 9256SOL    HW239228   4.209   4.178   2.321 -2.3049  1.4700 -0.2794
 9257SOL     OW39229   0.430   2.982   7.465  0.3382  0.4337 -0.1016
 9257SOL    HW139230   0.428   2.887   7.475 -1.0269  0.5105  0.3573
 9257SOL    HW239231   0.437   2.996   7.370  0.1846 -0.2061 -0.2026
 9258SOL     OW39232   1.864   4.249   8.206  0.2525 -0.0446 -0.1885
 9258SOL    HW139233   1.850   4.165   8.249  0.7769  0.5883  1.2260
 9258SOL    HW239234   1.847   4.300   8.285  0.5474  1.8800 -1.3681
 9259SOL     OW39235   3.785   2.546  10.535 -0.4755  0.0007  0.4836
 9259SOL    HW139236   3.774   2.455  10.564  0.5555 -0.0745  0.6591
 9259SOL    HW239237   3.704   2.585  10.569 -0.6034 -0.7613  1.0553
 9260SOL     OW39238   2.087   0.129   6.548 -0.1154 -0.1535 -0.3051
 9260SOL    HW139239   2.156   0.165   6.493 -0.7487  0.6320 -0.5982
 9260SOL    HW239240   2.041   0.076   6.483 -2.3208  1.6065 -0.2200
 9261SOL     OW39241   0.059   4.035   5.641 -0.1853  0.3209  0.3847
 9261SOL    HW139242   0.121   4.099   5.607 -2.6176  2.5776  0.2351
 9261SOL    HW239243   4.699   4.084   5.625  0.2578  0.2483 -1.9735
 9262SOL     OW39244   0.269   2.355   8.619  0.1245 -0.9022  0.1571
 9262SOL    HW139245   0.263   2.389   8.708 -1.3792 -1.3193  0.2199
 9262SOL    HW239246   0.355   2.381   8.588 -0.2183  0.9350  0.7826
 9263SOL     OW39247   2.710   1.346  14.301 -0.3605 -0.2396 -0.8564
 9263SOL    HW139248   2.761   1.426  14.310  1.4437 -1.4908  0.0041
 9263SOL    HW239249   2.706   1.350  14.206  0.1059  0.3682 -0.8446
 9264SOL     OW39250   4.595   0.268   9.109 -0.1775 -0.2521 -0.0421
 9264SOL    HW139251   4.624   0.351   9.149  0.8553 -0.7379  0.2099
 9264SOL    HW239252   4.643   0.206   9.163 -1.9965 -0.5959  1.1932
 9265SOL     OW39253   0.498   1.247   2.547 -0.1030  0.8545  0.1920
 9265SOL    HW139254   0.503   1.337   2.515 -1.8973  0.5488 -0.9463
 9265SOL    HW239255   0.418   1.214   2.506  0.0703 -0.9682  1.3229
 9266SOL     OW39256   4.653   4.439   6.236 -0.2294 -0.1085 -0.2981
 9266SOL    HW139257   4.573   4.459   6.189  0.5330  0.7352 -1.2521
 9266SOL    HW239258   4.718   4.486   6.184 -0.7742  1.1709  0.1542
 9267SOL     OW39259   0.894   2.677   8.467  0.0718 -0.1284  0.1596
 9267SOL    HW139260   0.949   2.715   8.535 -0.2202  0.8747 -0.1641
 9267SOL    HW239261   0.938   2.592   8.464  1.3643  0.4615  2.2834
 9268SOL     OW39262   2.251   4.131   8.834  0.4933 -0.2110  0.2838
 9268SOL    HW139263   2.180   4.159   8.776 -0.5904  0.0358  1.7382
 9268SOL    HW239264   2.286   4.218   8.856  1.1795 -0.9914  2.2537
 9269SOL     OW39265   3.356   3.367   1.319  0.2276 -0.0185  0.1181
 9269SOL    HW139266   3.265   3.353   1.292  0.3581  1.9276 -1.2713
 9269SOL    HW239267   3.400   3.309   1.257 -2.1436 -2.7500  0.9584
 9270SOL     OW39268   2.858   0.171   0.225 -0.0902 -0.5917  0.2188
 9270SOL    HW139269   2.867   0.148   0.132 -0.1459  0.8380 -0.1434
 9270SOL    HW239270   2.786   0.234   0.225 -0.1430 -0.6492 -0.2471
 9271SOL     OW39271   4.595   1.129   2.585 -0.0713 -0.3645  0.5807
 9271SOL    HW139272   4.658   1.062   2.614  0.1891 -0.6075 -0.5214
 9271SOL    HW239273   4.566   1.162   2.670  0.0494 -0.5401  0.6904
 9272SOL     OW39274   1.502   1.734   7.916 -0.0013 -0.5986  0.1004
 9272SOL    HW139275   1.523   1.666   7.852 -1.6693 -1.2509  0.2441
 9272SOL    HW239276   1.456   1.805   7.871  0.4032 -0.1092  0.4564
 9273SOL     OW39277   1.643   2.585  11.280  0.9397  0.0867 -0.2055
 9273SOL    HW139278   1.709   2.651  11.297  2.3926 -1.0718 -1.3266
 9273SOL    HW239279   1.656   2.537  11.362 -0.0786 -1.1894 -0.7873
 9274SOL     OW39280   4.534   0.887   8.157  0.6662  0.4011  0.4921
 9274SOL    HW139281   4.527   0.806   8.207 -1.4183 -0.0758 -0.5444
 9274SOL    HW239282   4.542   0.859   8.066 -0.0117 -0.2143  0.6221
 9275SOL     OW39283   3.404   3.687   4.228 -0.7509  0.3713  0.6140
 9275SOL    HW139284   3.414   3.606   4.178  1.2433  0.4725  0.8519
 9275SOL    HW239285   3.489   3.692   4.270 -0.1374  0.6173 -0.6594
 9276SOL     OW39286   1.924   3.199  14.913 -0.0726  0.0664 -0.3055
 9276SOL    HW139287   1.922   3.106  14.892 -0.1011 -0.0881  0.3766
 9276SOL    HW239288   1.971   3.231  14.836 -0.2324  0.1518 -0.3697
 9277SOL     OW39289   1.961   4.385   3.281  0.4025 -0.2589  0.0555
 9277SOL    HW139290   1.876   4.391   3.325 -0.1299 -1.3664 -0.8338
 9277SOL    HW239291   1.956   4.458   3.219  1.0489  0.1042  0.4291
 9278SOL     OW39292   0.590   0.255  11.767 -0.3325 -0.0679  0.1795
 9278SOL    HW139293   0.535   0.250  11.846  0.7549 -0.8448  0.8922
 9278SOL    HW239294   0.576   0.349  11.754  2.2866  0.4664  1.1750
 9279SOL     OW39295   1.540   2.937   5.820  0.1990 -0.5155 -0.1314
 9279SOL    HW139296   1.534   3.002   5.750  0.1250  1.3176  1.6058
 9279SOL    HW239297   1.570   2.997   5.888 -0.6543 -0.1080 -0.1167
 9280SOL     OW39298   1.703   2.196   4.188  0.1815 -0.2680 -0.3946
 9280SOL    HW139299   1.701   2.123   4.250 -0.9630  0.2492  0.1686
 9280SOL    HW239300   1.645   2.263   4.224 -0.7651 -1.0090 -0.5407
 9281SOL     OW39301   3.247   4.550  10.336 -0.1009  0.4073 -0.2616
 9281SOL    HW139302   3.174   4.512  10.286 -0.1371  1.5745 -1.0865
 9281SOL    HW239303   3.210   4.636  10.355  0.0182  0.9364 -2.3614
 9282SOL     OW39304   2.446   0.485   5.469 -0.0289  0.0894  0.5761
 9282SOL    HW139305   2.522   0.542   5.485 -1.5334  1.5102  2.5880
 9282SOL    HW239306   2.383   0.511   5.536 -3.3444 -1.2378 -2.0150
 9283SOL     OW39307   0.949   2.811   1.686 -0.3447  0.2209  0.5948
 9283SOL    HW139308   0.989   2.812   1.598 -1.5052 -1.6622  0.0331
 9283SOL    HW239309   0.862   2.849   1.673 -0.2172 -0.1433 -1.4293
 9284SOL     OW39310   2.208   2.422   0.919 -0.3292  0.3640 -0.4409
 9284SOL    HW139311   2.125   2.432   0.873 -1.0566  1.9733  1.2011
 9284SOL    HW239312   2.235   2.341   0.876 -1.2844 -0.0499 -0.2695
 9285SOL     OW39313   3.405   4.472   3.981  0.5329 -0.7530 -0.2883
 9285SOL    HW139314   3.441   4.388   3.953 -1.2958 -1.1601 -1.4179
 9285SOL    HW239315   3.310   4.457   3.978  0.4788 -0.5702  0.5118
 9286SOL     OW39316   3.741   3.623   3.617 -0.1487  0.0776  0.1087
 9286SOL    HW139317   3.805   3.574   3.669 -1.0295 -0.4671  0.6672
 9286SOL    HW239318   3.789   3.688   3.566 -1.4616  0.8711 -0.1129
 9287SOL     OW39319   1.131   4.685   4.023 -0.0618  0.1576 -0.1533
 9287SOL    HW139320   1.199   0.023   4.056 -1.1206  0.4824  1.4257
 9287SOL    HW239321   1.145   4.682   3.928  2.6474  2.6197  0.1801
 9288SOL     OW39322   4.557   4.181  16.257  0.2085 -0.1974  0.2091
 9288SOL    HW139323   4.599   4.173  16.343  1.5903  2.9670 -0.1693
 9288SOL    HW239324   4.503   4.102  16.261  4.0496 -2.7157  2.8621
 9289SOL     OW39325   2.367   3.679   4.982 -0.2449 -0.2293  1.0794
 9289SOL    HW139326   2.393   3.685   5.074 -0.5454 -0.2458  1.1658
 9289SOL    HW239327   2.454   3.677   4.943 -0.2967 -1.3370  1.0349
 9290SOL     OW39328   1.384   1.117  16.618 -0.3181  0.3538  0.3887
 9290SOL    HW139329   1.432   1.200  16.621 -0.7705  0.5850  1.2279
 9290SOL    HW239330   1.379   1.095  16.525 -0.3754 -1.4370  0.8103
 9291SOL     OW39331   0.231   0.933   8.640 -0.3161  0.1248 -0.1723
 9291SOL    HW139332   0.276   0.855   8.673  1.5332  1.1026 -0.3894
 9291SOL    HW239333   0.287   1.005   8.669  2.0688 -2.3002  1.2005
 9292SOL     OW39334   0.232   2.253  15.092  0.3115 -0.2812  0.3352
 9292SOL    HW139335   0.254   2.170  15.134 -0.1517 -0.5885 -0.0250
 9292SOL    HW239336   0.317   2.290  15.068 -0.7655  1.1711 -1.2743
 9293SOL     OW39337   1.501   0.171   3.676 -0.3537 -0.2046 -0.5279
 9293SOL    HW139338   1.561   0.098   3.691 -2.0250 -1.8825 -2.0676
 9293SOL    HW239339   1.444   0.151   3.751  0.8774 -1.7967 -0.0125
 9294SOL     OW39340   3.469   4.437  11.460 -0.1345  0.5201 -0.3720
 9294SOL    HW139341   3.521   4.450  11.539 -2.9604  2.0584  1.2490
 9294SOL    HW239342   3.386   4.468  11.498 -1.5020 -1.0938 -2.0619
 9295SOL     OW39343   0.117   0.951   8.381  0.2569  0.2500 -0.4672
 9295SOL    HW139344   0.029   0.987   8.373  0.6735  0.9706 -1.7130
 9295SOL    HW239345   0.134   0.949   8.475  0.5391 -2.3911 -0.5515
 9296SOL     OW39346   1.452   1.417   2.534  0.6726  0.3013 -0.0612
 9296SOL    HW139347   1.525   1.412   2.471  2.3317  1.6678  1.7595
 9296SOL    HW239348   1.499   1.409   2.617 -0.0004 -2.9420  0.0155
 9297SOL     OW39349   4.070   3.631   4.955  0.4169 -0.1860  0.0713
 9297SOL    HW139350   4.090   3.701   4.893  0.5129  0.2174  0.5545
 9297SOL    HW239351   4.104   3.661   5.039 -1.4341 -1.1332  1.1421
 9298SOL     OW39352   0.289   2.484   4.955 -0.1120 -0.1859  0.0604
 9298SOL    HW139353   0.376   2.496   4.993  0.3501  2.3395 -1.8052
 9298SOL    HW239354   0.300   2.550   4.887  0.1756  0.2635  0.5427
 9299SOL     OW39355   3.596   1.889   0.792  0.0658 -0.4924 -0.5494
 9299SOL    HW139356   3.619   1.937   0.712 -0.6377  3.7678  1.8128
 9299SOL    HW239357   3.652   1.940   0.850 -1.7985  0.4129  0.4184
 9300SOL     OW39358   3.683   1.043   2.546 -0.1390 -0.8329  0.4942
 9300SOL    HW139359   3.657   0.951   2.548  0.4987 -0.9988  1.3008
 9300SOL    HW239360   3.752   1.054   2.612  0.0448 -0.8542  0.3044
 9301SOL     OW39361   4.678   1.006   8.658 -0.0456  0.0038  0.4918
 9301SOL    HW139362   0.050   0.988   8.671  0.9435  2.3830 -3.4517
 9301SOL    HW239363   4.650   0.929   8.709  1.7181 -1.6314 -1.0191
 9302SOL     OW39364   1.888   2.394   4.173 -0.2618  0.4964 -0.8206
 9302SOL    HW139365   1.836   2.314   4.159 -1.3349  0.4540  3.3755
 9302SOL    HW239366   1.894   2.426   4.083 -1.8280  0.1536 -1.0368
 9303SOL     OW39367   4.096   2.654   1.618 -0.2612  0.4184 -0.0879
 9303SOL    HW139368   4.066   2.744   1.606  0.7006  0.6426 -0.8449
 9303SOL    HW239369   4.036   2.609   1.558 -0.3638 -1.2981  1.3218
 9304SOL     OW39370   4.627   0.770   1.589  0.0014  0.1690  0.0546
 9304SOL    HW139371   4.684   0.836   1.626 -1.3233  2.8214 -2.6605
 9304SOL    HW239372   4.593   0.813   1.510  0.2436 -0.1886 -0.2460
 9305SOL     OW39373   1.647   3.734   3.913  0.1697  0.0978 -0.1991
 9305SOL    HW139374   1.729   3.772   3.882  0.0137 -1.0159 -1.9121
 9305SOL    HW239375   1.580   3.791   3.875 -0.0805 -0.3512 -0.4345
 9306SOL     OW39376   2.571   1.314   3.534  0.6452 -0.1246 -0.2828
 9306SOL    HW139377   2.622   1.350   3.461 -1.8223  1.1406 -1.3717
 9306SOL    HW239378   2.613   1.355   3.610  1.1626  0.0094 -0.6424
 9307SOL     OW39379   3.722   1.010  14.672 -0.1609  0.5952 -0.0297
 9307SOL    HW139380   3.800   1.029  14.725  0.4481 -0.6934 -0.4644
 9307SOL    HW239381   3.658   0.976  14.734  1.2602 -2.0000  0.0256
 9308SOL     OW39382   2.257   2.614   2.193 -0.0216  0.2304  0.7241
 9308SOL    HW139383   2.350   2.594   2.197  0.1821  1.4271  1.9702
 9308SOL    HW239384   2.266   2.663   2.112 -0.1732  0.1579  0.6642
 9309SOL     OW39385   0.023   3.065   9.304  0.0824  0.0553  0.2138
 9309SOL    HW139386   4.657   3.038   9.275  1.5283 -1.0107 -3.1761
 9309SOL    HW239387   0.015   3.160   9.312  0.9599  0.0935  0.6589
 9310SOL     OW39388   2.597   2.136   3.689  0.3486  0.1358 -0.7470
 9310SOL    HW139389   2.573   2.135   3.596 -2.0004  1.2155 -0.1620
 9310SOL    HW239390   2.518   2.106   3.734  2.0642 -1.3522  1.2702
 9311SOL     OW39391   1.519   0.681   6.915  0.0092  0.2849 -0.3442
 9311SOL    HW139392   1.424   0.680   6.905  0.1954 -0.8215 -2.0025
 9311SOL    HW239393   1.554   0.690   6.826  1.0751  3.6914  0.4230
 9312SOL     OW39394   0.465   4.193  17.345 -0.4109 -0.2146 -0.5253
 9312SOL    HW139395   0.502   4.138  17.414 -1.4478  1.2826  1.1985
 9312SOL    HW239396   0.486   4.281  17.375  0.3861 -0.9655  1.1450
 9313SOL     OW39397   3.753   2.520   0.452 -0.3432  0.3272 -0.3327
 9313SOL    HW139398   3.684   2.550   0.511 -0.6086  1.4696 -1.2321
 9313SOL    HW239399   3.798   2.601   0.427 -0.5672 -0.1222 -2.2220
 9314SOL     OW39400   4.687   1.216   6.807 -0.4033 -0.0264 -0.9673
 9314SOL    HW139401   4.638   1.134   6.806  2.1167 -1.5492  0.0935
 9314SOL    HW239402   4.655   1.268   6.733 -1.6044  0.1200 -0.3362
 9315SOL     OW39403   0.875   3.792   5.933 -0.0344  0.4941 -0.2740
 9315SOL    HW139404   0.795   3.780   5.984  0.0411  0.0127 -0.2719
 9315SOL    HW239405   0.907   3.879   5.957  1.1347 -0.1839  0.6475
 9316SOL     OW39406   0.801   4.121   2.596 -0.3267 -0.3374 -0.2505
 9316SOL    HW139407   0.791   4.046   2.654  2.4145 -0.3347  0.2106
 9316SOL    HW239408   0.731   4.184   2.616 -1.0925 -1.2399 -0.1048
 9317SOL     OW39409   1.577   2.712   7.494 -0.0956  0.0819  0.0635
 9317SOL    HW139410   1.638   2.702   7.566  0.9190  0.5046 -0.7456
 9317SOL    HW239411   1.628   2.736   7.416  0.3830 -0.5070  0.1990
 9318SOL     OW39412   0.367   0.999  12.542 -0.9211  0.5479 -0.0869
 9318SOL    HW139413   0.440   1.033  12.490 -0.3810  2.7851  2.1598
 9318SOL    HW239414   0.339   1.083  12.578 -0.8155  0.2188  0.7612
 9319SOL     OW39415   2.482   2.898   7.689 -0.2080  0.0895 -0.0289
 9319SOL    HW139416   2.447   2.811   7.668  2.3142 -1.0956  0.5548
 9319SOL    HW239417   2.455   2.947   7.612 -1.0912 -2.3351 -1.2760
 9320SOL     OW39418   0.471   1.316   1.527  0.1008 -0.3019  0.1775
 9320SOL    HW139419   0.528   1.332   1.602  0.9123  1.6350 -0.8631
 9320SOL    HW239420   0.507   1.234   1.492 -0.1873 -0.4430  0.2059
 9321SOL     OW39421   1.005   0.737   6.321 -0.2678 -0.6853  0.8215
 9321SOL    HW139422   1.032   0.684   6.246  2.1086  0.3697  0.9440
 9321SOL    HW239423   1.056   0.818   6.311 -1.7150  0.1326  0.0023
 9322SOL     OW39424   1.890   2.155   7.507 -0.3673 -0.1908  0.3033
 9322SOL    HW139425   1.962   2.120   7.455 -0.7643 -0.0371 -0.3511
 9322SOL    HW239426   1.827   2.199   7.449 -1.6561  0.0254  1.8783
 9323SOL     OW39427   1.957   0.321   2.744  0.1177 -0.0913 -0.0986
 9323SOL    HW139428   2.033   0.291   2.695  0.3803 -1.9464  1.4603
 9323SOL    HW239429   1.880   0.284   2.701 -0.3304 -1.2718  1.7126
 9324SOL     OW39430   0.686   4.437   7.403  0.3330 -0.1544  0.6822
 9324SOL    HW139431   0.594   4.409   7.412  0.2772 -0.5014 -1.0313
 9324SOL    HW239432   0.713   4.410   7.316  0.1189 -0.1950  0.6278
 9325SOL     OW39433   3.098   3.900  12.543 -0.6019 -0.5309  0.4018
 9325SOL    HW139434   3.134   3.927  12.458  0.3490 -0.7211  0.7487
 9325SOL    HW239435   3.103   3.983  12.590  1.7296 -1.5459  1.9761
 9326SOL     OW39436   3.890   3.679   4.497 -0.3868  0.3963 -0.1396
 9326SOL    HW139437   3.910   3.690   4.590 -2.0103 -0.5497  0.3284
 9326SOL    HW239438   3.969   3.636   4.466 -0.0030  0.5362  0.6441
 9327SOL     OW39439   2.905   2.833   0.139 -0.0460  0.4618 -0.1558
 9327SOL    HW139440   2.964   2.817   0.212  1.8195 -0.0693 -1.7748
 9327SOL    HW239441   2.972   2.809   0.075  1.1975  2.8787  0.2765
 9328SOL     OW39442   4.067   1.988  13.230 -0.0487  0.3033  0.4285
 9328SOL    HW139443   3.976   1.990  13.258  0.5608 -1.0271  2.4908
 9328SOL    HW239444   4.053   2.028  13.144  2.1639  0.3211  0.0687
 9329SOL     OW39445   2.915   3.187   3.167  0.0467 -0.3627 -0.0617
 9329SOL    HW139446   2.992   3.152   3.123 -0.2663 -0.5475 -0.4645
 9329SOL    HW239447   2.881   3.106   3.206 -1.8918  1.7557  2.7198
 9330SOL     OW39448   3.120   2.664   2.212 -0.3890 -0.1645  0.0927
 9330SOL    HW139449   3.064   2.658   2.135  0.9608 -1.8241 -0.7531
 9330SOL    HW239450   3.174   2.587   2.195 -0.8694 -0.3211 -0.7277
 9331SOL     OW39451   0.966   2.318   1.110 -0.1176  0.1223  0.6551
 9331SOL    HW139452   1.042   2.269   1.078 -0.7554  0.4634 -1.4390
 9331SOL    HW239453   1.012   2.380   1.166  1.0585  1.7464 -2.0773
 9332SOL     OW39454   3.496   4.614   5.951 -0.3057 -0.3260  0.5407
 9332SOL    HW139455   3.485   4.694   5.900 -1.7931  0.5758  2.2510
 9332SOL    HW239456   3.448   4.555   5.892 -0.4406 -0.9272  1.2544
 9333SOL     OW39457   3.918   3.392   2.650  0.0325 -0.0337 -0.2098
 9333SOL    HW139458   3.948   3.437   2.571 -2.2598  0.6821 -0.6739
 9333SOL    HW239459   3.829   3.428   2.653  0.5743  1.0464  2.6691
 9334SOL     OW39460   0.277   3.285   4.068 -0.2001  0.2164 -0.2654
 9334SOL    HW139461   0.234   3.199   4.070 -0.9407  0.6104  1.0830
 9334SOL    HW239462   0.206   3.330   4.115  0.0503 -0.2909  0.5941
 9335SOL     OW39463   3.430   1.481   8.697 -0.0807  0.4563 -0.5060
 9335SOL    HW139464   3.478   1.534   8.761  1.6102 -1.6469 -0.0014
 9335SOL    HW239465   3.400   1.404   8.744  1.6956  0.3601  0.4914
 9336SOL     OW39466   0.947   3.765   5.444 -0.2939 -0.0423  0.2849
 9336SOL    HW139467   0.903   3.729   5.367  0.8598  2.0519 -1.3345
 9336SOL    HW239468   0.935   3.860   5.444 -1.0832 -0.1437 -0.6189
 9337SOL     OW39469   3.393   0.683   2.468  0.4573 -0.3405 -0.3730
 9337SOL    HW139470   3.324   0.677   2.402  0.1460  0.6016 -0.1419
 9337SOL    HW239471   3.471   0.716   2.423  0.9537 -1.5207 -0.3606
 9338SOL     OW39472   1.662   0.194   7.613 -0.0104 -1.0491 -0.1482
 9338SOL    HW139473   1.693   0.145   7.537  0.0359 -1.0956 -0.0989
 9338SOL    HW239474   1.651   0.281   7.574 -1.2266 -0.0829  2.3620
 9339SOL     OW39475   2.755   2.795   1.700 -0.0033 -0.2209  0.3997
 9339SOL    HW139476   2.842   2.782   1.738  1.1620  0.2115 -2.1844
 9339SOL    HW239477   2.779   2.815   1.610 -0.8387  1.1491  0.4722
 9340SOL     OW39478   3.047   2.017   5.556 -0.3245  0.0366  0.0986
 9340SOL    HW139479   3.134   2.027   5.595  0.4576  1.0489 -1.9027
 9340SOL    HW239480   3.042   2.089   5.493 -2.3645 -0.6512 -0.5265
 9341SOL     OW39481   2.021   4.710   6.078 -0.1209 -0.1453  0.0555
 9341SOL    HW139482   2.030   0.081   6.103 -0.8266  0.6586 -2.6271
 9341SOL    HW239483   1.993   4.669   6.160  0.6887  2.7217  1.7512
 9342SOL     OW39484   1.450   3.897   3.815 -0.5204 -0.1892  0.3093
 9342SOL    HW139485   1.386   3.865   3.879 -1.0472  0.4328  0.0959
 9342SOL    HW239486   1.400   3.945   3.750  0.3700 -0.7131 -0.7553
 9343SOL     OW39487   0.605   4.604  16.129  0.4294  1.1038  0.4120
 9343SOL    HW139488   0.538   4.553  16.082  1.0219  0.7267 -0.0247
 9343SOL    HW239489   0.669   4.536  16.151  0.1888  0.6981 -0.1318
 9344SOL     OW39490   2.511   0.917   6.141 -0.4780  0.3018 -0.1589
 9344SOL    HW139491   2.512   0.831   6.182 -3.6871 -0.4859 -1.6951
 9344SOL    HW239492   2.575   0.912   6.070 -1.7367 -0.6384 -1.2302
 9345SOL     OW39493   3.106   0.393  14.081 -0.3230  0.2903  0.5657
 9345SOL    HW139494   3.184   0.434  14.118  1.2434 -0.2447 -2.1411
 9345SOL    HW239495   3.136   0.302  14.070 -1.9032 -0.2104  0.3908
 9346SOL     OW39496   3.843   4.672   4.231  0.0922 -0.4463 -0.2836
 9346SOL    HW139497   3.866   0.038   4.197 -3.0314 -0.0904 -1.4627
 9346SOL    HW239498   3.752   4.652   4.209  0.2254 -2.3915  0.9450
 9347SOL     OW39499   4.296   2.955  17.243 -0.8124 -0.2151 -0.1253
 9347SOL    HW139500   4.304   2.876  17.295 -0.5721  0.0845  0.2917
 9347SOL    HW239501   4.216   2.939  17.193 -1.8365 -0.6327  1.6433
 9348SOL     OW39502   4.633   4.321   1.240 -0.1207  0.3127 -0.0405
 9348SOL    HW139503   4.658   4.243   1.190 -1.1947 -0.1411  0.1282
 9348SOL    HW239504   4.683   4.308   1.321 -1.7464  0.4567  0.9937
 9349SOL     OW39505   2.183   3.217   8.198 -0.4051 -0.0198 -0.3553
 9349SOL    HW139506   2.233   3.207   8.117  0.2854  0.0382  0.0611
 9349SOL    HW239507   2.121   3.144   8.194  1.0766 -1.3899  1.9316
 9350SOL     OW39508   1.608   0.021   4.118 -0.1145  0.2645 -0.0235
 9350SOL    HW139509   1.553   4.701   4.052  0.9707  0.3795 -1.0010
 9350SOL    HW239510   1.614   0.108   4.078  2.8315  0.3962  0.7026
 9351SOL     OW39511   3.321   0.487   3.563 -0.0479  0.1928  0.1208
 9351SOL    HW139512   3.392   0.492   3.498  1.1436  1.2330  1.4978
 9351SOL    HW239513   3.333   0.395   3.587  0.4511  0.3342  0.4236
 9352SOL     OW39514   2.260   1.900   4.904 -0.3860 -0.9145 -0.0524
 9352SOL    HW139515   2.345   1.928   4.871  0.9557 -1.5076  2.9327
 9352SOL    HW239516   2.199   1.926   4.835 -0.1626  0.0566  0.1131
 9353SOL     OW39517   0.363   0.251   7.494 -0.0397 -0.7393 -0.1004
 9353SOL    HW139518   0.294   0.316   7.481  0.9135  0.3271  0.2545
 9353SOL    HW239519   0.361   0.254   7.589 -0.6942  1.0363 -0.1802
 9354SOL     OW39520   3.869   0.256   2.493 -0.1692 -0.3012  0.0074
 9354SOL    HW139521   3.910   0.171   2.479 -0.4689 -0.2085 -1.4508
 9354SOL    HW239522   3.933   0.310   2.446  2.1331 -2.4914  0.6092
 9355SOL     OW39523   4.054   1.218   6.001  0.7023 -0.0700  0.5223
 9355SOL    HW139524   4.067   1.138   5.950  0.0332  0.0304  0.1955
 9355SOL    HW239525   4.128   1.215   6.062  0.2860 -2.0430  0.9131
 9356SOL     OW39526   0.332   2.270   9.043 -0.1583  0.1119  0.2326
 9356SOL    HW139527   0.364   2.237   9.127 -0.4173  2.6116  1.3208
 9356SOL    HW239528   0.332   2.193   8.986  1.8214 -0.2226  0.6779
 9357SOL     OW39529   4.229   4.299   5.380  0.2828 -0.1526  0.2214
 9357SOL    HW139530   4.219   4.301   5.475  0.9740  0.3417  0.2831
 9357SOL    HW239531   4.324   4.285   5.376  0.6338  1.8803  1.4240
 9358SOL     OW39532   1.119   1.577  12.415  0.0923  0.1331 -0.3700
 9358SOL    HW139533   1.101   1.661  12.372  4.1289  0.9423 -0.4735
 9358SOL    HW239534   1.185   1.601  12.480  1.3836 -1.6324 -1.0070
 9359SOL     OW39535   1.976   4.285   1.076 -0.3928 -0.0042 -0.3062
 9359SOL    HW139536   2.002   4.237   1.154  0.5702  1.7052  0.4250
 9359SOL    HW239537   1.880   4.290   1.074 -0.4450 -0.1848  2.1264
 9360SOL     OW39538   1.472   4.550   5.278 -0.1872 -0.0935 -0.4864
 9360SOL    HW139539   1.554   4.541   5.325  0.1171  0.4118 -0.9184
 9360SOL    HW239540   1.466   4.466   5.232  1.3775  0.4026 -1.5875
 9361SOL     OW39541   3.285   3.155  17.307  0.1139  0.5561 -0.5607
 9361SOL    HW139542   3.323   3.187  17.389 -0.5399  2.0557 -0.8404
 9361SOL    HW239543   3.219   3.225  17.301  1.5757  1.6639 -3.8402
 9362SOL     OW39544   1.543   4.142   1.559 -0.0508  0.1101 -0.0958
 9362SOL    HW139545   1.482   4.210   1.529 -0.8010 -0.3978  0.2881
 9362SOL    HW239546   1.621   4.197   1.569  1.7660 -1.9909 -2.4964
 9363SOL     OW39547   0.421   1.580   5.414 -0.4200 -0.5033 -0.0672
 9363SOL    HW139548   0.483   1.544   5.478  0.2879  0.2304 -0.3403
 9363SOL    HW239549   0.402   1.663   5.457  1.6656 -0.7117  1.2673
 9364SOL     OW39550   3.867   0.547   6.180  0.4703  0.0770  0.1501
 9364SOL    HW139551   3.889   0.590   6.097  0.8516  1.1361  0.8046
 9364SOL    HW239552   3.855   0.455   6.158 -1.2472  0.3574 -0.0940
 9365SOL     OW39553   0.313   2.093   2.114  0.2076 -0.0181 -0.9693
 9365SOL    HW139554   0.335   2.155   2.044  0.4071 -0.3184 -1.1701
 9365SOL    HW239555   0.297   2.017   2.059  2.7202 -0.3743 -1.2250
 9366SOL     OW39556   4.159   4.132   5.923 -0.5167  0.2467 -0.3283
 9366SOL    HW139557   4.169   4.057   5.981  0.3897  0.9004  0.3528
 9366SOL    HW239558   4.071   4.165   5.939 -1.6099 -2.7949  0.0518
 9367SOL     OW39559   1.166   2.873   3.259 -0.5808  0.6630  0.0711
 9367SOL    HW139560   1.255   2.837   3.252 -0.3196  1.3850 -0.3050
 9367SOL    HW239561   1.111   2.801   3.227 -0.4584  0.0945  1.1173
 9368SOL     OW39562   3.798   3.430   8.467 -0.1114 -0.1911 -1.3129
 9368SOL    HW139563   3.831   3.350   8.509  3.5818  1.9886 -0.0443
 9368SOL    HW239564   3.874   3.485   8.485 -2.7124  2.8703  0.2852
 9369SOL     OW39565   1.181   3.207   2.721  0.3405  0.0917  0.7484
 9369SOL    HW139566   1.101   3.162   2.751 -0.2428 -0.9164 -2.3284
 9369SOL    HW239567   1.153   3.257   2.644 -1.3375 -0.2153  1.1543
 9370SOL     OW39568   1.080   2.818  13.094  0.0304 -0.2335 -0.0908
 9370SOL    HW139569   1.064   2.912  13.096  0.4079 -0.1422 -1.8686
 9370SOL    HW239570   0.986   2.798  13.093  0.1735 -0.8446 -1.9093
 9371SOL     OW39571   0.620   2.236   5.249  0.2529  0.3338 -0.4896
 9371SOL    HW139572   0.685   2.306   5.241 -0.8557  1.2466 -1.5325
 9371SOL    HW239573   0.637   2.199   5.336 -0.8944 -0.0467 -0.4337
 9372SOL     OW39574   4.665   3.103   6.111 -0.4151  0.2549 -0.0284
 9372SOL    HW139575   4.633   3.064   6.029 -2.3619  0.8164  0.4521
 9372SOL    HW239576   0.003   3.174   6.085  0.5339 -0.7947 -0.7345
 9373SOL     OW39577   2.456   1.028   5.268  0.1687 -0.3212 -0.8325
 9373SOL    HW139578   2.435   0.940   5.235 -2.2907  0.6957 -1.9935
 9373SOL    HW239579   2.472   1.078   5.188  1.4968 -0.4449 -0.6601
 9374SOL     OW39580   0.513   0.158  11.144  0.9900  0.5211  0.2719
 9374SOL    HW139581   0.427   0.187  11.114  0.1961 -2.2707 -0.1564
 9374SOL    HW239582   0.486   0.090  11.206  2.1031  1.2630  1.5668
 9375SOL     OW39583   2.790   2.250   5.489  0.1684  0.2566  0.4165
 9375SOL    HW139584   2.876   2.285   5.464 -0.0602 -1.9662 -3.4062
 9375SOL    HW239585   2.730   2.313   5.450  0.0112  0.7354  1.4264
 9376SOL     OW39586   0.686   2.858  11.693  0.4313  0.2173 -0.1520
 9376SOL    HW139587   0.743   2.796  11.647 -1.1295  0.1581 -1.9672
 9376SOL    HW239588   0.751   2.914  11.736 -1.2961 -0.2287  3.0836
 9377SOL     OW39589   4.416   0.858  16.490 -0.1342 -0.9442  0.0702
 9377SOL    HW139590   4.328   0.838  16.523 -0.4107 -1.3484 -0.9061
 9377SOL    HW239591   4.409   0.848  16.395 -0.0117  2.2040 -0.2664
 9378SOL     OW39592   3.474   2.559  10.360 -0.1456  0.3221 -0.0392
 9378SOL    HW139593   3.511   2.643  10.333  1.4892 -0.6835 -0.9649
 9378SOL    HW239594   3.488   2.554  10.455  2.6242  0.1015 -0.4510
 9379SOL     OW39595   2.346   3.264   9.634  0.4817  0.5021 -0.3077
 9379SOL    HW139596   2.408   3.294   9.567 -0.9568  0.5333 -1.6347
 9379SOL    HW239597   2.389   3.195   9.684  2.1730  2.3921  0.8318
 9380SOL     OW39598   0.100   4.680   3.059  0.3109  0.0782  0.3341
 9380SOL    HW139599   0.095   4.608   2.996  0.3227 -0.7586  1.2918
 9380SOL    HW239600   0.010   4.714   3.059 -0.1196 -1.0597 -0.7775
 9381SOL     OW39601   0.631   1.750  10.983 -0.2152 -0.3365  0.1699
 9381SOL    HW139602   0.571   1.802  10.929  0.9359  0.8141 -0.0103
 9381SOL    HW239603   0.715   1.776  10.947  0.3243 -0.1452  1.5454
 9382SOL     OW39604   4.598   0.748   6.523 -0.1726  0.2899  0.3381
 9382SOL    HW139605   4.661   0.682   6.553  0.1934  1.0362  1.1995
 9382SOL    HW239606   4.610   0.745   6.428  3.1926 -1.0609  0.7961
 9383SOL     OW39607   0.918   4.094   3.434 -0.0148 -0.0922 -0.1847
 9383SOL    HW139608   0.838   4.131   3.397 -0.5945 -0.8707  0.2980
 9383SOL    HW239609   0.928   4.117   3.526 -0.7129 -0.0144 -0.1293
 9384SOL     OW39610   3.277   0.395  11.979 -0.5308  0.8046  0.3179
 9384SOL    HW139611   3.341   0.335  12.017 -0.5177 -0.7285 -2.0815
 9384SOL    HW239612   3.250   0.445  12.056 -0.0654  0.4131  0.7329
 9385SOL     OW39613   1.003   4.385  14.591 -0.7237 -0.7480 -0.1544
 9385SOL    HW139614   1.012   4.371  14.497 -1.8319 -0.1438 -0.3438
 9385SOL    HW239615   0.989   4.298  14.628 -0.1141 -1.8631 -2.5812
 9386SOL     OW39616   1.926   4.478   4.094 -0.1881 -0.3717 -0.3827
 9386SOL    HW139617   1.908   4.443   4.181 -1.2153 -1.5377 -1.0695
 9386SOL    HW239618   2.014   4.517   4.098 -0.8526  0.7420  2.9663
 9387SOL     OW39619   0.716   1.106   7.379 -0.1958 -0.2940  0.0566
 9387SOL    HW139620   0.642   1.158   7.411  0.1390 -0.4664  1.1357
 9387SOL    HW239621   0.669   1.042   7.327 -0.6398 -0.9613  1.2788
 9388SOL     OW39622   3.524   1.122   4.313  0.1845 -0.5269 -0.2402
 9388SOL    HW139623   3.569   1.203   4.291  3.9001 -2.5998 -0.2158
 9388SOL    HW239624   3.547   1.066   4.239  1.1271 -0.5109  0.0348
 9389SOL     OW39625   4.001   1.010  10.882  0.1879  0.4031  0.0910
 9389SOL    HW139626   3.917   0.968  10.901 -0.1451  1.9935  2.1566
 9389SOL    HW239627   4.015   1.038  10.973 -2.0223  0.2005  0.5031
 9390SOL     OW39628   3.823   3.499   9.652  0.2526 -0.5623 -0.4149
 9390SOL    HW139629   3.836   3.587   9.688  1.5012  0.2151 -2.7474
 9390SOL    HW239630   3.808   3.441   9.727  0.8698  1.2210  1.0954
 9391SOL     OW39631   3.662   4.566  16.802 -0.3939  0.2335  0.2308
 9391SOL    HW139632   3.604   4.522  16.864  0.5964  0.0103  0.9994
 9391SOL    HW239633   3.748   4.546  16.839  0.5992  0.5000 -1.9564
 9392SOL     OW39634   0.628   2.622   0.512  0.5567  0.2155 -0.4280
 9392SOL    HW139635   0.623   2.698   0.569  0.2028 -2.0909  2.6205
 9392SOL    HW239636   0.573   2.558   0.557  0.7217  0.7945  0.5916
 9393SOL     OW39637   0.935   3.072   8.414 -0.2555 -0.3563 -0.0162
 9393SOL    HW139638   0.944   3.121   8.332  1.0762 -1.7947 -0.7316
 9393SOL    HW239639   1.026   3.064   8.444 -0.4464  0.0985  0.6823
 9394SOL     OW39640   2.950   2.716  16.102  0.0612 -0.5941 -0.2313
 9394SOL    HW139641   2.950   2.713  16.198  2.5723  1.0870 -0.1793
 9394SOL    HW239642   2.905   2.639  16.066 -0.8862  0.6056 -1.6095
 9395SOL     OW39643   4.615   3.175   2.505 -0.3357 -0.0551  0.1272
 9395SOL    HW139644   4.522   3.161   2.488  0.5737 -1.2230 -4.0824
 9395SOL    HW239645   4.617   3.259   2.458  0.4376  1.2109  2.4720
 9396SOL     OW39646   3.426   0.959   5.205  0.1149  0.7542  0.4494
 9396SOL    HW139647   3.413   0.903   5.282  0.8968  0.9604  0.7320
 9396SOL    HW239648   3.439   0.895   5.135  1.6916  1.1597  0.3780
 9397SOL     OW39649   3.881   0.781   7.674 -0.5853 -0.0925 -0.2154
 9397SOL    HW139650   3.973   0.756   7.674 -0.5403  0.0586 -1.2065
 9397SOL    HW239651   3.878   0.811   7.765 -1.2678  1.8155 -0.8648
 9398SOL     OW39652   3.107   2.088   2.794  0.1113 -0.4310 -0.2326
 9398SOL    HW139653   3.133   2.135   2.714  0.2523  0.2553  0.2145
 9398SOL    HW239654   3.125   2.145   2.869  0.9023  0.0309 -0.7771
 9399SOL     OW39655   1.695   0.686   3.267 -0.1122  1.0870 -0.2264
 9399SOL    HW139656   1.724   0.752   3.330  0.1378  2.1311 -1.4161
 9399SOL    HW239657   1.758   0.695   3.196  0.7695  0.6431  0.5112
 9400SOL     OW39658   4.640   0.330   2.715  0.4386 -0.0659 -0.3507
 9400SOL    HW139659   4.582   0.388   2.665  0.6456 -0.1362 -0.6710
 9400SOL    HW239660   4.602   0.243   2.705  0.0817  0.1604 -0.9591
 9401SOL     OW39661   4.135   1.350   5.338 -0.0136 -0.8601  0.4047
 9401SOL    HW139662   4.043   1.326   5.335 -0.2707  0.2556 -0.9301
 9401SOL    HW239663   4.140   1.422   5.400  1.3313 -0.5173 -0.0852
 9402SOL     OW39664   1.885   4.220   2.436 -0.1501 -0.4406  0.0690
 9402SOL    HW139665   1.914   4.244   2.524 -2.6428 -0.0666  0.7742
 9402SOL    HW239666   1.916   4.297   2.388  0.4949 -0.1672  0.9276
 9403SOL     OW39667   1.959   2.411   2.638 -0.2940  0.0698  0.3287
 9403SOL    HW139668   2.004   2.367   2.565 -1.6039 -0.3430 -0.2222
 9403SOL    HW239669   1.981   2.502   2.617 -1.2270  0.1673 -0.1942
 9404SOL     OW39670   1.728   1.852   7.996 -0.1852 -0.0575 -0.1957
 9404SOL    HW139671   1.737   1.884   7.906  1.1374  2.3771  0.7840
 9404SOL    HW239672   1.646   1.804   7.990 -0.7158  0.7583  0.5945
 9405SOL     OW39673   0.016   2.572   8.036 -0.1950 -0.4174  0.0358
 9405SOL    HW139674   4.715   2.660   8.006  1.6151  0.4710  1.3714
 9405SOL    HW239675   4.669   2.515   8.000 -1.3350  0.2835  1.0605
 9406SOL     OW39676   1.722   0.379   3.169  0.9472 -0.0610 -0.5086
 9406SOL    HW139677   1.799   0.436   3.174  0.4237  0.5852  0.1188
 9406SOL    HW239678   1.749   0.308   3.110 -1.1693 -0.1253 -1.3962
 9407SOL     OW39679   0.189   0.444   7.454 -0.2104 -0.9248 -0.2377
 9407SOL    HW139680   0.235   0.496   7.388  0.1076 -0.4594  0.3533
 9407SOL    HW239681   0.101   0.450   7.418  0.4977  1.0637 -1.6628
 9408SOL     OW39682   0.654   2.535  13.623  0.4490  0.0559  0.0516
 9408SOL    HW139683   0.680   2.443  13.611 -1.7507 -0.5149 -0.3642
 9408SOL    HW239684   0.729   2.576  13.667 -0.5593  0.0143  1.7947
 9409SOL     OW39685   4.014   1.313   4.461  0.2028  0.2711  0.1900
 9409SOL    HW139686   4.054   1.239   4.416  0.0714  0.4521 -0.2183
 9409SOL    HW239687   3.936   1.273   4.501 -1.3277  1.7180 -1.3496
 9410SOL     OW39688   4.197   1.922   4.384 -0.3322  0.0127 -0.3577
 9410SOL    HW139689   4.209   1.935   4.290 -2.4659 -2.3722 -0.9581
 9410SOL    HW239690   4.215   1.828   4.388 -1.2797 -0.1748 -0.4232
 9411SOL     OW39691   0.039   4.338   7.453  0.2852 -1.0865  0.6770
 9411SOL    HW139692   0.055   4.380   7.369 -1.3598 -1.5220  0.1538
 9411SOL    HW239693   4.669   4.361   7.473  0.5753 -0.7445  1.6214
 9412SOL     OW39694   4.222   3.300   4.335 -0.1707  0.1658  0.4789
 9412SOL    HW139695   4.161   3.311   4.262  0.4130  2.8861  0.4343
 9412SOL    HW239696   4.205   3.210   4.366 -2.2172  1.1077  2.1057
 9413SOL     OW39697   3.320   0.529  11.772 -0.5559 -0.4667  0.0065
 9413SOL    HW139698   3.308   0.487  11.857  0.7262  1.3034  1.0478
 9413SOL    HW239699   3.287   0.458  11.718  1.7787 -1.6570  0.1427
 9414SOL     OW39700   4.068   2.001   9.863 -0.2428 -0.2067  0.2480
 9414SOL    HW139701   3.977   1.970   9.868  0.2207 -1.2309  2.1925
 9414SOL    HW239702   4.111   1.941   9.923  0.4140  2.2289  2.2321
 9415SOL     OW39703   1.069   4.565   3.683 -0.3121 -0.5757 -0.8596
 9415SOL    HW139704   1.019   4.501   3.735  0.8772 -0.9121 -0.1376
 9415SOL    HW239705   1.099   4.500   3.619 -0.3844  0.1230 -1.6100
 9416SOL     OW39706   2.991   2.040   6.796  0.7070  0.0863  0.1943
 9416SOL    HW139707   2.984   2.080   6.710  1.0475 -0.4371 -0.0802
 9416SOL    HW239708   2.953   2.093   6.866  2.2155  0.5109  0.6911
 9417SOL     OW39709   0.973   4.537   8.347  0.7912  0.3890  0.2211
 9417SOL    HW139710   1.020   4.574   8.273  0.5087  0.5067  0.1041
 9417SOL    HW239711   0.958   4.615   8.400 -2.7865 -0.4205  0.3745
 9418SOL     OW39712   1.608   0.511   1.310  0.4330 -0.8997  0.0534
 9418SOL    HW139713   1.673   0.460   1.261 -0.8543 -1.5246 -1.0047
 9418SOL    HW239714   1.656   0.593   1.313 -1.1397 -0.0057  0.7860
 9419SOL     OW39715   4.471   4.546  12.975 -0.4959 -0.2059  0.0247
 9419SOL    HW139716   4.554   4.587  12.952 -1.0652 -0.3361 -2.3068
 9419SOL    HW239717   4.403   4.595  12.930  0.1457  0.1478 -0.5593
 9420SOL     OW39718   2.102   0.718   4.354  0.0237 -0.5844  0.1451
 9420SOL    HW139719   2.145   0.658   4.292 -0.7419  0.5636 -1.4927
 9420SOL    HW239720   2.048   0.664   4.411 -0.6255  0.2712  0.3364
 9421SOL     OW39721   4.525   2.370   8.413  0.4316 -0.1977  0.4040
 9421SOL    HW139722   4.446   2.379   8.466  0.2973  1.3129 -0.0448
 9421SOL    HW239723   4.564   2.457   8.417 -1.9723  0.9045  0.0763
 9422SOL     OW39724   0.025   3.318   3.404  0.0940  0.2209  0.4056
 9422SOL    HW139725   4.685   3.370   3.457  1.1361  2.4888 -0.6262
 9422SOL    HW239726   0.018   3.231   3.443 -2.6863  0.5788  0.7466
 9423SOL     OW39727   2.053   0.535   5.444 -0.3696 -0.4670 -1.0477
 9423SOL    HW139728   2.110   0.585   5.387 -2.0133  0.7976 -1.5957
 9423SOL    HW239729   1.976   0.587   5.419  0.0497  1.2316  1.1267
 9424SOL     OW39730   1.193   0.527   4.717 -0.3753 -0.2842 -0.6868
 9424SOL    HW139731   1.286   0.547   4.719 -1.0723  3.0634 -1.5851
 9424SOL    HW239732   1.160   0.584   4.648 -1.7891 -0.1824  0.0731
 9425SOL     OW39733   0.514   0.467  10.450 -0.4644 -0.4088 -0.0016
 9425SOL    HW139734   0.431   0.486  10.493  0.7410  1.2771  1.6105
 9425SOL    HW239735   0.578   0.496  10.515 -0.3249 -0.1630 -0.2459
 9426SOL     OW39736   0.063   2.141   3.664 -0.3644 -0.0498  0.3191
 9426SOL    HW139737   0.135   2.097   3.711  1.6184  2.7745 -0.0544
 9426SOL    HW239738   0.097   2.149   3.575 -2.8752  2.2330 -0.4291
 9427SOL     OW39739   3.895   3.784   2.466  0.3336  0.4622  0.0212
 9427SOL    HW139740   3.946   3.704   2.477 -2.4550 -1.4474 -0.7357
 9427SOL    HW239741   3.857   3.756   2.382 -1.5804  0.5174  0.8527
 9428SOL     OW39742   1.431   2.692   5.166  0.5721 -0.1135  0.1035
 9428SOL    HW139743   1.425   2.734   5.080  1.0546 -0.4864 -0.1123
 9428SOL    HW239744   1.458   2.607   5.131 -0.9148  0.0368 -1.4579
 9429SOL     OW39745   2.248   2.943   4.637 -0.3455 -0.0207  0.6718
 9429SOL    HW139746   2.202   2.967   4.557  2.1769  1.1024 -0.4647
 9429SOL    HW239747   2.294   2.862   4.613 -0.4593  0.1224 -0.0538
 9430SOL     OW39748   1.592   4.268  14.719 -0.2187 -0.2012  0.0934
 9430SOL    HW139749   1.523   4.208  14.747  1.3055 -2.3288 -0.7668
 9430SOL    HW239750   1.647   4.245  14.793  0.9493  1.4453 -0.2488
 9431SOL     OW39751   2.298   1.671   5.868  0.2218  0.4112  0.5078
 9431SOL    HW139752   2.299   1.664   5.773  2.5300 -1.1789  0.6474
 9431SOL    HW239753   2.220   1.617   5.885 -0.5138  1.4516  0.4892
 9432SOL     OW39754   0.086   0.569   4.871 -0.3122  0.9817  0.1895
 9432SOL    HW139755   0.030   0.638   4.908 -0.4143  0.7945  0.3816
 9432SOL    HW239756   0.076   0.592   4.779  0.7725 -0.0090 -0.1750
 9433SOL     OW39757   1.984   1.653   2.081 -0.1811 -0.0635 -0.5683
 9433SOL    HW139758   2.063   1.706   2.093  0.3522 -0.5471 -1.9773
 9433SOL    HW239759   1.972   1.607   2.164  3.6814  1.1642  0.6373
 9434SOL     OW39760   0.236   0.287   4.170 -0.4002  0.2741  0.2293
 9434SOL    HW139761   0.226   0.246   4.256  3.5471 -1.1617  0.0012
 9434SOL    HW239762   0.314   0.334   4.198 -0.3479  0.8999 -0.9644
 9435SOL     OW39763   4.136   1.087   5.600 -0.0636  0.5515 -0.5310
 9435SOL    HW139764   4.063   1.060   5.656 -0.3418 -0.1695 -1.2486
 9435SOL    HW239765   4.121   1.182   5.596  0.3275  0.7015  1.3708
 9436SOL     OW39766   0.416   2.962   2.803  0.2098  0.8407  0.5173
 9436SOL    HW139767   0.343   2.901   2.802  0.7034  0.2581 -0.6625
 9436SOL    HW239768   0.379   3.045   2.832 -0.5561  0.8625 -0.5240
 9437SOL     OW39769   4.049   4.653   7.219  0.0402 -0.1019 -0.3978
 9437SOL    HW139770   4.048   4.605   7.302  2.2002 -1.4485 -1.1404
 9437SOL    HW239771   3.988   4.599   7.169 -0.9736 -1.0099  1.8256
 9438SOL     OW39772   2.210   2.662  14.936 -0.0643 -0.5000  0.6262
 9438SOL    HW139773   2.125   2.631  14.906 -0.5499  1.0963  0.3495
 9438SOL    HW239774   2.221   2.738  14.879  0.7254  0.1273  1.6009
 9439SOL     OW39775   4.050   2.371   5.561  0.0170 -0.2217 -0.7246
 9439SOL    HW139776   3.971   2.397   5.515 -0.7896  1.3715  1.5562
 9439SOL    HW239777   4.042   2.276   5.556 -0.2614 -0.3129  1.5208
 9440SOL     OW39778   4.185   4.228  13.393  0.3791  0.2782  0.0005
 9440SOL    HW139779   4.277   4.229  13.368  0.8259  1.0571  1.6515
 9440SOL    HW239780   4.149   4.221  13.305 -1.0741  1.1478  0.5272
 9441SOL     OW39781   1.679   2.552   2.659 -0.3060  0.2043 -0.1479
 9441SOL    HW139782   1.670   2.489   2.588  1.9874 -1.0632  0.7008
 9441SOL    HW239783   1.765   2.587   2.638  0.9590 -2.5306  0.4390
 9442SOL     OW39784   0.015   2.263   8.590  0.1016 -0.0472 -0.2605
 9442SOL    HW139785   0.099   2.304   8.569 -0.3150  1.3167  0.7983
 9442SOL    HW239786   4.680   2.328   8.548  0.9805  0.9427  0.1220
 9443SOL     OW39787   0.536   4.712  10.894  0.4575  0.6638  1.0569
 9443SOL    HW139788   0.630   0.006  10.907  0.7117 -1.5602  1.7979
 9443SOL    HW239789   0.507   0.053  10.960  0.5666  2.9463 -1.0079
 9444SOL     OW39790   2.391   0.264   1.851  0.3798  0.3127  0.0165
 9444SOL    HW139791   2.480   0.244   1.820  0.6869  1.0591  0.4195
 9444SOL    HW239792   2.390   0.360   1.845  0.8914  0.4444  2.0645
 9445SOL     OW39793   1.378   0.209   2.912  0.0365 -0.3201 -0.3174
 9445SOL    HW139794   1.364   0.294   2.955 -2.2834 -1.3120  0.8946
 9445SOL    HW239795   1.371   0.231   2.819 -0.5350  0.4565 -0.0918
 9446SOL     OW39796   0.123   1.969  16.609  0.4166 -0.3919  0.2990
 9446SOL    HW139797   0.201   1.919  16.586  0.0913 -0.4058 -0.7622
 9446SOL    HW239798   0.119   2.027  16.533  1.9666  1.9944  2.0714
 9447SOL     OW39799   3.854   2.675   3.799 -0.1242 -0.4859 -0.2307
 9447SOL    HW139800   3.802   2.742   3.755  0.7168  0.1622 -0.2230
 9447SOL    HW239801   3.794   2.640   3.865  0.7645 -1.3237  0.1360
 9448SOL     OW39802   0.807   3.479   5.004  0.4886 -0.0275  0.1601
 9448SOL    HW139803   0.888   3.501   4.957  0.1987  1.2195  0.2320
 9448SOL    HW239804   0.795   3.553   5.063 -0.1555  0.8807 -1.0961
 9449SOL     OW39805   2.225   1.711   0.363 -0.1894 -0.6573 -0.1748
 9449SOL    HW139806   2.281   1.661   0.304  0.6345 -0.1143  0.1502
 9449SOL    HW239807   2.137   1.684   0.336 -0.4600  0.1811 -0.1272
 9450SOL     OW39808   2.884   2.718   7.056 -0.2267 -0.9065 -0.9015
 9450SOL    HW139809   2.818   2.788   7.053 -1.8380 -2.3523  1.3835
 9450SOL    HW239810   2.866   2.665   6.979  0.0155 -0.1345 -1.4978
 9451SOL     OW39811   0.375   3.573  12.869 -0.2246  0.1465  0.0928
 9451SOL    HW139812   0.306   3.569  12.802 -1.7925 -1.2796  1.8024
 9451SOL    HW239813   0.387   3.668  12.867  3.0612 -0.2740 -0.1061
 9452SOL     OW39814   1.423   0.084   6.131  0.5555 -0.0857  0.1684
 9452SOL    HW139815   1.405   0.026   6.205  0.8224 -0.2331  0.1162
 9452SOL    HW239816   1.452   0.159   6.183 -2.4737  0.1079  1.5959
 9453SOL     OW39817   3.527   2.841   3.807 -0.0652 -0.1723 -0.3852
 9453SOL    HW139818   3.595   2.834   3.740  0.1563  1.6112 -0.3460
 9453SOL    HW239819   3.578   2.816   3.884  1.3431 -1.6536 -1.8001
 9454SOL     OW39820   2.021   1.230   8.175  0.1166  0.3392  0.3726
 9454SOL    HW139821   2.004   1.137   8.188 -2.0770  0.9774  2.2858
 9454SOL    HW239822   2.116   1.232   8.188  0.3339 -1.9592 -0.9325
 9455SOL     OW39823   4.156   3.373   4.581  0.7173 -0.2985  0.9490
 9455SOL    HW139824   4.213   3.377   4.505  1.2296 -0.4756  1.3186
 9455SOL    HW239825   4.078   3.328   4.549  0.9141  0.7746 -0.9683
 9456SOL     OW39826   1.787   3.355  16.196 -0.4182  0.0728  0.6022
 9456SOL    HW139827   1.772   3.444  16.164  0.3719  0.2773  0.8130
 9456SOL    HW239828   1.739   3.306  16.129 -0.5505  0.4607  0.4144
 9457SOL     OW39829   0.110   3.769   5.371  0.6714  0.1785 -0.1618
 9457SOL    HW139830   0.176   3.776   5.302 -0.2248 -1.3698 -1.1784
 9457SOL    HW239831   0.132   3.841   5.431  2.6524 -1.8453  1.5989
 9458SOL     OW39832   2.496   3.385   5.903  0.3964  0.1456 -1.0150
 9458SOL    HW139833   2.419   3.441   5.911 -0.4485 -1.2603  0.7138
 9458SOL    HW239834   2.484   3.337   5.821  0.5549 -0.6431 -0.5798
 9459SOL     OW39835   1.738   4.608   0.391  0.0275 -0.1289 -0.1737
 9459SOL    HW139836   1.651   4.581   0.363 -0.1907 -1.4839  1.7696
 9459SOL    HW239837   1.738   4.546   0.464  0.5081 -1.3433 -1.2234
 9460SOL     OW39838   0.681   3.153   5.623 -0.5968  0.3431  0.1164
 9460SOL    HW139839   0.720   3.193   5.546  0.8708  0.9006  1.1522
 9460SOL    HW239840   0.681   3.065   5.585 -1.9907 -0.5205  2.0849
 9461SOL     OW39841   2.398   2.708   4.605 -0.1255  0.5485  0.5828
 9461SOL    HW139842   2.487   2.712   4.640  0.6045 -1.5753 -1.0519
 9461SOL    HW239843   2.407   2.629   4.552  1.8056 -0.4449  2.3648
 9462SOL     OW39844   3.336   3.520   6.983  0.2014  0.5512  0.2326
 9462SOL    HW139845   3.347   3.446   7.044 -1.8109  0.3977  0.4220
 9462SOL    HW239846   3.288   3.476   6.912 -0.2668  3.0861 -1.0064
 9463SOL     OW39847   2.934   2.935  15.939  0.2802 -0.0901 -0.1362
 9463SOL    HW139848   2.959   2.860  15.993 -0.0867 -0.6496 -0.7383
 9463SOL    HW239849   2.934   2.906  15.848  2.8374 -2.1969  0.5287
 9464SOL     OW39850   0.877   0.911   1.680 -0.6687 -0.6199  0.6226
 9464SOL    HW139851   0.896   0.996   1.640  1.6089 -0.6583  1.6359
 9464SOL    HW239852   0.789   0.934   1.709 -0.8429 -1.4878  0.7765
 9465SOL     OW39853   3.421   1.726  16.965  0.0316 -0.1858 -0.7294
 9465SOL    HW139854   3.359   1.735  16.892 -1.7002  1.8841  0.9970
 9465SOL    HW239855   3.357   1.697  17.029  1.1955 -0.0079  0.5144
 9466SOL     OW39856   4.653   1.553  14.537 -0.3905 -0.2505 -0.0052
 9466SOL    HW139857   4.617   1.484  14.593 -0.9111  0.4403  0.5089
 9466SOL    HW239858   0.012   1.506  14.514 -0.6685 -0.8430  0.2420
 9467SOL     OW39859   2.702   3.506   2.519 -0.0396  0.1153 -0.2863
 9467SOL    HW139860   2.743   3.537   2.600  2.8314 -2.3375 -0.7953
 9467SOL    HW239861   2.778   3.473   2.471  1.1345  3.2745 -0.5618
 9468SOL     OW39862   0.880   2.185   3.070 -0.3818  0.0528 -0.0604
 9468SOL    HW139863   0.892   2.275   3.040 -0.9841 -0.4698 -1.8453
 9468SOL    HW239864   0.798   2.170   3.023  0.1606 -2.8091 -0.1340
 9469SOL     OW39865   3.485   2.686   6.162  0.1745 -0.1999  0.5127
 9469SOL    HW139866   3.467   2.751   6.094  2.6140 -0.2660 -0.1861
 9469SOL    HW239867   3.522   2.617   6.107  0.4955  0.4076 -0.0395
 9470SOL     OW39868   4.135   2.418   6.425  0.4643  0.3485 -0.2183
 9470SOL    HW139869   4.096   2.456   6.503  2.7238  0.1454  1.0113
 9470SOL    HW239870   4.225   2.400   6.452  0.5836  0.9049 -0.2391
 9471SOL     OW39871   2.011   1.839   2.368 -0.1994  0.0802 -0.1497
 9471SOL    HW139872   2.070   1.832   2.294  0.6273 -0.8964  0.6009
 9471SOL    HW239873   1.975   1.927   2.354  0.9010  0.3600 -1.1406
 9472SOL     OW39874   2.142   2.856  15.470  0.6735 -0.3307 -0.3236
 9472SOL    HW139875   2.173   2.910  15.542 -1.5334 -0.7510  0.9348
 9472SOL    HW239876   2.219   2.845  15.414  0.5977 -0.8392 -0.3247
 9473SOL     OW39877   1.134   2.044   8.783 -0.5801 -0.5680  0.3597
 9473SOL    HW139878   1.082   2.080   8.711 -0.1550 -0.7392 -0.0329
 9473SOL    HW239879   1.081   1.969   8.812  2.0715 -2.0259  1.3685
 9474SOL     OW39880   0.206   3.937   2.067  0.5572 -0.0282  0.2018
 9474SOL    HW139881   0.301   3.945   2.077  0.5509  0.7273 -0.4165
 9474SOL    HW239882   0.199   3.876   1.993 -1.1049  0.9263 -0.4195
 9475SOL     OW39883   4.101   0.976   5.889 -0.4847 -0.7896  0.5624
 9475SOL    HW139884   4.189   1.007   5.869  0.0306 -1.2261  2.1134
 9475SOL    HW239885   4.097   0.902   5.828 -0.8771 -1.2624  1.1571
 9476SOL     OW39886   1.380   0.745   4.784 -0.8695  0.1578 -0.6696
 9476SOL    HW139887   1.300   0.796   4.799  0.0768  1.8713 -1.4582
 9476SOL    HW239888   1.411   0.742   4.875 -0.2590 -1.9081 -0.9457
 9477SOL     OW39889   0.082   1.863   8.636 -0.2977  0.3474  0.3977
 9477SOL    HW139890   0.026   1.937   8.657 -1.0230  0.8267 -3.2924
 9477SOL    HW239891   0.070   1.810   8.715  1.2164 -1.5042 -0.6056
 9478SOL     OW39892   2.416   1.544   4.625  0.0852  0.1668  0.3073
 9478SOL    HW139893   2.366   1.614   4.583 -0.0965  0.7622  1.5262
 9478SOL    HW239894   2.349   1.477   4.638 -0.0083  0.2376  0.1871
 9479SOL     OW39895   0.620   0.559   3.442 -0.4198  0.2662  0.5280
 9479SOL    HW139896   0.657   0.641   3.474 -0.4152  0.8372 -0.9482
 9479SOL    HW239897   0.572   0.539   3.523  2.6996 -1.4426  1.9376
 9480SOL     OW39898   1.316   2.251  12.587  0.1752 -0.2386 -0.6427
 9480SOL    HW139899   1.224   2.276  12.595 -0.4244 -2.8867  0.6756
 9480SOL    HW239900   1.320   2.221  12.496 -0.9020 -0.7842 -0.4993
 9481SOL     OW39901   3.712   2.477   5.782  0.2237 -0.8547  0.3055
 9481SOL    HW139902   3.674   2.507   5.864  2.0739  1.1273  0.4661
 9481SOL    HW239903   3.796   2.523   5.783  1.3074 -2.7800 -1.2398
 9482SOL     OW39904   3.982   0.992   8.284 -0.6303  0.0583  0.5044
 9482SOL    HW139905   3.951   1.031   8.202  1.3409 -1.8484 -1.1391
 9482SOL    HW239906   4.016   0.909   8.253 -0.3964 -0.4464  2.1529
 9483SOL     OW39907   0.796   4.619  10.395  0.0550  0.1256  0.1472
 9483SOL    HW139908   0.746   4.585  10.470 -0.1688 -1.3412 -0.6538
 9483SOL    HW239909   0.734   4.685  10.366 -0.1748  0.8816  2.3760
 9484SOL     OW39910   2.525   0.364  12.559 -0.2363 -0.1486 -0.1125
 9484SOL    HW139911   2.431   0.369  12.543 -0.1129 -2.5227 -1.6190
 9484SOL    HW239912   2.542   0.272  12.537 -0.0996  0.0183 -0.6880
 9485SOL     OW39913   0.812   0.483   4.260 -0.2314  0.6610 -0.2090
 9485SOL    HW139914   0.770   0.415   4.207 -0.2015 -0.9229  1.8275
 9485SOL    HW239915   0.803   0.442   4.346  0.2876 -1.2058 -1.0540
 9486SOL     OW39916   0.910   4.622   4.598  0.3300 -0.3306  0.4503
 9486SOL    HW139917   0.863   4.569   4.534  0.8143 -0.9565  0.6109
 9486SOL    HW239918   0.960   4.685   4.547  1.9130  0.4742  2.9514
 9487SOL     OW39919   1.188   0.829   3.931  0.0518 -0.0335  0.1422
 9487SOL    HW139920   1.232   0.747   3.952  0.0670 -0.7422 -2.6849
 9487SOL    HW239921   1.119   0.797   3.873 -1.7481  1.0981  1.6390
 9488SOL     OW39922   0.540   4.633   6.922 -0.0307  0.2172 -0.6975
 9488SOL    HW139923   0.491   4.688   6.984 -0.4230 -1.1219  0.1898
 9488SOL    HW239924   0.484   4.556   6.932 -0.1584  0.1319 -2.0747
 9489SOL     OW39925   0.802   2.947   3.351  0.5555  0.0862  0.3949
 9489SOL    HW139926   0.870   2.949   3.419 -0.0966 -0.7357  1.0685
 9489SOL    HW239927   0.796   2.852   3.345  1.4722  0.1596 -1.7999
 9490SOL     OW39928   4.544   0.518   7.884  0.7362 -0.2809 -0.2635
 9490SOL    HW139929   4.467   0.561   7.846  0.1748 -2.0068 -1.0844
 9490SOL    HW239930   4.487   0.466   7.940  0.6476  0.6066  0.4669
 9491SOL     OW39931   0.459   1.941   4.994  0.0428  0.5938 -0.0718
 9491SOL    HW139932   0.368   1.920   5.011  0.9256 -1.9545  1.5519
 9491SOL    HW239933   0.500   1.879   5.055  3.1026  1.1888 -1.4824
 9492SOL     OW39934   0.463   0.578   2.497  0.0769  0.1543 -0.3254
 9492SOL    HW139935   0.445   0.668   2.525 -3.5879 -0.6004 -0.2421
 9492SOL    HW239936   0.487   0.543   2.583 -1.0418 -2.1197 -0.9489
 9493SOL     OW39937   1.000   0.753  15.925 -0.3308 -0.2015  0.5501
 9493SOL    HW139938   0.995   0.694  16.000 -0.7182  1.4622  1.8433
 9493SOL    HW239939   1.092   0.770  15.907 -1.3126  2.1038 -2.2007
 9494SOL     OW39940   1.513   3.961   8.432 -0.6598  0.3459 -0.4430
 9494SOL    HW139941   1.473   4.032   8.382  0.4789  0.3118 -1.4052
 9494SOL    HW239942   1.514   3.987   8.524 -0.8261  0.0880 -0.3659
 9495SOL     OW39943   1.781   2.702   6.589 -0.2644 -0.1055 -0.1886
 9495SOL    HW139944   1.723   2.692   6.514 -0.0605 -2.3251 -0.0571
 9495SOL    HW239945   1.739   2.638   6.646 -1.4690 -1.1709 -2.2905
 9496SOL     OW39946   1.317   0.067  15.390 -0.3546 -0.1441  0.9670
 9496SOL    HW139947   1.354   0.083  15.477 -3.7976 -2.3302  2.7916
 9496SOL    HW239948   1.249   0.134  15.394  0.0837  0.3626  0.0769
 9497SOL     OW39949   0.756   2.380  13.336  0.0486  0.4157 -0.1964
 9497SOL    HW139950   0.824   2.445  13.321 -0.6172  1.3987  1.0572
 9497SOL    HW239951   0.804   2.297  13.340 -0.5938  0.0559  0.1268
 9498SOL     OW39952   0.127   3.430   5.573  0.7772 -0.2049 -0.4024
 9498SOL    HW139953   0.169   3.449   5.489 -1.5135 -2.2825 -2.0513
 9498SOL    HW239954   0.150   3.340   5.597  0.1603 -0.2062  0.1814
 9499SOL     OW39955   4.695   4.126  16.493  0.5740 -0.8079  0.8127
 9499SOL    HW139956   0.046   4.155  16.548  0.3741  2.3256 -0.5727
 9499SOL    HW239957   4.652   4.058  16.545 -0.1372 -0.1560  1.0760
 9500SOL     OW39958   1.069   3.660   4.286  0.1125  0.6300  0.0998
 9500SOL    HW139959   0.986   3.648   4.241  1.5198 -0.3402 -2.2352
 9500SOL    HW239960   1.045   3.697   4.371  0.4791  2.1518 -0.4511
 9501SOL     OW39961   1.896   3.167   7.303 -0.6809 -0.0386 -0.2310
 9501SOL    HW139962   1.859   3.193   7.218  0.1686 -0.8642 -0.8596
 9501SOL    HW239963   1.892   3.255   7.342 -1.1800 -0.9510  1.7683
 9502SOL     OW39964   3.033   3.226   4.619  0.4789  0.5140 -0.5786
 9502SOL    HW139965   3.021   3.131   4.617 -0.9412  0.6674  1.5344
 9502SOL    HW239966   2.960   3.241   4.558 -0.2490 -0.2747  0.0919
 9503SOL     OW39967   0.077   3.072  12.399 -0.1647 -0.2586  0.3786
 9503SOL    HW139968   0.103   3.138  12.335 -1.0829 -0.7329 -0.4790
 9503SOL    HW239969   0.099   3.124  12.476  0.0309  0.3308 -0.0775
 9504SOL     OW39970   4.332   1.825  14.269 -0.3862 -0.2774 -0.2678
 9504SOL    HW139971   4.278   1.836  14.192  2.2771  2.5915 -1.7332
 9504SOL    HW239972   4.414   1.801  14.227  0.6495 -0.4414  1.8456
 9505SOL     OW39973   3.928   0.458   4.699 -0.4131 -0.5719 -0.2345
 9505SOL    HW139974   3.958   0.512   4.626 -0.5110 -1.1917 -0.7231
 9505SOL    HW239975   4.014   0.448   4.739 -0.6854  0.5893  0.6666
 9506SOL     OW39976   0.643   3.002   6.327  0.1237  0.5345  0.7131
 9506SOL    HW139977   0.712   3.044   6.379 -0.4403  1.0473  1.0506
 9506SOL    HW239978   0.679   3.031   6.243 -2.2456  1.4401 -0.0066
 9507SOL     OW39979   3.670   2.310  14.428 -0.1448 -0.2997  0.0601
 9507SOL    HW139980   3.624   2.252  14.367 -0.0331  0.5525 -0.8350
 9507SOL    HW239981   3.688   2.383  14.369  0.2126 -0.4989 -0.0763
 9508SOL     OW39982   3.960   2.817   8.144 -0.5496 -0.9605  0.2028
 9508SOL    HW139983   3.906   2.773   8.078 -2.2372 -1.9351  2.2207
 9508SOL    HW239984   4.022   2.870   8.095 -0.1903 -1.1359  0.4641
 9509SOL     OW39985   1.432   1.256  15.250  0.1348 -0.7905  0.2172
 9509SOL    HW139986   1.467   1.257  15.339 -2.4014 -0.6211  1.2239
 9509SOL    HW239987   1.385   1.339  15.262 -0.8179 -1.2682 -0.2678
 9510SOL     OW39988   1.378   0.601   7.757 -0.2207  0.1871  0.1482
 9510SOL    HW139989   1.337   0.612   7.842  0.6551 -0.8798  0.7158
 9510SOL    HW239990   1.470   0.621   7.777 -0.4610 -1.1414  2.5845
 9511SOL     OW39991   3.551   1.584   6.780 -0.1682  0.5849  0.8873
 9511SOL    HW139992   3.549   1.510   6.841  2.0149 -0.2063  0.0108
 9511SOL    HW239993   3.646   1.595   6.769 -0.5683  0.3137 -2.7753
 9512SOL     OW39994   2.545   3.901   5.463  0.2228 -0.0905 -0.2744
 9512SOL    HW139995   2.638   3.915   5.483  0.8815 -2.5743 -1.5804
 9512SOL    HW239996   2.508   3.981   5.502  1.1680  0.3222 -0.2019
 9513SOL     OW39997   0.541   2.205   5.004 -0.0160  0.1314 -0.4945
 9513SOL    HW139998   0.508   2.115   4.997  0.3808 -0.2295  2.4275
 9513SOL    HW239999   0.566   2.213   5.096 -0.2020 -3.7750 -0.0862
 9514SOL     OW40000   3.907   3.791   8.456  0.6576 -0.0437 -0.4129
 9514SOL    HW140001   3.946   3.720   8.507  1.7964  0.5484 -0.4732
 9514SOL    HW240002   3.911   3.763   8.365  0.7701 -1.3217 -0.0126
 9515SOL     OW40003   1.954   4.315  15.132 -0.1955 -0.5242 -0.1271
 9515SOL    HW140004   1.987   4.226  15.120  3.7100  1.0234 -0.7359
 9515SOL    HW240005   2.037   4.363  15.131 -0.7852  0.5117  0.8038
 9516SOL     OW40006   4.700   2.559   4.901 -0.3423  0.1729  0.6474
 9516SOL    HW140007   4.640   2.620   4.858  0.0849  1.4580  1.8800
 9516SOL    HW240008   0.050   2.559   4.837 -0.4090  1.0077  0.5735
 9517SOL     OW40009   3.615   3.773   2.827 -0.2622  0.3095  0.1511
 9517SOL    HW140010   3.637   3.857   2.788 -1.3066 -0.1632 -1.4640
 9517SOL    HW240011   3.532   3.785   2.874  0.3602 -1.1944  1.6521
 9518SOL     OW40012   2.623   3.799   7.535 -0.4287  0.2973 -0.4011
 9518SOL    HW140013   2.649   3.877   7.486 -1.0311  0.9319  0.2925
 9518SOL    HW240014   2.697   3.793   7.595  0.6513 -2.7842 -2.0255
 9519SOL     OW40015   0.447   4.026   2.751  0.0455  0.2064 -0.0258
 9519SOL    HW140016   0.394   3.955   2.715  2.0232 -0.7560 -1.0395
 9519SOL    HW240017   0.537   3.992   2.749 -0.6189 -1.5897  0.5842
 9520SOL     OW40018   4.113   4.710   4.397 -0.6872 -1.3787 -0.0470
 9520SOL    HW140019   4.165   4.631   4.384 -2.9226 -2.6779 -1.0672
 9520SOL    HW240020   4.039   4.676   4.447 -1.1030  0.2343  0.4230
 9521SOL     OW40021   4.334   0.142  16.943 -0.3247  0.0781 -0.0853
 9521SOL    HW140022   4.395   0.189  16.886 -0.7111  0.2446 -0.3611
 9521SOL    HW240023   4.296   0.209  17.001 -0.0332 -0.7465  1.0575
 9522SOL     OW40024   2.843   4.625   5.286 -0.2622  0.1349 -0.0252
 9522SOL    HW140025   2.818   4.645   5.376  0.5738  2.1735 -0.2588
 9522SOL    HW240026   2.877   4.700   5.238  0.5004  0.3506  0.8751
 9523SOL     OW40027   3.023   4.007   8.420  0.1981  0.2103 -0.3564
 9523SOL    HW140028   2.950   3.960   8.459 -1.3037  1.7505 -1.3070
 9523SOL    HW240029   3.060   4.065   8.486 -2.7433 -0.7236  2.1079
 9524SOL     OW40030   0.840   3.270   4.088  0.5665  0.1369 -0.0471
 9524SOL    HW140031   0.760   3.289   4.038 -0.5582 -2.3737  0.8435
 9524SOL    HW240032   0.899   3.316   4.028 -0.0435  0.5368 -0.3446
 9525SOL     OW40033   1.787   0.082   2.725 -0.0841 -0.0022 -0.8136
 9525SOL    HW140034   1.696   0.060   2.708  0.6235 -1.4227 -2.6351
 9525SOL    HW240035   1.806   0.117   2.639  4.9833  0.2614  0.4107
 9526SOL     OW40036   4.293   2.771  13.050 -0.3033  0.3556  0.1708
 9526SOL    HW140037   4.332   2.844  13.098  0.2300  0.3784 -0.2908
 9526SOL    HW240038   4.342   2.698  13.087  0.5238  0.2750 -1.1019
 9527SOL     OW40039   4.024   3.045  15.693 -0.3453 -0.2512 -0.3154
 9527SOL    HW140040   4.113   3.076  15.675 -0.2710 -0.5412 -0.4534
 9527SOL    HW240041   4.051   2.954  15.684  0.8544  0.1658 -0.8493
 9528SOL     OW40042   3.602   3.428  13.170  0.4460 -0.3758 -0.4473
 9528SOL    HW140043   3.623   3.419  13.263 -0.3635 -1.9177 -0.4021
 9528SOL    HW240044   3.566   3.339  13.165  0.5473 -0.3941 -0.8888
 9529SOL     OW40045   4.699   4.317   2.214  0.1057  0.1334 -0.1812
 9529SOL    HW140046   4.708   4.307   2.119  0.2754 -1.2356 -0.0195
 9529SOL    HW240047   0.035   4.254   2.256 -1.1363 -1.2959 -0.6481
 9530SOL     OW40048   0.742   2.825   8.814  0.2284  0.3252 -0.2798
 9530SOL    HW140049   0.680   2.880   8.862 -0.8270 -0.4193 -0.7960
 9530SOL    HW240050   0.832   2.848   8.838  0.0595  1.1515 -0.4318
 9531SOL     OW40051   0.754   0.690   6.814  0.7369 -0.2283 -0.1850
 9531SOL    HW140052   0.679   0.631   6.818 -0.9324  1.8275 -1.2695
 9531SOL    HW240053   0.815   0.637   6.762  0.6012 -0.9472  0.3936
 9532SOL     OW40054   3.137   1.953  12.435 -0.3853  0.2953  0.1272
 9532SOL    HW140055   3.075   1.993  12.374  0.0804  1.7846  0.6117
 9532SOL    HW240056   3.082   1.919  12.506  0.6988  1.5699  1.5754
 9533SOL     OW40057   1.025   3.956  10.341 -0.2396  0.0858 -0.3696
 9533SOL    HW140058   1.024   3.986  10.432 -0.2401  0.1768 -0.3998
 9533SOL    HW240059   0.935   3.924  10.337  1.6017 -5.0181 -0.8981
 9534SOL     OW40060   1.528   1.526   8.900  0.1393 -0.7444  0.4216
 9534SOL    HW140061   1.460   1.527   8.833  1.5592  0.6118 -0.9911
 9534SOL    HW240062   1.605   1.505   8.847  0.3332  1.6706 -0.2569
 9535SOL     OW40063   1.449   3.040   8.555 -0.0415 -0.2066  0.2283
 9535SOL    HW140064   1.508   3.041   8.630 -1.8495  1.3662  1.6478
 9535SOL    HW240065   1.518   3.030   8.490 -0.9154 -1.9326 -0.4411
 9536SOL     OW40066   4.217   2.204   0.651 -0.1902 -0.3048 -0.1510
 9536SOL    HW140067   4.124   2.181   0.647 -0.2777  0.1418 -0.6234
 9536SOL    HW240068   4.222   2.293   0.684 -2.1891  0.4382 -1.8292
 9537SOL     OW40069   2.139   1.743   9.213  0.1257 -0.6112 -0.0566
 9537SOL    HW140070   2.142   1.711   9.303 -0.3146  0.2315  0.2468
 9537SOL    HW240071   2.138   1.652   9.182 -0.4571  0.7259 -3.9664
 9538SOL     OW40072   3.531   1.784   5.317  0.0599 -0.4941  0.0265
 9538SOL    HW140073   3.499   1.811   5.404 -2.1123  0.1432 -0.9691
 9538SOL    HW240074   3.625   1.786   5.336  0.1742  0.3827 -0.6123
 9539SOL     OW40075   0.818   1.161  12.757 -0.5924  0.1811 -0.2438
 9539SOL    HW140076   0.779   1.247  12.740 -2.1380 -0.1869  1.3879
 9539SOL    HW240077   0.875   1.143  12.682 -1.4306  1.0653 -1.0879
 9540SOL     OW40078   2.623   1.996   5.840 -0.0971  0.1895 -0.2203
 9540SOL    HW140079   2.655   1.963   5.924  1.8894 -0.4006 -1.2178
 9540SOL    HW240080   2.659   1.929   5.782 -4.6304 -1.3751 -1.2759
 9541SOL     OW40081   0.879   0.864  12.773 -0.2582 -0.7158 -0.0471
 9541SOL    HW140082   0.800   0.835  12.819  1.4550 -2.3503  1.8408
 9541SOL    HW240083   0.938   0.880  12.846  0.3193  1.3433 -0.9624
 9542SOL     OW40084   1.196   2.634  11.044  0.3541  0.4352 -0.0943
 9542SOL    HW140085   1.127   2.624  10.978  0.4540  2.9719 -0.5720
 9542SOL    HW240086   1.246   2.558  11.013 -1.6567 -0.8522 -0.1786
 9543SOL     OW40087   4.296   4.022   1.261  0.0783  0.1462 -0.3627
 9543SOL    HW140088   4.242   4.009   1.183 -1.0051  0.4819  0.3173
 9543SOL    HW240089   4.367   3.961   1.240  0.4253 -0.2572  1.9299
 9544SOL     OW40090   4.295   0.275   5.644 -0.3179  0.3429 -0.7652
 9544SOL    HW140091   4.292   0.285   5.739  3.6926  3.9946 -1.0317
 9544SOL    HW240092   4.218   0.220   5.629 -0.3243 -0.3288  1.6561
 9545SOL     OW40093   2.905   3.608   4.534  0.2111  0.6440  0.1774
 9545SOL    HW140094   2.943   3.644   4.614 -0.6678 -0.0470  0.9048
 9545SOL    HW240095   2.867   3.525   4.560  0.2955  0.3900 -0.4979
 9546SOL     OW40096   2.813   3.762   0.489 -0.2521  0.1615 -0.0544
 9546SOL    HW140097   2.838   3.732   0.402  1.2575 -1.7075  1.0264
 9546SOL    HW240098   2.753   3.694   0.520 -1.7526  0.9780 -1.1488
 9547SOL     OW40099   3.202   3.572   8.774 -0.0816  0.3692 -0.3555
 9547SOL    HW140100   3.263   3.499   8.766 -1.4938 -0.7227 -1.2728
 9547SOL    HW240101   3.188   3.570   8.869  0.0515  0.8809 -0.3288
 9548SOL     OW40102   1.144   3.294   4.241  0.8973 -0.2995 -0.1293
 9548SOL    HW140103   1.078   3.362   4.225  2.4012  1.0875 -0.4525
 9548SOL    HW240104   1.088   3.232   4.287  0.8717  0.2636  0.5880
 9549SOL     OW40105   0.982   2.745   5.711  0.4331  0.6835  0.2174
 9549SOL    HW140106   1.034   2.790   5.778  1.3434  1.0419 -0.7301
 9549SOL    HW240107   1.010   2.657   5.734 -0.7547  0.7800  1.9948
 9550SOL     OW40108   4.114   2.968   1.892  0.1602  0.1439  0.3765
 9550SOL    HW140109   4.092   2.982   1.800  1.2305  1.0075  0.2613
 9550SOL    HW240110   4.039   2.926   1.936 -0.4074 -0.1811 -0.8872
 9551SOL     OW40111   1.142   0.129  16.751 -0.1368 -0.1946  0.2859
 9551SOL    HW140112   1.109   0.164  16.834  1.0494 -1.5586  1.3563
 9551SOL    HW240113   1.065   0.118  16.696 -1.1255  2.9393  1.0167
 9552SOL     OW40114   4.475   1.395   7.595  0.1128 -0.2601  0.1642
 9552SOL    HW140115   4.392   1.417   7.636  0.3864  2.5418 -0.7437
 9552SOL    HW240116   4.512   1.337   7.662  0.2312 -1.4656 -0.9334
 9553SOL     OW40117   1.759   2.251  16.057  0.4009 -0.1308 -0.0959
 9553SOL    HW140118   1.683   2.292  16.099 -1.8123 -1.4477 -2.8103
 9553SOL    HW240119   1.828   2.276  16.118  1.6145 -1.6114 -0.8470
 9554SOL     OW40120   3.064   2.700   3.198  0.2001  0.2001  0.0650
 9554SOL    HW140121   3.056   2.700   3.293 -0.8458 -0.0064 -0.0199
 9554SOL    HW240122   3.107   2.615   3.185  0.5057  0.6048 -1.5677
 9555SOL     OW40123   2.560   3.058   9.334  0.4176 -0.1810  0.3650
 9555SOL    HW140124   2.561   2.965   9.358 -3.4298  0.2872  2.3707
 9555SOL    HW240125   2.468   3.068   9.308  0.1733 -2.1111  0.4547
 9556SOL     OW40126   0.325   1.967   6.104 -0.0322 -0.2592 -0.4069
 9556SOL    HW140127   0.282   1.910   6.167  3.0024 -2.9270 -0.7787
 9556SOL    HW240128   0.299   2.054   6.134 -1.2733 -0.2973 -1.3813
 9557SOL     OW40129   3.174   3.874   3.620 -0.6275 -0.2178 -0.1895
 9557SOL    HW140130   3.225   3.906   3.694 -1.1142 -1.0114  0.4868
 9557SOL    HW240131   3.093   3.905   3.660 -1.7561 -1.8550 -1.2218
 9558SOL     OW40132   2.075   1.198   2.471  0.9487  0.1287 -0.1014
 9558SOL    HW140133   2.049   1.248   2.393  2.0352 -0.6622 -0.9642
 9558SOL    HW240134   2.014   1.125   2.464 -1.6646  2.3441 -0.6996
 9559SOL     OW40135   2.747   2.360   3.786 -0.0541  0.3135  0.1814
 9559SOL    HW140136   2.834   2.330   3.761 -0.6343  0.3824 -1.8837
 9559SOL    HW240137   2.694   2.293   3.742 -0.4092  0.6978  0.0288
 9560SOL     OW40138   4.011   0.457  13.427 -0.6277  0.5726 -0.0880
 9560SOL    HW140139   3.958   0.443  13.505 -2.4017  0.2932 -1.3585
 9560SOL    HW240140   4.049   0.370  13.412 -2.0743  0.2229 -1.6493
 9561SOL     OW40141   3.574   0.623   5.632  0.4305  0.1784 -0.0210
 9561SOL    HW140142   3.581   0.669   5.548  3.2147  1.8300  1.1099
 9561SOL    HW240143   3.478   0.619   5.628  0.2992  0.1150  3.0405
 9562SOL     OW40144   2.761   1.414   2.926  0.2539  0.4934 -0.5686
 9562SOL    HW140145   2.671   1.384   2.921  1.1621 -1.9184 -2.0834
 9562SOL    HW240146   2.760   1.493   2.872  2.9507  0.6255 -0.4129
 9563SOL     OW40147   3.489   4.207   5.478 -0.3865  0.2095 -0.1727
 9563SOL    HW140148   3.554   4.277   5.486 -0.2893  0.0866  0.1408
 9563SOL    HW240149   3.428   4.251   5.419  0.1864 -0.3234 -1.1710
 9564SOL     OW40150   4.121   4.047  15.291  0.4798 -0.1460  0.0629
 9564SOL    HW140151   4.191   4.097  15.334 -0.3766 -0.3211  1.6846
 9564SOL    HW240152   4.097   3.988  15.363  1.2839  1.9550  2.0581
 9565SOL     OW40153   1.419   0.834  10.120  0.6292 -0.6699 -0.3295
 9565SOL    HW140154   1.418   0.825  10.025  0.5390  0.3488 -0.4204
 9565SOL    HW240155   1.504   0.790  10.134  1.1860  1.6698  3.7992
   4.72080   4.72080  17.68567
